256-Lipid DPPC Bilayer in water
35880
    1DPPC    C1    1   5.753   5.551   5.427
    1DPPC    C2    2   5.765   5.709   5.262
    1DPPC    C3    3   5.627   5.529   5.210
    1DPPC    N4    4   5.671   5.614   5.322
    1DPPC    C5    5   5.564   5.687   5.391
    1DPPC    C6    6   5.475   5.785   5.316
    1DPPC    O7    7   5.530   5.912   5.281
    1DPPC    P8    8   5.407   6.015   5.274
    1DPPC    O9    9   5.492   6.135   5.264
    1DPPC   O10   10   5.334   5.976   5.397
    1DPPC   O11   11   5.324   5.988   5.138
    1DPPC   C12   12   5.350   6.099   5.052
    1DPPC   C13   13   5.306   6.077   4.907
    1DPPC   O14   14   5.171   6.117   4.879
    1DPPC   C15   15   5.153   6.249   4.855
    1DPPC   O16   16   5.240   6.324   4.900
    1DPPC   C17   17   5.017   6.297   4.805
    1DPPC   C18   18   5.021   6.415   4.708
    1DPPC   C19   19   4.906   6.424   4.608
    1DPPC   C20   20   4.908   6.547   4.516
    1DPPC   C21   21   5.023   6.531   4.416
    1DPPC   C22   22   5.018   6.633   4.302
    1DPPC   C23   23   5.128   6.580   4.209
    1DPPC   C24   24   5.120   6.662   4.081
    1DPPC   C25   25   5.202   6.583   3.978
    1DPPC   C26   26   5.186   6.659   3.846
    1DPPC   C27   27   5.245   6.590   3.723
    1DPPC   C28   28   5.212   6.667   3.594
    1DPPC   C29   29   5.270   6.598   3.471
    1DPPC   C30   30   5.220   6.648   3.336
    1DPPC   C31   31   5.247   6.799   3.327
    1DPPC   C32   32   5.353   5.937   4.865
    1DPPC   O33   33   5.447   5.946   4.759
    1DPPC   C34   34   5.536   5.843   4.746
    1DPPC   O35   35   5.536   5.760   4.837
    1DPPC   C36   36   5.627   5.841   4.623
    1DPPC   C37   37   5.609   5.708   4.550
    1DPPC   C38   38   5.696   5.697   4.425
    1DPPC   C39   39   5.840   5.695   4.478
    1DPPC   C40   40   5.946   5.690   4.368
    1DPPC   C41   41   5.939   5.565   4.281
    1DPPC   C42   42   5.992   5.603   4.142
    1DPPC   C43   43   5.977   5.479   4.054
    1DPPC   C44   44   6.032   5.508   3.914
    1DPPC   C45   45   6.009   5.399   3.809
    1DPPC   C46   46   6.050   5.463   3.676
    1DPPC   C47   47   5.962   5.579   3.628
    1DPPC   C48   48   6.026   5.646   3.506
    1DPPC   C49   49   5.935   5.746   3.434
    1DPPC   C50   50   5.910   5.856   3.538
    2DPPC    C1   51   3.417   0.830   1.574
    2DPPC    C2   52   3.573   0.938   1.445
    2DPPC    C3   53   3.368   1.044   1.501
    2DPPC    N4   54   3.478   0.963   1.555
    2DPPC    C5   55   3.527   1.014   1.683
    2DPPC    C6   56   3.591   1.153   1.683
    2DPPC    O7   57   3.612   1.201   1.816
    2DPPC    P8   58   3.706   1.331   1.823
    2DPPC    O9   59   3.642   1.421   1.725
    2DPPC   O10   60   3.849   1.296   1.838
    2DPPC   O11   61   3.655   1.371   1.971
    2DPPC   C12   62   3.725   1.299   2.074
    2DPPC   C13   63   3.707   1.337   2.221
    2DPPC   O14   64   3.812   1.273   2.296
    2DPPC   C15   65   3.936   1.321   2.270
    2DPPC   O16   66   3.951   1.439   2.239
    2DPPC   C17   67   4.050   1.239   2.330
    2DPPC   C18   68   4.017   1.173   2.464
    2DPPC   C19   69   4.118   1.063   2.496
    2DPPC   C20   70   4.096   1.002   2.635
    2DPPC   C21   71   4.218   0.912   2.653
    2DPPC   C22   72   4.194   0.835   2.783
    2DPPC   C23   73   4.149   0.923   2.900
    2DPPC   C24   74   4.125   0.822   3.013
    2DPPC   C25   75   4.097   0.902   3.140
    2DPPC   C26   76   3.994   0.828   3.225
    2DPPC   C27   77   3.939   0.931   3.325
    2DPPC   C28   78   3.858   0.850   3.426
    2DPPC   C29   79   3.851   0.942   3.548
    2DPPC   C30   80   3.771   0.873   3.658
    2DPPC   C31   81   3.627   0.859   3.608
    2DPPC   C32   82   3.563   1.300   2.255
    2DPPC   O33   83   3.538   1.340   2.390
    2DPPC   C34   84   3.411   1.319   2.434
    2DPPC   O35   85   3.317   1.300   2.357
    2DPPC   C36   86   3.382   1.358   2.579
    2DPPC   C37   87   3.250   1.307   2.638
    2DPPC   C38   88   3.240   1.350   2.784
    2DPPC   C39   89   3.368   1.309   2.857
    2DPPC   C40   90   3.361   1.394   2.984
    2DPPC   C41   91   3.359   1.543   2.949
    2DPPC   C42   92   3.395   1.642   3.060
    2DPPC   C43   93   3.352   1.784   3.023
    2DPPC   C44   94   3.200   1.788   3.004
    2DPPC   C45   95   3.151   1.932   2.988
    2DPPC   C46   96   3.015   1.933   2.918
    2DPPC   C47   97   2.980   2.075   2.874
    2DPPC   C48   98   2.854   2.047   2.793
    2DPPC   C49   99   2.729   1.990   2.860
    2DPPC   C50  100   2.627   1.950   2.753
    3DPPC    C1  101   6.385   4.473   5.023
    3DPPC    C2  102   6.409   4.483   5.263
    3DPPC    C3  103   6.479   4.300   5.145
    3DPPC    N4  104   6.474   4.447   5.137
    3DPPC    C5  105   6.595   4.526   5.110
    3DPPC    C6  106   6.596   4.671   5.158
    3DPPC    O7  107   6.508   4.761   5.091
    3DPPC    P8  108   6.521   4.910   5.152
    3DPPC    O9  109   6.570   4.892   5.290
    3DPPC   O10  110   6.404   4.992   5.111
    3DPPC   O11  111   6.655   4.953   5.073
    3DPPC   C12  112   6.611   4.977   4.939
    3DPPC   C13  113   6.723   5.026   4.846
    3DPPC   O14  114   6.669   5.069   4.720
    3DPPC   C15  115   6.734   5.151   4.633
    3DPPC   O16  116   6.818   5.226   4.683
    3DPPC   C17  117   6.670   5.173   4.496
    3DPPC   C18  118   6.756   5.158   4.371
    3DPPC   C19  119   6.691   5.137   4.234
    3DPPC   C20  120   6.771   5.210   4.126
    3DPPC   C21  121   6.742   5.136   3.995
    3DPPC   C22  122   6.809   5.201   3.874
    3DPPC   C23  123   6.774   5.118   3.751
    3DPPC   C24  124   6.821   4.973   3.768
    3DPPC   C25  125   6.768   4.888   3.653
    3DPPC   C26  126   6.834   4.751   3.637
    3DPPC   C27  127   6.777   4.661   3.527
    3DPPC   C28  128   6.822   4.515   3.537
    3DPPC   C29  129   6.782   4.458   3.673
    3DPPC   C30  130   6.831   4.315   3.694
    3DPPC   C31  131   6.754   4.232   3.591
    3DPPC   C32  132   6.818   4.906   4.849
    3DPPC   O33  133   6.761   4.803   4.767
    3DPPC   C34  134   6.833   4.690   4.748
    3DPPC   O35  135   6.947   4.687   4.795
    3DPPC   C36  136   6.796   4.583   4.645
    3DPPC   C37  137   6.695   4.490   4.711
    3DPPC   C38  138   6.656   4.371   4.622
    3DPPC   C39  139   6.610   4.431   4.489
    3DPPC   C40  140   6.595   4.320   4.384
    3DPPC   C41  141   6.591   4.372   4.240
    3DPPC   C42  142   6.720   4.449   4.212
    3DPPC   C43  143   6.742   4.497   4.068
    3DPPC   C44  144   6.797   4.638   4.046
    3DPPC   C45  145   6.948   4.644   4.071
    3DPPC   C46  146   7.002   4.786   4.084
    3DPPC   C47  147   7.143   4.793   4.142
    3DPPC   C48  148   7.146   4.748   4.288
    3DPPC   C49  149   7.107   4.863   4.382
    3DPPC   C50  150   7.110   4.821   4.529
    4DPPC    C1  151   8.476   4.065   1.560
    4DPPC    C2  152   8.384   4.193   1.416
    4DPPC    C3  153   8.291   3.967   1.420
    4DPPC    N4  154   8.343   4.079   1.500
    4DPPC    C5  155   8.247   4.123   1.603
    4DPPC    C6  156   8.109   4.158   1.547
    4DPPC    O7  157   8.088   4.263   1.452
    4DPPC    P8  158   7.936   4.258   1.398
    4DPPC    O9  159   7.886   4.119   1.409
    4DPPC   O10  160   7.929   4.339   1.275
    4DPPC   O11  161   7.850   4.334   1.510
    4DPPC   C12  162   7.913   4.462   1.527
    4DPPC   C13  163   7.827   4.576   1.472
    4DPPC   O14  164   7.884   4.705   1.502
    4DPPC   C15  165   7.815   4.815   1.463
    4DPPC   O16  166   7.730   4.802   1.374
    4DPPC   C17  167   7.871   4.948   1.511
    4DPPC   C18  168   7.788   5.003   1.627
    4DPPC   C19  169   7.763   4.905   1.742
    4DPPC   C20  170   7.890   4.881   1.824
    4DPPC   C21  171   7.845   4.806   1.950
    4DPPC   C22  172   7.766   4.916   2.022
    4DPPC   C23  173   7.709   4.857   2.151
    4DPPC   C24  174   7.643   4.968   2.233
    4DPPC   C25  175   7.565   4.911   2.351
    4DPPC   C26  176   7.442   4.839   2.294
    4DPPC   C27  177   7.356   4.773   2.402
    4DPPC   C28  178   7.286   4.875   2.492
    4DPPC   C29  179   7.219   4.787   2.598
    4DPPC   C30  180   7.120   4.884   2.662
    4DPPC   C31  181   7.001   4.798   2.704
    4DPPC   C32  182   7.688   4.544   1.529
    4DPPC   O33  183   7.674   4.566   1.669
    4DPPC   C34  184   7.563   4.509   1.722
    4DPPC   O35  185   7.511   4.409   1.672
    4DPPC   C36  186   7.522   4.556   1.861
    4DPPC   C37  187   7.469   4.435   1.939
    4DPPC   C38  188   7.485   4.438   2.091
    4DPPC   C39  189   7.440   4.298   2.133
    4DPPC   C40  190   7.450   4.274   2.284
    4DPPC   C41  191   7.370   4.360   2.383
    4DPPC   C42  192   7.390   4.313   2.527
    4DPPC   C43  193   7.292   4.395   2.611
    4DPPC   C44  194   7.298   4.349   2.756
    4DPPC   C45  195   7.266   4.200   2.771
    4DPPC   C46  196   7.249   4.162   2.918
    4DPPC   C47  197   7.359   4.204   3.016
    4DPPC   C48  198   7.359   4.143   3.156
    4DPPC   C49  199   7.218   4.150   3.215
    4DPPC   C50  200   7.223   4.173   3.366
    5DPPC    C1  201   8.609   4.747   5.420
    5DPPC    C2  202   8.786   4.902   5.434
    5DPPC    C3  203   8.767   4.733   5.592
    5DPPC    N4  204   8.753   4.760   5.448
    5DPPC    C5  205   8.838   4.675   5.363
    5DPPC    C6  206   8.785   4.535   5.333
    5DPPC    O7  207   8.769   4.447   5.444
    5DPPC    P8  208   8.695   4.312   5.398
    5DPPC    O9  209   8.657   4.208   5.496
    5DPPC   O10  210   8.722   4.278   5.256
    5DPPC   O11  211   8.559   4.398   5.394
    5DPPC   C12  212   8.474   4.308   5.321
    5DPPC   C13  213   8.343   4.365   5.269
    5DPPC   O14  214   8.263   4.258   5.216
    5DPPC   C15  215   8.134   4.275   5.176
    5DPPC   O16  216   8.083   4.386   5.161
    5DPPC   C17  217   8.062   4.150   5.125
    5DPPC   C18  218   8.096   4.129   4.977
    5DPPC   C19  219   8.023   4.005   4.924
    5DPPC   C20  220   8.060   3.980   4.778
    5DPPC   C21  221   8.207   3.937   4.782
    5DPPC   C22  222   8.257   3.924   4.638
    5DPPC   C23  223   8.248   4.062   4.573
    5DPPC   C24  224   8.243   4.050   4.420
    5DPPC   C25  225   8.387   4.020   4.376
    5DPPC   C26  226   8.373   4.027   4.224
    5DPPC   C27  227   8.500   3.982   4.152
    5DPPC   C28  228   8.468   3.980   4.002
    5DPPC   C29  229   8.582   3.911   3.927
    5DPPC   C30  230   8.543   3.888   3.781
    5DPPC   C31  231   8.628   3.782   3.709
    5DPPC   C32  232   8.393   4.479   5.179
    5DPPC   O33  233   8.457   4.431   5.061
    5DPPC   C34  234   8.540   4.517   4.997
    5DPPC   O35  235   8.588   4.607   5.066
    5DPPC   C36  236   8.601   4.476   4.863
    5DPPC   C37  237   8.750   4.495   4.837
    5DPPC   C38  238   8.789   4.462   4.692
    5DPPC   C39  239   8.941   4.457   4.675
    5DPPC   C40  240   8.993   4.393   4.547
    5DPPC   C41  241   8.964   4.243   4.540
    5DPPC   C42  242   9.067   4.178   4.449
    5DPPC   C43  243   9.071   4.241   4.309
    5DPPC   C44  244   8.965   4.181   4.216
    5DPPC   C45  245   8.965   4.275   4.095
    5DPPC   C46  246   8.842   4.240   4.012
    5DPPC   C47  247   8.858   4.303   3.873
    5DPPC   C48  248   8.853   4.188   3.771
    5DPPC   C49  249   8.836   4.249   3.632
    5DPPC   C50  250   8.832   4.150   3.515
    6DPPC    C1  251   6.143   0.616   5.345
    6DPPC    C2  252   6.147   0.799   5.205
    6DPPC    C3  253   6.338   0.666   5.211
    6DPPC    N4  254   6.191   0.660   5.213
    6DPPC    C5  255   6.149   0.581   5.097
    6DPPC    C6  256   6.115   0.434   5.122
    6DPPC    O7  257   6.234   0.365   5.160
    6DPPC    P8  258   6.195   0.210   5.183
    6DPPC    O9  259   6.121   0.154   5.068
    6DPPC   O10  260   6.128   0.223   5.315
    6DPPC   O11  261   6.337   0.137   5.201
    6DPPC   C12  262   6.366   0.068   5.079
    6DPPC   C13  263   6.506   0.006   5.081
    6DPPC   O14  264   6.599   0.070   4.993
    6DPPC   C15  265   6.731   0.074   5.024
    6DPPC   O16  266   6.777   0.036   5.132
    6DPPC   C17  267   6.808   0.172   4.934
    6DPPC   C18  268   6.960   0.155   4.937
    6DPPC   C19  269   7.024   0.241   4.829
    6DPPC   C20  270   7.175   0.250   4.852
    6DPPC   C21  271   7.253   0.325   4.744
    6DPPC   C22  272   7.362   0.412   4.807
    6DPPC   C23  273   7.411   0.513   4.703
    6DPPC   C24  274   7.459   0.450   4.572
    6DPPC   C25  275   7.494   0.570   4.484
    6DPPC   C26  276   7.540   0.533   4.342
    6DPPC   C27  277   7.596   0.652   4.263
    6DPPC   C28  278   7.731   0.694   4.320
    6DPPC   C29  279   7.802   0.811   4.252
    6DPPC   C30  280   7.930   0.833   4.333
    6DPPC   C31  281   7.900   0.899   4.468
    6DPPC   C32  282   6.480  -0.145   5.070
    6DPPC   O33  283   6.405  -0.166   4.950
    6DPPC   C34  284   6.389  -0.296   4.912
    6DPPC   O35  285   6.430  -0.383   4.988
    6DPPC   C36  286   6.305  -0.330   4.789
    6DPPC   C37  287   6.345  -0.277   4.651
    6DPPC   C38  288   6.245  -0.339   4.553
    6DPPC   C39  289   6.271  -0.309   4.406
    6DPPC   C40  290   6.155  -0.342   4.312
    6DPPC   C41  291   6.199  -0.394   4.175
    6DPPC   C42  292   6.287  -0.519   4.169
    6DPPC   C43  293   6.416  -0.496   4.091
    6DPPC   C44  294   6.445  -0.608   3.991
    6DPPC   C45  295   6.546  -0.573   3.882
    6DPPC   C46  296   6.576  -0.708   3.817
    6DPPC   C47  297   6.708  -0.703   3.739
    6DPPC   C48  298   6.707  -0.608   3.619
    6DPPC   C49  299   6.853  -0.588   3.577
    6DPPC   C50  300   6.848  -0.484   3.465
    7DPPC    C1  301   2.875   1.563   5.373
    7DPPC    C2  302   2.683   1.521   5.503
    7DPPC    C3  303   2.697   1.505   5.251
    7DPPC    N4  304   2.757   1.477   5.383
    7DPPC    C5  305   2.802   1.338   5.392
    7DPPC    C6  306   2.698   1.232   5.431
    7DPPC    O7  307   2.618   1.212   5.314
    7DPPC    P8  308   2.495   1.118   5.357
    7DPPC    O9  309   2.405   1.223   5.411
    7DPPC   O10  310   2.560   1.017   5.443
    7DPPC   O11  311   2.473   1.070   5.205
    7DPPC   C12  312   2.423   1.171   5.118
    7DPPC   C13  313   2.433   1.119   4.974
    7DPPC   O14  314   2.324   1.040   4.927
    7DPPC   C15  315   2.202   1.094   4.899
    7DPPC   O16  316   2.160   1.197   4.950
    7DPPC   C17  317   2.102   0.998   4.833
    7DPPC   C18  318   2.150   0.993   4.688
    7DPPC   C19  319   2.091   0.878   4.606
    7DPPC   C20  320   1.942   0.911   4.599
    7DPPC   C21  321   1.868   0.823   4.498
    7DPPC   C22  322   1.936   0.824   4.361
    7DPPC   C23  323   1.946   0.957   4.286
    7DPPC   C24  324   2.016   0.949   4.150
    7DPPC   C25  325   2.033   1.088   4.087
    7DPPC   C26  326   1.895   1.139   4.044
    7DPPC   C27  327   1.905   1.259   3.949
    7DPPC   C28  328   1.984   1.229   3.822
    7DPPC   C29  329   1.910   1.123   3.739
    7DPPC   C30  330   1.991   1.117   3.610
    7DPPC   C31  331   1.960   1.236   3.520
    7DPPC   C32  332   2.570   1.050   4.967
    7DPPC   O33  333   2.666   1.155   4.982
    7DPPC   C34  334   2.794   1.110   4.977
    7DPPC   O35  335   2.832   0.993   4.988
    7DPPC   C36  336   2.903   1.218   4.975
    7DPPC   C37  337   2.887   1.310   4.854
    7DPPC   C38  338   2.988   1.424   4.857
    7DPPC   C39  339   2.971   1.509   4.730
    7DPPC   C40  340   2.829   1.564   4.736
    7DPPC   C41  341   2.795   1.619   4.597
    7DPPC   C42  342   2.808   1.511   4.490
    7DPPC   C43  343   2.777   1.536   4.342
    7DPPC   C44  344   2.785   1.412   4.252
    7DPPC   C45  345   2.746   1.455   4.110
    7DPPC   C46  346   2.769   1.343   4.009
    7DPPC   C47  347   2.726   1.390   3.870
    7DPPC   C48  348   2.750   1.293   3.753
    7DPPC   C49  349   2.714   1.347   3.615
    7DPPC   C50  350   2.718   1.238   3.507
    8DPPC    C1  351   8.426   5.840   4.485
    8DPPC    C2  352   8.615   5.777   4.621
    8DPPC    C3  353   8.467   5.957   4.678
    8DPPC    N4  354   8.475   5.821   4.622
    8DPPC    C5  355   8.384   5.735   4.699
    8DPPC    C6  356   8.393   5.689   4.844
    8DPPC    O7  357   8.512   5.616   4.878
    8DPPC    P8  358   8.497   5.561   5.028
    8DPPC    O9  359   8.438   5.669   5.112
    8DPPC   O10  360   8.618   5.486   5.070
    8DPPC   O11  361   8.375   5.459   5.009
    8DPPC   C12  362   8.412   5.372   4.902
    8DPPC   C13  363   8.320   5.257   4.861
    8DPPC   O14  364   8.381   5.158   4.777
    8DPPC   C15  365   8.425   5.041   4.829
    8DPPC   O16  366   8.447   5.022   4.949
    8DPPC   C17  367   8.456   4.940   4.719
    8DPPC   C18  368   8.336   4.889   4.638
    8DPPC   C19  369   8.259   4.996   4.560
    8DPPC   C20  370   8.184   4.928   4.445
    8DPPC   C21  371   8.038   4.905   4.483
    8DPPC   C22  372   7.966   4.878   4.351
    8DPPC   C23  373   8.005   4.985   4.249
    8DPPC   C24  374   7.933   4.969   4.116
    8DPPC   C25  375   7.969   5.092   4.032
    8DPPC   C26  376   7.917   5.087   3.889
    8DPPC   C27  377   7.966   5.209   3.811
    8DPPC   C28  378   8.117   5.202   3.790
    8DPPC   C29  379   8.155   5.088   3.695
    8DPPC   C30  380   8.294   5.092   3.631
    8DPPC   C31  381   8.347   4.954   3.595
    8DPPC   C32  382   8.194   5.316   4.797
    8DPPC   O33  383   8.199   5.430   4.710
    8DPPC   C34  384   8.077   5.470   4.667
    8DPPC   O35  385   7.969   5.440   4.717
    8DPPC   C36  386   8.085   5.559   4.543
    8DPPC   C37  387   8.155   5.500   4.420
    8DPPC   C38  388   8.187   5.594   4.304
    8DPPC   C39  389   8.085   5.557   4.196
    8DPPC   C40  390   8.136   5.621   4.067
    8DPPC   C41  391   8.039   5.589   3.952
    8DPPC   C42  392   8.106   5.648   3.827
    8DPPC   C43  393   8.022   5.630   3.701
    8DPPC   C44  394   8.090   5.695   3.580
    8DPPC   C45  395   8.009   5.646   3.461
    8DPPC   C46  396   7.959   5.502   3.474
    8DPPC   C47  397   7.915   5.439   3.341
    8DPPC   C48  398   7.842   5.309   3.374
    8DPPC   C49  399   7.815   5.228   3.247
    8DPPC   C50  400   7.787   5.081   3.277
    9DPPC    C1  401   3.094   2.966   5.912
    9DPPC    C2  402   2.958   2.805   6.040
    9DPPC    C3  403   2.887   3.028   6.003
    9DPPC    N4  404   2.959   2.915   5.943
    9DPPC    C5  405   2.894   2.862   5.822
    9DPPC    C6  406   2.835   2.966   5.728
    9DPPC    O7  407   2.925   3.023   5.633
    9DPPC    P8  408   2.839   3.070   5.505
    9DPPC    O9  409   2.910   3.190   5.459
    9DPPC   O10  410   2.700   3.077   5.556
    9DPPC   O11  411   2.841   2.940   5.410
    9DPPC   C12  412   2.964   2.965   5.341
    9DPPC   C13  413   3.026   2.830   5.301
    9DPPC   O14  414   3.152   2.848   5.237
    9DPPC   C15  415   3.237   2.742   5.232
    9DPPC   O16  416   3.248   2.671   5.332
    9DPPC   C17  417   3.350   2.756   5.130
    9DPPC   C18  418   3.314   2.716   4.987
    9DPPC   C19  419   3.437   2.707   4.897
    9DPPC   C20  420   3.400   2.704   4.749
    9DPPC   C21  421   3.522   2.678   4.660
    9DPPC   C22  422   3.496   2.649   4.512
    9DPPC   C23  423   3.629   2.640   4.437
    9DPPC   C24  424   3.621   2.563   4.305
    9DPPC   C25  425   3.759   2.550   4.241
    9DPPC   C26  426   3.739   2.432   4.146
    9DPPC   C27  427   3.856   2.423   4.048
    9DPPC   C28  428   3.842   2.307   3.949
    9DPPC   C29  429   3.971   2.310   3.866
    9DPPC   C30  430   4.098   2.272   3.942
    9DPPC   C31  431   4.202   2.253   3.831
    9DPPC   C32  432   2.917   2.769   5.213
    9DPPC   O33  433   2.891   2.845   5.094
    9DPPC   C34  434   2.795   2.801   5.009
    9DPPC   O35  435   2.709   2.714   5.028
    9DPPC   C36  436   2.806   2.879   4.878
    9DPPC   C37  437   2.789   2.783   4.760
    9DPPC   C38  438   2.796   2.863   4.630
    9DPPC   C39  439   2.691   2.974   4.638
    9DPPC   C40  440   2.694   3.057   4.510
    9DPPC   C41  441   2.574   3.151   4.511
    9DPPC   C42  442   2.561   3.240   4.387
    9DPPC   C43  443   2.450   3.344   4.403
    9DPPC   C44  444   2.431   3.437   4.283
    9DPPC   C45  445   2.332   3.390   4.176
    9DPPC   C46  446   2.189   3.369   4.227
    9DPPC   C47  447   2.108   3.309   4.112
    9DPPC   C48  448   2.165   3.173   4.072
    9DPPC   C49  449   2.053   3.068   4.071
    9DPPC   C50  450   2.102   2.930   4.029
   10DPPC    C1  451   8.305   6.244   5.287
   10DPPC    C2  452   8.414   6.437   5.230
   10DPPC    C3  453   8.412   6.266   5.073
   10DPPC    N4  454   8.327   6.334   5.172
   10DPPC    C5  455   8.207   6.402   5.121
   10DPPC    C6  456   8.098   6.318   5.053
   10DPPC    O7  457   7.987   6.397   5.009
   10DPPC    P8  458   7.893   6.286   4.940
   10DPPC    O9  459   7.801   6.376   4.866
   10DPPC   O10  460   7.853   6.173   5.027
   10DPPC   O11  461   8.001   6.228   4.836
   10DPPC   C12  462   7.996   6.312   4.720
   10DPPC   C13  463   8.124   6.295   4.638
   10DPPC   O14  464   8.153   6.414   4.563
   10DPPC   C15  465   8.275   6.433   4.506
   10DPPC   O16  466   8.371   6.374   4.554
   10DPPC   C17  467   8.280   6.522   4.382
   10DPPC   C18  468   8.290   6.432   4.259
   10DPPC   C19  469   8.416   6.347   4.245
   10DPPC   C20  470   8.386   6.254   4.127
   10DPPC   C21  471   8.334   6.120   4.180
   10DPPC   C22  472   8.332   6.031   4.055
   10DPPC   C23  473   8.473   6.027   3.995
   10DPPC   C24  474   8.466   5.973   3.852
   10DPPC   C25  475   8.601   5.987   3.784
   10DPPC   C26  476   8.603   5.906   3.654
   10DPPC   C27  477   8.740   5.907   3.585
   10DPPC   C28  478   8.845   5.850   3.680
   10DPPC   C29  479   8.986   5.875   3.627
   10DPPC   C30  480   9.038   6.018   3.645
   10DPPC   C31  481   9.184   6.028   3.600
   10DPPC   C32  482   8.125   6.158   4.570
   10DPPC   O33  483   8.006   6.137   4.492
   10DPPC   C34  484   8.006   6.026   4.414
   10DPPC   O35  485   8.108   5.960   4.396
   10DPPC   C36  486   7.901   6.033   4.303
   10DPPC   C37  487   7.893   5.923   4.197
   10DPPC   C38  488   7.777   5.956   4.103
   10DPPC   C39  489   7.779   5.856   3.987
   10DPPC   C40  490   7.699   5.927   3.876
   10DPPC   C41  491   7.704   5.841   3.750
   10DPPC   C42  492   7.606   5.921   3.665
   10DPPC   C43  493   7.595   5.859   3.525
   10DPPC   C44  494   7.651   5.948   3.415
   10DPPC   C45  495   7.631   5.876   3.282
   10DPPC   C46  496   7.678   5.730   3.287
   10DPPC   C47  497   7.659   5.668   3.149
   10DPPC   C48  498   7.755   5.717   3.041
   10DPPC   C49  499   7.714   5.662   2.904
   10DPPC   C50  500   7.825   5.673   2.799
   11DPPC    C1  501   6.350   7.644   5.374
   11DPPC    C2  502   6.432   7.721   5.580
   11DPPC    C3  503   6.470   7.488   5.518
   11DPPC    N4  504   6.460   7.627   5.471
   11DPPC    C5  505   6.576   7.653   5.385
   11DPPC    C6  506   6.660   7.780   5.403
   11DPPC    O7  507   6.589   7.883   5.334
   11DPPC    P8  508   6.646   8.023   5.390
   11DPPC    O9  509   6.696   7.999   5.527
   11DPPC   O10  510   6.541   8.127   5.376
   11DPPC   O11  511   6.760   8.034   5.278
   11DPPC   C12  512   6.701   8.086   5.158
   11DPPC   C13  513   6.804   8.090   5.045
   11DPPC   O14  514   6.781   8.189   4.945
   11DPPC   C15  515   6.893   8.228   4.878
   11DPPC   O16  516   7.001   8.229   4.938
   11DPPC   C17  517   6.863   8.327   4.766
   11DPPC   C18  518   6.736   8.292   4.688
   11DPPC   C19  519   6.719   8.381   4.564
   11DPPC   C20  520   6.724   8.524   4.617
   11DPPC   C21  521   6.758   8.615   4.499
   11DPPC   C22  522   6.722   8.763   4.519
   11DPPC   C23  523   6.740   8.837   4.387
   11DPPC   C24  524   6.700   8.985   4.397
   11DPPC   C25  525   6.686   9.056   4.262
   11DPPC   C26  526   6.590   9.175   4.260
   11DPPC   C27  527   6.453   9.108   4.246
   11DPPC   C28  528   6.417   9.024   4.123
   11DPPC   C29  529   6.273   8.972   4.128
   11DPPC   C30  530   6.249   8.884   4.005
   11DPPC   C31  531   6.103   8.839   3.999
   11DPPC   C32  532   6.830   7.941   5.022
   11DPPC   O33  533   6.707   7.885   4.976
   11DPPC   C34  534   6.719   7.757   4.933
   11DPPC   O35  535   6.811   7.685   4.971
   11DPPC   C36  536   6.608   7.712   4.837
   11DPPC   C37  537   6.613   7.803   4.713
   11DPPC   C38  538   6.495   7.785   4.619
   11DPPC   C39  539   6.518   7.885   4.505
   11DPPC   C40  540   6.663   7.918   4.466
   11DPPC   C41  541   6.655   8.021   4.354
   11DPPC   C42  542   6.796   8.067   4.315
   11DPPC   C43  543   6.838   7.970   4.204
   11DPPC   C44  544   6.982   8.016   4.177
   11DPPC   C45  545   6.980   8.161   4.129
   11DPPC   C46  546   6.905   8.165   3.996
   11DPPC   C47  547   6.917   8.311   3.950
   11DPPC   C48  548   7.062   8.338   3.909
   11DPPC   C49  549   7.065   8.489   3.888
   11DPPC   C50  550   7.206   8.549   3.881
   12DPPC    C1  551   9.233   1.819   4.879
   12DPPC    C2  552   9.448   1.894   4.882
   12DPPC    C3  553   9.342   1.849   5.088
   12DPPC    N4  554   9.360   1.799   4.951
   12DPPC    C5  555   9.409   1.661   4.931
   12DPPC    C6  556   9.345   1.537   4.992
   12DPPC    O7  557   9.368   1.430   4.899
   12DPPC    P8  558   9.315   1.297   4.973
   12DPPC    O9  559   9.321   1.304   5.121
   12DPPC   O10  560   9.368   1.181   4.899
   12DPPC   O11  561   9.158   1.325   4.946
   12DPPC   C12  562   9.121   1.256   4.826
   12DPPC   C13  563   8.972   1.272   4.795
   12DPPC   O14  564   8.922   1.192   4.687
   12DPPC   C15  565   8.893   1.061   4.710
   12DPPC   O16  566   8.888   1.018   4.825
   12DPPC   C17  567   8.829   0.992   4.589
   12DPPC   C18  568   8.786   1.069   4.465
   12DPPC   C19  569   8.679   1.176   4.488
   12DPPC   C20  570   8.658   1.243   4.352
   12DPPC   C21  571   8.557   1.358   4.355
   12DPPC   C22  572   8.535   1.436   4.225
   12DPPC   C23  573   8.472   1.347   4.117
   12DPPC   C24  574   8.417   1.433   4.003
   12DPPC   C25  575   8.307   1.528   4.053
   12DPPC   C26  576   8.277   1.620   3.934
   12DPPC   C27  577   8.189   1.573   3.819
   12DPPC   C28  578   8.045   1.531   3.848
   12DPPC   C29  579   7.966   1.467   3.734
   12DPPC   C30  580   7.825   1.432   3.782
   12DPPC   C31  581   7.836   1.330   3.896
   12DPPC   C32  582   8.943   1.419   4.767
   12DPPC   O33  583   9.019   1.454   4.651
   12DPPC   C34  584   9.001   1.580   4.602
   12DPPC   O35  585   8.949   1.671   4.666
   12DPPC   C36  586   9.092   1.619   4.485
   12DPPC   C37  587   9.039   1.568   4.350
   12DPPC   C38  588   8.921   1.648   4.294
   12DPPC   C39  589   8.916   1.617   4.145
   12DPPC   C40  590   8.800   1.666   4.057
   12DPPC   C41  591   8.811   1.648   3.905
   12DPPC   C42  592   8.715   1.736   3.825
   12DPPC   C43  593   8.707   1.681   3.683
   12DPPC   C44  594   8.596   1.756   3.608
   12DPPC   C45  595   8.632   1.899   3.569
   12DPPC   C46  596   8.519   1.980   3.506
   12DPPC   C47  597   8.392   1.993   3.591
   12DPPC   C48  598   8.312   2.118   3.555
   12DPPC   C49  599   8.178   2.102   3.627
   12DPPC   C50  600   8.105   1.975   3.581
   13DPPC    C1  601   1.540   1.634   4.926
   13DPPC    C2  602   1.672   1.494   5.081
   13DPPC    C3  603   1.509   1.613   5.172
   13DPPC    N4  604   1.539   1.547   5.044
   13DPPC    C5  605   1.460   1.424   5.031
   13DPPC    C6  606   1.310   1.440   5.055
   13DPPC    O7  607   1.215   1.350   4.998
   13DPPC    P8  608   1.067   1.407   5.027
   13DPPC    O9  609   1.058   1.430   5.173
   13DPPC   O10  610   0.977   1.309   4.962
   13DPPC   O11  611   1.070   1.554   4.962
   13DPPC   C12  612   0.976   1.561   4.855
   13DPPC   C13  613   0.975   1.700   4.792
   13DPPC   O14  614   0.888   1.720   4.680
   13DPPC   C15  615   0.754   1.719   4.702
   13DPPC   O16  616   0.710   1.705   4.816
   13DPPC   C17  617   0.663   1.719   4.578
   13DPPC   C18  618   0.645   1.579   4.521
   13DPPC   C19  619   0.552   1.597   4.401
   13DPPC   C20  620   0.502   1.464   4.345
   13DPPC   C21  621   0.392   1.485   4.241
   13DPPC   C22  622   0.249   1.498   4.294
   13DPPC   C23  623   0.145   1.503   4.182
   13DPPC   C24  624   0.006   1.472   4.239
   13DPPC   C25  625  -0.088   1.498   4.121
   13DPPC   C26  626  -0.070   1.638   4.062
   13DPPC   C27  627  -0.162   1.636   3.939
   13DPPC   C28  628  -0.149   1.760   3.852
   13DPPC   C29  629  -0.283   1.783   3.781
   13DPPC   C30  630  -0.255   1.882   3.668
   13DPPC   C31  631  -0.210   2.019   3.718
   13DPPC   C32  632   1.123   1.718   4.756
   13DPPC   O33  633   1.181   1.610   4.683
   13DPPC   C34  634   1.293   1.645   4.614
   13DPPC   O35  635   1.368   1.732   4.656
   13DPPC   C36  636   1.331   1.550   4.499
   13DPPC   C37  637   1.257   1.590   4.371
   13DPPC   C38  638   1.126   1.512   4.358
   13DPPC   C39  639   1.051   1.544   4.229
   13DPPC   C40  640   0.919   1.466   4.221
   13DPPC   C41  641   0.840   1.504   4.096
   13DPPC   C42  642   0.720   1.409   4.091
   13DPPC   C43  643   0.686   1.397   3.943
   13DPPC   C44  644   0.563   1.307   3.931
   13DPPC   C45  645   0.590   1.168   3.989
   13DPPC   C46  646   0.667   1.078   3.892
   13DPPC   C47  647   0.685   0.943   3.963
   13DPPC   C48  648   0.740   0.838   3.867
   13DPPC   C49  649   0.746   0.693   3.917
   13DPPC   C50  650   0.822   0.680   4.049
   14DPPC    C1  651   8.412   3.413   5.431
   14DPPC    C2  652   8.375   3.581   5.600
   14DPPC    C3  653   8.588   3.508   5.543
   14DPPC    N4  654   8.457   3.542   5.485
   14DPPC    C5  655   8.458   3.657   5.393
   14DPPC    C6  656   8.529   3.644   5.259
   14DPPC    O7  657   8.667   3.608   5.273
   14DPPC    P8  658   8.711   3.515   5.149
   14DPPC    O9  659   8.607   3.409   5.149
   14DPPC   O10  660   8.855   3.482   5.150
   14DPPC   O11  661   8.696   3.637   5.045
   14DPPC   C12  662   8.624   3.589   4.930
   14DPPC   C13  663   8.498   3.673   4.909
   14DPPC   O14  664   8.414   3.613   4.809
   14DPPC   C15  665   8.315   3.532   4.854
   14DPPC   O16  666   8.292   3.524   4.975
   14DPPC   C17  667   8.240   3.455   4.746
   14DPPC   C18  668   8.331   3.349   4.684
   14DPPC   C19  669   8.280   3.282   4.556
   14DPPC   C20  670   8.276   3.378   4.437
   14DPPC   C21  671   8.224   3.324   4.304
   14DPPC   C22  672   8.200   3.435   4.202
   14DPPC   C23  673   8.328   3.515   4.176
   14DPPC   C24  674   8.303   3.624   4.071
   14DPPC   C25  675   8.249   3.557   3.945
   14DPPC   C26  676   8.256   3.662   3.834
   14DPPC   C27  677   8.226   3.609   3.694
   14DPPC   C28  678   8.212   3.714   3.582
   14DPPC   C29  679   8.111   3.821   3.622
   14DPPC   C30  680   8.082   3.892   3.490
   14DPPC   C31  681   8.217   3.942   3.438
   14DPPC   C32  682   8.552   3.805   4.855
   14DPPC   O33  683   8.664   3.800   4.766
   14DPPC   C34  684   8.702   3.924   4.725
   14DPPC   O35  685   8.653   4.023   4.779
   14DPPC   C36  686   8.823   3.923   4.632
   14DPPC   C37  687   8.829   3.807   4.532
   14DPPC   C38  688   8.733   3.843   4.419
   14DPPC   C39  689   8.773   3.762   4.296
   14DPPC   C40  690   8.751   3.611   4.309
   14DPPC   C41  691   8.820   3.541   4.191
   14DPPC   C42  692   8.768   3.398   4.170
   14DPPC   C43  693   8.817   3.335   4.040
   14DPPC   C44  694   8.727   3.226   3.981
   14DPPC   C45  695   8.797   3.097   3.939
   14DPPC   C46  696   8.701   3.020   3.848
   14DPPC   C47  697   8.772   2.888   3.818
   14DPPC   C48  698   8.816   2.881   3.672
   14DPPC   C49  699   8.896   2.753   3.642
   14DPPC   C50  700   8.923   2.722   3.495
   15DPPC    C1  701   5.208   8.170   4.863
   15DPPC    C2  702   5.381   8.283   4.737
   15DPPC    C3  703   5.152   8.363   4.781
   15DPPC    N4  704   5.272   8.299   4.835
   15DPPC    C5  705   5.300   8.359   4.966
   15DPPC    C6  706   5.379   8.274   5.064
   15DPPC    O7  707   5.518   8.264   5.034
   15DPPC    P8  708   5.583   8.130   5.094
   15DPPC    O9  709   5.492   8.024   5.046
   15DPPC   O10  710   5.584   8.173   5.236
   15DPPC   O11  711   5.723   8.143   5.015
   15DPPC   C12  712   5.677   8.129   4.881
   15DPPC   C13  713   5.787   8.185   4.790
   15DPPC   O14  714   5.750   8.202   4.652
   15DPPC   C15  715   5.834   8.266   4.566
   15DPPC   O16  716   5.919   8.338   4.617
   15DPPC   C17  717   5.773   8.294   4.428
   15DPPC   C18  718   5.775   8.443   4.394
   15DPPC   C19  719   5.702   8.524   4.502
   15DPPC   C20  720   5.706   8.673   4.466
   15DPPC   C21  721   5.852   8.717   4.450
   15DPPC   C22  722   5.868   8.864   4.410
   15DPPC   C23  723   5.801   8.885   4.274
   15DPPC   C24  724   5.834   9.029   4.235
   15DPPC   C25  725   5.765   9.061   4.102
   15DPPC   C26  726   5.613   9.062   4.116
   15DPPC   C27  727   5.564   9.104   3.977
   15DPPC   C28  728   5.415   9.137   3.982
   15DPPC   C29  729   5.381   9.216   3.855
   15DPPC   C30  730   5.235   9.255   3.835
   15DPPC   C31  731   5.192   9.340   3.954
   15DPPC   C32  732   5.911   8.099   4.813
   15DPPC   O33  733   5.918   7.979   4.736
   15DPPC   C34  734   6.022   7.894   4.759
   15DPPC   O35  735   6.099   7.918   4.852
   15DPPC   C36  736   6.023   7.769   4.672
   15DPPC   C37  737   5.987   7.640   4.747
   15DPPC   C38  738   5.971   7.518   4.657
   15DPPC   C39  739   5.887   7.555   4.534
   15DPPC   C40  740   5.837   7.437   4.451
   15DPPC   C41  741   5.945   7.334   4.419
   15DPPC   C42  742   5.866   7.223   4.350
   15DPPC   C43  743   5.947   7.141   4.250
   15DPPC   C44  744   5.851   7.044   4.181
   15DPPC   C45  745   5.935   6.948   4.096
   15DPPC   C46  746   5.976   7.025   3.971
   15DPPC   C47  747   5.865   7.086   3.885
   15DPPC   C48  748   5.920   7.156   3.761
   15DPPC   C49  749   5.811   7.221   3.676
   15DPPC   C50  750   5.752   7.337   3.755
   16DPPC    C1  751   9.163   0.895   4.932
   16DPPC    C2  752   9.109   0.898   5.172
   16DPPC    C3  753   8.988   0.755   5.009
   16DPPC    N4  754   9.114   0.819   5.048
   16DPPC    C5  755   9.205   0.705   5.064
   16DPPC    C6  756   9.186   0.613   5.186
   16DPPC    O7  757   9.247   0.484   5.184
   16DPPC    P8  758   9.146   0.377   5.249
   16DPPC    O9  759   9.088   0.459   5.358
   16DPPC   O10  760   9.207   0.246   5.279
   16DPPC   O11  761   9.056   0.354   5.118
   16DPPC   C12  762   9.137   0.286   5.022
   16DPPC   C13  763   9.103   0.326   4.878
   16DPPC   O14  764   9.165   0.447   4.833
   16DPPC   C15  765   9.289   0.435   4.777
   16DPPC   O16  766   9.364   0.348   4.819
   16DPPC   C17  767   9.350   0.546   4.691
   16DPPC   C18  768   9.271   0.676   4.676
   16DPPC   C19  769   9.307   0.748   4.545
   16DPPC   C20  770   9.224   0.688   4.432
   16DPPC   C21  771   9.077   0.705   4.472
   16DPPC   C22  772   8.975   0.647   4.374
   16DPPC   C23  773   8.947   0.733   4.250
   16DPPC   C24  774   8.842   0.657   4.169
   16DPPC   C25  775   8.765   0.715   4.050
   16DPPC   C26  776   8.703   0.604   3.965
   16DPPC   C27  777   8.643   0.671   3.840
   16DPPC   C28  778   8.514   0.593   3.815
   16DPPC   C29  779   8.432   0.622   3.689
   16DPPC   C30  780   8.518   0.570   3.573
   16DPPC   C31  781   8.463   0.596   3.432
   16DPPC   C32  782   8.950   0.333   4.875
   16DPPC   O33  783   8.891   0.203   4.878
   16DPPC   C34  784   8.758   0.196   4.851
   16DPPC   O35  785   8.685   0.271   4.916
   16DPPC   C36  786   8.711   0.054   4.817
   16DPPC   C37  787   8.660   0.070   4.674
   16DPPC   C38  788   8.685  -0.062   4.601
   16DPPC   C39  789   8.665  -0.055   4.449
   16DPPC   C40  790   8.730  -0.173   4.376
   16DPPC   C41  791   8.711  -0.168   4.224
   16DPPC   C42  792   8.567  -0.201   4.183
   16DPPC   C43  793   8.570  -0.231   4.033
   16DPPC   C44  794   8.441  -0.312   4.018
   16DPPC   C45  795   8.401  -0.338   3.872
   16DPPC   C46  796   8.260  -0.393   3.894
   16DPPC   C47  797   8.182  -0.438   3.770
   16DPPC   C48  798   8.052  -0.486   3.836
   16DPPC   C49  799   7.957  -0.560   3.742
   16DPPC   C50  800   7.838  -0.622   3.815
   17DPPC    C1  801   1.513   0.600   5.217
   17DPPC    C2  802   1.572   0.603   4.994
   17DPPC    C3  803   1.436   0.436   5.067
   17DPPC    N4  804   1.457   0.580   5.082
   17DPPC    C5  805   1.338   0.659   5.048
   17DPPC    C6  806   1.366   0.809   5.037
   17DPPC    O7  807   1.248   0.889   5.034
   17DPPC    P8  808   1.267   1.049   5.030
   17DPPC    O9  809   1.412   1.064   5.052
   17DPPC   O10  810   1.163   1.100   5.122
   17DPPC   O11  811   1.230   1.062   4.874
   17DPPC   C12  812   1.351   1.119   4.823
   17DPPC   C13  813   1.326   1.158   4.677
   17DPPC   O14  814   1.433   1.228   4.612
   17DPPC   C15  815   1.520   1.147   4.546
   17DPPC   O16  816   1.484   1.033   4.518
   17DPPC   C17  817   1.649   1.209   4.490
   17DPPC   C18  818   1.671   1.343   4.561
   17DPPC   C19  819   1.757   1.436   4.475
   17DPPC   C20  820   1.875   1.358   4.417
   17DPPC   C21  821   1.955   1.459   4.335
   17DPPC   C22  822   2.088   1.394   4.297
   17DPPC   C23  823   2.175   1.502   4.233
   17DPPC   C24  824   2.309   1.445   4.186
   17DPPC   C25  825   2.280   1.347   4.072
   17DPPC   C26  826   2.394   1.267   4.009
   17DPPC   C27  827   2.337   1.191   3.889
   17DPPC   C28  828   2.437   1.082   3.850
   17DPPC   C29  829   2.382   0.996   3.736
   17DPPC   C30  830   2.379   1.067   3.600
   17DPPC   C31  831   2.347   0.966   3.490
   17DPPC   C32  832   1.198   1.242   4.675
   17DPPC   O33  833   1.113   1.239   4.559
   17DPPC   C34  834   1.044   1.130   4.517
   17DPPC   O35  835   1.069   1.019   4.564
   17DPPC   C36  836   0.984   1.136   4.377
   17DPPC   C37  837   1.074   1.068   4.274
   17DPPC   C38  838   0.986   1.000   4.170
   17DPPC   C39  839   1.063   0.955   4.045
   17DPPC   C40  840   1.096   1.082   3.967
   17DPPC   C41  841   1.154   1.045   3.830
   17DPPC   C42  842   1.231   1.163   3.770
   17DPPC   C43  843   1.296   1.152   3.632
   17DPPC   C44  844   1.365   1.281   3.587
   17DPPC   C45  845   1.416   1.267   3.443
   17DPPC   C46  846   1.463   1.403   3.389
   17DPPC   C47  847   1.589   1.448   3.462
   17DPPC   C48  848   1.641   1.587   3.424
   17DPPC   C49  849   1.761   1.644   3.500
   17DPPC   C50  850   1.774   1.794   3.471
   18DPPC    C1  851   1.835   7.205   5.344
   18DPPC    C2  852   1.905   7.004   5.419
   18DPPC    C3  853   1.692   7.017   5.303
   18DPPC    N4  854   1.832   7.063   5.306
   18DPPC    C5  855   1.898   7.058   5.175
   18DPPC    C6  856   1.927   6.915   5.129
   18DPPC    O7  857   1.997   6.912   5.005
   18DPPC    P8  858   1.996   6.763   4.943
   18DPPC    O9  859   1.858   6.720   4.974
   18DPPC   O10  860   2.110   6.682   4.991
   18DPPC   O11  861   2.007   6.787   4.784
   18DPPC   C12  862   2.050   6.669   4.717
   18DPPC   C13  863   2.073   6.680   4.566
   18DPPC   O14  864   2.076   6.556   4.494
   18DPPC   C15  865   1.959   6.494   4.464
   18DPPC   O16  866   1.856   6.496   4.531
   18DPPC   C17  867   1.968   6.372   4.373
   18DPPC   C18  868   1.846   6.369   4.280
   18DPPC   C19  869   1.889   6.308   4.146
   18DPPC   C20  870   1.766   6.290   4.057
   18DPPC   C21  871   1.795   6.204   3.933
   18DPPC   C22  872   1.664   6.193   3.856
   18DPPC   C23  873   1.685   6.100   3.736
   18DPPC   C24  874   1.556   6.100   3.654
   18DPPC   C25  875   1.424   6.070   3.727
   18DPPC   C26  876   1.406   5.927   3.778
   18DPPC   C27  877   1.283   5.936   3.869
   18DPPC   C28  878   1.157   5.973   3.791
   18DPPC   C29  879   1.109   5.869   3.690
   18DPPC   C30  880   0.979   5.909   3.621
   18DPPC   C31  881   0.948   5.789   3.530
   18DPPC   C32  882   2.190   6.777   4.550
   18DPPC   O33  883   2.222   6.807   4.413
   18DPPC   C34  884   2.352   6.841   4.392
   18DPPC   O35  885   2.429   6.845   4.487
   18DPPC   C36  886   2.376   6.871   4.243
   18DPPC   C37  887   2.429   6.747   4.170
   18DPPC   C38  888   2.451   6.788   4.024
   18DPPC   C39  889   2.531   6.690   3.937
   18DPPC   C40  890   2.675   6.667   3.981
   18DPPC   C41  891   2.741   6.573   3.880
   18DPPC   C42  892   2.826   6.463   3.943
   18DPPC   C43  893   2.893   6.383   3.831
   18DPPC   C44  894   2.940   6.246   3.879
   18DPPC   C45  895   3.054   6.267   3.978
   18DPPC   C46  896   3.100   6.153   4.069
   18DPPC   C47  897   3.207   6.201   4.167
   18DPPC   C48  898   3.146   6.289   4.277
   18DPPC   C49  899   3.262   6.328   4.369
   18DPPC   C50  900   3.222   6.408   4.493
   19DPPC    C1  901   2.562   5.750   5.479
   19DPPC    C2  902   2.349   5.802   5.421
   19DPPC    C3  903   2.520   5.810   5.250
   19DPPC    N4  904   2.468   5.737   5.367
   19DPPC    C5  905   2.429   5.600   5.330
   19DPPC    C6  906   2.534   5.496   5.292
   19DPPC    O7  907   2.607   5.518   5.171
   19DPPC    P8  908   2.737   5.423   5.169
   19DPPC    O9  909   2.776   5.419   5.312
   19DPPC   O10  910   2.818   5.484   5.061
   19DPPC   O11  911   2.670   5.296   5.097
   19DPPC   C12  912   2.708   5.279   4.960
   19DPPC   C13  913   2.626   5.163   4.903
   19DPPC   O14  914   2.701   5.082   4.812
   19DPPC   C15  915   2.666   4.950   4.813
   19DPPC   O16  916   2.590   4.896   4.893
   19DPPC   C17  917   2.740   4.865   4.709
   19DPPC   C18  918   2.873   4.803   4.753
   19DPPC   C19  919   2.934   4.735   4.631
   19DPPC   C20  920   2.853   4.609   4.602
   19DPPC   C21  921   2.917   4.532   4.486
   19DPPC   C22  922   2.835   4.407   4.452
   19DPPC   C23  923   2.902   4.350   4.327
   19DPPC   C24  924   3.045   4.298   4.341
   19DPPC   C25  925   3.104   4.258   4.206
   19DPPC   C26  926   3.073   4.367   4.103
   19DPPC   C27  927   3.136   4.323   3.970
   19DPPC   C28  928   3.084   4.412   3.858
   19DPPC   C29  929   3.152   4.378   3.725
   19DPPC   C30  930   3.074   4.427   3.604
   19DPPC   C31  931   3.069   4.579   3.617
   19DPPC   C32  932   2.486   5.215   4.868
   19DPPC   O33  933   2.492   5.314   4.766
   19DPPC   C34  934   2.382   5.344   4.691
   19DPPC   O35  935   2.276   5.286   4.714
   19DPPC   C36  936   2.392   5.448   4.579
   19DPPC   C37  937   2.284   5.415   4.476
   19DPPC   C38  938   2.318   5.461   4.334
   19DPPC   C39  939   2.211   5.457   4.225
   19DPPC   C40  940   2.249   5.541   4.103
   19DPPC   C41  941   2.151   5.564   3.988
   19DPPC   C42  942   2.206   5.666   3.888
   19DPPC   C43  943   2.352   5.626   3.864
   19DPPC   C44  944   2.415   5.716   3.758
   19DPPC   C45  945   2.559   5.665   3.744
   19DPPC   C46  946   2.619   5.725   3.617
   19DPPC   C47  947   2.770   5.699   3.606
   19DPPC   C48  948   2.839   5.753   3.731
   19DPPC   C49  949   2.992   5.758   3.715
   19DPPC   C50  950   3.067   5.802   3.841
   20DPPC    C1  951   6.712   5.493   4.902
   20DPPC    C2  952   6.529   5.451   4.761
   20DPPC    C3  953   6.514   5.362   4.970
   20DPPC    N4  954   6.566   5.480   4.900
   20DPPC    C5  955   6.487   5.595   4.949
   20DPPC    C6  956   6.558   5.715   5.010
   20DPPC    O7  957   6.634   5.799   4.922
   20DPPC    P8  958   6.718   5.908   5.003
   20DPPC    O9  959   6.796   5.811   5.083
   20DPPC   O10  960   6.625   6.007   5.062
   20DPPC   O11  961   6.816   5.987   4.902
   20DPPC   C12  962   6.913   5.890   4.863
   20DPPC   C13  963   7.041   5.938   4.793
   20DPPC   O14  964   7.029   6.024   4.679
   20DPPC   C15  965   7.030   6.160   4.667
   20DPPC   O16  966   7.070   6.224   4.763
   20DPPC   C17  967   7.006   6.225   4.530
   20DPPC   C18  968   7.081   6.354   4.494
   20DPPC   C19  969   7.026   6.395   4.357
   20DPPC   C20  970   6.875   6.418   4.370
   20DPPC   C21  971   6.824   6.462   4.233
   20DPPC   C22  972   6.899   6.585   4.181
   20DPPC   C23  973   6.889   6.603   4.029
   20DPPC   C24  974   6.975   6.713   3.967
   20DPPC   C25  975   6.982   6.687   3.816
   20DPPC   C26  976   7.063   6.782   3.727
   20DPPC   C27  977   7.210   6.770   3.769
   20DPPC   C28  978   7.299   6.862   3.687
   20DPPC   C29  979   7.448   6.827   3.688
   20DPPC   C30  980   7.537   6.912   3.597
   20DPPC   C31  981   7.677   6.850   3.597
   20DPPC   C32  982   7.127   5.814   4.771
   20DPPC   O33  983   7.052   5.703   4.723
   20DPPC   C34  984   7.110   5.580   4.723
   20DPPC   O35  985   7.210   5.549   4.788
   20DPPC   C36  986   7.054   5.492   4.611
   20DPPC   C37  987   7.169   5.422   4.539
   20DPPC   C38  988   7.114   5.362   4.409
   20DPPC   C39  989   7.215   5.285   4.323
   20DPPC   C40  990   7.171   5.266   4.178
   20DPPC   C41  991   7.275   5.204   4.084
   20DPPC   C42  992   7.195   5.194   3.954
   20DPPC   C43  993   7.286   5.138   3.844
   20DPPC   C44  994   7.204   5.081   3.728
   20DPPC   C45  995   7.293   5.008   3.628
   20DPPC   C46  996   7.206   4.960   3.512
   20DPPC   C47  997   7.136   5.072   3.435
   20DPPC   C48  998   7.040   5.011   3.333
   20DPPC   C49  999   6.947   5.107   3.259
   20DPPC   C50 1000   7.028   5.195   3.163
   21DPPC    C1 1001   3.167   2.250   6.045
   21DPPC    C2 1002   3.332   2.199   5.878
   21DPPC    C3 1003   3.377   2.144   6.098
   21DPPC    N4 1004   3.267   2.152   6.001
   21DPPC    C5 1005   3.217   2.014   5.991
   21DPPC    C6 1006   3.080   1.988   5.926
   21DPPC    O7 1007   3.076   2.001   5.784
   21DPPC    P8 1008   2.929   2.037   5.727
   21DPPC    O9 1009   2.860   2.128   5.820
   21DPPC   O10 1010   2.888   1.902   5.683
   21DPPC   O11 1011   2.976   2.110   5.591
   21DPPC   C12 1012   2.985   2.006   5.494
   21DPPC   C13 1013   2.983   2.064   5.352
   21DPPC   O14 1014   2.971   1.970   5.244
   21DPPC   C15 1015   2.845   1.934   5.211
   21DPPC   O16 1016   2.755   1.926   5.296
   21DPPC   C17 1017   2.840   1.868   5.073
   21DPPC   C18 1018   2.936   1.945   4.981
   21DPPC   C19 1019   2.905   1.912   4.835
   21DPPC   C20 1020   2.977   2.013   4.746
   21DPPC   C21 1021   2.915   1.993   4.608
   21DPPC   C22 1022   2.973   2.092   4.506
   21DPPC   C23 1023   2.919   2.066   4.365
   21DPPC   C24 1024   3.003   2.128   4.254
   21DPPC   C25 1025   2.916   2.133   4.128
   21DPPC   C26 1026   2.991   2.174   4.001
   21DPPC   C27 1027   2.910   2.162   3.872
   21DPPC   C28 1028   2.999   2.196   3.753
   21DPPC   C29 1029   2.931   2.181   3.617
   21DPPC   C30 1030   3.042   2.144   3.519
   21DPPC   C31 1031   3.008   2.152   3.370
   21DPPC   C32 1032   3.111   2.147   5.347
   21DPPC   O33 1033   3.140   2.230   5.234
   21DPPC   C34 1034   3.072   2.346   5.212
   21DPPC   O35 1035   2.976   2.381   5.281
   21DPPC   C36 1036   3.112   2.422   5.085
   21DPPC   C37 1037   3.030   2.387   4.961
   21DPPC   C38 1038   3.077   2.474   4.845
   21DPPC   C39 1039   2.994   2.437   4.721
   21DPPC   C40 1040   3.025   2.520   4.597
   21DPPC   C41 1041   2.939   2.479   4.477
   21DPPC   C42 1042   2.992   2.537   4.346
   21DPPC   C43 1043   3.144   2.534   4.327
   21DPPC   C44 1044   3.198   2.619   4.212
   21DPPC   C45 1045   3.151   2.566   4.076
   21DPPC   C46 1046   3.181   2.658   3.957
   21DPPC   C47 1047   3.138   2.598   3.824
   21DPPC   C48 1048   3.192   2.685   3.710
   21DPPC   C49 1049   3.121   2.634   3.585
   21DPPC   C50 1050   3.129   2.732   3.468
   22DPPC    C1 1051   1.588   2.045   5.428
   22DPPC    C2 1052   1.772   2.139   5.308
   22DPPC    C3 1053   1.807   2.034   5.527
   22DPPC    N4 1054   1.731   2.032   5.400
   22DPPC    C5 1055   1.747   1.906   5.327
   22DPPC    C6 1056   1.874   1.874   5.247
   22DPPC    O7 1057   1.862   1.755   5.169
   22DPPC    P8 1058   2.009   1.719   5.113
   22DPPC    O9 1059   1.998   1.595   5.033
   22DPPC   O10 1060   2.103   1.731   5.226
   22DPPC   O11 1061   2.013   1.850   5.019
   22DPPC   C12 1062   1.959   1.828   4.888
   22DPPC   C13 1063   1.941   1.963   4.820
   22DPPC   O14 1064   1.881   1.953   4.689
   22DPPC   C15 1065   1.747   1.936   4.682
   22DPPC   O16 1066   1.679   1.922   4.784
   22DPPC   C17 1067   1.687   1.940   4.541
   22DPPC   C18 1068   1.748   1.835   4.449
   22DPPC   C19 1069   1.683   1.839   4.311
   22DPPC   C20 1070   1.725   1.726   4.217
   22DPPC   C21 1071   1.622   1.708   4.105
   22DPPC   C22 1072   1.643   1.579   4.024
   22DPPC   C23 1073   1.514   1.548   3.948
   22DPPC   C24 1074   1.469   1.657   3.850
   22DPPC   C25 1075   1.352   1.585   3.782
   22DPPC   C26 1076   1.302   1.685   3.678
   22DPPC   C27 1077   1.168   1.639   3.620
   22DPPC   C28 1078   1.066   1.609   3.729
   22DPPC   C29 1079   0.939   1.550   3.667
   22DPPC   C30 1080   0.964   1.419   3.592
   22DPPC   C31 1081   0.843   1.356   3.523
   22DPPC   C32 1082   2.073   2.041   4.826
   22DPPC   O33 1083   2.189   1.967   4.790
   22DPPC   C34 1084   2.300   2.044   4.780
   22DPPC   O35 1085   2.283   2.166   4.785
   22DPPC   C36 1086   2.421   1.990   4.704
   22DPPC   C37 1087   2.391   1.875   4.608
   22DPPC   C38 1088   2.494   1.888   4.496
   22DPPC   C39 1089   2.470   1.792   4.379
   22DPPC   C40 1090   2.552   1.835   4.258
   22DPPC   C41 1091   2.524   1.755   4.130
   22DPPC   C42 1092   2.609   1.795   4.010
   22DPPC   C43 1093   2.572   1.723   3.880
   22DPPC   C44 1094   2.671   1.779   3.778
   22DPPC   C45 1095   2.647   1.727   3.636
   22DPPC   C46 1096   2.706   1.811   3.522
   22DPPC   C47 1097   2.668   1.751   3.386
   22DPPC   C48 1098   2.741   1.622   3.347
   22DPPC   C49 1099   2.716   1.567   3.206
   22DPPC   C50 1100   2.752   1.670   3.098
   23DPPC    C1 1101   1.346   7.347   4.910
   23DPPC    C2 1102   1.441   7.149   4.972
   23DPPC    C3 1103   1.292   7.133   4.799
   23DPPC    N4 1104   1.396   7.221   4.852
   23DPPC    C5 1105   1.508   7.233   4.758
   23DPPC    C6 1106   1.504   7.308   4.624
   23DPPC    O7 1107   1.427   7.261   4.513
   23DPPC    P8 1108   1.363   7.383   4.429
   23DPPC    O9 1109   1.408   7.511   4.490
   23DPPC   O10 1110   1.223   7.349   4.400
   23DPPC   O11 1111   1.453   7.357   4.299
   23DPPC   C12 1112   1.407   7.238   4.234
   23DPPC   C13 1113   1.435   7.228   4.084
   23DPPC   O14 1114   1.575   7.231   4.056
   23DPPC   C15 1115   1.620   7.121   3.989
   23DPPC   O16 1116   1.555   7.017   3.993
   23DPPC   C17 1117   1.765   7.145   3.944
   23DPPC   C18 1118   1.781   7.239   3.825
   23DPPC   C19 1119   1.919   7.301   3.808
   23DPPC   C20 1120   1.925   7.417   3.709
   23DPPC   C21 1121   1.907   7.550   3.783
   23DPPC   C22 1122   1.894   7.648   3.667
   23DPPC   C23 1123   1.868   7.792   3.712
   23DPPC   C24 1124   1.845   7.890   3.597
   23DPPC   C25 1125   1.818   8.025   3.663
   23DPPC   C26 1126   1.825   8.140   3.561
   23DPPC   C27 1127   1.780   8.280   3.603
   23DPPC   C28 1128   1.629   8.276   3.624
   23DPPC   C29 1129   1.576   8.260   3.482
   23DPPC   C30 1130   1.425   8.236   3.493
   23DPPC   C31 1131   1.364   8.228   3.352
   23DPPC   C32 1132   1.363   7.353   4.032
   23DPPC   O33 1133   1.393   7.378   3.895
   23DPPC   C34 1134   1.333   7.481   3.830
   23DPPC   O35 1135   1.254   7.550   3.893
   23DPPC   C36 1136   1.385   7.507   3.688
   23DPPC   C37 1137   1.499   7.609   3.685
   23DPPC   C38 1138   1.553   7.630   3.543
   23DPPC   C39 1139   1.610   7.497   3.494
   23DPPC   C40 1140   1.640   7.514   3.345
   23DPPC   C41 1141   1.693   7.388   3.276
   23DPPC   C42 1142   1.577   7.291   3.251
   23DPPC   C43 1143   1.614   7.143   3.260
   23DPPC   C44 1144   1.502   7.059   3.199
   23DPPC   C45 1145   1.475   7.116   3.059
   23DPPC   C46 1146   1.373   7.023   2.994
   23DPPC   C47 1147   1.343   7.061   2.848
   23DPPC   C48 1148   1.254   6.971   2.763
   23DPPC   C49 1149   1.121   6.931   2.827
   23DPPC   C50 1150   1.005   6.978   2.740
   24DPPC    C1 1151   3.151   5.399   5.032
   24DPPC    C2 1152   3.311   5.436   5.201
   24DPPC    C3 1153   3.154   5.602   5.154
   24DPPC    N4 1154   3.169   5.457   5.166
   24DPPC    C5 1155   3.086   5.396   5.271
   24DPPC    C6 1156   3.101   5.246   5.296
   24DPPC    O7 1157   3.003   5.169   5.225
   24DPPC    P8 1158   3.039   5.015   5.254
   24DPPC    O9 1159   2.933   4.937   5.186
   24DPPC   O10 1160   3.073   5.011   5.398
   24DPPC   O11 1161   3.178   5.000   5.175
   24DPPC   C12 1162   3.140   4.979   5.038
   24DPPC   C13 1163   3.259   4.973   4.942
   24DPPC   O14 1164   3.200   4.986   4.812
   24DPPC   C15 1165   3.172   5.107   4.757
   24DPPC   O16 1166   3.230   5.209   4.794
   24DPPC   C17 1167   3.104   5.100   4.620
   24DPPC   C18 1168   3.197   5.143   4.507
   24DPPC   C19 1169   3.294   5.035   4.459
   24DPPC   C20 1170   3.436   5.094   4.467
   24DPPC   C21 1171   3.523   4.997   4.386
   24DPPC   C22 1172   3.665   5.045   4.356
   24DPPC   C23 1173   3.728   4.959   4.247
   24DPPC   C24 1174   3.866   5.006   4.203
   24DPPC   C25 1175   3.923   4.945   4.074
   24DPPC   C26 1176   4.050   5.023   4.041
   24DPPC   C27 1177   4.113   4.977   3.909
   24DPPC   C28 1178   4.220   5.079   3.871
   24DPPC   C29 1179   4.316   5.020   3.767
   24DPPC   C30 1180   4.429   5.117   3.734
   24DPPC   C31 1181   4.530   5.162   3.840
   24DPPC   C32 1182   3.312   4.832   4.963
   24DPPC   O33 1183   3.224   4.720   4.955
   24DPPC   C34 1184   3.277   4.595   4.964
   24DPPC   O35 1185   3.392   4.581   5.005
   24DPPC   C36 1186   3.201   4.475   4.908
   24DPPC   C37 1187   3.257   4.427   4.774
   24DPPC   C38 1188   3.251   4.536   4.667
   24DPPC   C39 1189   3.300   4.486   4.531
   24DPPC   C40 1190   3.338   4.598   4.433
   24DPPC   C41 1191   3.360   4.541   4.293
   24DPPC   C42 1192   3.424   4.648   4.205
   24DPPC   C43 1193   3.477   4.593   4.072
   24DPPC   C44 1194   3.562   4.701   4.006
   24DPPC   C45 1195   3.636   4.669   3.875
   24DPPC   C46 1196   3.732   4.778   3.828
   24DPPC   C47 1197   3.827   4.723   3.721
   24DPPC   C48 1198   3.888   4.827   3.627
   24DPPC   C49 1199   3.961   4.766   3.507
   24DPPC   C50 1200   4.049   4.654   3.562
   25DPPC    C1 1201   3.880   5.428   5.154
   25DPPC    C2 1202   3.833   5.590   4.987
   25DPPC    C3 1203   3.690   5.398   5.042
   25DPPC    N4 1204   3.773   5.508   5.093
   25DPPC    C5 1205   3.718   5.585   5.206
   25DPPC    C6 1206   3.652   5.720   5.175
   25DPPC    O7 1207   3.539   5.699   5.089
   25DPPC    P8 1208   3.443   5.824   5.060
   25DPPC    O9 1209   3.544   5.911   4.995
   25DPPC   O10 1210   3.364   5.873   5.176
   25DPPC   O11 1211   3.354   5.741   4.955
   25DPPC   C12 1212   3.448   5.707   4.853
   25DPPC   C13 1213   3.409   5.647   4.718
   25DPPC   O14 1214   3.514   5.583   4.644
   25DPPC   C15 1215   3.571   5.464   4.677
   25DPPC   O16 1216   3.547   5.415   4.787
   25DPPC   C17 1217   3.661   5.400   4.571
   25DPPC   C18 1218   3.738   5.512   4.502
   25DPPC   C19 1219   3.773   5.453   4.365
   25DPPC   C20 1220   3.886   5.350   4.375
   25DPPC   C21 1221   4.031   5.399   4.384
   25DPPC   C22 1222   4.126   5.291   4.333
   25DPPC   C23 1223   4.260   5.313   4.404
   25DPPC   C24 1224   4.377   5.242   4.337
   25DPPC   C25 1225   4.500   5.218   4.425
   25DPPC   C26 1226   4.618   5.193   4.331
   25DPPC   C27 1227   4.715   5.311   4.325
   25DPPC   C28 1228   4.832   5.265   4.238
   25DPPC   C29 1229   4.915   5.391   4.211
   25DPPC   C30 1230   5.013   5.342   4.104
   25DPPC   C31 1231   4.942   5.273   3.988
   25DPPC   C32 1232   3.348   5.769   4.648
   25DPPC   O33 1233   3.440   5.877   4.631
   25DPPC   C34 1234   3.383   5.991   4.582
   25DPPC   O35 1235   3.269   6.027   4.612
   25DPPC   C36 1236   3.486   6.093   4.535
   25DPPC   C37 1237   3.501   6.078   4.384
   25DPPC   C38 1238   3.599   5.964   4.351
   25DPPC   C39 1239   3.659   5.967   4.210
   25DPPC   C40 1240   3.565   5.906   4.106
   25DPPC   C41 1241   3.622   5.902   3.964
   25DPPC   C42 1242   3.752   5.823   3.956
   25DPPC   C43 1243   3.746   5.675   3.994
   25DPPC   C44 1244   3.865   5.584   3.963
   25DPPC   C45 1245   3.884   5.557   3.814
   25DPPC   C46 1246   4.003   5.471   3.771
   25DPPC   C47 1247   3.988   5.411   3.631
   25DPPC   C48 1248   4.105   5.323   3.586
   25DPPC   C49 1249   4.074   5.239   3.462
   25DPPC   C50 1250   4.205   5.172   3.419
   26DPPC    C1 1251   3.569   2.695   5.691
   26DPPC    C2 1252   3.564   2.546   5.517
   26DPPC    C3 1253   3.563   2.763   5.456
   26DPPC    N4 1254   3.624   2.674   5.555
   26DPPC    C5 1255   3.769   2.665   5.538
   26DPPC    C6 1256   3.845   2.794   5.572
   26DPPC    O7 1257   3.858   2.889   5.465
   26DPPC    P8 1258   3.916   3.024   5.530
   26DPPC    O9 1259   3.886   3.020   5.675
   26DPPC   O10 1260   3.917   3.150   5.452
   26DPPC   O11 1261   4.067   2.967   5.531
   26DPPC   C12 1262   4.154   3.018   5.430
   26DPPC   C13 1263   4.291   2.951   5.432
   26DPPC   O14 1264   4.367   2.986   5.315
   26DPPC   C15 1265   4.434   3.102   5.293
   26DPPC   O16 1266   4.418   3.188   5.379
   26DPPC   C17 1267   4.480   3.132   5.150
   26DPPC   C18 1268   4.630   3.162   5.154
   26DPPC   C19 1269   4.683   3.185   5.012
   26DPPC   C20 1270   4.831   3.222   5.000
   26DPPC   C21 1271   4.858   3.211   4.849
   26DPPC   C22 1272   4.856   3.064   4.807
   26DPPC   C23 1273   4.869   3.063   4.655
   26DPPC   C24 1274   4.839   2.933   4.579
   26DPPC   C25 1275   4.871   2.933   4.429
   26DPPC   C26 1276   4.834   2.801   4.361
   26DPPC   C27 1277   4.848   2.811   4.209
   26DPPC   C28 1278   4.809   2.692   4.121
   26DPPC   C29 1279   4.796   2.738   3.976
   26DPPC   C30 1280   4.771   2.617   3.886
   26DPPC   C31 1281   4.792   2.643   3.737
   26DPPC   C32 1282   4.258   2.802   5.432
   26DPPC   O33 1283   4.171   2.758   5.328
   26DPPC   C34 1284   4.115   2.634   5.340
   26DPPC   O35 1285   4.118   2.591   5.455
   26DPPC   C36 1286   4.039   2.589   5.215
   26DPPC   C37 1287   4.120   2.502   5.118
   26DPPC   C38 1288   4.035   2.477   4.994
   26DPPC   C39 1289   3.989   2.609   4.933
   26DPPC   C40 1290   3.970   2.578   4.784
   26DPPC   C41 1291   3.942   2.706   4.705
   26DPPC   C42 1292   3.945   2.673   4.556
   26DPPC   C43 1293   3.947   2.805   4.480
   26DPPC   C44 1294   4.087   2.865   4.484
   26DPPC   C45 1295   4.085   2.988   4.394
   26DPPC   C46 1296   4.032   2.950   4.255
   26DPPC   C47 1297   3.988   3.064   4.163
   26DPPC   C48 1298   3.936   3.027   4.024
   26DPPC   C49 1299   3.906   3.144   3.929
   26DPPC   C50 1300   3.817   3.253   3.990
   27DPPC    C1 1301   3.667   0.232   5.240
   27DPPC    C2 1302   3.555   0.418   5.169
   27DPPC    C3 1303   3.737   0.348   5.034
   27DPPC    N4 1304   3.626   0.299   5.116
   27DPPC    C5 1305   3.529   0.209   5.053
   27DPPC    C6 1306   3.573   0.070   5.007
   27DPPC    O7 1307   3.685   0.063   4.918
   27DPPC    P8 1308   3.734  -0.090   4.928
   27DPPC    O9 1309   3.624  -0.170   4.987
   27DPPC   O10 1310   3.871  -0.086   4.984
   27DPPC   O11 1311   3.741  -0.133   4.773
   27DPPC   C12 1312   3.850  -0.060   4.716
   27DPPC   C13 1313   3.845  -0.042   4.564
   27DPPC   O14 1314   3.775   0.078   4.529
   27DPPC   C15 1315   3.851   0.170   4.464
   27DPPC   O16 1316   3.965   0.194   4.505
   27DPPC   C17 1317   3.766   0.286   4.411
   27DPPC   C18 1318   3.827   0.354   4.288
   27DPPC   C19 1319   3.742   0.475   4.247
   27DPPC   C20 1320   3.809   0.534   4.123
   27DPPC   C21 1321   3.788   0.441   4.003
   27DPPC   C22 1322   3.897   0.463   3.897
   27DPPC   C23 1323   3.897   0.405   3.756
   27DPPC   C24 1324   3.998   0.475   3.665
   27DPPC   C25 1325   3.999   0.396   3.534
   27DPPC   C26 1326   4.080   0.271   3.567
   27DPPC   C27 1327   4.066   0.167   3.456
   27DPPC   C28 1328   4.137   0.033   3.474
   27DPPC   C29 1329   4.117  -0.081   3.373
   27DPPC   C30 1330   3.966  -0.082   3.349
   27DPPC   C31 1331   3.909  -0.221   3.378
   27DPPC   C32 1332   3.775  -0.167   4.511
   27DPPC   O33 1333   3.846  -0.290   4.519
   27DPPC   C34 1334   3.776  -0.404   4.494
   27DPPC   O35 1335   3.654  -0.420   4.486
   27DPPC   C36 1336   3.868  -0.526   4.485
   27DPPC   C37 1337   3.916  -0.574   4.348
   27DPPC   C38 1338   3.999  -0.464   4.282
   27DPPC   C39 1339   4.038  -0.511   4.142
   27DPPC   C40 1340   4.147  -0.410   4.103
   27DPPC   C41 1341   4.204  -0.449   3.966
   27DPPC   C42 1342   4.289  -0.333   3.913
   27DPPC   C43 1343   4.361  -0.373   3.784
   27DPPC   C44 1344   4.458  -0.265   3.735
   27DPPC   C45 1345   4.517  -0.320   3.604
   27DPPC   C46 1346   4.415  -0.307   3.491
   27DPPC   C47 1347   4.482  -0.362   3.365
   27DPPC   C48 1348   4.397  -0.361   3.238
   27DPPC   C49 1349   4.505  -0.409   3.142
   27DPPC   C50 1350   4.524  -0.561   3.130
   28DPPC    C1 1351   8.640   2.516   5.320
   28DPPC    C2 1352   8.698   2.518   5.549
   28DPPC    C3 1353   8.646   2.722   5.438
   28DPPC    N4 1354   8.610   2.580   5.449
   28DPPC    C5 1355   8.480   2.526   5.492
   28DPPC    C6 1356   8.355   2.590   5.431
   28DPPC    O7 1357   8.308   2.683   5.529
   28DPPC    P8 1358   8.181   2.771   5.484
   28DPPC    O9 1359   8.192   2.887   5.575
   28DPPC   O10 1360   8.075   2.668   5.490
   28DPPC   O11 1361   8.253   2.799   5.343
   28DPPC   C12 1362   8.157   2.824   5.240
   28DPPC   C13 1363   8.231   2.888   5.122
   28DPPC   O14 1364   8.146   2.947   5.022
   28DPPC   C15 1365   8.184   3.063   4.962
   28DPPC   O16 1366   8.300   3.102   4.977
   28DPPC   C17 1367   8.095   3.111   4.847
   28DPPC   C18 1368   7.955   3.150   4.895
   28DPPC   C19 1369   7.847   3.153   4.787
   28DPPC   C20 1370   7.879   3.251   4.675
   28DPPC   C21 1371   7.791   3.226   4.552
   28DPPC   C22 1372   7.825   3.333   4.449
   28DPPC   C23 1373   7.740   3.294   4.328
   28DPPC   C24 1374   7.734   3.414   4.234
   28DPPC   C25 1375   7.681   3.377   4.095
   28DPPC   C26 1376   7.731   3.486   4.000
   28DPPC   C27 1377   7.664   3.476   3.863
   28DPPC   C28 1378   7.683   3.606   3.784
   28DPPC   C29 1379   7.571   3.619   3.681
   28DPPC   C30 1380   7.594   3.740   3.590
   28DPPC   C31 1381   7.486   3.735   3.481
   28DPPC   C32 1382   8.330   2.783   5.071
   28DPPC   O33 1383   8.266   2.662   5.032
   28DPPC   C34 1384   8.339   2.555   4.988
   28DPPC   O35 1385   8.454   2.540   5.029
   28DPPC   C36 1386   8.260   2.438   4.928
   28DPPC   C37 1387   8.234   2.459   4.779
   28DPPC   C38 1388   8.127   2.564   4.748
   28DPPC   C39 1389   8.110   2.574   4.597
   28DPPC   C40 1390   8.020   2.692   4.559
   28DPPC   C41 1391   7.990   2.698   4.409
   28DPPC   C42 1392   7.920   2.832   4.385
   28DPPC   C43 1393   7.872   2.851   4.241
   28DPPC   C44 1394   7.943   2.970   4.177
   28DPPC   C45 1395   7.913   2.992   4.028
   28DPPC   C46 1396   7.966   3.126   3.975
   28DPPC   C47 1397   7.930   3.115   3.826
   28DPPC   C48 1398   7.961   3.251   3.764
   28DPPC   C49 1399   7.905   3.245   3.622
   28DPPC   C50 1400   7.943   3.362   3.531
   29DPPC    C1 1401   0.441   4.842   5.023
   29DPPC    C2 1402   0.378   4.753   4.823
   29DPPC    C3 1403   0.213   4.846   4.922
   29DPPC    N4 1404   0.357   4.872   4.907
   29DPPC    C5 1405   0.396   4.991   4.830
   29DPPC    C6 1406   0.374   5.124   4.902
   29DPPC    O7 1407   0.441   5.229   4.832
   29DPPC    P8 1408   0.389   5.373   4.883
   29DPPC    O9 1409   0.498   5.418   4.973
   29DPPC   O10 1410   0.259   5.342   4.946
   29DPPC   O11 1411   0.406   5.444   4.740
   29DPPC   C12 1412   0.317   5.392   4.641
   29DPPC   C13 1413   0.340   5.456   4.505
   29DPPC   O14 1414   0.237   5.418   4.412
   29DPPC   C15 1415   0.129   5.498   4.391
   29DPPC   O16 1416   0.107   5.598   4.459
   29DPPC   C17 1417   0.043   5.471   4.267
   29DPPC   C18 1418   0.120   5.510   4.141
   29DPPC   C19 1419   0.049   5.449   4.020
   29DPPC   C20 1420   0.147   5.434   3.903
   29DPPC   C21 1421   0.079   5.411   3.768
   29DPPC   C22 1422  -0.037   5.506   3.737
   29DPPC   C23 1423  -0.125   5.480   3.615
   29DPPC   C24 1424  -0.206   5.600   3.566
   29DPPC   C25 1425  -0.267   5.598   3.426
   29DPPC   C26 1426  -0.389   5.507   3.410
   29DPPC   C27 1427  -0.470   5.518   3.281
   29DPPC   C28 1428  -0.594   5.428   3.270
   29DPPC   C29 1429  -0.662   5.448   3.135
   29DPPC   C30 1430  -0.721   5.589   3.145
   29DPPC   C31 1431  -0.802   5.634   3.023
   29DPPC   C32 1432   0.484   5.421   4.467
   29DPPC   O33 1433   0.522   5.283   4.463
   29DPPC   C34 1434   0.649   5.262   4.421
   29DPPC   O35 1435   0.713   5.357   4.374
   29DPPC   C36 1436   0.702   5.120   4.441
   29DPPC   C37 1437   0.786   5.083   4.319
   29DPPC   C38 1438   0.871   4.957   4.330
   29DPPC   C39 1439   0.960   4.939   4.207
   29DPPC   C40 1440   0.887   4.929   4.073
   29DPPC   C41 1441   0.983   4.894   3.959
   29DPPC   C42 1442   0.914   4.918   3.824
   29DPPC   C43 1443   1.004   4.905   3.701
   29DPPC   C44 1444   0.931   4.942   3.572
   29DPPC   C45 1445   1.012   4.918   3.444
   29DPPC   C46 1446   0.941   4.991   3.330
   29DPPC   C47 1447   1.011   4.965   3.197
   29DPPC   C48 1448   0.964   5.055   3.083
   29DPPC   C49 1449   1.058   5.044   2.963
   29DPPC   C50 1450   1.012   5.125   2.842
   30DPPC    C1 1451   6.727   1.955   5.904
   30DPPC    C2 1452   6.911   1.933   5.744
   30DPPC    C3 1453   6.715   2.008   5.661
   30DPPC    N4 1454   6.793   2.010   5.785
   30DPPC    C5 1455   6.847   2.145   5.809
   30DPPC    C6 1456   6.750   2.246   5.870
   30DPPC    O7 1457   6.806   2.378   5.878
   30DPPC    P8 1458   6.708   2.477   5.797
   30DPPC    O9 1459   6.755   2.615   5.820
   30DPPC   O10 1460   6.565   2.448   5.820
   30DPPC   O11 1461   6.737   2.442   5.643
   30DPPC   C12 1462   6.692   2.557   5.571
   30DPPC   C13 1463   6.768   2.562   5.439
   30DPPC   O14 1464   6.723   2.658   5.342
   30DPPC   C15 1465   6.801   2.769   5.331
   30DPPC   O16 1466   6.879   2.806   5.419
   30DPPC   C17 1467   6.774   2.856   5.207
   30DPPC   C18 1468   6.716   2.996   5.230
   30DPPC   C19 1469   6.697   3.082   5.106
   30DPPC   C20 1470   6.831   3.139   5.058
   30DPPC   C21 1471   6.819   3.209   4.922
   30DPPC   C22 1472   6.949   3.283   4.889
   30DPPC   C23 1473   6.922   3.374   4.769
   30DPPC   C24 1474   6.798   3.463   4.784
   30DPPC   C25 1475   6.804   3.549   4.658
   30DPPC   C26 1476   6.872   3.681   4.695
   30DPPC   C27 1477   6.905   3.755   4.565
   30DPPC   C28 1478   6.783   3.787   4.479
   30DPPC   C29 1479   6.704   3.891   4.558
   30DPPC   C30 1480   6.553   3.868   4.544
   30DPPC   C31 1481   6.517   3.884   4.397
   30DPPC   C32 1482   6.762   2.424   5.372
   30DPPC   O33 1483   6.840   2.399   5.255
   30DPPC   C34 1484   6.864   2.271   5.215
   30DPPC   O35 1485   6.773   2.200   5.257
   30DPPC   C36 1486   6.987   2.239   5.130
   30DPPC   C37 1487   6.956   2.213   4.983
   30DPPC   C38 1488   6.932   2.337   4.895
   30DPPC   C39 1489   6.933   2.298   4.747
   30DPPC   C40 1490   6.911   2.425   4.665
   30DPPC   C41 1491   6.877   2.380   4.523
   30DPPC   C42 1492   6.768   2.476   4.474
   30DPPC   C43 1493   6.738   2.484   4.324
   30DPPC   C44 1494   6.620   2.578   4.301
   30DPPC   C45 1495   6.606   2.607   4.151
   30DPPC   C46 1496   6.479   2.685   4.120
   30DPPC   C47 1497   6.464   2.803   4.216
   30DPPC   C48 1498   6.350   2.897   4.177
   30DPPC   C49 1499   6.358   3.020   4.269
   30DPPC   C50 1500   6.249   3.113   4.217
   31DPPC    C1 1501   5.900   7.120   5.032
   31DPPC    C2 1502   6.034   7.116   4.834
   31DPPC    C3 1503   6.119   7.142   5.062
   31DPPC    N4 1504   6.026   7.070   4.974
   31DPPC    C5 1505   6.038   6.927   5.006
   31DPPC    C6 1506   5.974   6.822   4.916
   31DPPC    O7 1507   5.832   6.834   4.922
   31DPPC    P8 1508   5.750   6.756   5.036
   31DPPC    O9 1509   5.739   6.855   5.146
   31DPPC   O10 1510   5.833   6.637   5.066
   31DPPC   O11 1511   5.609   6.727   4.965
   31DPPC   C12 1512   5.638   6.660   4.842
   31DPPC   C13 1513   5.545   6.543   4.809
   31DPPC   O14 1514   5.584   6.460   4.698
   31DPPC   C15 1515   5.575   6.327   4.722
   31DPPC   O16 1516   5.604   6.293   4.837
   31DPPC   C17 1517   5.591   6.238   4.598
   31DPPC   C18 1518   5.455   6.210   4.535
   31DPPC   C19 1519   5.485   6.169   4.390
   31DPPC   C20 1520   5.365   6.162   4.296
   31DPPC   C21 1521   5.408   6.109   4.159
   31DPPC   C22 1522   5.278   6.077   4.085
   31DPPC   C23 1523   5.187   6.200   4.083
   31DPPC   C24 1524   5.076   6.175   3.982
   31DPPC   C25 1525   4.996   6.305   3.968
   31DPPC   C26 1526   4.923   6.296   3.834
   31DPPC   C27 1527   4.878   6.440   3.807
   31DPPC   C28 1528   4.773   6.475   3.913
   31DPPC   C29 1529   4.701   6.604   3.871
   31DPPC   C30 1530   4.585   6.627   3.967
   31DPPC   C31 1531   4.646   6.666   4.102
   31DPPC   C32 1532   5.405   6.604   4.808
   31DPPC   O33 1533   5.387   6.706   4.710
   31DPPC   C34 1534   5.277   6.786   4.714
   31DPPC   O35 1535   5.182   6.755   4.786
   31DPPC   C36 1536   5.285   6.905   4.619
   31DPPC   C37 1537   5.248   6.869   4.475
   31DPPC   C38 1538   5.264   6.995   4.390
   31DPPC   C39 1539   5.227   6.947   4.249
   31DPPC   C40 1540   5.248   7.050   4.138
   31DPPC   C41 1541   5.373   7.132   4.168
   31DPPC   C42 1542   5.395   7.236   4.058
   31DPPC   C43 1543   5.535   7.299   4.054
   31DPPC   C44 1544   5.565   7.398   4.166
   31DPPC   C45 1545   5.467   7.514   4.143
   31DPPC   C46 1546   5.488   7.614   4.257
   31DPPC   C47 1547   5.436   7.560   4.390
   31DPPC   C48 1548   5.291   7.513   4.379
   31DPPC   C49 1549   5.222   7.529   4.514
   31DPPC   C50 1550   5.090   7.451   4.519
   32DPPC    C1 1551   1.036   7.638   4.577
   32DPPC    C2 1552   0.919   7.843   4.559
   32DPPC    C3 1553   0.904   7.664   4.392
   32DPPC    N4 1554   0.909   7.698   4.535
   32DPPC    C5 1555   0.805   7.628   4.612
   32DPPC    C6 1556   0.673   7.699   4.640
   32DPPC    O7 1557   0.599   7.724   4.520
   32DPPC    P8 1558   0.487   7.838   4.541
   32DPPC    O9 1559   0.557   7.968   4.549
   32DPPC   O10 1560   0.385   7.798   4.640
   32DPPC   O11 1561   0.426   7.816   4.393
   32DPPC   C12 1562   0.522   7.855   4.296
   32DPPC   C13 1563   0.488   7.797   4.158
   32DPPC   O14 1564   0.585   7.815   4.053
   32DPPC   C15 1565   0.562   7.732   3.949
   32DPPC   O16 1566   0.507   7.625   3.974
   32DPPC   C17 1567   0.628   7.761   3.814
   32DPPC   C18 1568   0.741   7.663   3.785
   32DPPC   C19 1569   0.822   7.693   3.659
   32DPPC   C20 1570   0.972   7.700   3.687
   32DPPC   C21 1571   1.060   7.714   3.563
   32DPPC   C22 1572   1.038   7.596   3.468
   32DPPC   C23 1573   1.132   7.595   3.348
   32DPPC   C24 1574   1.104   7.488   3.242
   32DPPC   C25 1575   1.109   7.355   3.318
   32DPPC   C26 1576   1.084   7.246   3.214
   32DPPC   C27 1577   0.943   7.265   3.157
   32DPPC   C28 1578   0.905   7.150   3.063
   32DPPC   C29 1579   0.895   7.019   3.142
   32DPPC   C30 1580   0.763   7.014   3.219
   32DPPC   C31 1581   0.754   6.868   3.266
   32DPPC   C32 1582   0.347   7.845   4.123
   32DPPC   O33 1583   0.339   7.983   4.087
   32DPPC   C34 1584   0.212   8.025   4.062
   32DPPC   O35 1585   0.118   7.946   4.051
   32DPPC   C36 1586   0.192   8.176   4.045
   32DPPC   C37 1587   0.088   8.220   3.942
   32DPPC   C38 1588   0.101   8.369   3.912
   32DPPC   C39 1589  -0.022   8.402   3.827
   32DPPC   C40 1590  -0.015   8.546   3.774
   32DPPC   C41 1591  -0.071   8.560   3.632
   32DPPC   C42 1592  -0.076   8.704   3.583
   32DPPC   C43 1593  -0.095   8.715   3.431
   32DPPC   C44 1594  -0.230   8.666   3.380
   32DPPC   C45 1595  -0.220   8.683   3.229
   32DPPC   C46 1596  -0.350   8.656   3.152
   32DPPC   C47 1597  -0.328   8.671   3.001
   32DPPC   C48 1598  -0.453   8.631   2.921
   32DPPC   C49 1599  -0.435   8.612   2.771
   32DPPC   C50 1600  -0.325   8.506   2.759
   33DPPC    C1 1601   2.249   2.386   5.092
   33DPPC    C2 1602   2.130   2.574   5.049
   33DPPC    C3 1603   2.246   2.481   4.866
   33DPPC    N4 1604   2.168   2.447   4.986
   33DPPC    C5 1605   2.058   2.365   4.932
   33DPPC    C6 1606   1.945   2.317   5.023
   33DPPC    O7 1607   1.830   2.257   4.963
   33DPPC    P8 1608   1.706   2.356   4.935
   33DPPC    O9 1609   1.730   2.461   5.036
   33DPPC   O10 1610   1.588   2.267   4.932
   33DPPC   O11 1611   1.748   2.411   4.790
   33DPPC   C12 1612   1.704   2.323   4.686
   33DPPC   C13 1613   1.716   2.388   4.548
   33DPPC   O14 1614   1.641   2.317   4.447
   33DPPC   C15 1615   1.518   2.372   4.427
   33DPPC   O16 1616   1.495   2.478   4.484
   33DPPC   C17 1617   1.441   2.326   4.303
   33DPPC   C18 1618   1.363   2.437   4.231
   33DPPC   C19 1619   1.305   2.408   4.093
   33DPPC   C20 1620   1.224   2.527   4.042
   33DPPC   C21 1621   1.140   2.493   3.918
   33DPPC   C22 1622   1.039   2.380   3.938
   33DPPC   C23 1623   0.966   2.370   3.804
   33DPPC   C24 1624   1.061   2.325   3.693
   33DPPC   C25 1625   0.976   2.325   3.566
   33DPPC   C26 1626   1.049   2.239   3.463
   33DPPC   C27 1627   1.193   2.288   3.483
   33DPPC   C28 1628   1.285   2.216   3.384
   33DPPC   C29 1629   1.436   2.225   3.404
   33DPPC   C30 1630   1.508   2.141   3.297
   33DPPC   C31 1631   1.593   2.218   3.195
   33DPPC   C32 1632   1.867   2.397   4.526
   33DPPC   O33 1633   1.946   2.278   4.538
   33DPPC   C34 1634   2.081   2.292   4.529
   33DPPC   O35 1635   2.129   2.404   4.547
   33DPPC   C36 1636   2.178   2.185   4.479
   33DPPC   C37 1637   2.106   2.060   4.427
   33DPPC   C38 1638   2.087   2.068   4.275
   33DPPC   C39 1639   2.037   1.934   4.220
   33DPPC   C40 1640   2.032   1.937   4.068
   33DPPC   C41 1641   2.016   1.797   4.008
   33DPPC   C42 1642   2.009   1.814   3.856
   33DPPC   C43 1643   2.136   1.889   3.814
   33DPPC   C44 1644   2.152   1.888   3.661
   33DPPC   C45 1645   2.071   2.010   3.617
   33DPPC   C46 1646   2.105   2.047   3.472
   33DPPC   C47 1647   2.030   2.168   3.415
   33DPPC   C48 1648   2.081   2.206   3.276
   33DPPC   C49 1649   1.983   2.314   3.229
   33DPPC   C50 1650   1.999   2.338   3.078
   34DPPC    C1 1651   2.880   4.421   5.274
   34DPPC    C2 1652   2.802   4.554   5.112
   34DPPC    C3 1653   2.814   4.663   5.324
   34DPPC    N4 1654   2.879   4.563   5.237
   34DPPC    C5 1655   3.012   4.616   5.205
   34DPPC    C6 1656   3.114   4.601   5.318
   34DPPC    O7 1657   3.220   4.693   5.293
   34DPPC    P8 1658   3.323   4.684   5.416
   34DPPC    O9 1659   3.246   4.681   5.543
   34DPPC   O10 1660   3.455   4.750   5.407
   34DPPC   O11 1661   3.347   4.526   5.396
   34DPPC   C12 1662   3.449   4.500   5.298
   34DPPC   C13 1663   3.513   4.362   5.301
   34DPPC   O14 1664   3.608   4.324   5.200
   34DPPC   C15 1665   3.732   4.378   5.206
   34DPPC   O16 1666   3.760   4.473   5.279
   34DPPC   C17 1667   3.843   4.326   5.114
   34DPPC   C18 1668   3.880   4.401   4.985
   34DPPC   C19 1669   3.762   4.418   4.890
   34DPPC   C20 1670   3.788   4.506   4.768
   34DPPC   C21 1671   3.659   4.547   4.697
   34DPPC   C22 1672   3.687   4.613   4.563
   34DPPC   C23 1673   3.739   4.516   4.457
   34DPPC   C24 1674   3.782   4.599   4.336
   34DPPC   C25 1675   3.830   4.509   4.221
   34DPPC   C26 1676   3.966   4.552   4.167
   34DPPC   C27 1677   4.036   4.439   4.091
   34DPPC   C28 1678   4.169   4.494   4.039
   34DPPC   C29 1679   4.242   4.403   3.940
   34DPPC   C30 1680   4.390   4.435   3.913
   34DPPC   C31 1681   4.401   4.574   3.849
   34DPPC   C32 1682   3.395   4.267   5.327
   34DPPC   O33 1683   3.290   4.266   5.229
   34DPPC   C34 1684   3.199   4.166   5.233
   34DPPC   O35 1685   3.165   4.137   5.348
   34DPPC   C36 1686   3.120   4.148   5.103
   34DPPC   C37 1687   3.121   4.001   5.060
   34DPPC   C38 1688   3.061   4.005   4.919
   34DPPC   C39 1689   3.166   4.055   4.820
   34DPPC   C40 1690   3.110   4.045   4.678
   34DPPC   C41 1691   3.194   3.957   4.586
   34DPPC   C42 1692   3.105   3.918   4.468
   34DPPC   C43 1693   3.202   3.867   4.361
   34DPPC   C44 1694   3.144   3.851   4.220
   34DPPC   C45 1695   3.255   3.785   4.139
   34DPPC   C46 1696   3.210   3.778   3.992
   34DPPC   C47 1697   3.227   3.915   3.927
   34DPPC   C48 1698   3.194   3.908   3.778
   34DPPC   C49 1699   3.241   4.040   3.716
   34DPPC   C50 1700   3.231   4.033   3.563
   35DPPC    C1 1701   1.400   2.737   1.227
   35DPPC    C2 1702   1.301   2.940   1.313
   35DPPC    C3 1703   1.364   2.758   1.459
   35DPPC    N4 1704   1.399   2.833   1.338
   35DPPC    C5 1705   1.534   2.890   1.350
   35DPPC    C6 1706   1.592   2.967   1.231
   35DPPC    O7 1707   1.709   3.041   1.266
   35DPPC    P8 1708   1.709   3.175   1.178
   35DPPC    O9 1709   1.629   3.159   1.055
   35DPPC   O10 1710   1.824   3.268   1.188
   35DPPC   O11 1711   1.587   3.237   1.263
   35DPPC   C12 1712   1.642   3.300   1.380
   35DPPC   C13 1713   1.517   3.362   1.442
   35DPPC   O14 1714   1.548   3.478   1.521
   35DPPC   C15 1715   1.615   3.583   1.467
   35DPPC   O16 1716   1.597   3.602   1.347
   35DPPC   C17 1717   1.668   3.687   1.567
   35DPPC   C18 1718   1.556   3.727   1.663
   35DPPC   C19 1719   1.619   3.755   1.800
   35DPPC   C20 1720   1.520   3.804   1.906
   35DPPC   C21 1721   1.599   3.817   2.036
   35DPPC   C22 1722   1.504   3.842   2.154
   35DPPC   C23 1723   1.587   3.870   2.280
   35DPPC   C24 1724   1.490   3.935   2.379
   35DPPC   C25 1725   1.567   4.033   2.468
   35DPPC   C26 1726   1.469   4.122   2.545
   35DPPC   C27 1727   1.409   4.035   2.656
   35DPPC   C28 1728   1.315   4.116   2.746
   35DPPC   C29 1729   1.277   4.028   2.865
   35DPPC   C30 1730   1.206   4.115   2.969
   35DPPC   C31 1731   1.294   4.236   3.000
   35DPPC   C32 1732   1.434   3.261   1.522
   35DPPC   O33 1733   1.514   3.161   1.586
   35DPPC   C34 1734   1.442   3.064   1.647
   35DPPC   O35 1735   1.330   3.034   1.604
   35DPPC   C36 1736   1.515   2.971   1.744
   35DPPC   C37 1737   1.619   3.042   1.831
   35DPPC   C38 1738   1.548   3.147   1.916
   35DPPC   C39 1739   1.651   3.200   2.016
   35DPPC   C40 1740   1.584   3.309   2.101
   35DPPC   C41 1741   1.621   3.315   2.249
   35DPPC   C42 1742   1.530   3.426   2.303
   35DPPC   C43 1743   1.524   3.423   2.455
   35DPPC   C44 1744   1.430   3.523   2.522
   35DPPC   C45 1745   1.431   3.515   2.675
   35DPPC   C46 1746   1.345   3.638   2.707
   35DPPC   C47 1747   1.200   3.595   2.684
   35DPPC   C48 1748   1.106   3.715   2.669
   35DPPC   C49 1749   0.964   3.658   2.664
   35DPPC   C50 1750   0.909   3.609   2.798
   36DPPC    C1 1751   6.076   6.420   1.582
   36DPPC    C2 1752   6.237   6.421   1.742
   36DPPC    C3 1753   6.253   6.583   1.558
   36DPPC    N4 1754   6.165   6.513   1.653
   36DPPC    C5 1755   6.088   6.605   1.739
   36DPPC    C6 1756   6.006   6.721   1.681
   36DPPC    O7 1757   6.079   6.828   1.621
   36DPPC    P8 1758   5.967   6.941   1.596
   36DPPC    O9 1759   5.841   6.869   1.566
   36DPPC   O10 1760   6.024   7.038   1.500
   36DPPC   O11 1761   5.957   6.999   1.746
   36DPPC   C12 1762   6.088   7.020   1.800
   36DPPC   C13 1763   6.103   7.093   1.934
   36DPPC   O14 1764   6.233   7.066   1.988
   36DPPC   C15 1765   6.326   7.163   1.966
   36DPPC   O16 1766   6.323   7.243   1.872
   36DPPC   C17 1767   6.460   7.159   2.039
   36DPPC   C18 1768   6.420   7.153   2.187
   36DPPC   C19 1769   6.545   7.145   2.274
   36DPPC   C20 1770   6.518   7.158   2.424
   36DPPC   C21 1771   6.634   7.155   2.524
   36DPPC   C22 1772   6.582   7.171   2.667
   36DPPC   C23 1773   6.701   7.159   2.761
   36DPPC   C24 1774   6.674   7.216   2.900
   36DPPC   C25 1775   6.798   7.280   2.963
   36DPPC   C26 1776   6.759   7.343   3.097
   36DPPC   C27 1777   6.685   7.240   3.184
   36DPPC   C28 1778   6.617   7.291   3.311
   36DPPC   C29 1779   6.709   7.355   3.415
   36DPPC   C30 1780   6.637   7.400   3.542
   36DPPC   C31 1781   6.749   7.452   3.632
   36DPPC   C32 1782   5.984   7.038   2.012
   36DPPC   O33 1783   5.940   7.119   2.121
   36DPPC   C34 1784   5.861   7.068   2.219
   36DPPC   O35 1785   5.795   6.968   2.191
   36DPPC   C36 1786   5.840   7.146   2.349
   36DPPC   C37 1787   5.961   7.126   2.441
   36DPPC   C38 1788   5.944   7.174   2.585
   36DPPC   C39 1789   5.830   7.096   2.649
   36DPPC   C40 1790   5.881   7.075   2.792
   36DPPC   C41 1791   5.765   7.024   2.877
   36DPPC   C42 1792   5.785   7.022   3.029
   36DPPC   C43 1793   5.697   6.916   3.097
   36DPPC   C44 1794   5.732   6.908   3.246
   36DPPC   C45 1795   5.621   6.846   3.331
   36DPPC   C46 1796   5.679   6.809   3.467
   36DPPC   C47 1797   5.579   6.862   3.571
   36DPPC   C48 1798   5.591   6.780   3.700
   36DPPC   C49 1799   5.508   6.851   3.807
   36DPPC   C50 1800   5.548   6.781   3.936
   37DPPC    C1 1801   8.394   3.078   1.458
   37DPPC    C2 1802   8.473   3.066   1.239
   37DPPC    C3 1803   8.282   3.196   1.268
   37DPPC    N4 1804   8.407   3.156   1.334
   37DPPC    C5 1805   8.501   3.267   1.352
   37DPPC    C6 1806   8.450   3.376   1.446
   37DPPC    O7 1807   8.544   3.484   1.452
   37DPPC    P8 1808   8.471   3.610   1.520
   37DPPC    O9 1809   8.366   3.549   1.604
   37DPPC   O10 1810   8.438   3.676   1.391
   37DPPC   O11 1811   8.599   3.677   1.591
   37DPPC   C12 1812   8.621   3.600   1.709
   37DPPC   C13 1813   8.685   3.675   1.826
   37DPPC   O14 1814   8.742   3.593   1.929
   37DPPC   C15 1815   8.850   3.513   1.906
   37DPPC   O16 1816   8.906   3.517   1.796
   37DPPC   C17 1817   8.901   3.424   2.019
   37DPPC   C18 1818   9.002   3.316   1.980
   37DPPC   C19 1819   9.035   3.239   2.109
   37DPPC   C20 1820   9.113   3.116   2.064
   37DPPC   C21 1821   9.137   3.010   2.172
   37DPPC   C22 1822   9.242   2.913   2.119
   37DPPC   C23 1823   9.270   2.820   2.237
   37DPPC   C24 1824   9.337   2.880   2.361
   37DPPC   C25 1825   9.481   2.923   2.336
   37DPPC   C26 1826   9.553   2.957   2.466
   37DPPC   C27 1827   9.598   2.840   2.553
   37DPPC   C28 1828   9.629   2.890   2.694
   37DPPC   C29 1829   9.646   2.773   2.791
   37DPPC   C30 1830   9.709   2.792   2.930
   37DPPC   C31 1831   9.617   2.877   3.017
   37DPPC   C32 1832   8.578   3.777   1.866
   37DPPC   O33 1833   8.456   3.711   1.900
   37DPPC   C34 1834   8.349   3.765   1.837
   37DPPC   O35 1835   8.356   3.836   1.736
   37DPPC   C36 1836   8.208   3.723   1.879
   37DPPC   C37 1837   8.199   3.720   2.031
   37DPPC   C38 1838   8.250   3.847   2.101
   37DPPC   C39 1839   8.192   3.876   2.239
   37DPPC   C40 1840   8.236   3.766   2.335
   37DPPC   C41 1841   8.148   3.769   2.460
   37DPPC   C42 1842   8.237   3.698   2.564
   37DPPC   C43 1843   8.190   3.715   2.709
   37DPPC   C44 1844   8.308   3.661   2.790
   37DPPC   C45 1845   8.288   3.699   2.937
   37DPPC   C46 1846   8.405   3.642   3.017
   37DPPC   C47 1847   8.406   3.680   3.165
   37DPPC   C48 1848   8.516   3.607   3.242
   37DPPC   C49 1849   8.624   3.711   3.271
   37DPPC   C50 1850   8.748   3.635   3.319
   38DPPC    C1 1851   3.353   4.314   1.280
   38DPPC    C2 1852   3.349   4.548   1.220
   38DPPC    C3 1853   3.169   4.415   1.154
   38DPPC    N4 1854   3.268   4.432   1.261
   38DPPC    C5 1855   3.190   4.475   1.378
   38DPPC    C6 1856   3.097   4.379   1.453
   38DPPC    O7 1857   3.169   4.275   1.520
   38DPPC    P8 1858   3.066   4.161   1.567
   38DPPC    O9 1859   3.135   4.060   1.650
   38DPPC   O10 1860   2.999   4.124   1.440
   38DPPC   O11 1861   2.968   4.255   1.654
   38DPPC   C12 1862   3.007   4.263   1.792
   38DPPC   C13 1863   3.105   4.377   1.816
   38DPPC   O14 1864   3.182   4.350   1.934
   38DPPC   C15 1865   3.273   4.433   1.990
   38DPPC   O16 1866   3.332   4.520   1.925
   38DPPC   C17 1867   3.317   4.383   2.128
   38DPPC   C18 1868   3.314   4.499   2.228
   38DPPC   C19 1869   3.376   4.455   2.360
   38DPPC   C20 1870   3.371   4.576   2.454
   38DPPC   C21 1871   3.434   4.533   2.586
   38DPPC   C22 1872   3.356   4.429   2.667
   38DPPC   C23 1873   3.415   4.375   2.797
   38DPPC   C24 1874   3.460   4.493   2.884
   38DPPC   C25 1875   3.343   4.585   2.919
   38DPPC   C26 1876   3.406   4.691   3.011
   38DPPC   C27 1877   3.301   4.798   3.040
   38DPPC   C28 1878   3.356   4.911   3.128
   38DPPC   C29 1879   3.258   5.028   3.131
   38DPPC   C30 1880   3.307   5.129   3.235
   38DPPC   C31 1881   3.192   5.225   3.266
   38DPPC   C32 1882   3.031   4.511   1.806
   38DPPC   O33 1883   2.920   4.520   1.895
   38DPPC   C34 1884   2.860   4.642   1.904
   38DPPC   O35 1885   2.907   4.751   1.871
   38DPPC   C36 1886   2.736   4.633   1.994
   38DPPC   C37 1887   2.751   4.606   2.144
   38DPPC   C38 1888   2.655   4.496   2.188
   38DPPC   C39 1889   2.707   4.433   2.317
   38DPPC   C40 1890   2.600   4.335   2.368
   38DPPC   C41 1891   2.649   4.242   2.479
   38DPPC   C42 1892   2.712   4.311   2.600
   38DPPC   C43 1893   2.728   4.219   2.721
   38DPPC   C44 1894   2.792   4.309   2.827
   38DPPC   C45 1895   2.945   4.317   2.818
   38DPPC   C46 1896   2.996   4.411   2.927
   38DPPC   C47 1897   2.962   4.358   3.067
   38DPPC   C48 1898   3.028   4.448   3.172
   38DPPC   C49 1899   2.962   4.586   3.162
   38DPPC   C50 1900   2.994   4.679   3.279
   39DPPC    C1 1901   4.153   8.049   1.793
   39DPPC    C2 1902   4.234   8.067   1.561
   39DPPC    C3 1903   4.190   7.855   1.677
   39DPPC    N4 1904   4.148   7.994   1.656
   39DPPC    C5 1905   4.015   7.996   1.596
   39DPPC    C6 1906   3.923   8.117   1.613
   39DPPC    O7 1907   3.794   8.097   1.554
   39DPPC    P8 1908   3.675   8.175   1.629
   39DPPC    O9 1909   3.562   8.190   1.535
   39DPPC   O10 1910   3.722   8.304   1.686
   39DPPC   O11 1911   3.635   8.062   1.737
   39DPPC   C12 1912   3.493   8.057   1.750
   39DPPC   C13 1913   3.438   8.001   1.882
   39DPPC   O14 1914   3.296   8.010   1.898
   39DPPC   C15 1915   3.233   7.891   1.911
   39DPPC   O16 1916   3.276   7.799   1.841
   39DPPC   C17 1917   3.090   7.903   1.963
   39DPPC   C18 1918   3.045   7.768   2.020
   39DPPC   C19 1919   2.894   7.768   2.047
   39DPPC   C20 1920   2.833   7.638   2.100
   39DPPC   C21 1921   2.700   7.665   2.171
   39DPPC   C22 1922   2.659   7.535   2.240
   39DPPC   C23 1923   2.516   7.555   2.292
   39DPPC   C24 1924   2.423   7.595   2.177
   39DPPC   C25 1925   2.287   7.635   2.234
   39DPPC   C26 1926   2.224   7.524   2.318
   39DPPC   C27 1927   2.078   7.507   2.275
   39DPPC   C28 1928   1.997   7.386   2.323
   39DPPC   C29 1929   1.851   7.401   2.278
   39DPPC   C30 1930   1.831   7.412   2.127
   39DPPC   C31 1931   1.684   7.400   2.086
   39DPPC   C32 1932   3.533   8.067   1.983
   39DPPC   O33 1933   3.524   8.209   1.995
   39DPPC   C34 1934   3.585   8.255   2.107
   39DPPC   O35 1935   3.673   8.192   2.165
   39DPPC   C36 1936   3.553   8.393   2.165
   39DPPC   C37 1937   3.426   8.399   2.250
   39DPPC   C38 1938   3.452   8.323   2.381
   39DPPC   C39 1939   3.325   8.316   2.466
   39DPPC   C40 1940   3.330   8.273   2.613
   39DPPC   C41 1941   3.203   8.303   2.693
   39DPPC   C42 1942   3.184   8.227   2.825
   39DPPC   C43 1943   3.048   8.267   2.883
   39DPPC   C44 1944   3.053   8.235   3.032
   39DPPC   C45 1945   2.930   8.299   3.097
   39DPPC   C46 1946   2.884   8.225   3.223
   39DPPC   C47 1947   2.759   8.292   3.281
   39DPPC   C48 1948   2.701   8.210   3.397
   39DPPC   C49 1949   2.776   8.235   3.528
   39DPPC   C50 1950   2.733   8.143   3.643
   40DPPC    C1 1951   3.084   7.210   1.978
   40DPPC    C2 1952   3.203   7.116   1.810
   40DPPC    C3 1953   3.175   6.996   2.021
   40DPPC    N4 1954   3.110   7.079   1.919
   40DPPC    C5 1955   2.987   7.018   1.868
   40DPPC    C6 1956   2.978   6.920   1.750
   40DPPC    O7 1957   3.062   6.806   1.770
   40DPPC    P8 1958   3.036   6.688   1.664
   40DPPC    O9 1959   3.150   6.595   1.678
   40DPPC   O10 1960   2.977   6.717   1.532
   40DPPC   O11 1961   2.918   6.637   1.762
   40DPPC   C12 1962   2.983   6.548   1.854
   40DPPC   C13 1963   2.898   6.516   1.977
   40DPPC   O14 1964   2.792   6.428   1.937
   40DPPC   C15 1965   2.817   6.295   1.919
   40DPPC   O16 1966   2.926   6.238   1.909
   40DPPC   C17 1967   2.685   6.219   1.914
   40DPPC   C18 1968   2.621   6.218   2.053
   40DPPC   C19 1969   2.486   6.147   2.050
   40DPPC   C20 1970   2.439   6.128   2.194
   40DPPC   C21 1971   2.428   6.253   2.282
   40DPPC   C22 1972   2.381   6.212   2.422
   40DPPC   C23 1973   2.380   6.326   2.524
   40DPPC   C24 1974   2.321   6.277   2.656
   40DPPC   C25 1975   2.313   6.397   2.751
   40DPPC   C26 1976   2.206   6.491   2.695
   40DPPC   C27 1977   2.163   6.570   2.819
   40DPPC   C28 1978   2.090   6.484   2.921
   40DPPC   C29 1979   2.142   6.478   3.065
   40DPPC   C30 1980   2.085   6.379   3.166
   40DPPC   C31 1981   2.109   6.418   3.312
   40DPPC   C32 1982   2.850   6.647   2.039
   40DPPC   O33 1983   2.923   6.676   2.159
   40DPPC   C34 1984   2.909   6.806   2.197
   40DPPC   O35 1985   2.877   6.900   2.125
   40DPPC   C36 1986   2.954   6.837   2.340
   40DPPC   C37 1987   2.914   6.977   2.388
   40DPPC   C38 1988   2.948   6.989   2.537
   40DPPC   C39 1989   2.817   7.015   2.612
   40DPPC   C40 1990   2.840   7.030   2.763
   40DPPC   C41 1991   2.694   7.060   2.798
   40DPPC   C42 1992   2.681   7.117   2.940
   40DPPC   C43 1993   2.753   7.021   3.035
   40DPPC   C44 1994   2.747   7.084   3.174
   40DPPC   C45 1995   2.603   7.125   3.208
   40DPPC   C46 1996   2.587   7.175   3.352
   40DPPC   C47 1997   2.451   7.242   3.369
   40DPPC   C48 1998   2.443   7.315   3.504
   40DPPC   C49 1999   2.307   7.379   3.532
   40DPPC   C50 2000   2.267   7.495   3.441
   41DPPC    C1 2001   3.040   5.775   1.651
   41DPPC    C2 2002   2.931   5.968   1.680
   41DPPC    C3 2003   3.159   5.968   1.604
   41DPPC    N4 2004   3.027   5.907   1.587
   41DPPC    C5 2005   2.996   5.895   1.443
   41DPPC    C6 2006   2.894   5.800   1.381
   41DPPC    O7 2007   2.756   5.823   1.412
   41DPPC    P8 2008   2.661   5.750   1.304
   41DPPC    O9 2009   2.743   5.728   1.183
   41DPPC   O10 2010   2.538   5.831   1.301
   41DPPC   O11 2011   2.635   5.607   1.374
   41DPPC   C12 2012   2.542   5.606   1.483
   41DPPC   C13 2013   2.472   5.473   1.510
   41DPPC   O14 2014   2.346   5.472   1.579
   41DPPC   C15 2015   2.227   5.525   1.539
   41DPPC   O16 2016   2.233   5.595   1.438
   41DPPC   C17 2017   2.122   5.535   1.650
   41DPPC   C18 2018   2.115   5.395   1.711
   41DPPC   C19 2019   2.005   5.386   1.816
   41DPPC   C20 2020   1.992   5.257   1.897
   41DPPC   C21 2021   1.857   5.271   1.967
   41DPPC   C22 2022   1.811   5.137   2.025
   41DPPC   C23 2023   1.686   5.169   2.108
   41DPPC   C24 2024   1.616   5.048   2.170
   41DPPC   C25 2025   1.504   5.084   2.268
   41DPPC   C26 2026   1.453   4.951   2.325
   41DPPC   C27 2027   1.362   4.993   2.440
   41DPPC   C28 2028   1.457   5.066   2.535
   41DPPC   C29 2029   1.385   5.101   2.665
   41DPPC   C30 2030   1.484   5.126   2.778
   41DPPC   C31 2031   1.414   5.129   2.914
   41DPPC   C32 2032   2.579   5.390   1.582
   41DPPC   O33 2033   2.657   5.471   1.671
   41DPPC   C34 2034   2.762   5.405   1.725
   41DPPC   O35 2035   2.805   5.293   1.698
   41DPPC   C36 2036   2.833   5.478   1.839
   41DPPC   C37 2037   2.815   5.382   1.957
   41DPPC   C38 2038   2.883   5.435   2.084
   41DPPC   C39 2039   2.862   5.350   2.210
   41DPPC   C40 2040   2.965   5.381   2.319
   41DPPC   C41 2041   2.917   5.285   2.429
   41DPPC   C42 2042   3.005   5.289   2.554
   41DPPC   C43 2043   3.129   5.201   2.542
   41DPPC   C44 2044   3.212   5.225   2.669
   41DPPC   C45 2045   3.324   5.121   2.667
   41DPPC   C46 2046   3.411   5.131   2.541
   41DPPC   C47 2047   3.512   5.016   2.546
   41DPPC   C48 2048   3.634   5.059   2.465
   41DPPC   C49 2049   3.715   5.173   2.528
   41DPPC   C50 2050   3.836   5.195   2.436
   42DPPC    C1 2051   1.883   4.514   1.674
   42DPPC    C2 2052   2.024   4.543   1.472
   42DPPC    C3 2053   2.025   4.346   1.592
   42DPPC    N4 2054   1.936   4.455   1.550
   42DPPC    C5 2055   1.831   4.399   1.463
   42DPPC    C6 2056   1.716   4.493   1.427
   42DPPC    O7 2057   1.744   4.594   1.329
   42DPPC    P8 2058   1.609   4.679   1.311
   42DPPC    O9 2059   1.492   4.590   1.295
   42DPPC   O10 2060   1.643   4.778   1.207
   42DPPC   O11 2061   1.622   4.745   1.458
   42DPPC   C12 2062   1.693   4.869   1.450
   42DPPC   C13 2063   1.732   4.920   1.588
   42DPPC   O14 2064   1.843   4.860   1.657
   42DPPC   C15 2065   1.970   4.891   1.622
   42DPPC   O16 2066   1.999   4.939   1.512
   42DPPC   C17 2067   2.074   4.854   1.728
   42DPPC   C18 2068   2.035   4.884   1.873
   42DPPC   C19 2069   1.948   4.770   1.925
   42DPPC   C20 2070   1.948   4.755   2.078
   42DPPC   C21 2071   1.876   4.623   2.106
   42DPPC   C22 2072   1.878   4.620   2.258
   42DPPC   C23 2073   1.827   4.492   2.323
   42DPPC   C24 2074   1.807   4.527   2.471
   42DPPC   C25 2075   1.763   4.403   2.548
   42DPPC   C26 2076   1.760   4.434   2.698
   42DPPC   C27 2077   1.718   4.321   2.793
   42DPPC   C28 2078   1.709   4.367   2.938
   42DPPC   C29 2079   1.846   4.417   2.985
   42DPPC   C30 2080   1.845   4.462   3.131
   42DPPC   C31 2081   1.789   4.604   3.131
   42DPPC   C32 2082   1.605   4.937   1.672
   42DPPC   O33 2083   1.538   5.061   1.647
   42DPPC   C34 2084   1.438   5.073   1.738
   42DPPC   O35 2085   1.389   4.974   1.792
   42DPPC   C36 2086   1.378   5.211   1.765
   42DPPC   C37 2087   1.318   5.225   1.905
   42DPPC   C38 2088   1.293   5.370   1.947
   42DPPC   C39 2089   1.166   5.423   1.879
   42DPPC   C40 2090   1.118   5.541   1.963
   42DPPC   C41 2091   0.982   5.506   2.025
   42DPPC   C42 2092   0.968   5.597   2.147
   42DPPC   C43 2093   0.856   5.557   2.244
   42DPPC   C44 2094   0.866   5.644   2.370
   42DPPC   C45 2095   0.783   5.576   2.480
   42DPPC   C46 2096   0.773   5.651   2.613
   42DPPC   C47 2097   0.663   5.592   2.701
   42DPPC   C48 2098   0.666   5.673   2.831
   42DPPC   C49 2099   0.550   5.657   2.929
   42DPPC   C50 2100   0.573   5.737   3.057
   43DPPC    C1 2101   1.620   6.525   1.473
   43DPPC    C2 2102   1.397   6.602   1.464
   43DPPC    C3 2103   1.580   6.726   1.566
   43DPPC    N4 2104   1.537   6.644   1.452
   43DPPC    C5 2105   1.591   6.702   1.328
   43DPPC    C6 2106   1.504   6.810   1.263
   43DPPC    O7 2107   1.474   6.914   1.356
   43DPPC    P8 2108   1.341   6.990   1.308
   43DPPC    O9 2109   1.280   6.932   1.186
   43DPPC   O10 2110   1.365   7.136   1.313
   43DPPC   O11 2111   1.260   6.939   1.437
   43DPPC   C12 2112   1.156   7.026   1.483
   43DPPC   C13 2113   1.085   6.968   1.605
   43DPPC   O14 2114   1.029   7.067   1.695
   43DPPC   C15 2115   0.895   7.064   1.714
   43DPPC   O16 2116   0.823   7.027   1.622
   43DPPC   C17 2117   0.852   7.150   1.833
   43DPPC   C18 2118   0.903   7.294   1.823
   43DPPC   C19 2119   0.847   7.373   1.941
   43DPPC   C20 2120   0.927   7.502   1.953
   43DPPC   C21 2121   0.855   7.592   2.053
   43DPPC   C22 2122   0.836   7.515   2.184
   43DPPC   C23 2123   0.755   7.593   2.287
   43DPPC   C24 2124   0.772   7.517   2.418
   43DPPC   C25 2125   0.918   7.511   2.463
   43DPPC   C26 2126   0.906   7.459   2.607
   43DPPC   C27 2127   1.034   7.400   2.666
   43DPPC   C28 2128   1.140   7.497   2.720
   43DPPC   C29 2129   1.251   7.427   2.799
   43DPPC   C30 2130   1.359   7.526   2.843
   43DPPC   C31 2131   1.461   7.463   2.938
   43DPPC   C32 2132   1.188   6.880   1.675
   43DPPC   O33 2133   1.159   6.787   1.780
   43DPPC   C34 2134   1.253   6.719   1.850
   43DPPC   O35 2135   1.356   6.676   1.797
   43DPPC   C36 2136   1.205   6.639   1.971
   43DPPC   C37 2137   1.207   6.720   2.101
   43DPPC   C38 2138   1.124   6.633   2.196
   43DPPC   C39 2139   1.073   6.720   2.311
   43DPPC   C40 2140   0.990   6.834   2.251
   43DPPC   C41 2141   0.919   6.921   2.354
   43DPPC   C42 2142   0.802   6.995   2.289
   43DPPC   C43 2143   0.706   7.058   2.390
   43DPPC   C44 2144   0.660   6.973   2.508
   43DPPC   C45 2145   0.575   7.071   2.589
   43DPPC   C46 2146   0.643   7.144   2.705
   43DPPC   C47 2147   0.540   7.215   2.793
   43DPPC   C48 2148   0.625   7.299   2.889
   43DPPC   C49 2149   0.542   7.417   2.937
   43DPPC   C50 2150   0.512   7.512   2.820
   44DPPC    C1 2151   4.828   1.715   1.284
   44DPPC    C2 2152   4.615   1.798   1.251
   44DPPC    C3 2153   4.702   1.800   1.465
   44DPPC    N4 2154   4.739   1.824   1.325
   44DPPC    C5 2155   4.808   1.953   1.309
   44DPPC    C6 2156   4.728   2.083   1.328
   44DPPC    O7 2157   4.677   2.109   1.459
   44DPPC    P8 2158   4.657   2.269   1.463
   44DPPC    O9 2159   4.548   2.289   1.562
   44DPPC   O10 2160   4.630   2.321   1.327
   44DPPC   O11 2161   4.804   2.307   1.517
   44DPPC   C12 2162   4.816   2.277   1.656
   44DPPC   C13 2163   4.964   2.248   1.679
   44DPPC   O14 2164   4.993   2.167   1.794
   44DPPC   C15 2165   5.114   2.105   1.797
   44DPPC   O16 2166   5.168   2.098   1.687
   44DPPC   C17 2167   5.154   2.021   1.919
   44DPPC   C18 2168   5.306   2.027   1.936
   44DPPC   C19 2169   5.333   1.990   2.082
   44DPPC   C20 2170   5.485   1.991   2.105
   44DPPC   C21 2171   5.527   1.973   2.251
   44DPPC   C22 2172   5.678   1.970   2.279
   44DPPC   C23 2173   5.708   1.951   2.428
   44DPPC   C24 2174   5.649   1.826   2.493
   44DPPC   C25 2175   5.664   1.826   2.645
   44DPPC   C26 2176   5.789   1.756   2.698
   44DPPC   C27 2177   5.773   1.723   2.846
   44DPPC   C28 2178   5.873   1.612   2.882
   44DPPC   C29 2179   5.874   1.571   3.029
   44DPPC   C30 2180   5.991   1.474   3.046
   44DPPC   C31 2181   6.004   1.425   3.190
   44DPPC   C32 2182   5.024   2.389   1.682
   44DPPC   O33 2183   4.959   2.480   1.771
   44DPPC   C34 2184   5.009   2.606   1.778
   44DPPC   O35 2185   5.100   2.647   1.706
   44DPPC   C36 2186   4.939   2.694   1.882
   44DPPC   C37 2187   5.018   2.819   1.920
   44DPPC   C38 2188   5.118   2.771   2.025
   44DPPC   C39 2189   5.046   2.753   2.159
   44DPPC   C40 2190   5.156   2.706   2.254
   44DPPC   C41 2191   5.090   2.672   2.388
   44DPPC   C42 2192   5.204   2.642   2.486
   44DPPC   C43 2193   5.146   2.570   2.608
   44DPPC   C44 2194   5.259   2.544   2.707
   44DPPC   C45 2195   5.206   2.488   2.839
   44DPPC   C46 2196   5.315   2.500   2.946
   44DPPC   C47 2197   5.270   2.414   3.065
   44DPPC   C48 2198   5.381   2.444   3.166
   44DPPC   C49 2199   5.510   2.409   3.092
   44DPPC   C50 2200   5.626   2.395   3.191
   45DPPC    C1 2201   0.159   4.342   1.168
   45DPPC    C2 2202   0.199   4.403   0.943
   45DPPC    C3 2203   0.378   4.377   1.097
   45DPPC    N4 2204   0.249   4.320   1.054
   45DPPC    C5 2205   0.266   4.177   1.023
   45DPPC    C6 2206   0.290   4.084   1.142
   45DPPC    O7 2207   0.427   4.048   1.165
   45DPPC    P8 2208   0.435   3.946   1.289
   45DPPC    O9 2209   0.581   3.923   1.287
   45DPPC   O10 2210   0.333   3.846   1.248
   45DPPC   O11 2211   0.384   4.019   1.422
   45DPPC   C12 2212   0.496   4.039   1.508
   45DPPC   C13 2213   0.473   4.139   1.622
   45DPPC   O14 2214   0.568   4.134   1.729
   45DPPC   C15 2215   0.665   4.230   1.726
   45DPPC   O16 2216   0.729   4.248   1.623
   45DPPC   C17 2217   0.717   4.252   1.868
   45DPPC   C18 2218   0.618   4.345   1.939
   45DPPC   C19 2219   0.647   4.366   2.088
   45DPPC   C20 2220   0.541   4.463   2.140
   45DPPC   C21 2221   0.577   4.558   2.254
   45DPPC   C22 2222   0.462   4.659   2.264
   45DPPC   C23 2223   0.327   4.595   2.294
   45DPPC   C24 2224   0.214   4.698   2.288
   45DPPC   C25 2225   0.108   4.623   2.369
   45DPPC   C26 2226  -0.010   4.720   2.376
   45DPPC   C27 2227  -0.107   4.667   2.482
   45DPPC   C28 2228  -0.031   4.622   2.607
   45DPPC   C29 2229  -0.117   4.578   2.726
   45DPPC   C30 2230  -0.035   4.543   2.850
   45DPPC   C31 2231  -0.109   4.451   2.947
   45DPPC   C32 2232   0.329   4.118   1.668
   45DPPC   O33 2233   0.291   4.227   1.753
   45DPPC   C34 2234   0.163   4.222   1.799
   45DPPC   O35 2235   0.082   4.145   1.748
   45DPPC   C36 2236   0.133   4.321   1.912
   45DPPC   C37 2237   0.036   4.258   2.012
   45DPPC   C38 2238   0.051   4.336   2.142
   45DPPC   C39 2239  -0.043   4.277   2.248
   45DPPC   C40 2240  -0.008   4.136   2.296
   45DPPC   C41 2241  -0.110   4.090   2.400
   45DPPC   C42 2242  -0.135   4.164   2.532
   45DPPC   C43 2243  -0.234   4.074   2.606
   45DPPC   C44 2244  -0.171   3.934   2.605
   45DPPC   C45 2245  -0.280   3.836   2.651
   45DPPC   C46 2246  -0.328   3.875   2.791
   45DPPC   C47 2247  -0.425   3.777   2.858
   45DPPC   C48 2248  -0.566   3.778   2.798
   45DPPC   C49 2249  -0.639   3.647   2.826
   45DPPC   C50 2250  -0.770   3.630   2.748
   46DPPC    C1 2251   9.277   1.765   1.064
   46DPPC    C2 2252   9.282   1.821   1.280
   46DPPC    C3 2253   9.489   1.811   1.142
   46DPPC    N4 2254   9.350   1.855   1.154
   46DPPC    C5 2255   9.336   1.995   1.112
   46DPPC    C6 2256   9.318   2.117   1.203
   46DPPC    O7 2257   9.201   2.125   1.285
   46DPPC    P8 2258   9.194   2.270   1.355
   46DPPC    O9 2259   9.058   2.298   1.408
   46DPPC   O10 2260   9.275   2.366   1.278
   46DPPC   O11 2261   9.289   2.242   1.482
   46DPPC   C12 2262   9.223   2.171   1.587
   46DPPC   C13 2263   9.328   2.153   1.696
   46DPPC   O14 2264   9.314   2.033   1.774
   46DPPC   C15 2265   9.367   1.920   1.720
   46DPPC   O16 2266   9.403   1.911   1.603
   46DPPC   C17 2267   9.367   1.800   1.815
   46DPPC   C18 2268   9.300   1.817   1.952
   46DPPC   C19 2269   9.249   1.686   2.012
   46DPPC   C20 2270   9.197   1.714   2.153
   46DPPC   C21 2271   9.152   1.583   2.219
   46DPPC   C22 2272   9.071   1.599   2.348
   46DPPC   C23 2273   9.031   1.459   2.394
   46DPPC   C24 2274   8.933   1.436   2.509
   46DPPC   C25 2275   8.980   1.494   2.643
   46DPPC   C26 2276   8.890   1.437   2.753
   46DPPC   C27 2277   8.869   1.546   2.857
   46DPPC   C28 2278   9.007   1.566   2.919
   46DPPC   C29 2279   8.991   1.644   3.050
   46DPPC   C30 2280   8.888   1.580   3.143
   46DPPC   C31 2281   8.883   1.652   3.279
   46DPPC   C32 2282   9.335   2.286   1.769
   46DPPC   O33 2283   9.217   2.324   1.840
   46DPPC   C34 2284   9.217   2.448   1.895
   46DPPC   O35 2285   9.316   2.517   1.868
   46DPPC   C36 2286   9.088   2.500   1.959
   46DPPC   C37 2287   9.075   2.444   2.100
   46DPPC   C38 2288   8.999   2.561   2.164
   46DPPC   C39 2289   8.976   2.529   2.311
   46DPPC   C40 2290   8.839   2.465   2.338
   46DPPC   C41 2291   8.818   2.415   2.481
   46DPPC   C42 2292   8.692   2.329   2.493
   46DPPC   C43 2293   8.659   2.284   2.635
   46DPPC   C44 2294   8.532   2.200   2.656
   46DPPC   C45 2295   8.501   2.184   2.805
   46DPPC   C46 2296   8.359   2.192   2.862
   46DPPC   C47 2297   8.346   2.176   3.014
   46DPPC   C48 2298   8.434   2.288   3.071
   46DPPC   C49 2299   8.421   2.281   3.223
   46DPPC   C50 2300   8.535   2.361   3.286
   47DPPC    C1 2301   7.602   2.065   1.097
   47DPPC    C2 2302   7.617   1.896   0.933
   47DPPC    C3 2303   7.668   1.849   1.161
   47DPPC    N4 2304   7.577   1.923   1.072
   47DPPC    C5 2305   7.435   1.885   1.072
   47DPPC    C6 2306   7.376   1.824   1.200
   47DPPC    O7 2307   7.367   1.900   1.321
   47DPPC    P8 2308   7.349   1.816   1.457
   47DPPC    O9 2309   7.301   1.686   1.405
   47DPPC   O10 2310   7.268   1.896   1.551
   47DPPC   O11 2311   7.506   1.813   1.488
   47DPPC   C12 2312   7.546   1.757   1.614
   47DPPC   C13 2313   7.677   1.811   1.672
   47DPPC   O14 2314   7.744   1.722   1.762
   47DPPC   C15 2315   7.805   1.612   1.710
   47DPPC   O16 2316   7.829   1.597   1.591
   47DPPC   C17 2317   7.831   1.499   1.810
   47DPPC   C18 2318   7.737   1.381   1.785
   47DPPC   C19 2319   7.734   1.300   1.915
   47DPPC   C20 2320   7.684   1.381   2.035
   47DPPC   C21 2321   7.546   1.440   2.005
   47DPPC   C22 2322   7.499   1.511   2.131
   47DPPC   C23 2323   7.571   1.643   2.157
   47DPPC   C24 2324   7.481   1.718   2.255
   47DPPC   C25 2325   7.343   1.755   2.199
   47DPPC   C26 2326   7.268   1.829   2.310
   47DPPC   C27 2327   7.272   1.766   2.450
   47DPPC   C28 2328   7.207   1.864   2.548
   47DPPC   C29 2329   7.190   1.790   2.681
   47DPPC   C30 2330   7.099   1.861   2.781
   47DPPC   C31 2331   7.083   1.794   2.918
   47DPPC   C32 2332   7.638   1.948   1.730
   47DPPC   O33 2333   7.509   1.953   1.792
   47DPPC   C34 2334   7.453   2.069   1.834
   47DPPC   O35 2335   7.505   2.181   1.826
   47DPPC   C36 2336   7.327   2.040   1.916
   47DPPC   C37 2337   7.310   2.107   2.052
   47DPPC   C38 2338   7.162   2.118   2.086
   47DPPC   C39 2339   7.134   2.192   2.217
   47DPPC   C40 2340   6.995   2.158   2.270
   47DPPC   C41 2341   6.964   2.011   2.298
   47DPPC   C42 2342   6.832   1.994   2.373
   47DPPC   C43 2343   6.843   1.853   2.433
   47DPPC   C44 2344   6.719   1.849   2.522
   47DPPC   C45 2345   6.711   1.738   2.627
   47DPPC   C46 2346   6.648   1.795   2.753
   47DPPC   C47 2347   6.684   1.704   2.871
   47DPPC   C48 2348   6.641   1.751   3.010
   47DPPC   C49 2349   6.723   1.875   3.044
   47DPPC   C50 2350   6.711   1.897   3.195
   48DPPC    C1 2351   8.523   0.540   0.667
   48DPPC    C2 2352   8.347   0.572   0.517
   48DPPC    C3 2353   8.432   0.350   0.546
   48DPPC    N4 2354   8.401   0.476   0.614
   48DPPC    C5 2355   8.317   0.461   0.733
   48DPPC    C6 2356   8.243   0.334   0.775
   48DPPC    O7 2357   8.209   0.353   0.913
   48DPPC    P8 2358   8.129   0.219   0.953
   48DPPC    O9 2359   8.191   0.102   0.886
   48DPPC   O10 2360   7.987   0.250   0.924
   48DPPC   O11 2361   8.159   0.230   1.111
   48DPPC   C12 2362   8.297   0.228   1.150
   48DPPC   C13 2363   8.299   0.272   1.297
   48DPPC   O14 2364   8.422   0.275   1.371
   48DPPC   C15 2365   8.508   0.380   1.360
   48DPPC   O16 2366   8.485   0.457   1.268
   48DPPC   C17 2367   8.643   0.388   1.432
   48DPPC   C18 2368   8.634   0.309   1.563
   48DPPC   C19 2369   8.773   0.316   1.626
   48DPPC   C20 2370   8.787   0.257   1.766
   48DPPC   C21 2371   8.700   0.330   1.869
   48DPPC   C22 2372   8.725   0.256   2.001
   48DPPC   C23 2373   8.625   0.141   1.985
   48DPPC   C24 2374   8.616   0.047   2.104
   48DPPC   C25 2375   8.599   0.127   2.233
   48DPPC   C26 2376   8.583   0.036   2.355
   48DPPC   C27 2377   8.437  -0.009   2.365
   48DPPC   C28 2378   8.389  -0.077   2.493
   48DPPC   C29 2379   8.262  -0.161   2.475
   48DPPC   C30 2380   8.201  -0.217   2.604
   48DPPC   C31 2381   8.100  -0.323   2.558
   48DPPC   C32 2382   8.189   0.191   1.364
   48DPPC   O33 2383   8.165   0.197   1.505
   48DPPC   C34 2384   8.098   0.305   1.550
   48DPPC   O35 2385   8.082   0.398   1.471
   48DPPC   C36 2386   8.053   0.311   1.696
   48DPPC   C37 2387   8.162   0.335   1.801
   48DPPC   C38 2388   8.094   0.348   1.937
   48DPPC   C39 2389   8.207   0.369   2.037
   48DPPC   C40 2390   8.157   0.362   2.182
   48DPPC   C41 2391   8.092   0.492   2.227
   48DPPC   C42 2392   8.058   0.477   2.375
   48DPPC   C43 2393   8.035   0.615   2.437
   48DPPC   C44 2394   7.983   0.618   2.581
   48DPPC   C45 2395   7.978   0.765   2.623
   48DPPC   C46 2396   7.955   0.792   2.772
   48DPPC   C47 2397   8.063   0.720   2.853
   48DPPC   C48 2398   8.069   0.749   3.004
   48DPPC   C49 2399   8.107   0.894   3.031
   48DPPC   C50 2400   8.115   0.911   3.183
   49DPPC    C1 2401   4.212   7.372   2.062
   49DPPC    C2 2402   4.145   7.383   2.300
   49DPPC    C3 2403   4.172   7.572   2.168
   49DPPC    N4 2404   4.125   7.433   2.163
   49DPPC    C5 2405   3.987   7.437   2.111
   49DPPC    C6 2406   3.917   7.304   2.081
   49DPPC    O7 2407   3.788   7.327   2.025
   49DPPC    P8 2408   3.741   7.233   1.903
   49DPPC    O9 2409   3.860   7.239   1.815
   49DPPC   O10 2410   3.616   7.303   1.865
   49DPPC   O11 2411   3.742   7.106   2.001
   49DPPC   C12 2412   3.616   7.038   1.998
   49DPPC   C13 2413   3.612   6.910   2.083
   49DPPC   O14 2414   3.496   6.827   2.072
   49DPPC   C15 2415   3.479   6.752   1.960
   49DPPC   O16 2416   3.557   6.753   1.865
   49DPPC   C17 2417   3.366   6.649   1.971
   49DPPC   C18 2418   3.425   6.527   2.042
   49DPPC   C19 2419   3.319   6.420   2.070
   49DPPC   C20 2420   3.217   6.462   2.176
   49DPPC   C21 2421   3.107   6.356   2.186
   49DPPC   C22 2422   3.012   6.383   2.303
   49DPPC   C23 2423   2.886   6.296   2.294
   49DPPC   C24 2424   2.906   6.144   2.296
   49DPPC   C25 2425   2.777   6.075   2.342
   49DPPC   C26 2426   2.789   5.924   2.322
   49DPPC   C27 2427   2.691   5.836   2.400
   49DPPC   C28 2428   2.721   5.687   2.380
   49DPPC   C29 2429   2.623   5.604   2.464
   49DPPC   C30 2430   2.636   5.603   2.616
   49DPPC   C31 2431   2.646   5.459   2.666
   49DPPC   C32 2432   3.655   6.962   2.220
   49DPPC   O33 2433   3.555   7.048   2.276
   49DPPC   C34 2434   3.582   7.097   2.400
   49DPPC   O35 2435   3.682   7.069   2.466
   49DPPC   C36 2436   3.456   7.156   2.464
   49DPPC   C37 2437   3.453   7.306   2.436
   49DPPC   C38 2438   3.341   7.370   2.519
   49DPPC   C39 2439   3.297   7.503   2.458
   49DPPC   C40 2440   3.189   7.569   2.545
   49DPPC   C41 2441   3.058   7.491   2.538
   49DPPC   C42 2442   2.944   7.542   2.627
   49DPPC   C43 2443   2.823   7.450   2.607
   49DPPC   C44 2444   2.695   7.523   2.648
   49DPPC   C45 2445   2.699   7.563   2.796
   49DPPC   C46 2446   2.563   7.620   2.837
   49DPPC   C47 2447   2.452   7.518   2.812
   49DPPC   C48 2448   2.316   7.574   2.856
   49DPPC   C49 2449   2.190   7.501   2.810
   49DPPC   C50 2450   2.193   7.483   2.659
   50DPPC    C1 2451   5.490   1.959   1.254
   50DPPC    C2 2452   5.539   1.773   1.093
   50DPPC    C3 2453   5.700   1.913   1.176
   50DPPC    N4 2454   5.575   1.846   1.216
   50DPPC    C5 2455   5.607   1.740   1.311
   50DPPC    C6 2456   5.500   1.682   1.404
   50DPPC    O7 2457   5.553   1.576   1.483
   50DPPC    P8 2458   5.430   1.475   1.506
   50DPPC    O9 2459   5.516   1.365   1.553
   50DPPC   O10 2460   5.362   1.464   1.374
   50DPPC   O11 2461   5.359   1.564   1.620
   50DPPC   C12 2462   5.416   1.528   1.746
   50DPPC   C13 2463   5.340   1.587   1.865
   50DPPC   O14 2464   5.389   1.545   1.993
   50DPPC   C15 2465   5.486   1.613   2.060
   50DPPC   O16 2466   5.561   1.691   2.001
   50DPPC   C17 2467   5.544   1.541   2.182
   50DPPC   C18 2468   5.451   1.563   2.301
   50DPPC   C19 2469   5.505   1.477   2.415
   50DPPC   C20 2470   5.421   1.485   2.542
   50DPPC   C21 2471   5.500   1.436   2.663
   50DPPC   C22 2472   5.441   1.465   2.801
   50DPPC   C23 2473   5.527   1.405   2.912
   50DPPC   C24 2474   5.461   1.443   3.045
   50DPPC   C25 2475   5.322   1.378   3.053
   50DPPC   C26 2476   5.238   1.445   3.161
   50DPPC   C27 2477   5.180   1.580   3.120
   50DPPC   C28 2478   5.090   1.657   3.217
   50DPPC   C29 2479   5.090   1.804   3.177
   50DPPC   C30 2480   5.017   1.881   3.287
   50DPPC   C31 2481   5.037   2.031   3.270
   50DPPC   C32 2482   5.190   1.574   1.839
   50DPPC   O33 2483   5.105   1.654   1.923
   50DPPC   C34 2484   5.078   1.612   2.049
   50DPPC   O35 2485   5.049   1.492   2.059
   50DPPC   C36 2486   4.996   1.720   2.120
   50DPPC   C37 2487   5.060   1.770   2.249
   50DPPC   C38 2488   4.993   1.892   2.312
   50DPPC   C39 2489   4.850   1.857   2.354
   50DPPC   C40 2490   4.800   1.996   2.395
   50DPPC   C41 2491   4.651   2.005   2.431
   50DPPC   C42 2492   4.619   1.899   2.537
   50DPPC   C43 2493   4.526   1.935   2.653
   50DPPC   C44 2494   4.509   1.812   2.741
   50DPPC   C45 2495   4.436   1.832   2.874
   50DPPC   C46 2496   4.417   1.695   2.940
   50DPPC   C47 2497   4.315   1.697   3.054
   50DPPC   C48 2498   4.382   1.771   3.170
   50DPPC   C49 2499   4.283   1.795   3.284
   50DPPC   C50 2500   4.337   1.866   3.408
   51DPPC    C1 2501   4.001   5.667   1.709
   51DPPC    C2 2502   4.200   5.783   1.703
   51DPPC    C3 2503   4.036   5.837   1.544
   51DPPC    N4 2504   4.055   5.801   1.686
   51DPPC    C5 2505   4.010   5.898   1.787
   51DPPC    C6 2506   3.864   5.941   1.772
   51DPPC    O7 2507   3.768   5.845   1.817
   51DPPC    P8 2508   3.622   5.893   1.768
   51DPPC    O9 2509   3.535   5.777   1.739
   51DPPC   O10 2510   3.624   5.992   1.658
   51DPPC   O11 2511   3.570   5.970   1.900
   51DPPC   C12 2512   3.580   5.881   2.011
   51DPPC   C13 2513   3.691   5.921   2.109
   51DPPC   O14 2514   3.725   5.814   2.198
   51DPPC   C15 2515   3.846   5.752   2.203
   51DPPC   O16 2516   3.935   5.760   2.119
   51DPPC   C17 2517   3.846   5.637   2.304
   51DPPC   C18 2518   3.887   5.692   2.441
   51DPPC   C19 2519   3.925   5.568   2.522
   51DPPC   C20 2520   3.959   5.632   2.657
   51DPPC   C21 2521   3.938   5.545   2.781
   51DPPC   C22 2522   4.017   5.415   2.761
   51DPPC   C23 2523   4.014   5.326   2.885
   51DPPC   C24 2524   4.075   5.187   2.861
   51DPPC   C25 2525   4.140   5.132   2.988
   51DPPC   C26 2526   4.198   4.991   2.980
   51DPPC   C27 2527   4.296   4.975   3.097
   51DPPC   C28 2528   4.375   4.846   3.073
   51DPPC   C29 2529   4.282   4.725   3.079
   51DPPC   C30 2530   4.363   4.597   3.060
   51DPPC   C31 2531   4.422   4.586   2.919
   51DPPC   C32 2532   3.664   6.060   2.167
   51DPPC   O33 2533   3.536   6.065   2.233
   51DPPC   C34 2534   3.499   6.178   2.298
   51DPPC   O35 2535   3.575   6.273   2.315
   51DPPC   C36 2536   3.360   6.183   2.363
   51DPPC   C37 2537   3.393   6.159   2.511
   51DPPC   C38 2538   3.271   6.136   2.600
   51DPPC   C39 2539   3.167   6.248   2.604
   51DPPC   C40 2540   3.057   6.236   2.710
   51DPPC   C41 2541   3.125   6.206   2.844
   51DPPC   C42 2542   3.027   6.220   2.960
   51DPPC   C43 2543   3.082   6.143   3.080
   51DPPC   C44 2544   3.040   6.202   3.215
   51DPPC   C45 2545   3.094   6.111   3.325
   51DPPC   C46 2546   3.031   6.161   3.455
   51DPPC   C47 2547   2.887   6.114   3.435
   51DPPC   C48 2548   2.801   6.172   3.548
   51DPPC   C49 2549   2.660   6.113   3.546
   51DPPC   C50 2550   2.597   6.172   3.672
   52DPPC    C1 2551   0.736   6.091   1.241
   52DPPC    C2 2552   0.790   6.165   1.451
   52DPPC    C3 2553   0.966   6.123   1.303
   52DPPC    N4 2554   0.831   6.180   1.311
   52DPPC    C5 2555   0.794   6.317   1.271
   52DPPC    C6 2556   0.882   6.429   1.325
   52DPPC    O7 2557   0.852   6.467   1.460
   52DPPC    P8 2558   0.960   6.555   1.540
   52DPPC    O9 2559   0.887   6.588   1.665
   52DPPC   O10 2560   1.010   6.660   1.448
   52DPPC   O11 2561   1.065   6.434   1.543
   52DPPC   C12 2562   1.040   6.356   1.661
   52DPPC   C13 2563   1.113   6.224   1.635
   52DPPC   O14 2564   1.056   6.125   1.721
   52DPPC   C15 2565   1.051   5.991   1.695
   52DPPC   O16 2566   1.102   5.944   1.593
   52DPPC   C17 2567   0.977   5.917   1.806
   52DPPC   C18 2568   0.832   5.879   1.773
   52DPPC   C19 2569   0.778   5.791   1.885
   52DPPC   C20 2570   0.629   5.771   1.861
   52DPPC   C21 2571   0.581   5.634   1.911
   52DPPC   C22 2572   0.573   5.628   2.064
   52DPPC   C23 2573   0.534   5.487   2.107
   52DPPC   C24 2574   0.505   5.471   2.256
   52DPPC   C25 2575   0.390   5.556   2.311
   52DPPC   C26 2576   0.360   5.538   2.459
   52DPPC   C27 2577   0.235   5.622   2.487
   52DPPC   C28 2578   0.189   5.609   2.632
   52DPPC   C29 2579   0.080   5.714   2.657
   52DPPC   C30 2580   0.053   5.706   2.807
   52DPPC   C31 2581  -0.062   5.802   2.839
   52DPPC   C32 2582   1.263   6.248   1.650
   52DPPC   O33 2583   1.307   6.292   1.779
   52DPPC   C34 2584   1.437   6.309   1.813
   52DPPC   O35 2585   1.525   6.304   1.727
   52DPPC   C36 2586   1.458   6.372   1.951
   52DPPC   C37 2587   1.575   6.314   2.031
   52DPPC   C38 2588   1.568   6.162   2.015
   52DPPC   C39 2589   1.700   6.097   2.056
   52DPPC   C40 2590   1.719   6.125   2.205
   52DPPC   C41 2591   1.840   6.053   2.264
   52DPPC   C42 2592   1.910   6.142   2.367
   52DPPC   C43 2593   1.832   6.166   2.496
   52DPPC   C44 2594   1.791   6.031   2.555
   52DPPC   C45 2595   1.698   6.049   2.675
   52DPPC   C46 2596   1.661   5.910   2.726
   52DPPC   C47 2597   1.663   5.909   2.879
   52DPPC   C48 2598   1.795   5.968   2.928
   52DPPC   C49 2599   1.814   6.007   3.075
   52DPPC   C50 2600   1.962   6.045   3.079
   53DPPC    C1 2601   4.626   3.308   1.135
   53DPPC    C2 2602   4.409   3.218   1.206
   53DPPC    C3 2603   4.493   3.177   0.991
   53DPPC    N4 2604   4.533   3.194   1.131
   53DPPC    C5 2605   4.599   3.071   1.179
   53DPPC    C6 2606   4.648   3.069   1.324
   53DPPC    O7 2607   4.723   2.949   1.345
   53DPPC    P8 2608   4.680   2.905   1.494
   53DPPC    O9 2609   4.747   2.775   1.519
   53DPPC   O10 2610   4.535   2.928   1.510
   53DPPC   O11 2611   4.753   3.039   1.546
   53DPPC   C12 2612   4.851   3.023   1.649
   53DPPC   C13 2613   4.933   3.147   1.683
   53DPPC   O14 2614   5.050   3.121   1.761
   53DPPC   C15 2615   5.151   3.212   1.764
   53DPPC   O16 2616   5.147   3.314   1.695
   53DPPC   C17 2617   5.245   3.209   1.885
   53DPPC   C18 2618   5.164   3.185   2.012
   53DPPC   C19 2619   5.065   3.298   2.040
   53DPPC   C20 2620   4.973   3.270   2.159
   53DPPC   C21 2621   4.907   3.132   2.147
   53DPPC   C22 2622   4.855   3.083   2.282
   53DPPC   C23 2623   4.775   3.192   2.355
   53DPPC   C24 2624   4.761   3.159   2.504
   53DPPC   C25 2625   4.670   3.258   2.576
   53DPPC   C26 2626   4.675   3.220   2.725
   53DPPC   C27 2627   4.570   3.301   2.801
   53DPPC   C28 2628   4.578   3.262   2.949
   53DPPC   C29 2629   4.568   3.117   2.999
   53DPPC   C30 2630   4.564   3.115   3.152
   53DPPC   C31 2631   4.527   2.977   3.208
   53DPPC   C32 2632   4.838   3.260   1.724
   53DPPC   O33 2633   4.735   3.239   1.821
   53DPPC   C34 2634   4.653   3.346   1.840
   53DPPC   O35 2635   4.685   3.457   1.798
   53DPPC   C36 2636   4.524   3.311   1.914
   53DPPC   C37 2637   4.545   3.287   2.064
   53DPPC   C38 2638   4.405   3.262   2.120
   53DPPC   C39 2639   4.415   3.271   2.272
   53DPPC   C40 2640   4.292   3.223   2.349
   53DPPC   C41 2641   4.314   3.225   2.500
   53DPPC   C42 2642   4.180   3.200   2.568
   53DPPC   C43 2643   4.205   3.223   2.717
   53DPPC   C44 2644   4.082   3.169   2.790
   53DPPC   C45 2645   4.131   3.191   2.934
   53DPPC   C46 2646   4.025   3.158   3.039
   53DPPC   C47 2647   4.102   3.192   3.166
   53DPPC   C48 2648   4.041   3.138   3.296
   53DPPC   C49 2649   4.144   3.152   3.408
   53DPPC   C50 2650   4.092   3.080   3.533
   54DPPC    C1 2651   6.171   0.301   1.613
   54DPPC    C2 2652   6.106   0.231   1.395
   54DPPC    C3 2653   6.276   0.405   1.417
   54DPPC    N4 2654   6.219   0.282   1.475
   54DPPC    C5 2655   6.312   0.169   1.476
   54DPPC    C6 2656   6.451   0.187   1.537
   54DPPC    O7 2657   6.458   0.202   1.679
   54DPPC    P8 2658   6.588   0.283   1.729
   54DPPC    O9 2659   6.557   0.415   1.669
   54DPPC   O10 2660   6.697   0.192   1.689
   54DPPC   O11 2661   6.552   0.272   1.885
   54DPPC   C12 2662   6.429   0.343   1.904
   54DPPC   C13 2663   6.407   0.380   2.051
   54DPPC   O14 2664   6.483   0.499   2.081
   54DPPC   C15 2665   6.440   0.622   2.041
   54DPPC   O16 2666   6.335   0.636   1.979
   54DPPC   C17 2667   6.540   0.731   2.080
   54DPPC   C18 2668   6.601   0.711   2.218
   54DPPC   C19 2669   6.502   0.706   2.335
   54DPPC   C20 2670   6.552   0.679   2.477
   54DPPC   C21 2671   6.444   0.662   2.584
   54DPPC   C22 2672   6.498   0.637   2.724
   54DPPC   C23 2673   6.383   0.635   2.825
   54DPPC   C24 2674   6.417   0.613   2.972
   54DPPC   C25 2675   6.288   0.587   3.049
   54DPPC   C26 2676   6.192   0.706   3.037
   54DPPC   C27 2677   6.245   0.826   3.116
   54DPPC   C28 2678   6.126   0.914   3.155
   54DPPC   C29 2679   6.161   1.017   3.263
   54DPPC   C30 2680   6.060   1.022   3.378
   54DPPC   C31 2681   6.115   1.099   3.498
   54DPPC   C32 2682   6.441   0.250   2.124
   54DPPC   O33 2683   6.425   0.249   2.266
   54DPPC   C34 2684   6.449   0.127   2.321
   54DPPC   O35 2685   6.524   0.056   2.255
   54DPPC   C36 2686   6.408   0.085   2.463
   54DPPC   C37 2687   6.425   0.193   2.570
   54DPPC   C38 2688   6.470   0.122   2.698
   54DPPC   C39 2689   6.475   0.232   2.805
   54DPPC   C40 2690   6.536   0.178   2.934
   54DPPC   C41 2691   6.547   0.286   3.041
   54DPPC   C42 2692   6.589   0.220   3.173
   54DPPC   C43 2693   6.598   0.321   3.288
   54DPPC   C44 2694   6.620   0.249   3.421
   54DPPC   C45 2695   6.632   0.344   3.541
   54DPPC   C46 2696   6.662   0.266   3.669
   54DPPC   C47 2697   6.645   0.354   3.793
   54DPPC   C48 2698   6.691   0.296   3.926
   54DPPC   C49 2699   6.840   0.262   3.934
   54DPPC   C50 2700   6.902   0.269   4.074
   55DPPC    C1 2701   0.198   7.180   1.560
   55DPPC    C2 2702   0.310   7.376   1.635
   55DPPC    C3 2703   0.343   7.284   1.410
   55DPPC    N4 2704   0.248   7.311   1.519
   55DPPC    C5 2705   0.134   7.397   1.481
   55DPPC    C6 2706   0.054   7.388   1.351
   55DPPC    O7 2707  -0.043   7.492   1.339
   55DPPC    P8 2708  -0.120   7.485   1.198
   55DPPC    O9 2709  -0.037   7.395   1.115
   55DPPC   O10 2710  -0.171   7.618   1.157
   55DPPC   O11 2711  -0.242   7.404   1.265
   55DPPC   C12 2712  -0.301   7.487   1.366
   55DPPC   C13 2713  -0.384   7.395   1.456
   55DPPC   O14 2714  -0.467   7.457   1.555
   55DPPC   C15 2715  -0.599   7.425   1.546
   55DPPC   O16 2716  -0.652   7.375   1.447
   55DPPC   C17 2717  -0.692   7.461   1.662
   55DPPC   C18 2718  -0.706   7.359   1.775
   55DPPC   C19 2719  -0.736   7.216   1.730
   55DPPC   C20 2720  -0.717   7.129   1.855
   55DPPC   C21 2721  -0.723   6.980   1.821
   55DPPC   C22 2722  -0.698   6.898   1.948
   55DPPC   C23 2723  -0.811   6.931   2.046
   55DPPC   C24 2724  -0.765   6.890   2.186
   55DPPC   C25 2725  -0.648   6.965   2.251
   55DPPC   C26 2726  -0.620   6.915   2.393
   55DPPC   C27 2727  -0.494   6.972   2.458
   55DPPC   C28 2728  -0.505   6.926   2.604
   55DPPC   C29 2729  -0.380   6.937   2.691
   55DPPC   C30 2730  -0.402   6.885   2.834
   55DPPC   C31 2731  -0.502   6.985   2.892
   55DPPC   C32 2732  -0.274   7.307   1.517
   55DPPC   O33 2733  -0.303   7.213   1.621
   55DPPC   C34 2734  -0.195   7.148   1.672
   55DPPC   O35 2735  -0.085   7.147   1.618
   55DPPC   C36 2736  -0.224   7.041   1.778
   55DPPC   C37 2737  -0.277   7.103   1.907
   55DPPC   C38 2738  -0.190   7.211   1.972
   55DPPC   C39 2739  -0.251   7.234   2.111
   55DPPC   C40 2740  -0.398   7.277   2.104
   55DPPC   C41 2741  -0.439   7.289   2.251
   55DPPC   C42 2742  -0.334   7.360   2.336
   55DPPC   C43 2743  -0.370   7.378   2.484
   55DPPC   C44 2744  -0.258   7.455   2.553
   55DPPC   C45 2745  -0.264   7.442   2.705
   55DPPC   C46 2746  -0.247   7.295   2.745
   55DPPC   C47 2747  -0.232   7.280   2.896
   55DPPC   C48 2748  -0.361   7.338   2.955
   55DPPC   C49 2749  -0.364   7.296   3.102
   55DPPC   C50 2750  -0.263   7.371   3.189
   56DPPC    C1 2751   4.152   1.913   2.152
   56DPPC    C2 2752   4.203   1.859   2.375
   56DPPC    C3 2753   4.233   1.698   2.197
   56DPPC    N4 2754   4.247   1.839   2.236
   56DPPC    C5 2755   4.383   1.892   2.217
   56DPPC    C6 2756   4.460   1.859   2.089
   56DPPC    O7 2757   4.574   1.945   2.083
   56DPPC    P8 2758   4.628   1.956   1.932
   56DPPC    O9 2759   4.506   1.966   1.849
   56DPPC   O10 2760   4.734   1.856   1.908
   56DPPC   O11 2761   4.700   2.100   1.938
   56DPPC   C12 2762   4.770   2.116   2.061
   56DPPC   C13 2763   4.860   2.239   2.068
   56DPPC   O14 2764   4.955   2.230   2.175
   56DPPC   C15 2765   5.049   2.326   2.197
   56DPPC   O16 2766   5.064   2.418   2.117
   56DPPC   C17 2767   5.113   2.319   2.336
   56DPPC   C18 2768   5.263   2.295   2.314
   56DPPC   C19 2769   5.332   2.286   2.450
   56DPPC   C20 2770   5.310   2.162   2.536
   56DPPC   C21 2771   5.386   2.182   2.667
   56DPPC   C22 2772   5.376   2.069   2.769
   56DPPC   C23 2773   5.459   2.092   2.896
   56DPPC   C24 2774   5.485   1.965   2.976
   56DPPC   C25 2775   5.584   2.007   3.085
   56DPPC   C26 2776   5.601   1.877   3.164
   56DPPC   C27 2777   5.680   1.895   3.294
   56DPPC   C28 2778   5.596   1.980   3.389
   56DPPC   C29 2779   5.660   2.013   3.523
   56DPPC   C30 2780   5.550   2.041   3.626
   56DPPC   C31 2781   5.459   2.137   3.549
   56DPPC   C32 2782   4.770   2.363   2.056
   56DPPC   O33 2783   4.655   2.349   2.139
   56DPPC   C34 2784   4.554   2.438   2.118
   56DPPC   O35 2785   4.572   2.534   2.043
   56DPPC   C36 2786   4.411   2.400   2.158
   56DPPC   C37 2787   4.419   2.327   2.293
   56DPPC   C38 2788   4.286   2.273   2.344
   56DPPC   C39 2789   4.298   2.275   2.496
   56DPPC   C40 2790   4.339   2.417   2.537
   56DPPC   C41 2791   4.320   2.415   2.689
   56DPPC   C42 2792   4.427   2.327   2.753
   56DPPC   C43 2793   4.398   2.327   2.903
   56DPPC   C44 2794   4.479   2.229   2.988
   56DPPC   C45 2795   4.432   2.224   3.133
   56DPPC   C46 2796   4.436   2.366   3.191
   56DPPC   C47 2797   4.412   2.377   3.342
   56DPPC   C48 2798   4.395   2.521   3.390
   56DPPC   C49 2799   4.388   2.499   3.541
   56DPPC   C50 2800   4.510   2.430   3.602
   57DPPC    C1 2801   5.659   7.064   1.841
   57DPPC    C2 2802   5.468   6.946   1.896
   57DPPC    C3 2803   5.553   6.928   1.666
   57DPPC    N4 2804   5.586   6.940   1.809
   57DPPC    C5 2805   5.679   6.832   1.847
   57DPPC    C6 2806   5.630   6.687   1.835
   57DPPC    O7 2807   5.737   6.592   1.824
   57DPPC    P8 2808   5.678   6.451   1.775
   57DPPC    O9 2809   5.794   6.381   1.716
   57DPPC   O10 2810   5.557   6.479   1.696
   57DPPC   O11 2811   5.635   6.392   1.919
   57DPPC   C12 2812   5.759   6.364   1.985
   57DPPC   C13 2813   5.766   6.413   2.129
   57DPPC   O14 2814   5.893   6.367   2.180
   57DPPC   C15 2815   5.972   6.465   2.231
   57DPPC   O16 2816   5.915   6.574   2.226
   57DPPC   C17 2817   6.113   6.429   2.278
   57DPPC   C18 2818   6.118   6.382   2.423
   57DPPC   C19 2819   6.077   6.499   2.512
   57DPPC   C20 2820   6.056   6.461   2.659
   57DPPC   C21 2821   5.973   6.565   2.734
   57DPPC   C22 2822   5.959   6.518   2.879
   57DPPC   C23 2823   5.883   6.608   2.976
   57DPPC   C24 2824   5.912   6.571   3.122
   57DPPC   C25 2825   5.846   6.434   3.136
   57DPPC   C26 2826   5.863   6.367   3.273
   57DPPC   C27 2827   5.788   6.434   3.388
   57DPPC   C28 2828   5.800   6.354   3.517
   57DPPC   C29 2829   5.688   6.374   3.620
   57DPPC   C30 2830   5.708   6.323   3.763
   57DPPC   C31 2831   5.571   6.308   3.829
   57DPPC   C32 2832   5.648   6.356   2.208
   57DPPC   O33 2833   5.659   6.221   2.255
   57DPPC   C34 2834   5.541   6.159   2.280
   57DPPC   O35 2835   5.440   6.207   2.228
   57DPPC   C36 2836   5.547   6.022   2.347
   57DPPC   C37 2837   5.423   6.027   2.437
   57DPPC   C38 2838   5.437   5.931   2.555
   57DPPC   C39 2839   5.311   5.930   2.641
   57DPPC   C40 2840   5.331   5.852   2.770
   57DPPC   C41 2841   5.198   5.861   2.846
   57DPPC   C42 2842   5.209   5.805   2.988
   57DPPC   C43 2843   5.076   5.790   3.063
   57DPPC   C44 2844   5.095   5.707   3.190
   57DPPC   C45 2845   4.958   5.684   3.253
   57DPPC   C46 2846   4.982   5.602   3.380
   57DPPC   C47 2847   5.016   5.456   3.348
   57DPPC   C48 2848   5.119   5.407   3.450
   57DPPC   C49 2849   5.068   5.386   3.592
   57DPPC   C50 2850   5.182   5.385   3.695
   58DPPC    C1 2851   8.413   6.920   1.176
   58DPPC    C2 2852   8.436   7.133   1.070
   58DPPC    C3 2853   8.231   7.084   1.177
   58DPPC    N4 2854   8.376   7.063   1.184
   58DPPC    C5 2855   8.424   7.116   1.313
   58DPPC    C6 2856   8.362   7.244   1.368
   58DPPC    O7 2857   8.405   7.365   1.303
   58DPPC    P8 2858   8.282   7.468   1.304
   58DPPC    O9 2859   8.164   7.390   1.260
   58DPPC   O10 2860   8.319   7.593   1.235
   58DPPC   O11 2861   8.280   7.483   1.465
   58DPPC   C12 2862   8.366   7.590   1.505
   58DPPC   C13 2863   8.383   7.620   1.654
   58DPPC   O14 2864   8.485   7.720   1.661
   58DPPC   C15 2865   8.440   7.848   1.655
   58DPPC   O16 2866   8.324   7.883   1.633
   58DPPC   C17 2867   8.551   7.952   1.669
   58DPPC   C18 2868   8.515   8.038   1.790
   58DPPC   C19 2869   8.615   8.143   1.839
   58DPPC   C20 2870   8.580   8.202   1.975
   58DPPC   C21 2871   8.582   8.096   2.086
   58DPPC   C22 2872   8.559   8.155   2.225
   58DPPC   C23 2873   8.524   8.039   2.318
   58DPPC   C24 2874   8.540   8.071   2.467
   58DPPC   C25 2875   8.464   7.971   2.553
   58DPPC   C26 2876   8.451   8.018   2.698
   58DPPC   C27 2877   8.385   7.913   2.788
   58DPPC   C28 2878   8.407   7.931   2.938
   58DPPC   C29 2879   8.553   7.898   2.970
   58DPPC   C30 2880   8.575   7.891   3.121
   58DPPC   C31 2881   8.725   7.900   3.148
   58DPPC   C32 2882   8.418   7.485   1.716
   58DPPC   O33 2883   8.388   7.476   1.856
   58DPPC   C34 2884   8.387   7.348   1.899
   58DPPC   O35 2885   8.397   7.258   1.816
   58DPPC   C36 2886   8.390   7.330   2.051
   58DPPC   C37 2887   8.536   7.306   2.093
   58DPPC   C38 2888   8.533   7.298   2.246
   58DPPC   C39 2889   8.671   7.260   2.302
   58DPPC   C40 2890   8.695   7.317   2.442
   58DPPC   C41 2891   8.592   7.268   2.543
   58DPPC   C42 2892   8.666   7.280   2.676
   58DPPC   C43 2893   8.608   7.166   2.759
   58DPPC   C44 2894   8.652   7.029   2.707
   58DPPC   C45 2895   8.587   6.921   2.793
   58DPPC   C46 2896   8.600   6.930   2.945
   58DPPC   C47 2897   8.530   6.819   3.024
   58DPPC   C48 2898   8.586   6.797   3.165
   58DPPC   C49 2899   8.532   6.670   3.231
   58DPPC   C50 2900   8.591   6.649   3.371
   59DPPC    C1 2901   0.864   5.333   1.684
   59DPPC    C2 2902   0.690   5.165   1.697
   59DPPC    C3 2903   0.665   5.365   1.571
   59DPPC    N4 2904   0.761   5.260   1.609
   59DPPC    C5 2905   0.825   5.194   1.495
   59DPPC    C6 2906   0.748   5.085   1.421
   59DPPC    O7 2907   0.608   5.103   1.398
   59DPPC    P8 2908   0.548   4.965   1.341
   59DPPC    O9 2909   0.656   4.866   1.319
   59DPPC   O10 2910   0.439   4.990   1.243
   59DPPC   O11 2911   0.471   4.912   1.472
   59DPPC   C12 2912   0.352   4.990   1.483
   59DPPC   C13 2913   0.290   5.008   1.622
   59DPPC   O14 2914   0.354   5.084   1.725
   59DPPC   C15 2915   0.274   5.185   1.767
   59DPPC   O16 2916   0.233   5.276   1.696
   59DPPC   C17 2917   0.315   5.224   1.910
   59DPPC   C18 2918   0.208   5.248   2.016
   59DPPC   C19 2919   0.135   5.116   2.042
   59DPPC   C20 2920   0.064   5.099   2.177
   59DPPC   C21 2921   0.178   5.116   2.277
   59DPPC   C22 2922   0.135   5.107   2.424
   59DPPC   C23 2923   0.255   5.164   2.499
   59DPPC   C24 2924   0.388   5.089   2.490
   59DPPC   C25 2925   0.499   5.185   2.534
   59DPPC   C26 2926   0.635   5.115   2.531
   59DPPC   C27 2927   0.627   4.986   2.614
   59DPPC   C28 2928   0.757   4.909   2.640
   59DPPC   C29 2929   0.809   4.867   2.503
   59DPPC   C30 2930   0.943   4.794   2.506
   59DPPC   C31 2931   0.970   4.722   2.373
   59DPPC   C32 2932   0.283   4.861   1.664
   59DPPC   O33 2933   0.175   4.835   1.754
   59DPPC   C34 2934   0.144   4.703   1.767
   59DPPC   O35 2935   0.188   4.626   1.681
   59DPPC   C36 2936   0.037   4.660   1.867
   59DPPC   C37 2937  -0.023   4.785   1.931
   59DPPC   C38 2938  -0.161   4.751   1.988
   59DPPC   C39 2939  -0.235   4.880   2.023
   59DPPC   C40 2940  -0.361   4.866   2.109
   59DPPC   C41 2941  -0.418   5.005   2.134
   59DPPC   C42 2942  -0.539   5.002   2.227
   59DPPC   C43 2943  -0.492   4.944   2.360
   59DPPC   C44 2944  -0.606   4.926   2.460
   59DPPC   C45 2945  -0.551   4.836   2.571
   59DPPC   C46 2946  -0.442   4.906   2.652
   59DPPC   C47 2947  -0.360   4.805   2.734
   59DPPC   C48 2948  -0.461   4.772   2.844
   59DPPC   C49 2949  -0.509   4.892   2.927
   59DPPC   C50 2950  -0.598   4.831   3.035
   60DPPC    C1 2951   6.818   4.832   1.091
   60DPPC    C2 2952   6.608   4.739   1.178
   60DPPC    C3 2953   6.736   4.877   1.306
   60DPPC    N4 2954   6.695   4.857   1.166
   60DPPC    C5 2955   6.640   4.976   1.099
   60DPPC    C6 2956   6.517   5.040   1.164
   60DPPC    O7 2957   6.498   5.176   1.123
   60DPPC    P8 2958   6.442   5.268   1.243
   60DPPC    O9 2959   6.356   5.173   1.316
   60DPPC   O10 2960   6.402   5.389   1.168
   60DPPC   O11 2961   6.582   5.296   1.318
   60DPPC   C12 2962   6.596   5.232   1.445
   60DPPC   C13 2963   6.717   5.267   1.533
   60DPPC   O14 2964   6.729   5.176   1.643
   60DPPC   C15 2965   6.821   5.076   1.630
   60DPPC   O16 2966   6.885   5.064   1.526
   60DPPC   C17 2967   6.831   4.990   1.755
   60DPPC   C18 2968   6.744   4.866   1.734
   60DPPC   C19 2969   6.751   4.768   1.851
   60DPPC   C20 2970   6.645   4.660   1.830
   60DPPC   C21 2971   6.625   4.561   1.945
   60DPPC   C22 2972   6.564   4.636   2.063
   60DPPC   C23 2973   6.559   4.534   2.177
   60DPPC   C24 2974   6.518   4.599   2.309
   60DPPC   C25 2975   6.470   4.495   2.411
   60DPPC   C26 2976   6.457   4.550   2.554
   60DPPC   C27 2977   6.387   4.451   2.648
   60DPPC   C28 2978   6.456   4.315   2.631
   60DPPC   C29 2979   6.409   4.221   2.742
   60DPPC   C30 2980   6.438   4.072   2.724
   60DPPC   C31 2981   6.434   3.997   2.858
   60DPPC   C32 2982   6.707   5.415   1.574
   60DPPC   O33 2983   6.575   5.448   1.619
   60DPPC   C34 2984   6.562   5.579   1.652
   60DPPC   O35 2985   6.642   5.664   1.613
   60DPPC   C36 2986   6.440   5.618   1.736
   60DPPC   C37 2987   6.449   5.601   1.888
   60DPPC   C38 2988   6.316   5.655   1.941
   60DPPC   C39 2989   6.341   5.739   2.067
   60DPPC   C40 2990   6.205   5.788   2.115
   60DPPC   C41 2991   6.208   5.879   2.238
   60DPPC   C42 2992   6.063   5.896   2.281
   60DPPC   C43 2993   6.053   5.988   2.403
   60DPPC   C44 2994   5.908   5.995   2.452
   60DPPC   C45 2995   5.915   6.092   2.571
   60DPPC   C46 2996   6.006   6.042   2.683
   60DPPC   C47 2997   6.007   6.119   2.816
   60DPPC   C48 2998   6.089   6.040   2.918
   60DPPC   C49 2999   6.090   6.145   3.028
   60DPPC   C50 3000   6.151   6.092   3.158
   61DPPC    C1 3001   3.940   0.319   2.010
   61DPPC    C2 3002   3.973   0.212   1.818
   61DPPC    C3 3003   3.745   0.242   1.875
   61DPPC    N4 3004   3.877   0.307   1.878
   61DPPC    C5 3005   3.873   0.434   1.805
   61DPPC    C6 3006   3.782   0.546   1.855
   61DPPC    O7 3007   3.844   0.643   1.941
   61DPPC    P8 3008   3.732   0.754   1.969
   61DPPC    O9 3009   3.606   0.699   2.023
   61DPPC   O10 3010   3.747   0.865   1.873
   61DPPC   O11 3011   3.811   0.814   2.096
   61DPPC   C12 3012   3.831   0.705   2.187
   61DPPC   C13 3013   3.869   0.751   2.327
   61DPPC   O14 3014   3.907   0.642   2.413
   61DPPC   C15 3015   4.040   0.632   2.437
   61DPPC   O16 3016   4.111   0.672   2.345
   61DPPC   C17 3017   4.086   0.523   2.534
   61DPPC   C18 3018   4.002   0.395   2.545
   61DPPC   C19 3019   4.071   0.291   2.633
   61DPPC   C20 3020   4.207   0.234   2.592
   61DPPC   C21 3021   4.216   0.097   2.659
   61DPPC   C22 3022   4.342   0.020   2.618
   61DPPC   C23 3023   4.469   0.100   2.647
   61DPPC   C24 3024   4.595   0.027   2.599
   61DPPC   C25 3025   4.717   0.117   2.578
   61DPPC   C26 3026   4.856   0.062   2.610
   61DPPC   C27 3027   4.962   0.096   2.505
   61DPPC   C28 3028   5.093   0.022   2.530
   61DPPC   C29 3029   5.079  -0.128   2.557
   61DPPC   C30 3030   4.994  -0.211   2.461
   61DPPC   C31 3031   5.005  -0.356   2.510
   61DPPC   C32 3032   3.755   0.845   2.367
   61DPPC   O33 3033   3.785   0.929   2.479
   61DPPC   C34 3034   3.687   1.012   2.524
   61DPPC   O35 3035   3.587   1.027   2.453
   61DPPC   C36 3036   3.722   1.109   2.637
   61DPPC   C37 3037   3.686   1.050   2.773
   61DPPC   C38 3038   3.713   1.157   2.878
   61DPPC   C39 3039   3.685   1.106   3.020
   61DPPC   C40 3040   3.540   1.059   3.031
   61DPPC   C41 3041   3.534   0.934   3.120
   61DPPC   C42 3042   3.386   0.895   3.125
   61DPPC   C43 3043   3.383   0.781   3.227
   61DPPC   C44 3044   3.250   0.705   3.233
   61DPPC   C45 3045   3.269   0.598   3.340
   61DPPC   C46 3046   3.307   0.652   3.478
   61DPPC   C47 3047   3.208   0.748   3.545
   61DPPC   C48 3048   3.265   0.767   3.686
   61DPPC   C49 3049   3.157   0.835   3.770
   61DPPC   C50 3050   3.187   0.827   3.919
   62DPPC    C1 3051   7.740   4.445   0.898
   62DPPC    C2 3052   7.553   4.291   0.962
   62DPPC    C3 3053   7.679   4.410   1.119
   62DPPC    N4 3054   7.624   4.418   0.983
   62DPPC    C5 3055   7.542   4.538   0.959
   62DPPC    C6 3056   7.396   4.539   1.004
   62DPPC    O7 3057   7.390   4.561   1.145
   62DPPC    P8 3058   7.243   4.544   1.208
   62DPPC    O9 3059   7.254   4.438   1.311
   62DPPC   O10 3060   7.157   4.544   1.087
   62DPPC   O11 3061   7.237   4.693   1.269
   62DPPC   C12 3062   7.329   4.702   1.377
   62DPPC   C13 3063   7.289   4.818   1.470
   62DPPC   O14 3064   7.374   4.841   1.583
   62DPPC   C15 3065   7.366   4.966   1.636
   62DPPC   O16 3066   7.353   5.062   1.560
   62DPPC   C17 3067   7.420   4.977   1.779
   62DPPC   C18 3068   7.323   5.015   1.891
   62DPPC   C19 3069   7.206   4.916   1.897
   62DPPC   C20 3070   7.154   4.941   2.039
   62DPPC   C21 3071   7.008   4.901   2.063
   62DPPC   C22 3072   6.967   4.939   2.206
   62DPPC   C23 3073   6.830   4.887   2.248
   62DPPC   C24 3074   6.787   4.929   2.388
   62DPPC   C25 3075   6.643   4.901   2.429
   62DPPC   C26 3076   6.537   4.952   2.331
   62DPPC   C27 3077   6.393   4.925   2.377
   62DPPC   C28 3078   6.275   4.940   2.280
   62DPPC   C29 3079   6.142   4.917   2.351
   62DPPC   C30 3080   6.155   4.785   2.429
   62DPPC   C31 3081   6.018   4.753   2.489
   62DPPC   C32 3082   7.139   4.809   1.498
   62DPPC   O33 3083   7.117   4.683   1.563
   62DPPC   C34 3084   6.989   4.638   1.569
   62DPPC   O35 3085   6.908   4.673   1.483
   62DPPC   C36 3086   6.974   4.516   1.660
   62DPPC   C37 3087   7.069   4.519   1.780
   62DPPC   C38 3088   7.038   4.411   1.884
   62DPPC   C39 3089   7.124   4.430   2.009
   62DPPC   C40 3090   7.070   4.371   2.140
   62DPPC   C41 3091   6.930   4.425   2.169
   62DPPC   C42 3092   6.878   4.387   2.308
   62DPPC   C43 3093   6.978   4.425   2.418
   62DPPC   C44 3094   6.917   4.399   2.555
   62DPPC   C45 3095   6.881   4.250   2.552
   62DPPC   C46 3096   6.845   4.202   2.693
   62DPPC   C47 3097   6.817   4.054   2.720
   62DPPC   C48 3098   6.778   4.039   2.867
   62DPPC   C49 3099   6.862   4.113   2.971
   62DPPC   C50 3100   6.790   4.116   3.106
   63DPPC    C1 3101   7.756   8.486   0.817
   63DPPC    C2 3102   7.731   8.263   0.801
   63DPPC    C3 3103   7.925   8.337   0.910
   63DPPC    N4 3104   7.781   8.364   0.896
   63DPPC    C5 3105   7.697   8.352   1.016
   63DPPC    C6 3106   7.757   8.404   1.147
   63DPPC    O7 3107   7.767   8.544   1.175
   63DPPC    P8 3108   7.836   8.539   1.321
   63DPPC    O9 3109   7.871   8.680   1.344
   63DPPC   O10 3110   7.940   8.434   1.309
   63DPPC   O11 3111   7.713   8.482   1.408
   63DPPC   C12 3112   7.651   8.593   1.472
   63DPPC   C13 3113   7.527   8.559   1.555
   63DPPC   O14 3114   7.455   8.674   1.600
   63DPPC   C15 3115   7.343   8.702   1.528
   63DPPC   O16 3116   7.316   8.648   1.421
   63DPPC   C17 3117   7.254   8.812   1.586
   63DPPC   C18 3118   7.325   8.886   1.700
   63DPPC   C19 3119   7.221   8.958   1.785
   63DPPC   C20 3120   7.276   9.031   1.908
   63DPPC   C21 3121   7.181   9.073   2.020
   63DPPC   C22 3122   7.244   9.049   2.158
   63DPPC   C23 3123   7.147   9.113   2.257
   63DPPC   C24 3124   7.138   9.063   2.401
   63DPPC   C25 3125   7.032   9.147   2.473
   63DPPC   C26 3126   6.984   9.092   2.607
   63DPPC   C27 3127   7.091   9.097   2.716
   63DPPC   C28 3128   7.045   9.058   2.857
   63DPPC   C29 3129   7.006   8.912   2.879
   63DPPC   C30 3130   6.969   8.886   3.026
   63DPPC   C31 3131   7.084   8.800   3.079
   63DPPC   C32 3132   7.580   8.482   1.676
   63DPPC   O33 3133   7.696   8.540   1.737
   63DPPC   C34 3134   7.745   8.470   1.843
   63DPPC   O35 3135   7.676   8.386   1.901
   63DPPC   C36 3136   7.868   8.539   1.902
   63DPPC   C37 3137   7.850   8.589   2.046
   63DPPC   C38 3138   7.780   8.725   2.051
   63DPPC   C39 3139   7.756   8.764   2.197
   63DPPC   C40 3140   7.687   8.900   2.212
   63DPPC   C41 3141   7.672   8.942   2.358
   63DPPC   C42 3142   7.602   9.078   2.359
   63DPPC   C43 3143   7.564   9.126   2.499
   63DPPC   C44 3144   7.492   9.260   2.510
   63DPPC   C45 3145   7.514   9.332   2.643
   63DPPC   C46 3146   7.442   9.248   2.748
   63DPPC   C47 3147   7.450   9.317   2.885
   63DPPC   C48 3148   7.368   9.251   2.996
   63DPPC   C49 3149   7.379   9.330   3.126
   63DPPC   C50 3150   7.299   9.267   3.240
   64DPPC    C1 3151   3.365   0.047   1.752
   64DPPC    C2 3152   3.286  -0.020   1.539
   64DPPC    C3 3153   3.162   0.150   1.660
   64DPPC    N4 3154   3.295   0.094   1.632
   64DPPC    C5 3155   3.390   0.182   1.562
   64DPPC    C6 3156   3.457   0.301   1.630
   64DPPC    O7 3157   3.365   0.396   1.683
   64DPPC    P8 3158   3.430   0.515   1.769
   64DPPC    O9 3159   3.321   0.603   1.815
   64DPPC   O10 3160   3.542   0.561   1.683
   64DPPC   O11 3161   3.486   0.430   1.893
   64DPPC   C12 3162   3.368   0.416   1.973
   64DPPC   C13 3163   3.391   0.365   2.115
   64DPPC   O14 3164   3.262   0.348   2.175
   64DPPC   C15 3165   3.180   0.245   2.140
   64DPPC   O16 3166   3.212   0.170   2.048
   64DPPC   C17 3167   3.046   0.238   2.212
   64DPPC   C18 3168   3.070   0.220   2.362
   64DPPC   C19 3169   3.108   0.354   2.425
   64DPPC   C20 3170   3.116   0.340   2.577
   64DPPC   C21 3171   2.987   0.284   2.638
   64DPPC   C22 3172   3.001   0.271   2.790
   64DPPC   C23 3173   3.129   0.201   2.837
   64DPPC   C24 3174   3.179   0.266   2.966
   64DPPC   C25 3175   3.305   0.209   3.030
   64DPPC   C26 3176   3.264   0.090   3.117
   64DPPC   C27 3177   3.391   0.010   3.148
   64DPPC   C28 3178   3.342  -0.116   3.220
   64DPPC   C29 3179   3.459  -0.215   3.221
   64DPPC   C30 3180   3.488  -0.268   3.080
   64DPPC   C31 3181   3.570  -0.396   3.096
   64DPPC   C32 3182   3.481   0.472   2.178
   64DPPC   O33 3183   3.521   0.430   2.308
   64DPPC   C34 3184   3.614   0.330   2.308
   64DPPC   O35 3185   3.682   0.307   2.209
   64DPPC   C36 3186   3.648   0.266   2.443
   64DPPC   C37 3187   3.537   0.177   2.500
   64DPPC   C38 3188   3.547   0.192   2.652
   64DPPC   C39 3189   3.680   0.149   2.713
   64DPPC   C40 3190   3.685  -0.004   2.700
   64DPPC   C41 3191   3.827  -0.051   2.730
   64DPPC   C42 3192   3.868   0.004   2.866
   64DPPC   C43 3193   3.987  -0.071   2.927
   64DPPC   C44 3194   3.937  -0.215   2.946
   64DPPC   C45 3195   4.048  -0.305   3.001
   64DPPC   C46 3196   3.989  -0.431   3.066
   64DPPC   C47 3197   4.104  -0.526   3.101
   64DPPC   C48 3198   4.042  -0.658   3.148
   64DPPC   C49 3199   4.156  -0.758   3.168
   64DPPC   C50 3200   4.227  -0.783   3.034
   65DPPC    C1 3201   2.328   5.107   5.469
   65DPPC    C2 3202   2.507   5.078   5.317
   65DPPC    C3 3203   2.492   4.939   5.513
   65DPPC    N4 3204   2.415   5.006   5.407
   65DPPC    C5 3205   2.333   4.899   5.349
   65DPPC    C6 3206   2.385   4.779   5.271
   65DPPC    O7 3207   2.292   4.670   5.261
   65DPPC    P8 3208   2.372   4.537   5.219
   65DPPC    O9 3209   2.256   4.446   5.213
   65DPPC   O10 3210   2.486   4.525   5.313
   65DPPC   O11 3211   2.432   4.582   5.076
   65DPPC   C12 3212   2.355   4.534   4.966
   65DPPC   C13 3213   2.415   4.581   4.834
   65DPPC   O14 3214   2.325   4.577   4.722
   65DPPC   C15 3215   2.231   4.673   4.699
   65DPPC   O16 3216   2.221   4.764   4.781
   65DPPC   C17 3217   2.177   4.685   4.557
   65DPPC   C18 3218   2.215   4.815   4.485
   65DPPC   C19 3219   2.366   4.838   4.472
   65DPPC   C20 3220   2.388   4.959   4.380
   65DPPC   C21 3221   2.535   4.970   4.338
   65DPPC   C22 3222   2.555   5.096   4.254
   65DPPC   C23 3223   2.444   5.089   4.148
   65DPPC   C24 3224   2.484   5.203   4.054
   65DPPC   C25 3225   2.621   5.170   3.994
   65DPPC   C26 3226   2.685   5.285   3.917
   65DPPC   C27 3227   2.829   5.244   3.882
   65DPPC   C28 3228   2.898   5.349   3.795
   65DPPC   C29 3229   3.041   5.299   3.772
   65DPPC   C30 3230   3.125   5.397   3.691
   65DPPC   C31 3231   3.264   5.334   3.680
   65DPPC   C32 3232   2.544   4.499   4.828
   65DPPC   O33 3233   2.541   4.357   4.841
   65DPPC   C34 3234   2.667   4.305   4.833
   65DPPC   O35 3235   2.768   4.373   4.847
   65DPPC   C36 3236   2.662   4.153   4.852
   65DPPC   C37 3237   2.599   4.056   4.752
   65DPPC   C38 3238   2.669   4.080   4.618
   65DPPC   C39 3239   2.614   3.993   4.505
   65DPPC   C40 3240   2.708   3.996   4.384
   65DPPC   C41 3241   2.669   3.928   4.252
   65DPPC   C42 3242   2.765   3.939   4.133
   65DPPC   C43 3243   2.753   4.078   4.069
   65DPPC   C44 3244   2.813   4.064   3.929
   65DPPC   C45 3245   2.769   4.185   3.847
   65DPPC   C46 3246   2.844   4.171   3.714
   65DPPC   C47 3247   2.768   4.101   3.601
   65DPPC   C48 3248   2.851   4.082   3.475
   65DPPC   C49 3249   2.772   3.996   3.377
   65DPPC   C50 3250   2.645   4.074   3.340
   66DPPC    C1 3251   8.053   1.334   1.248
   66DPPC    C2 3252   8.018   1.566   1.254
   66DPPC    C3 3253   8.107   1.464   1.443
   66DPPC    N4 3254   8.111   1.460   1.296
   66DPPC    C5 3255   8.234   1.491   1.222
   66DPPC    C6 3256   8.344   1.385   1.227
   66DPPC    O7 3257   8.458   1.438   1.159
   66DPPC    P8 3258   8.585   1.340   1.143
   66DPPC    O9 3259   8.709   1.392   1.082
   66DPPC   O10 3260   8.529   1.213   1.090
   66DPPC   O11 3261   8.605   1.321   1.301
   66DPPC   C12 3262   8.642   1.435   1.379
   66DPPC   C13 3263   8.597   1.409   1.523
   66DPPC   O14 3264   8.584   1.526   1.606
   66DPPC   C15 3265   8.468   1.596   1.588
   66DPPC   O16 3266   8.405   1.587   1.483
   66DPPC   C17 3267   8.424   1.692   1.699
   66DPPC   C18 3268   8.339   1.624   1.807
   66DPPC   C19 3269   8.288   1.704   1.926
   66DPPC   C20 3270   8.187   1.813   1.890
   66DPPC   C21 3271   8.089   1.844   2.003
   66DPPC   C22 3272   7.999   1.964   1.972
   66DPPC   C23 3273   7.879   1.960   2.068
   66DPPC   C24 3274   7.806   2.093   2.051
   66DPPC   C25 3275   7.677   2.107   2.131
   66DPPC   C26 3276   7.695   2.086   2.281
   66DPPC   C27 3277   7.578   2.105   2.377
   66DPPC   C28 3278   7.616   2.059   2.517
   66DPPC   C29 3279   7.495   2.078   2.610
   66DPPC   C30 3280   7.539   2.069   2.756
   66DPPC   C31 3281   7.428   2.092   2.859
   66DPPC   C32 3282   8.685   1.292   1.568
   66DPPC   O33 3283   8.659   1.238   1.697
   66DPPC   C34 3284   8.540   1.180   1.728
   66DPPC   O35 3285   8.439   1.205   1.663
   66DPPC   C36 3286   8.538   1.095   1.856
   66DPPC   C37 3287   8.572   1.175   1.982
   66DPPC   C38 3288   8.612   1.078   2.093
   66DPPC   C39 3289   8.638   1.142   2.229
   66DPPC   C40 3290   8.658   1.049   2.349
   66DPPC   C41 3291   8.785   0.963   2.341
   66DPPC   C42 3292   8.808   0.893   2.475
   66DPPC   C43 3293   8.825   0.980   2.600
   66DPPC   C44 3294   8.861   0.889   2.718
   66DPPC   C45 3295   8.850   0.973   2.845
   66DPPC   C46 3296   8.826   0.886   2.969
   66DPPC   C47 3297   8.947   0.793   2.980
   66DPPC   C48 3298   8.935   0.711   3.109
   66DPPC   C49 3299   9.046   0.610   3.139
   66DPPC   C50 3300   9.030   0.526   3.266
   67DPPC    C1 3301   4.813   3.013   5.789
   67DPPC    C2 3302   4.618   2.900   5.794
   67DPPC    C3 3303   4.631   3.072   5.639
   67DPPC    N4 3304   4.710   2.962   5.698
   67DPPC    C5 3305   4.766   2.863   5.605
   67DPPC    C6 3306   4.850   2.749   5.665
   67DPPC    O7 3307   4.941   2.687   5.575
   67DPPC    P8 3308   5.005   2.562   5.654
   67DPPC    O9 3309   4.952   2.539   5.791
   67DPPC   O10 3310   5.150   2.563   5.623
   67DPPC   O11 3311   4.937   2.445   5.567
   67DPPC   C12 3312   4.976   2.463   5.431
   67DPPC   C13 3313   4.922   2.355   5.337
   67DPPC   O14 3314   4.994   2.344   5.214
   67DPPC   C15 3315   5.101   2.260   5.215
   67DPPC   O16 3316   5.136   2.206   5.320
   67DPPC   C17 3317   5.185   2.244   5.088
   67DPPC   C18 3318   5.184   2.095   5.053
   67DPPC   C19 3319   5.254   2.092   4.917
   67DPPC   C20 3320   5.385   2.167   4.939
   67DPPC   C21 3321   5.469   2.167   4.812
   67DPPC   C22 3322   5.614   2.213   4.826
   67DPPC   C23 3323   5.693   2.204   4.695
   67DPPC   C24 3324   5.627   2.281   4.580
   67DPPC   C25 3325   5.714   2.284   4.455
   67DPPC   C26 3326   5.645   2.363   4.343
   67DPPC   C27 3327   5.723   2.342   4.213
   67DPPC   C28 3328   5.640   2.379   4.089
   67DPPC   C29 3329   5.706   2.349   3.955
   67DPPC   C30 3330   5.640   2.425   3.840
   67DPPC   C31 3331   5.716   2.387   3.713
   67DPPC   C32 3332   4.772   2.375   5.317
   67DPPC   O33 3333   4.724   2.490   5.247
   67DPPC   C34 3334   4.589   2.503   5.252
   67DPPC   O35 3335   4.526   2.476   5.354
   67DPPC   C36 3336   4.533   2.568   5.126
   67DPPC   C37 3337   4.535   2.721   5.137
   67DPPC   C38 3338   4.468   2.770   5.008
   67DPPC   C39 3339   4.511   2.724   4.869
   67DPPC   C40 3340   4.435   2.792   4.754
   67DPPC   C41 3341   4.496   2.756   4.619
   67DPPC   C42 3342   4.455   2.853   4.508
   67DPPC   C43 3343   4.489   2.998   4.541
   67DPPC   C44 3344   4.431   3.075   4.421
   67DPPC   C45 3345   4.486   3.021   4.289
   67DPPC   C46 3346   4.445   3.105   4.167
   67DPPC   C47 3347   4.510   3.056   4.037
   67DPPC   C48 3348   4.477   3.142   3.915
   67DPPC   C49 3349   4.536   3.062   3.799
   67DPPC   C50 3350   4.559   3.156   3.681
   68DPPC    C1 3351   0.618   4.029   0.905
   68DPPC    C2 3352   0.815   3.931   0.811
   68DPPC    C3 3353   0.857   4.089   0.957
   68DPPC    N4 3354   0.755   3.985   0.934
   68DPPC    C5 3355   0.758   3.887   1.043
   68DPPC    C6 3356   0.697   3.749   1.013
   68DPPC    O7 3357   0.715   3.652   1.116
   68DPPC    P8 3358   0.647   3.509   1.088
   68DPPC    O9 3359   0.741   3.397   1.110
   68DPPC   O10 3360   0.575   3.515   0.958
   68DPPC   O11 3361   0.558   3.536   1.219
   68DPPC   C12 3362   0.646   3.516   1.330
   68DPPC   C13 3363   0.611   3.612   1.444
   68DPPC   O14 3364   0.685   3.572   1.560
   68DPPC   C15 3365   0.795   3.641   1.601
   68DPPC   O16 3366   0.850   3.724   1.529
   68DPPC   C17 3367   0.837   3.605   1.744
   68DPPC   C18 3368   0.757   3.668   1.858
   68DPPC   C19 3369   0.739   3.815   1.822
   68DPPC   C20 3370   0.646   3.875   1.928
   68DPPC   C21 3371   0.712   3.855   2.064
   68DPPC   C22 3372   0.610   3.927   2.152
   68DPPC   C23 3373   0.640   3.921   2.302
   68DPPC   C24 3374   0.531   4.000   2.374
   68DPPC   C25 3375   0.522   4.150   2.343
   68DPPC   C26 3376   0.395   4.213   2.400
   68DPPC   C27 3377   0.392   4.184   2.551
   68DPPC   C28 3378   0.266   4.228   2.626
   68DPPC   C29 3379   0.261   4.207   2.777
   68DPPC   C30 3380   0.260   4.058   2.810
   68DPPC   C31 3381   0.242   4.028   2.959
   68DPPC   C32 3382   0.460   3.598   1.468
   68DPPC   O33 3383   0.404   3.704   1.546
   68DPPC   C34 3384   0.294   3.664   1.615
   68DPPC   O35 3385   0.226   3.573   1.570
   68DPPC   C36 3386   0.223   3.772   1.698
   68DPPC   C37 3387   0.222   3.739   1.848
   68DPPC   C38 3388   0.195   3.850   1.949
   68DPPC   C39 3389   0.047   3.889   1.950
   68DPPC   C40 3390  -0.051   3.798   2.024
   68DPPC   C41 3391  -0.194   3.846   1.999
   68DPPC   C42 3392  -0.291   3.748   2.065
   68DPPC   C43 3393  -0.262   3.757   2.215
   68DPPC   C44 3394  -0.365   3.656   2.267
   68DPPC   C45 3395  -0.500   3.724   2.284
   68DPPC   C46 3396  -0.494   3.845   2.378
   68DPPC   C47 3397  -0.635   3.904   2.372
   68DPPC   C48 3398  -0.667   4.030   2.453
   68DPPC   C49 3399  -0.811   4.078   2.432
   68DPPC   C50 3400  -0.897   3.969   2.495
   69DPPC    C1 3401   5.424   2.600   6.152
   69DPPC    C2 3402   5.487   2.605   5.925
   69DPPC    C3 3403   5.430   2.396   6.030
   69DPPC    N4 3404   5.397   2.539   6.021
   69DPPC    C5 3405   5.258   2.572   5.986
   69DPPC    C6 3406   5.203   2.707   6.033
   69DPPC    O7 3407   5.252   2.827   5.971
   69DPPC    P8 3408   5.161   2.959   5.956
   69DPPC    O9 3409   5.246   3.066   6.014
   69DPPC   O10 3410   5.030   2.918   6.010
   69DPPC   O11 3411   5.168   2.940   5.797
   69DPPC   C12 3412   5.295   2.968   5.738
   69DPPC   C13 3413   5.275   2.935   5.590
   69DPPC   O14 3414   5.385   2.979   5.509
   69DPPC   C15 3415   5.413   3.104   5.462
   69DPPC   O16 3416   5.370   3.200   5.525
   69DPPC   C17 3417   5.531   3.119   5.367
   69DPPC   C18 3418   5.463   3.104   5.230
   69DPPC   C19 3419   5.570   3.108   5.120
   69DPPC   C20 3420   5.525   3.059   4.982
   69DPPC   C21 3421   5.641   3.074   4.883
   69DPPC   C22 3422   5.600   3.056   4.737
   69DPPC   C23 3423   5.722   3.104   4.659
   69DPPC   C24 3424   5.680   3.156   4.521
   69DPPC   C25 3425   5.809   3.217   4.468
   69DPPC   C26 3426   5.805   3.287   4.332
   69DPPC   C27 3427   5.760   3.191   4.222
   69DPPC   C28 3428   5.721   3.258   4.090
   69DPPC   C29 3429   5.686   3.148   3.991
   69DPPC   C30 3430   5.667   3.211   3.853
   69DPPC   C31 3431   5.632   3.108   3.745
   69DPPC   C32 3432   5.139   2.991   5.551
   69DPPC   O33 3433   5.108   2.950   5.417
   69DPPC   C34 3434   4.998   3.001   5.355
   69DPPC   O35 3435   4.920   3.077   5.411
   69DPPC   C36 3436   4.999   2.989   5.203
   69DPPC   C37 3437   4.939   2.855   5.160
   69DPPC   C38 3438   4.993   2.811   5.024
   69DPPC   C39 3439   4.936   2.676   4.979
   69DPPC   C40 3440   4.949   2.657   4.827
   69DPPC   C41 3441   4.961   2.509   4.791
   69DPPC   C42 3442   5.016   2.482   4.651
   69DPPC   C43 3443   5.069   2.340   4.628
   69DPPC   C44 3444   5.133   2.319   4.491
   69DPPC   C45 3445   5.192   2.178   4.495
   69DPPC   C46 3446   5.290   2.151   4.381
   69DPPC   C47 3447   5.219   2.179   4.248
   69DPPC   C48 3448   5.318   2.143   4.137
   69DPPC   C49 3449   5.254   2.166   4.000
   69DPPC   C50 3450   5.226   2.316   3.994
   70DPPC    C1 3451   2.636   0.088   5.059
   70DPPC    C2 3452   2.731  -0.023   4.865
   70DPPC    C3 3453   2.861   0.077   5.048
   70DPPC    N4 3454   2.743  -0.001   5.010
   70DPPC    C5 3455   2.721  -0.115   5.101
   70DPPC    C6 3456   2.829  -0.224   5.107
   70DPPC    O7 3457   2.875  -0.278   4.983
   70DPPC    P8 3458   2.930  -0.426   5.012
   70DPPC    O9 3459   2.815  -0.482   5.086
   70DPPC   O10 3460   3.054  -0.384   5.081
   70DPPC   O11 3461   2.935  -0.477   4.859
   70DPPC   C12 3462   2.806  -0.471   4.799
   70DPPC   C13 3463   2.825  -0.496   4.649
   70DPPC   O14 3464   2.846  -0.631   4.608
   70DPPC   C15 3465   2.753  -0.730   4.620
   70DPPC   O16 3466   2.640  -0.703   4.658
   70DPPC   C17 3467   2.789  -0.869   4.568
   70DPPC   C18 3468   2.814  -0.849   4.418
   70DPPC   C19 3469   2.816  -0.979   4.337
   70DPPC   C20 3470   2.872  -0.940   4.200
   70DPPC   C21 3471   3.014  -0.884   4.216
   70DPPC   C22 3472   3.061  -0.840   4.077
   70DPPC   C23 3473   3.212  -0.831   4.051
   70DPPC   C24 3474   3.247  -0.758   3.921
   70DPPC   C25 3475   3.390  -0.702   3.921
   70DPPC   C26 3476   3.403  -0.635   3.784
   70DPPC   C27 3477   3.550  -0.601   3.762
   70DPPC   C28 3478   3.583  -0.522   3.634
   70DPPC   C29 3479   3.731  -0.552   3.610
   70DPPC   C30 3480   3.816  -0.504   3.728
   70DPPC   C31 3481   3.963  -0.532   3.696
   70DPPC   C32 3482   2.937  -0.404   4.599
   70DPPC   O33 3483   2.893  -0.268   4.593
   70DPPC   C34 3484   2.988  -0.180   4.553
   70DPPC   O35 3485   3.100  -0.221   4.523
   70DPPC   C36 3486   2.943  -0.037   4.523
   70DPPC   C37 3487   3.014   0.026   4.403
   70DPPC   C38 3488   2.941   0.154   4.361
   70DPPC   C39 3489   2.985   0.196   4.220
   70DPPC   C40 3490   2.908   0.099   4.129
   70DPPC   C41 3491   2.951   0.102   3.982
   70DPPC   C42 3492   2.901  -0.024   3.910
   70DPPC   C43 3493   2.749  -0.034   3.919
   70DPPC   C44 3494   2.691   0.080   3.836
   70DPPC   C45 3495   2.636   0.037   3.700
   70DPPC   C46 3496   2.484   0.018   3.689
   70DPPC   C47 3497   2.441  -0.044   3.556
   70DPPC   C48 3498   2.292  -0.075   3.538
   70DPPC   C49 3499   2.262  -0.162   3.416
   70DPPC   C50 3500   2.111  -0.179   3.399
   71DPPC    C1 3501   3.928   3.729   5.315
   71DPPC    C2 3502   3.963   3.818   5.540
   71DPPC    C3 3503   3.979   3.584   5.479
   71DPPC    N4 3504   4.008   3.722   5.438
   71DPPC    C5 3505   4.151   3.753   5.421
   71DPPC    C6 3506   4.238   3.760   5.546
   71DPPC    O7 3507   4.253   3.633   5.609
   71DPPC    P8 3508   4.353   3.634   5.735
   71DPPC    O9 3509   4.334   3.515   5.821
   71DPPC   O10 3510   4.351   3.768   5.798
   71DPPC   O11 3511   4.483   3.631   5.640
   71DPPC   C12 3512   4.513   3.498   5.596
   71DPPC   C13 3513   4.589   3.498   5.463
   71DPPC   O14 3514   4.730   3.522   5.463
   71DPPC   C15 3515   4.800   3.410   5.495
   71DPPC   O16 3516   4.763   3.343   5.591
   71DPPC   C17 3517   4.949   3.412   5.459
   71DPPC   C18 3518   4.965   3.390   5.309
   71DPPC   C19 3519   5.105   3.427   5.261
   71DPPC   C20 3520   5.127   3.379   5.117
   71DPPC   C21 3521   5.250   3.439   5.049
   71DPPC   C22 3522   5.226   3.404   4.902
   71DPPC   C23 3523   5.255   3.256   4.873
   71DPPC   C24 3524   5.248   3.234   4.722
   71DPPC   C25 3525   5.322   3.325   4.623
   71DPPC   C26 3526   5.314   3.263   4.484
   71DPPC   C27 3527   5.361   3.354   4.370
   71DPPC   C28 3528   5.321   3.289   4.237
   71DPPC   C29 3529   5.366   3.378   4.121
   71DPPC   C30 3530   5.321   3.323   3.986
   71DPPC   C31 3531   5.360   3.415   3.870
   71DPPC   C32 3532   4.507   3.585   5.367
   71DPPC   O33 3533   4.530   3.557   5.229
   71DPPC   C34 3534   4.451   3.626   5.142
   71DPPC   O35 3535   4.379   3.718   5.179
   71DPPC   C36 3536   4.452   3.590   4.994
   71DPPC   C37 3537   4.359   3.474   4.958
   71DPPC   C38 3538   4.336   3.433   4.813
   71DPPC   C39 3539   4.228   3.324   4.818
   71DPPC   C40 3540   4.171   3.298   4.679
   71DPPC   C41 3541   4.118   3.428   4.618
   71DPPC   C42 3542   4.100   3.407   4.468
   71DPPC   C43 3543   4.049   3.529   4.392
   71DPPC   C44 3544   4.045   3.491   4.244
   71DPPC   C45 3545   4.192   3.467   4.212
   71DPPC   C46 3546   4.219   3.405   4.075
   71DPPC   C47 3547   4.165   3.492   3.960
   71DPPC   C48 3548   4.228   3.454   3.826
   71DPPC   C49 3549   4.216   3.565   3.722
   71DPPC   C50 3550   4.072   3.591   3.677
   72DPPC    C1 3551   0.881   8.461   4.555
   72DPPC    C2 3552   1.039   8.605   4.646
   72DPPC    C3 3553   0.809   8.618   4.711
   72DPPC    N4 3554   0.920   8.526   4.681
   72DPPC    C5 3555   0.938   8.429   4.791
   72DPPC    C6 3556   1.028   8.307   4.775
   72DPPC    O7 3557   1.158   8.342   4.727
   72DPPC    P8 3558   1.265   8.221   4.718
   72DPPC    O9 3559   1.205   8.127   4.815
   72DPPC   O10 3560   1.400   8.280   4.732
   72DPPC   O11 3561   1.239   8.145   4.578
   72DPPC   C12 3562   1.220   8.253   4.486
   72DPPC   C13 3563   1.202   8.222   4.337
   72DPPC   O14 3564   1.218   8.341   4.259
   72DPPC   C15 3565   1.303   8.354   4.154
   72DPPC   O16 3566   1.399   8.280   4.130
   72DPPC   C17 3567   1.269   8.481   4.075
   72DPPC   C18 3568   1.292   8.456   3.926
   72DPPC   C19 3569   1.285   8.574   3.829
   72DPPC   C20 3570   1.281   8.520   3.685
   72DPPC   C21 3571   1.214   8.629   3.600
   72DPPC   C22 3572   1.249   8.618   3.452
   72DPPC   C23 3573   1.204   8.737   3.368
   72DPPC   C24 3574   1.231   8.711   3.220
   72DPPC   C25 3575   1.211   8.833   3.130
   72DPPC   C26 3576   1.217   8.801   2.981
   72DPPC   C27 3577   1.102   8.710   2.937
   72DPPC   C28 3578   0.972   8.785   2.966
   72DPPC   C29 3579   0.851   8.691   2.970
   72DPPC   C30 3580   0.733   8.782   3.004
   72DPPC   C31 3581   0.750   8.817   3.152
   72DPPC   C32 3582   1.073   8.141   4.325
   72DPPC   O33 3583   0.950   8.213   4.328
   72DPPC   C34 3584   0.848   8.135   4.284
   72DPPC   O35 3585   0.828   8.015   4.307
   72DPPC   C36 3586   0.722   8.210   4.241
   72DPPC   C37 3587   0.684   8.184   4.095
   72DPPC   C38 3588   0.564   8.264   4.046
   72DPPC   C39 3589   0.553   8.260   3.894
   72DPPC   C40 3590   0.536   8.112   3.857
   72DPPC   C41 3591   0.510   8.086   3.708
   72DPPC   C42 3592   0.368   8.129   3.672
   72DPPC   C43 3593   0.370   8.111   3.520
   72DPPC   C44 3594   0.252   8.184   3.457
   72DPPC   C45 3595   0.124   8.144   3.530
   72DPPC   C46 3596   0.009   8.213   3.457
   72DPPC   C47 3597  -0.125   8.158   3.506
   72DPPC   C48 3598  -0.223   8.226   3.409
   72DPPC   C49 3599  -0.367   8.189   3.446
   72DPPC   C50 3600  -0.381   8.038   3.430
   73DPPC    C1 3601   8.410   8.269   4.741
   73DPPC    C2 3602   8.321   8.154   4.544
   73DPPC    C3 3603   8.522   8.083   4.644
   73DPPC    N4 3604   8.390   8.140   4.673
   73DPPC    C5 3605   8.325   8.043   4.763
   73DPPC    C6 3606   8.201   8.079   4.846
   73DPPC    O7 3607   8.154   7.957   4.905
   73DPPC    P8 3608   8.003   7.947   4.959
   73DPPC    O9 3609   7.980   8.076   5.028
   73DPPC   O10 3610   7.989   7.814   5.023
   73DPPC   O11 3611   7.937   7.944   4.812
   73DPPC   C12 3612   7.965   7.815   4.758
   73DPPC   C13 3613   7.895   7.775   4.628
   73DPPC   O14 3614   7.940   7.848   4.513
   73DPPC   C15 3615   8.061   7.825   4.457
   73DPPC   O16 3616   8.151   7.778   4.527
   73DPPC   C17 3617   8.099   7.900   4.329
   73DPPC   C18 3618   8.134   7.801   4.218
   73DPPC   C19 3619   8.021   7.716   4.159
   73DPPC   C20 3620   8.090   7.617   4.065
   73DPPC   C21 3621   8.097   7.479   4.130
   73DPPC   C22 3622   8.155   7.376   4.033
   73DPPC   C23 3623   8.288   7.429   3.980
   73DPPC   C24 3624   8.337   7.341   3.865
   73DPPC   C25 3625   8.252   7.350   3.737
   73DPPC   C26 3626   8.325   7.301   3.612
   73DPPC   C27 3627   8.390   7.166   3.646
   73DPPC   C28 3628   8.459   7.129   3.514
   73DPPC   C29 3629   8.574   7.220   3.471
   73DPPC   C30 3630   8.632   7.187   3.333
   73DPPC   C31 3631   8.763   7.258   3.296
   73DPPC   C32 3632   7.745   7.784   4.653
   73DPPC   O33 3633   7.664   7.756   4.539
   73DPPC   C34 3634   7.673   7.629   4.492
   73DPPC   O35 3635   7.732   7.544   4.557
   73DPPC   C36 3636   7.611   7.597   4.356
   73DPPC   C37 3637   7.657   7.462   4.298
   73DPPC   C38 3638   7.584   7.423   4.170
   73DPPC   C39 3639   7.604   7.526   4.059
   73DPPC   C40 3640   7.549   7.476   3.925
   73DPPC   C41 3641   7.590   7.581   3.821
   73DPPC   C42 3642   7.581   7.523   3.679
   73DPPC   C43 3643   7.658   7.624   3.593
   73DPPC   C44 3644   7.717   7.564   3.465
   73DPPC   C45 3645   7.789   7.664   3.375
   73DPPC   C46 3646   7.697   7.782   3.344
   73DPPC   C47 3647   7.762   7.885   3.251
   73DPPC   C48 3648   7.875   7.959   3.322
   73DPPC   C49 3649   7.833   8.102   3.355
   73DPPC   C50 3650   7.964   8.170   3.395
   74DPPC    C1 3651   5.808   4.822   5.580
   74DPPC    C2 3652   5.603   4.931   5.489
   74DPPC    C3 3653   5.812   5.022   5.455
   74DPPC    N4 3654   5.744   4.893   5.469
   74DPPC    C5 3655   5.738   4.808   5.349
   74DPPC    C6 3656   5.860   4.796   5.257
   74DPPC    O7 3657   5.859   4.677   5.177
   74DPPC    P8 3658   6.017   4.660   5.155
   74DPPC    O9 3659   6.047   4.545   5.067
   74DPPC   O10 3660   6.091   4.677   5.283
   74DPPC   O11 3661   6.051   4.792   5.069
   74DPPC   C12 3662   6.159   4.758   4.982
   74DPPC   C13 3663   6.181   4.850   4.862
   74DPPC   O14 3664   6.312   4.850   4.804
   74DPPC   C15 3665   6.345   4.748   4.720
   74DPPC   O16 3666   6.280   4.644   4.729
   74DPPC   C17 3667   6.468   4.778   4.635
   74DPPC   C18 3668   6.430   4.782   4.487
   74DPPC   C19 3669   6.550   4.836   4.409
   74DPPC   C20 3670   6.506   4.842   4.262
   74DPPC   C21 3671   6.389   4.939   4.241
   74DPPC   C22 3672   6.312   4.904   4.113
   74DPPC   C23 3673   6.405   4.913   3.992
   74DPPC   C24 3674   6.323   4.903   3.864
   74DPPC   C25 3675   6.414   4.929   3.743
   74DPPC   C26 3676   6.336   4.895   3.616
   74DPPC   C27 3677   6.437   4.841   3.515
   74DPPC   C28 3678   6.376   4.773   3.392
   74DPPC   C29 3679   6.311   4.644   3.442
   74DPPC   C30 3680   6.398   4.549   3.525
   74DPPC   C31 3681   6.312   4.432   3.572
   74DPPC   C32 3682   6.153   4.989   4.920
   74DPPC   O33 3683   6.113   5.073   4.811
   74DPPC   C34 3684   6.124   5.207   4.829
   74DPPC   O35 3685   6.135   5.253   4.942
   74DPPC   C36 3686   6.119   5.305   4.712
   74DPPC   C37 3687   6.098   5.225   4.583
   74DPPC   C38 3688   6.137   5.316   4.466
   74DPPC   C39 3689   6.284   5.356   4.483
   74DPPC   C40 3690   6.336   5.434   4.362
   74DPPC   C41 3691   6.353   5.339   4.243
   74DPPC   C42 3692   6.428   5.412   4.132
   74DPPC   C43 3693   6.414   5.335   4.001
   74DPPC   C44 3694   6.495   5.394   3.886
   74DPPC   C45 3695   6.448   5.331   3.755
   74DPPC   C46 3696   6.549   5.360   3.643
   74DPPC   C47 3697   6.502   5.290   3.516
   74DPPC   C48 3698   6.618   5.291   3.416
   74DPPC   C49 3699   6.566   5.244   3.280
   74DPPC   C50 3700   6.447   5.316   3.216
   75DPPC    C1 3701   3.692   1.463   5.538
   75DPPC    C2 3702   3.666   1.524   5.300
   75DPPC    C3 3703   3.583   1.329   5.394
   75DPPC    N4 3704   3.603   1.472   5.422
   75DPPC    C5 3705   3.489   1.554   5.464
   75DPPC    C6 3706   3.394   1.628   5.370
   75DPPC    O7 3707   3.458   1.748   5.324
   75DPPC    P8 3708   3.322   1.832   5.306
   75DPPC    O9 3709   3.288   1.864   5.446
   75DPPC   O10 3710   3.242   1.753   5.210
   75DPPC   O11 3711   3.376   1.964   5.231
   75DPPC   C12 3712   3.330   1.973   5.097
   75DPPC   C13 3713   3.388   2.098   5.030
   75DPPC   O14 3714   3.355   2.111   4.891
   75DPPC   C15 3715   3.376   2.229   4.828
   75DPPC   O16 3716   3.409   2.332   4.886
   75DPPC   C17 3717   3.355   2.239   4.677
   75DPPC   C18 3718   3.474   2.293   4.597
   75DPPC   C19 3719   3.593   2.197   4.604
   75DPPC   C20 3720   3.725   2.269   4.580
   75DPPC   C21 3721   3.845   2.175   4.572
   75DPPC   C22 3722   3.964   2.270   4.555
   75DPPC   C23 3723   4.094   2.194   4.529
   75DPPC   C24 3724   4.205   2.294   4.496
   75DPPC   C25 3725   4.170   2.388   4.381
   75DPPC   C26 3726   4.283   2.445   4.296
   75DPPC   C27 3727   4.232   2.540   4.187
   75DPPC   C28 3728   4.335   2.591   4.086
   75DPPC   C29 3729   4.264   2.647   3.962
   75DPPC   C30 3730   4.364   2.718   3.871
   75DPPC   C31 3731   4.285   2.790   3.761
   75DPPC   C32 3732   3.538   2.086   5.061
   75DPPC   O33 3733   3.592   1.957   5.031
   75DPPC   C34 3734   3.727   1.942   5.028
   75DPPC   O35 3735   3.793   2.024   5.091
   75DPPC   C36 3736   3.766   1.803   4.977
   75DPPC   C37 3737   3.797   1.819   4.828
   75DPPC   C38 3738   3.846   1.691   4.760
   75DPPC   C39 3739   3.885   1.707   4.612
   75DPPC   C40 3740   3.777   1.739   4.509
   75DPPC   C41 3741   3.829   1.767   4.368
   75DPPC   C42 3742   3.707   1.802   4.282
   75DPPC   C43 3743   3.773   1.857   4.156
   75DPPC   C44 3744   3.677   1.883   4.039
   75DPPC   C45 3745   3.610   1.751   4.002
   75DPPC   C46 3746   3.522   1.762   3.877
   75DPPC   C47 3747   3.617   1.798   3.763
   75DPPC   C48 3748   3.537   1.829   3.637
   75DPPC   C49 3749   3.641   1.849   3.526
   75DPPC   C50 3750   3.570   1.915   3.408
   76DPPC    C1 3751   5.830   0.012   5.085
   76DPPC    C2 3752   5.627   0.075   5.165
   76DPPC    C3 3753   5.761   0.244   5.061
   76DPPC    N4 3754   5.719   0.103   5.054
   76DPPC    C5 3755   5.664   0.058   4.925
   76DPPC    C6 3756   5.536   0.133   4.890
   76DPPC    O7 3757   5.456   0.094   4.778
   76DPPC    P8 3758   5.348   0.213   4.760
   76DPPC    O9 3759   5.427   0.333   4.724
   76DPPC   O10 3760   5.269   0.208   4.884
   76DPPC   O11 3761   5.279   0.128   4.642
   76DPPC   C12 3762   5.325   0.172   4.514
   76DPPC   C13 3763   5.216   0.182   4.406
   76DPPC   O14 3764   5.143   0.304   4.390
   76DPPC   C15 3765   5.212   0.410   4.339
   76DPPC   O16 3766   5.335   0.407   4.348
   76DPPC   C17 3767   5.135   0.541   4.325
   76DPPC   C18 3768   5.116   0.618   4.456
   76DPPC   C19 3769   5.038   0.749   4.438
   76DPPC   C20 3770   4.910   0.726   4.357
   76DPPC   C21 3771   4.824   0.848   4.322
   76DPPC   C22 3772   4.719   0.814   4.217
   76DPPC   C23 3773   4.806   0.768   4.100
   76DPPC   C24 3774   4.729   0.758   3.968
   76DPPC   C25 3775   4.784   0.653   3.872
   76DPPC   C26 3776   4.737   0.660   3.726
   76DPPC   C27 3777   4.805   0.550   3.645
   76DPPC   C28 3778   4.957   0.572   3.642
   76DPPC   C29 3779   5.041   0.445   3.651
   76DPPC   C30 3780   5.021   0.359   3.526
   76DPPC   C31 3781   5.119   0.241   3.527
   76DPPC   C32 3782   5.154   0.042   4.397
   76DPPC   O33 3783   5.255  -0.052   4.361
   76DPPC   C34 3784   5.218  -0.181   4.384
   76DPPC   O35 3785   5.135  -0.205   4.471
   76DPPC   C36 3786   5.310  -0.292   4.334
   76DPPC   C37 3787   5.330  -0.265   4.184
   76DPPC   C38 3788   5.474  -0.305   4.154
   76DPPC   C39 3789   5.508  -0.280   4.007
   76DPPC   C40 3790   5.602  -0.382   3.942
   76DPPC   C41 3791   5.523  -0.508   3.908
   76DPPC   C42 3792   5.601  -0.613   3.828
   76DPPC   C43 3793   5.517  -0.741   3.830
   76DPPC   C44 3794   5.393  -0.715   3.746
   76DPPC   C45 3795   5.338  -0.849   3.695
   76DPPC   C46 3796   5.222  -0.812   3.603
   76DPPC   C47 3797   5.267  -0.806   3.456
   76DPPC   C48 3798   5.316  -0.941   3.405
   76DPPC   C49 3799   5.403  -0.917   3.282
   76DPPC   C50 3800   5.420  -1.046   3.202
   77DPPC    C1 3801   9.244   6.055   4.568
   77DPPC    C2 3802   9.371   5.873   4.469
   77DPPC    C3 3803   9.337   5.881   4.702
   77DPPC    N4 3804   9.273   5.911   4.572
   77DPPC    C5 3805   9.158   5.823   4.545
   77DPPC    C6 3806   9.023   5.806   4.615
   77DPPC    O7 3807   9.043   5.737   4.738
   77DPPC    P8 3808   8.923   5.758   4.843
   77DPPC    O9 3809   8.841   5.876   4.809
   77DPPC   O10 3810   8.978   5.750   4.980
   77DPPC   O11 3811   8.841   5.621   4.816
   77DPPC   C12 3812   8.905   5.498   4.851
   77DPPC   C13 3813   8.820   5.376   4.813
   77DPPC   O14 3814   8.901   5.265   4.772
   77DPPC   C15 3815   8.918   5.156   4.852
   77DPPC   O16 3816   8.918   5.172   4.974
   77DPPC   C17 3817   8.956   5.019   4.796
   77DPPC   C18 3818   8.904   4.999   4.653
   77DPPC   C19 3819   8.992   4.895   4.585
   77DPPC   C20 3820   9.138   4.942   4.580
   77DPPC   C21 3821   9.228   4.820   4.558
   77DPPC   C22 3822   9.231   4.786   4.409
   77DPPC   C23 3823   9.293   4.904   4.334
   77DPPC   C24 3824   9.293   4.866   4.185
   77DPPC   C25 3825   9.340   4.982   4.098
   77DPPC   C26 3826   9.341   4.945   3.949
   77DPPC   C27 3827   9.410   5.057   3.871
   77DPPC   C28 3828   9.399   5.003   3.728
   77DPPC   C29 3829   9.452   5.100   3.623
   77DPPC   C30 3830   9.489   5.020   3.498
   77DPPC   C31 3831   9.366   4.991   3.411
   77DPPC   C32 3832   8.737   5.423   4.693
   77DPPC   O33 3833   8.669   5.318   4.623
   77DPPC   C34 3834   8.598   5.363   4.517
   77DPPC   O35 3835   8.621   5.474   4.470
   77DPPC   C36 3836   8.527   5.247   4.445
   77DPPC   C37 3837   8.451   5.282   4.317
   77DPPC   C38 3838   8.432   5.150   4.243
   77DPPC   C39 3839   8.449   5.189   4.096
   77DPPC   C40 3840   8.410   5.063   4.019
   77DPPC   C41 3841   8.478   4.928   4.045
   77DPPC   C42 3842   8.401   4.810   3.986
   77DPPC   C43 3843   8.466   4.675   4.017
   77DPPC   C44 3844   8.394   4.554   3.957
   77DPPC   C45 3845   8.441   4.410   3.977
   77DPPC   C46 3846   8.397   4.327   3.856
   77DPPC   C47 3847   8.449   4.389   3.726
   77DPPC   C48 3848   8.428   4.311   3.597
   77DPPC   C49 3849   8.496   4.377   3.477
   77DPPC   C50 3850   8.490   4.291   3.351
   78DPPC    C1 3851   0.987   5.315   5.059
   78DPPC    C2 3852   1.082   5.135   4.971
   78DPPC    C3 3853   1.137   5.366   4.896
   78DPPC    N4 3854   1.119   5.273   5.008
   78DPPC    C5 3855   1.210   5.297   5.121
   78DPPC    C6 3856   1.352   5.240   5.108
   78DPPC    O7 3857   1.365   5.098   5.110
   78DPPC    P8 3858   1.516   5.055   5.073
   78DPPC    O9 3859   1.548   4.928   5.142
   78DPPC   O10 3860   1.589   5.181   5.099
   78DPPC   O11 3861   1.485   5.050   4.915
   78DPPC   C12 3862   1.430   4.922   4.882
   78DPPC   C13 3863   1.346   4.909   4.755
   78DPPC   O14 3864   1.280   4.785   4.727
   78DPPC   C15 3865   1.168   4.748   4.794
   78DPPC   O16 3866   1.087   4.825   4.846
   78DPPC   C17 3867   1.117   4.614   4.741
   78DPPC   C18 3868   1.053   4.620   4.603
   78DPPC   C19 3869   1.001   4.480   4.572
   78DPPC   C20 3870   0.949   4.483   4.428
   78DPPC   C21 3871   1.072   4.516   4.342
   78DPPC   C22 3872   1.055   4.563   4.197
   78DPPC   C23 3873   1.192   4.563   4.129
   78DPPC   C24 3874   1.181   4.590   3.979
   78DPPC   C25 3875   1.100   4.484   3.904
   78DPPC   C26 3876   1.087   4.529   3.759
   78DPPC   C27 3877   1.236   4.540   3.725
   78DPPC   C28 3878   1.245   4.616   3.593
   78DPPC   C29 3879   1.376   4.591   3.517
   78DPPC   C30 3880   1.369   4.450   3.457
   78DPPC   C31 3881   1.498   4.413   3.382
   78DPPC   C32 3882   1.445   4.946   4.644
   78DPPC   O33 3883   1.388   4.963   4.514
   78DPPC   C34 3884   1.483   5.004   4.426
   78DPPC   O35 3885   1.599   4.970   4.445
   78DPPC   C36 3886   1.438   5.094   4.310
   78DPPC   C37 3887   1.329   5.024   4.229
   78DPPC   C38 3888   1.391   4.921   4.134
   78DPPC   C39 3889   1.470   5.012   4.039
   78DPPC   C40 3890   1.564   4.930   3.951
   78DPPC   C41 3891   1.497   4.847   3.841
   78DPPC   C42 3892   1.603   4.775   3.757
   78DPPC   C43 3893   1.686   4.884   3.689
   78DPPC   C44 3894   1.789   4.827   3.591
   78DPPC   C45 3895   1.829   4.932   3.488
   78DPPC   C46 3896   1.883   5.055   3.561
   78DPPC   C47 3897   1.930   5.169   3.471
   78DPPC   C48 3898   1.999   5.280   3.551
   78DPPC   C49 3899   2.145   5.243   3.581
   78DPPC   C50 3900   2.225   5.365   3.626
   79DPPC    C1 3901   0.001   3.588   5.880
   79DPPC    C2 3902   0.022   3.590   5.645
   79DPPC    C3 3903  -0.201   3.562   5.743
   79DPPC    N4 3904  -0.068   3.624   5.756
   79DPPC    C5 3905  -0.065   3.771   5.751
   79DPPC    C6 3906  -0.165   3.852   5.668
   79DPPC    O7 3907  -0.125   3.850   5.531
   79DPPC    P8 3908  -0.251   3.925   5.465
   79DPPC    O9 3909  -0.263   4.058   5.529
   79DPPC   O10 3910  -0.357   3.822   5.459
   79DPPC   O11 3911  -0.178   3.932   5.321
   79DPPC   C12 3912  -0.123   3.806   5.282
   79DPPC   C13 3913  -0.075   3.808   5.137
   79DPPC   O14 3914  -0.038   3.674   5.101
   79DPPC   C15 3915  -0.120   3.571   5.068
   79DPPC   O16 3916  -0.230   3.568   5.123
   79DPPC   C17 3917  -0.066   3.456   4.984
   79DPPC   C18 3918  -0.047   3.500   4.838
   79DPPC   C19 3919  -0.037   3.375   4.750
   79DPPC   C20 3920  -0.058   3.413   4.603
   79DPPC   C21 3921  -0.045   3.289   4.515
   79DPPC   C22 3922  -0.081   3.336   4.374
   79DPPC   C23 3923  -0.099   3.220   4.275
   79DPPC   C24 3924  -0.149   3.270   4.140
   79DPPC   C25 3925  -0.168   3.157   4.039
   79DPPC   C26 3926  -0.168   3.223   3.901
   79DPPC   C27 3927  -0.193   3.126   3.786
   79DPPC   C28 3928  -0.186   3.212   3.660
   79DPPC   C29 3929  -0.226   3.127   3.539
   79DPPC   C30 3930  -0.137   3.005   3.520
   79DPPC   C31 3931  -0.169   2.935   3.387
   79DPPC   C32 3932   0.042   3.906   5.149
   79DPPC   O33 3933   0.085   3.963   5.025
   79DPPC   C34 3934   0.180   4.059   5.031
   79DPPC   O35 3935   0.209   4.100   5.143
   79DPPC   C36 3936   0.247   4.110   4.903
   79DPPC   C37 3937   0.158   4.116   4.778
   79DPPC   C38 3938   0.247   4.131   4.655
   79DPPC   C39 3939   0.156   4.113   4.534
   79DPPC   C40 3940   0.050   4.221   4.505
   79DPPC   C41 3941  -0.044   4.177   4.393
   79DPPC   C42 3942   0.019   4.177   4.254
   79DPPC   C43 3943  -0.086   4.119   4.158
   79DPPC   C44 3944  -0.030   4.137   4.016
   79DPPC   C45 3945  -0.154   4.109   3.931
   79DPPC   C46 3946  -0.118   4.181   3.801
   79DPPC   C47 3947  -0.227   4.194   3.694
   79DPPC   C48 3948  -0.159   4.245   3.567
   79DPPC   C49 3949  -0.255   4.227   3.449
   79DPPC   C50 3950  -0.188   4.255   3.314
   80DPPC    C1 3951   0.504   4.380   5.476
   80DPPC    C2 3952   0.658   4.459   5.657
   80DPPC    C3 3953   0.530   4.265   5.683
   80DPPC    N4 3954   0.599   4.347   5.582
   80DPPC    C5 3955   0.704   4.268   5.516
   80DPPC    C6 3956   0.799   4.335   5.417
   80DPPC    O7 3957   0.917   4.256   5.398
   80DPPC    P8 3958   1.016   4.359   5.323
   80DPPC    O9 3959   1.151   4.309   5.356
   80DPPC   O10 3960   0.972   4.499   5.344
   80DPPC   O11 3961   0.955   4.299   5.186
   80DPPC   C12 3962   0.983   4.402   5.091
   80DPPC   C13 3963   0.923   4.361   4.956
   80DPPC   O14 3964   0.782   4.340   4.954
   80DPPC   C15 3965   0.694   4.442   4.935
   80DPPC   O16 3966   0.716   4.553   4.984
   80DPPC   C17 3967   0.558   4.392   4.889
   80DPPC   C18 3968   0.556   4.388   4.736
   80DPPC   C19 3969   0.590   4.515   4.658
   80DPPC   C20 3970   0.570   4.520   4.506
   80DPPC   C21 3971   0.615   4.651   4.441
   80DPPC   C22 3972   0.564   4.640   4.297
   80DPPC   C23 3973   0.682   4.602   4.206
   80DPPC   C24 3974   0.628   4.581   4.065
   80DPPC   C25 3975   0.750   4.528   3.989
   80DPPC   C26 3976   0.732   4.471   3.848
   80DPPC   C27 3977   0.692   4.570   3.739
   80DPPC   C28 3978   0.657   4.492   3.612
   80DPPC   C29 3979   0.641   4.574   3.484
   80DPPC   C30 3980   0.592   4.494   3.363
   80DPPC   C31 3981   0.586   4.572   3.232
   80DPPC   C32 3982   1.006   4.242   4.907
   80DPPC   O33 3983   1.121   4.279   4.829
   80DPPC   C34 3984   1.179   4.175   4.764
   80DPPC   O35 3985   1.131   4.064   4.785
   80DPPC   C36 3986   1.287   4.212   4.662
   80DPPC   C37 3987   1.273   4.118   4.542
   80DPPC   C38 3988   1.169   4.153   4.435
   80DPPC   C39 3989   1.154   4.043   4.330
   80DPPC   C40 3990   1.037   4.078   4.237
   80DPPC   C41 3991   1.008   3.962   4.142
   80DPPC   C42 3992   0.932   3.993   4.014
   80DPPC   C43 3993   0.969   4.099   3.910
   80DPPC   C44 3994   0.904   4.081   3.773
   80DPPC   C45 3995   0.961   4.147   3.647
   80DPPC   C46 3996   0.867   4.144   3.526
   80DPPC   C47 3997   0.948   4.091   3.407
   80DPPC   C48 3998   0.854   4.069   3.289
   80DPPC   C49 3999   0.927   3.999   3.175
   80DPPC   C50 4000   0.830   3.952   3.066
   81DPPC    C1 4001   5.857   4.177   5.161
   81DPPC    C2 4002   5.651   4.140   5.280
   81DPPC    C3 4003   5.826   4.251   5.384
   81DPPC    N4 4004   5.759   4.237   5.253
   81DPPC    C5 4005   5.703   4.358   5.192
   81DPPC    C6 4006   5.633   4.461   5.280
   81DPPC    O7 4007   5.534   4.410   5.371
   81DPPC    P8 4008   5.504   4.518   5.486
   81DPPC    O9 4009   5.641   4.566   5.515
   81DPPC   O10 4010   5.409   4.471   5.589
   81DPPC   O11 4011   5.435   4.638   5.403
   81DPPC   C12 4012   5.317   4.591   5.336
   81DPPC   C13 4013   5.233   4.705   5.278
   81DPPC   O14 4014   5.120   4.669   5.197
   81DPPC   C15 4015   5.001   4.656   5.260
   81DPPC   O16 4016   4.990   4.708   5.371
   81DPPC   C17 4017   4.875   4.606   5.189
   81DPPC   C18 4018   4.889   4.597   5.037
   81DPPC   C19 4019   4.762   4.551   4.967
   81DPPC   C20 4020   4.717   4.418   5.029
   81DPPC   C21 4021   4.588   4.366   4.963
   81DPPC   C22 4022   4.615   4.311   4.823
   81DPPC   C23 4023   4.478   4.301   4.756
   81DPPC   C24 4024   4.493   4.301   4.604
   81DPPC   C25 4025   4.353   4.266   4.554
   81DPPC   C26 4026   4.238   4.362   4.584
   81DPPC   C27 4027   4.110   4.291   4.539
   81DPPC   C28 4028   4.117   4.255   4.391
   81DPPC   C29 4029   4.029   4.135   4.353
   81DPPC   C30 4030   4.081   4.091   4.217
   81DPPC   C31 4031   4.000   3.987   4.139
   81DPPC   C32 4032   5.332   4.796   5.205
   81DPPC   O33 4033   5.419   4.749   5.101
   81DPPC   C34 4034   5.532   4.817   5.067
   81DPPC   O35 4035   5.557   4.928   5.113
   81DPPC   C36 4036   5.599   4.767   4.939
   81DPPC   C37 4037   5.573   4.619   4.907
   81DPPC   C38 4038   5.669   4.587   4.792
   81DPPC   C39 4039   5.667   4.438   4.757
   81DPPC   C40 4040   5.810   4.396   4.720
   81DPPC   C41 4041   5.847   4.249   4.699
   81DPPC   C42 4042   5.774   4.182   4.582
   81DPPC   C43 4043   5.815   4.237   4.445
   81DPPC   C44 4044   5.745   4.183   4.320
   81DPPC   C45 4045   5.779   4.233   4.180
   81DPPC   C46 4046   5.682   4.148   4.097
   81DPPC   C47 4047   5.666   4.200   3.954
   81DPPC   C48 4048   5.792   4.159   3.877
   81DPPC   C49 4049   5.789   4.217   3.736
   81DPPC   C50 4050   5.915   4.206   3.648
   82DPPC    C1 4051   9.110   5.623   5.259
   82DPPC    C2 4052   9.317   5.527   5.301
   82DPPC    C3 4053   9.132   5.444   5.404
   82DPPC    N4 4054   9.176   5.493   5.273
   82DPPC    C5 4055   9.151   5.413   5.152
   82DPPC    C6 4056   9.207   5.272   5.133
   82DPPC    O7 4057   9.348   5.280   5.113
   82DPPC    P8 4058   9.397   5.136   5.058
   82DPPC    O9 4059   9.328   5.034   5.140
   82DPPC   O10 4060   9.545   5.136   5.052
   82DPPC   O11 4061   9.335   5.151   4.910
   82DPPC   C12 4062   9.431   5.203   4.817
   82DPPC   C13 4063   9.389   5.172   4.673
   82DPPC   O14 4064   9.504   5.159   4.588
   82DPPC   C15 4065   9.566   5.039   4.573
   82DPPC   O16 4066   9.569   4.963   4.670
   82DPPC   C17 4067   9.696   5.046   4.493
   82DPPC   C18 4068   9.659   5.045   4.344
   82DPPC   C19 4069   9.779   5.059   4.251
   82DPPC   C20 4070   9.730   5.056   4.106
   82DPPC   C21 4071   9.856   5.060   4.020
   82DPPC   C22 4072   9.811   4.997   3.888
   82DPPC   C23 4073   9.904   5.051   3.780
   82DPPC   C24 4074   9.899   4.961   3.656
   82DPPC   C25 4075   9.992   5.017   3.548
   82DPPC   C26 4076   9.977   4.950   3.411
   82DPPC   C27 4077  10.066   5.016   3.304
   82DPPC   C28 4078  10.054   4.948   3.168
   82DPPC   C29 4079  10.101   5.034   3.051
   82DPPC   C30 4080  10.007   5.154   3.052
   82DPPC   C31 4081  10.041   5.247   2.935
   82DPPC   C32 4082   9.295   5.288   4.637
   82DPPC   O33 4083   9.201   5.255   4.535
   82DPPC   C34 4084   9.123   5.364   4.508
   82DPPC   O35 4085   9.150   5.477   4.547
   82DPPC   C36 4086   9.016   5.336   4.402
   82DPPC   C37 4087   9.075   5.341   4.261
   82DPPC   C38 4088   8.968   5.289   4.165
   82DPPC   C39 4089   8.976   5.137   4.169
   82DPPC   C40 4090   8.854   5.064   4.112
   82DPPC   C41 4091   8.810   5.112   3.974
   82DPPC   C42 4092   8.882   5.044   3.857
   82DPPC   C43 4093   8.814   5.090   3.727
   82DPPC   C44 4094   8.892   5.020   3.616
   82DPPC   C45 4095   8.844   5.049   3.474
   82DPPC   C46 4096   8.946   4.997   3.372
   82DPPC   C47 4097   9.017   4.863   3.392
   82DPPC   C48 4098   8.912   4.751   3.388
   82DPPC   C49 4099   8.970   4.610   3.381
   82DPPC   C50 4100   9.081   4.602   3.276
   83DPPC    C1 4101   7.523   5.219   5.621
   83DPPC    C2 4102   7.637   5.015   5.626
   83DPPC    C3 4103   7.411   5.015   5.641
   83DPPC    N4 4104   7.519   5.082   5.569
   83DPPC    C5 4105   7.516   5.091   5.422
   83DPPC    C6 4106   7.480   4.971   5.335
   83DPPC    O7 4107   7.584   4.873   5.329
   83DPPC    P8 4108   7.550   4.766   5.213
   83DPPC    O9 4109   7.404   4.745   5.219
   83DPPC   O10 4110   7.653   4.666   5.249
   83DPPC   O11 4111   7.592   4.848   5.081
   83DPPC   C12 4112   7.720   4.806   5.034
   83DPPC   C13 4113   7.819   4.912   4.985
   83DPPC   O14 4114   7.794   4.975   4.859
   83DPPC   C15 4115   7.853   5.096   4.838
   83DPPC   O16 4116   7.931   5.147   4.918
   83DPPC   C17 4117   7.851   5.144   4.693
   83DPPC   C18 4118   7.715   5.200   4.649
   83DPPC   C19 4119   7.690   5.227   4.501
   83DPPC   C20 4120   7.793   5.320   4.435
   83DPPC   C21 4121   7.799   5.311   4.282
   83DPPC   C22 4122   7.673   5.368   4.216
   83DPPC   C23 4123   7.702   5.376   4.066
   83DPPC   C24 4124   7.587   5.437   3.986
   83DPPC   C25 4125   7.615   5.426   3.836
   83DPPC   C26 4126   7.497   5.468   3.747
   83DPPC   C27 4127   7.522   5.449   3.597
   83DPPC   C28 4128   7.394   5.487   3.521
   83DPPC   C29 4129   7.413   5.479   3.369
   83DPPC   C30 4130   7.398   5.340   3.308
   83DPPC   C31 4131   7.430   5.332   3.159
   83DPPC   C32 4132   7.950   4.833   4.986
   83DPPC   O33 4133   7.951   4.714   4.906
   83DPPC   C34 4134   8.076   4.667   4.879
   83DPPC   O35 4135   8.179   4.723   4.914
   83DPPC   C36 4136   8.083   4.538   4.797
   83DPPC   C37 4137   8.203   4.531   4.702
   83DPPC   C38 4138   8.178   4.438   4.583
   83DPPC   C39 4139   8.311   4.412   4.512
   83DPPC   C40 4140   8.375   4.540   4.460
   83DPPC   C41 4141   8.502   4.491   4.390
   83DPPC   C42 4142   8.603   4.606   4.379
   83DPPC   C43 4143   8.717   4.577   4.282
   83DPPC   C44 4144   8.805   4.696   4.243
   83DPPC   C45 4145   8.940   4.643   4.196
   83DPPC   C46 4146   8.934   4.659   4.044
   83DPPC   C47 4147   9.062   4.611   3.974
   83DPPC   C48 4148   9.069   4.639   3.824
   83DPPC   C49 4149   9.212   4.603   3.783
   83DPPC   C50 4150   9.245   4.630   3.636
   84DPPC    C1 4151   0.786   7.164   4.387
   84DPPC    C2 4152   0.601   7.225   4.261
   84DPPC    C3 4153   0.653   6.991   4.288
   84DPPC    N4 4154   0.648   7.122   4.355
   84DPPC    C5 4155   0.562   7.134   4.473
   84DPPC    C6 4156   0.428   7.061   4.480
   84DPPC    O7 4157   0.314   7.105   4.405
   84DPPC    P8 4158   0.187   7.021   4.458
   84DPPC    O9 4159   0.168   7.043   4.603
   84DPPC   O10 4160   0.224   6.886   4.410
   84DPPC   O11 4161   0.067   7.088   4.375
   84DPPC   C12 4162   0.033   6.992   4.275
   84DPPC   C13 4163  -0.087   7.045   4.196
   84DPPC   O14 4164  -0.133   6.953   4.096
   84DPPC   C15 4165  -0.188   6.832   4.125
   84DPPC   O16 4166  -0.150   6.768   4.223
   84DPPC   C17 4167  -0.269   6.773   4.009
   84DPPC   C18 4168  -0.217   6.828   3.876
   84DPPC   C19 4169  -0.324   6.805   3.769
   84DPPC   C20 4170  -0.446   6.875   3.830
   84DPPC   C21 4171  -0.571   6.832   3.753
   84DPPC   C22 4172  -0.689   6.845   3.848
   84DPPC   C23 4173  -0.808   6.770   3.787
   84DPPC   C24 4174  -0.940   6.815   3.851
   84DPPC   C25 4175  -1.064   6.739   3.805
   84DPPC   C26 4176  -1.193   6.781   3.875
   84DPPC   C27 4177  -1.314   6.694   3.841
   84DPPC   C28 4178  -1.432   6.763   3.910
   84DPPC   C29 4179  -1.568   6.694   3.895
   84DPPC   C30 4180  -1.658   6.769   3.993
   84DPPC   C31 4181  -1.809   6.748   3.979
   84DPPC   C32 4182  -0.060   7.181   4.133
   84DPPC   O33 4183   0.009   7.192   4.009
   84DPPC   C34 4184   0.031   7.323   3.978
   84DPPC   O35 4185  -0.022   7.416   4.038
   84DPPC   C36 4186   0.078   7.343   3.833
   84DPPC   C37 4187   0.221   7.291   3.817
   84DPPC   C38 4188   0.266   7.301   3.671
   84DPPC   C39 4189   0.172   7.219   3.582
   84DPPC   C40 4190   0.172   7.080   3.645
   84DPPC   C41 4191   0.095   6.986   3.554
   84DPPC   C42 4192   0.120   6.839   3.590
   84DPPC   C43 4193   0.271   6.812   3.581
   84DPPC   C44 4194   0.304   6.672   3.632
   84DPPC   C45 4195   0.453   6.670   3.670
   84DPPC   C46 4196   0.486   6.788   3.761
   84DPPC   C47 4197   0.625   6.761   3.819
   84DPPC   C48 4198   0.714   6.744   3.695
   84DPPC   C49 4199   0.843   6.825   3.700
   84DPPC   C50 4200   0.925   6.812   3.571
   85DPPC    C1 4201   8.232   7.412   4.513
   85DPPC    C2 4202   8.161   7.470   4.724
   85DPPC    C3 4203   8.320   7.297   4.686
   85DPPC    N4 4204   8.283   7.434   4.649
   85DPPC    C5 4205   8.384   7.539   4.634
   85DPPC    C6 4206   8.475   7.594   4.745
   85DPPC    O7 4207   8.588   7.512   4.775
   85DPPC    P8 4208   8.728   7.592   4.779
   85DPPC    O9 4209   8.821   7.495   4.839
   85DPPC   O10 4210   8.695   7.725   4.835
   85DPPC   O11 4211   8.742   7.590   4.618
   85DPPC   C12 4212   8.770   7.455   4.581
   85DPPC   C13 4213   8.768   7.426   4.431
   85DPPC   O14 4214   8.739   7.289   4.401
   85DPPC   C15 4215   8.614   7.243   4.376
   85DPPC   O16 4216   8.515   7.303   4.417
   85DPPC   C17 4217   8.607   7.114   4.293
   85DPPC   C18 4218   8.474   7.082   4.225
   85DPPC   C19 4219   8.404   6.975   4.309
   85DPPC   C20 4220   8.267   6.947   4.246
   85DPPC   C21 4221   8.174   7.062   4.284
   85DPPC   C22 4222   8.037   7.046   4.218
   85DPPC   C23 4223   7.916   7.123   4.271
   85DPPC   C24 4224   7.812   7.107   4.160
   85DPPC   C25 4225   7.857   7.147   4.019
   85DPPC   C26 4226   7.745   7.139   3.916
   85DPPC   C27 4227   7.786   7.197   3.781
   85DPPC   C28 4228   7.908   7.133   3.716
   85DPPC   C29 4229   7.921   7.165   3.567
   85DPPC   C30 4230   8.046   7.096   3.511
   85DPPC   C31 4231   8.065   7.134   3.364
   85DPPC   C32 4232   8.899   7.482   4.375
   85DPPC   O33 4233   8.906   7.521   4.238
   85DPPC   C34 4234   9.020   7.584   4.197
   85DPPC   O35 4235   9.106   7.627   4.274
   85DPPC   C36 4236   9.025   7.611   4.047
   85DPPC   C37 4237   9.167   7.637   3.997
   85DPPC   C38 4238   9.175   7.714   3.865
   85DPPC   C39 4239   9.320   7.725   3.815
   85DPPC   C40 4240   9.323   7.788   3.676
   85DPPC   C41 4241   9.433   7.727   3.590
   85DPPC   C42 4242   9.422   7.774   3.445
   85DPPC   C43 4243   9.525   7.687   3.373
   85DPPC   C44 4244   9.538   7.689   3.220
   85DPPC   C45 4245   9.652   7.598   3.174
   85DPPC   C46 4246   9.627   7.450   3.204
   85DPPC   C47 4247   9.718   7.344   3.143
   85DPPC   C48 4248   9.644   7.212   3.165
   85DPPC   C49 4249   9.682   7.099   3.069
   85DPPC   C50 4250   9.830   7.069   3.091
   86DPPC    C1 4251   7.104   7.289   5.312
   86DPPC    C2 4252   7.311   7.255   5.173
   86DPPC    C3 4253   7.280   7.418   5.338
   86DPPC    N4 4254   7.251   7.278   5.305
   86DPPC    C5 4255   7.313   7.194   5.408
   86DPPC    C6 4256   7.304   7.042   5.388
   86DPPC    O7 4257   7.171   6.991   5.372
   86DPPC    P8 4258   7.182   6.833   5.340
   86DPPC    O9 4259   7.081   6.789   5.438
   86DPPC   O10 4260   7.323   6.789   5.339
   86DPPC   O11 4261   7.114   6.854   5.196
   86DPPC   C12 4262   7.200   6.849   5.082
   86DPPC   C13 4263   7.123   6.829   4.952
   86DPPC   O14 4264   7.214   6.834   4.841
   86DPPC   C15 4265   7.178   6.762   4.731
   86DPPC   O16 4266   7.089   6.678   4.742
   86DPPC   C17 4267   7.293   6.754   4.630
   86DPPC   C18 4268   7.254   6.704   4.491
   86DPPC   C19 4269   7.351   6.755   4.384
   86DPPC   C20 4270   7.285   6.726   4.249
   86DPPC   C21 4271   7.370   6.787   4.137
   86DPPC   C22 4272   7.347   6.938   4.129
   86DPPC   C23 4273   7.242   7.001   4.038
   86DPPC   C24 4274   7.246   7.153   4.059
   86DPPC   C25 4275   7.157   7.234   3.965
   86DPPC   C26 4276   7.212   7.227   3.823
   86DPPC   C27 4277   7.124   7.322   3.742
   86DPPC   C28 4278   7.180   7.355   3.603
   86DPPC   C29 4279   7.227   7.243   3.512
   86DPPC   C30 4280   7.299   7.291   3.385
   86DPPC   C31 4281   7.194   7.354   3.293
   86DPPC   C32 4282   7.007   6.928   4.942
   86DPPC   O33 4283   7.039   7.066   4.927
   86DPPC   C34 4284   6.934   7.151   4.947
   86DPPC   O35 4285   6.820   7.109   4.967
   86DPPC   C36 4286   6.977   7.297   4.963
   86DPPC   C37 4287   6.968   7.369   4.828
   86DPPC   C38 4288   6.828   7.410   4.781
   86DPPC   C39 4289   6.833   7.456   4.636
   86DPPC   C40 4290   6.921   7.581   4.638
   86DPPC   C41 4291   7.009   7.579   4.512
   86DPPC   C42 4292   7.086   7.709   4.489
   86DPPC   C43 4293   7.183   7.730   4.606
   86DPPC   C44 4294   7.267   7.856   4.583
   86DPPC   C45 4295   7.162   7.968   4.584
   86DPPC   C46 4296   7.205   8.101   4.520
   86DPPC   C47 4297   7.103   8.215   4.525
   86DPPC   C48 4298   7.183   8.328   4.460
   86DPPC   C49 4299   7.093   8.452   4.464
   86DPPC   C50 4300   7.151   8.549   4.361
   87DPPC    C1 4301   5.129   4.613   5.725
   87DPPC    C2 4302   4.973   4.476   5.834
   87DPPC    C3 4303   4.915   4.636   5.674
   87DPPC    N4 4304   5.011   4.529   5.702
   87DPPC    C5 4305   5.025   4.435   5.590
   87DPPC    C6 4306   5.141   4.336   5.588
   87DPPC    O7 4307   5.106   4.229   5.676
   87DPPC    P8 4308   5.224   4.122   5.700
   87DPPC    O9 4309   5.157   3.990   5.713
   87DPPC   O10 4310   5.301   4.189   5.807
   87DPPC   O11 4311   5.292   4.134   5.555
   87DPPC   C12 4312   5.255   4.022   5.474
   87DPPC   C13 4313   5.187   4.058   5.342
   87DPPC   O14 4314   5.139   3.943   5.271
   87DPPC   C15 4315   5.008   3.909   5.287
   87DPPC   O16 4316   4.936   3.949   5.378
   87DPPC   C17 4317   4.957   3.792   5.203
   87DPPC   C18 4318   4.835   3.817   5.115
   87DPPC   C19 4319   4.794   3.704   5.020
   87DPPC   C20 4320   4.902   3.684   4.913
   87DPPC   C21 4321   4.855   3.574   4.817
   87DPPC   C22 4322   4.971   3.544   4.722
   87DPPC   C23 4323   5.016   3.675   4.658
   87DPPC   C24 4324   5.140   3.653   4.570
   87DPPC   C25 4325   5.112   3.600   4.429
   87DPPC   C26 4326   5.023   3.697   4.351
   87DPPC   C27 4327   4.982   3.630   4.219
   87DPPC   C28 4328   4.864   3.698   4.148
   87DPPC   C29 4329   4.834   3.614   4.023
   87DPPC   C30 4330   4.702   3.669   3.969
   87DPPC   C31 4331   4.671   3.610   3.832
   87DPPC   C32 4332   5.277   4.155   5.266
   87DPPC   O33 4333   5.194   4.236   5.183
   87DPPC   C34 4334   5.264   4.303   5.087
   87DPPC   O35 4335   5.387   4.300   5.083
   87DPPC   C36 4336   5.181   4.349   4.967
   87DPPC   C37 4337   5.164   4.238   4.862
   87DPPC   C38 4338   5.079   4.125   4.920
   87DPPC   C39 4339   5.030   4.025   4.815
   87DPPC   C40 4340   4.925   4.096   4.730
   87DPPC   C41 4341   4.869   4.008   4.618
   87DPPC   C42 4342   4.746   4.063   4.545
   87DPPC   C43 4343   4.734   4.003   4.405
   87DPPC   C44 4344   4.604   4.061   4.350
   87DPPC   C45 4345   4.595   4.020   4.203
   87DPPC   C46 4346   4.493   4.113   4.137
   87DPPC   C47 4347   4.480   4.102   3.985
   87DPPC   C48 4348   4.448   3.956   3.954
   87DPPC   C49 4349   4.419   3.954   3.804
   87DPPC   C50 4350   4.303   4.038   3.751
   88DPPC    C1 4351   7.870   6.664   5.198
   88DPPC    C2 4352   7.737   6.480   5.269
   88DPPC    C3 4353   7.761   6.681   5.403
   88DPPC    N4 4354   7.746   6.627   5.268
   88DPPC    C5 4355   7.628   6.670   5.190
   88DPPC    C6 4356   7.588   6.817   5.183
   88DPPC    O7 4357   7.688   6.902   5.126
   88DPPC    P8 4358   7.644   7.057   5.126
   88DPPC    O9 4359   7.763   7.132   5.081
   88DPPC   O10 4360   7.568   7.089   5.249
   88DPPC   O11 4361   7.540   7.047   5.003
   88DPPC   C12 4362   7.605   7.002   4.884
   88DPPC   C13 4363   7.531   6.968   4.754
   88DPPC   O14 4364   7.620   6.941   4.644
   88DPPC   C15 4365   7.672   6.818   4.620
   88DPPC   O16 4366   7.664   6.741   4.715
   88DPPC   C17 4367   7.725   6.781   4.481
   88DPPC   C18 4368   7.714   6.631   4.451
   88DPPC   C19 4369   7.820   6.604   4.343
   88DPPC   C20 4370   7.817   6.458   4.298
   88DPPC   C21 4371   7.928   6.444   4.194
   88DPPC   C22 4372   7.881   6.374   4.066
   88DPPC   C23 4373   8.006   6.325   3.994
   88DPPC   C24 4374   7.971   6.267   3.856
   88DPPC   C25 4375   8.090   6.205   3.784
   88DPPC   C26 4376   8.061   6.195   3.634
   88DPPC   C27 4377   8.183   6.145   3.556
   88DPPC   C28 4378   8.139   6.076   3.427
   88DPPC   C29 4379   8.074   6.177   3.333
   88DPPC   C30 4380   8.063   6.138   3.186
   88DPPC   C31 4381   8.043   6.251   3.084
   88DPPC   C32 4382   7.444   7.091   4.730
   88DPPC   O33 4383   7.325   7.073   4.652
   88DPPC   C34 4384   7.244   7.183   4.656
   88DPPC   O35 4385   7.286   7.283   4.713
   88DPPC   C36 4386   7.102   7.163   4.604
   88DPPC   C37 4387   7.093   7.184   4.453
   88DPPC   C38 4388   6.958   7.144   4.393
   88DPPC   C39 4389   6.935   6.993   4.402
   88DPPC   C40 4390   6.788   6.963   4.368
   88DPPC   C41 4391   6.770   6.819   4.415
   88DPPC   C42 4392   6.622   6.779   4.419
   88DPPC   C43 4393   6.560   6.777   4.279
   88DPPC   C44 4394   6.424   6.708   4.268
   88DPPC   C45 4395   6.340   6.749   4.146
   88DPPC   C46 4396   6.250   6.632   4.107
   88DPPC   C47 4397   6.186   6.655   3.970
   88DPPC   C48 4398   6.100   6.531   3.941
   88DPPC   C49 4399   6.180   6.406   3.976
   88DPPC   C50 4400   6.118   6.284   3.906
   89DPPC    C1 4401   8.839   1.159   5.411
   89DPPC    C2 4402   8.893   1.381   5.426
   89DPPC    C3 4403   8.964   1.266   5.242
   89DPPC    N4 4404   8.847   1.281   5.329
   89DPPC    C5 4405   8.736   1.319   5.241
   89DPPC    C6 4406   8.596   1.365   5.283
   89DPPC    O7 4407   8.608   1.448   5.399
   89DPPC    P8 4408   8.476   1.540   5.408
   89DPPC    O9 4409   8.506   1.656   5.495
   89DPPC   O10 4410   8.368   1.441   5.425
   89DPPC   O11 4411   8.481   1.587   5.254
   89DPPC   C12 4412   8.376   1.672   5.207
   89DPPC   C13 4413   8.421   1.745   5.081
   89DPPC   O14 4414   8.315   1.833   5.040
   89DPPC   C15 4415   8.317   1.966   5.066
   89DPPC   O16 4416   8.379   2.005   5.165
   89DPPC   C17 4417   8.230   2.057   4.978
   89DPPC   C18 4418   8.211   2.012   4.833
   89DPPC   C19 4419   8.144   2.112   4.739
   89DPPC   C20 4420   8.115   2.050   4.602
   89DPPC   C21 4421   8.049   2.149   4.506
   89DPPC   C22 4422   7.917   2.197   4.567
   89DPPC   C23 4423   7.860   2.283   4.455
   89DPPC   C24 4424   7.729   2.345   4.504
   89DPPC   C25 4425   7.653   2.430   4.402
   89DPPC   C26 4426   7.608   2.342   4.285
   89DPPC   C27 4427   7.510   2.421   4.198
   89DPPC   C28 4428   7.562   2.552   4.138
   89DPPC   C29 4429   7.458   2.604   4.038
   89DPPC   C30 4430   7.516   2.735   3.985
   89DPPC   C31 4431   7.645   2.720   3.905
   89DPPC   C32 4432   8.466   1.646   4.973
   89DPPC   O33 4433   8.535   1.719   4.871
   89DPPC   C34 4434   8.564   1.660   4.752
   89DPPC   O35 4435   8.528   1.543   4.737
   89DPPC   C36 4436   8.642   1.734   4.642
   89DPPC   C37 4437   8.544   1.803   4.547
   89DPPC   C38 4438   8.609   1.928   4.488
   89DPPC   C39 4439   8.621   1.937   4.336
   89DPPC   C40 4440   8.486   1.956   4.266
   89DPPC   C41 4441   8.514   1.996   4.120
   89DPPC   C42 4442   8.391   1.972   4.033
   89DPPC   C43 4443   8.262   2.017   4.103
   89DPPC   C44 4444   8.144   1.960   4.024
   89DPPC   C45 4445   8.024   2.031   4.086
   89DPPC   C46 4446   7.898   1.990   4.008
   89DPPC   C47 4447   7.766   2.023   4.076
   89DPPC   C48 4448   7.657   1.957   3.991
   89DPPC   C49 4449   7.521   2.010   4.039
   89DPPC   C50 4450   7.417   1.973   3.933
   90DPPC    C1 4451   6.022   3.105   5.905
   90DPPC    C2 4452   5.862   3.271   5.812
   90DPPC    C3 4453   5.989   3.319   5.979
   90DPPC    N4 4454   6.000   3.241   5.855
   90DPPC    C5 4455   6.100   3.291   5.760
   90DPPC    C6 4456   6.130   3.441   5.752
   90DPPC    O7 4457   6.035   3.517   5.677
   90DPPC    P8 4458   6.037   3.672   5.719
   90DPPC    O9 4459   6.062   3.668   5.865
   90DPPC   O10 4460   5.937   3.758   5.652
   90DPPC   O11 4461   6.178   3.699   5.646
   90DPPC   C12 4462   6.156   3.706   5.505
   90DPPC   C13 4463   6.283   3.708   5.419
   90DPPC   O14 4464   6.267   3.750   5.283
   90DPPC   C15 4465   6.203   3.866   5.250
   90DPPC   O16 4466   6.191   3.958   5.330
   90DPPC   C17 4467   6.176   3.888   5.101
   90DPPC   C18 4468   6.052   3.810   5.057
   90DPPC   C19 4469   5.996   3.860   4.923
   90DPPC   C20 4470   6.090   3.880   4.804
   90DPPC   C21 4471   6.028   3.921   4.670
   90DPPC   C22 4472   6.135   3.976   4.575
   90DPPC   C23 4473   6.097   4.004   4.430
   90DPPC   C24 4474   6.215   4.048   4.343
   90DPPC   C25 4475   6.171   4.076   4.199
   90DPPC   C26 4476   6.288   4.052   4.103
   90DPPC   C27 4477   6.247   4.088   3.960
   90DPPC   C28 4478   6.369   4.069   3.871
   90DPPC   C29 4479   6.340   4.034   3.724
   90DPPC   C30 4480   6.300   3.888   3.703
   90DPPC   C31 4481   6.432   3.811   3.706
   90DPPC   C32 4482   6.362   3.578   5.431
   90DPPC   O33 4483   6.287   3.459   5.403
   90DPPC   C34 4484   6.352   3.342   5.424
   90DPPC   O35 4485   6.451   3.343   5.497
   90DPPC   C36 4486   6.275   3.210   5.413
   90DPPC   C37 4487   6.298   3.133   5.283
   90DPPC   C38 4488   6.186   3.029   5.274
   90DPPC   C39 4489   6.174   2.965   5.136
   90DPPC   C40 4490   6.063   2.860   5.135
   90DPPC   C41 4491   6.062   2.794   4.996
   90DPPC   C42 4492   5.970   2.677   4.965
   90DPPC   C43 4493   5.962   2.649   4.815
   90DPPC   C44 4494   5.917   2.764   4.724
   90DPPC   C45 4495   5.930   2.708   4.582
   90DPPC   C46 4496   5.905   2.808   4.469
   90DPPC   C47 4497   5.970   2.754   4.342
   90DPPC   C48 4498   5.876   2.773   4.223
   90DPPC   C49 4499   5.908   2.664   4.121
   90DPPC   C50 4500   6.049   2.685   4.066
   91DPPC    C1 4501   4.461   7.111   5.330
   91DPPC    C2 4502   4.405   7.248   5.502
   91DPPC    C3 4503   4.592   7.317   5.383
   91DPPC    N4 4504   4.460   7.253   5.366
   91DPPC    C5 4505   4.359   7.334   5.295
   91DPPC    C6 4506   4.392   7.336   5.146
   91DPPC    O7 4507   4.301   7.429   5.087
   91DPPC    P8 4508   4.255   7.377   4.942
   91DPPC    O9 4509   4.186   7.495   4.885
   91DPPC   O10 4510   4.183   7.251   4.974
   91DPPC   O11 4511   4.396   7.326   4.883
   91DPPC   C12 4512   4.400   7.394   4.757
   91DPPC   C13 4513   4.518   7.344   4.674
   91DPPC   O14 4514   4.561   7.421   4.560
   91DPPC   C15 4515   4.639   7.532   4.571
   91DPPC   O16 4516   4.684   7.579   4.675
   91DPPC   C17 4517   4.704   7.567   4.437
   91DPPC   C18 4518   4.671   7.486   4.311
   91DPPC   C19 4519   4.765   7.519   4.195
   91DPPC   C20 4520   4.707   7.466   4.064
   91DPPC   C21 4521   4.779   7.535   3.948
   91DPPC   C22 4522   4.771   7.453   3.819
   91DPPC   C23 4523   4.838   7.519   3.699
   91DPPC   C24 4524   4.860   7.428   3.578
   91DPPC   C25 4525   4.909   7.513   3.461
   91DPPC   C26 4526   4.923   7.419   3.341
   91DPPC   C27 4527   5.022   7.303   3.358
   91DPPC   C28 4528   5.065   7.255   3.219
   91DPPC   C29 4529   5.172   7.145   3.221
   91DPPC   C30 4530   5.252   7.131   3.092
   91DPPC   C31 4531   5.164   7.082   2.977
   91DPPC   C32 4532   4.501   7.194   4.649
   91DPPC   O33 4533   4.363   7.157   4.639
   91DPPC   C34 4534   4.334   7.030   4.599
   91DPPC   O35 4535   4.418   6.943   4.625
   91DPPC   C36 4536   4.201   7.003   4.530
   91DPPC   C37 4537   4.220   6.901   4.417
   91DPPC   C38 4538   4.077   6.869   4.371
   91DPPC   C39 4539   4.091   6.773   4.253
   91DPPC   C40 4540   4.154   6.866   4.149
   91DPPC   C41 4541   4.196   6.786   4.026
   91DPPC   C42 4542   4.082   6.700   3.971
   91DPPC   C43 4543   4.133   6.610   3.858
   91DPPC   C44 4544   4.257   6.534   3.905
   91DPPC   C45 4545   4.278   6.416   3.809
   91DPPC   C46 4546   4.298   6.458   3.663
   91DPPC   C47 4547   4.319   6.339   3.570
   91DPPC   C48 4548   4.283   6.391   3.431
   91DPPC   C49 4549   4.287   6.268   3.339
   91DPPC   C50 4550   4.256   6.301   3.193
   92DPPC    C1 4551   1.804   5.965   5.194
   92DPPC    C2 4552   1.778   6.194   5.280
   92DPPC    C3 4553   1.746   6.020   5.418
   92DPPC    N4 4554   1.830   6.058   5.304
   92DPPC    C5 4555   1.971   6.057   5.347
   92DPPC    C6 4556   2.070   6.102   5.240
   92DPPC    O7 4557   2.130   5.993   5.170
   92DPPC    P8 4558   2.251   6.038   5.073
   92DPPC    O9 4559   2.264   5.909   5.003
   92DPPC   O10 4560   2.329   6.081   5.191
   92DPPC   O11 4561   2.160   6.141   4.988
   92DPPC   C12 4562   2.121   6.067   4.872
   92DPPC   C13 4563   2.037   6.141   4.768
   92DPPC   O14 4564   2.000   6.056   4.658
   92DPPC   C15 4565   1.868   6.025   4.651
   92DPPC   O16 4566   1.790   6.099   4.711
   92DPPC   C17 4567   1.824   5.911   4.559
   92DPPC   C18 4568   1.813   5.962   4.415
   92DPPC   C19 4569   1.834   5.831   4.340
   92DPPC   C20 4570   1.805   5.870   4.195
   92DPPC   C21 4571   1.784   5.745   4.109
   92DPPC   C22 4572   1.742   5.785   3.967
   92DPPC   C23 4573   1.738   5.662   3.876
   92DPPC   C24 4574   1.639   5.561   3.935
   92DPPC   C25 4575   1.626   5.447   3.834
   92DPPC   C26 4576   1.505   5.363   3.878
   92DPPC   C27 4577   1.480   5.277   3.755
   92DPPC   C28 4578   1.497   5.361   3.628
   92DPPC   C29 4579   1.442   5.272   3.517
   92DPPC   C30 4580   1.463   5.307   3.370
   92DPPC   C31 4581   1.419   5.454   3.361
   92DPPC   C32 4582   2.121   6.265   4.736
   92DPPC   O33 4583   2.257   6.244   4.696
   92DPPC   C34 4584   2.341   6.350   4.683
   92DPPC   O35 4585   2.347   6.453   4.749
   92DPPC   C36 4586   2.472   6.319   4.610
   92DPPC   C37 4587   2.528   6.439   4.534
   92DPPC   C38 4588   2.672   6.413   4.490
   92DPPC   C39 4589   2.686   6.301   4.387
   92DPPC   C40 4590   2.602   6.337   4.264
   92DPPC   C41 4591   2.640   6.243   4.150
   92DPPC   C42 4592   2.621   6.094   4.180
   92DPPC   C43 4593   2.622   6.016   4.048
   92DPPC   C44 4594   2.573   5.875   4.083
   92DPPC   C45 4595   2.673   5.802   4.172
   92DPPC   C46 4596   2.634   5.658   4.209
   92DPPC   C47 4597   2.726   5.592   4.312
   92DPPC   C48 4598   2.685   5.455   4.366
   92DPPC   C49 4599   2.785   5.398   4.467
   92DPPC   C50 4600   2.729   5.265   4.517
   93DPPC    C1 4601   1.284   2.752   4.824
   93DPPC    C2 4602   1.197   2.935   4.705
   93DPPC    C3 4603   1.069   2.729   4.743
   93DPPC    N4 4604   1.160   2.829   4.800
   93DPPC    C5 4605   1.109   2.862   4.934
   93DPPC    C6 4606   1.176   2.979   5.008
   93DPPC    O7 4607   1.107   3.099   4.973
   93DPPC    P8 4608   1.184   3.224   5.039
   93DPPC    O9 4609   1.269   3.171   5.148
   93DPPC   O10 4610   1.073   3.318   5.069
   93DPPC   O11 4611   1.262   3.265   4.904
   93DPPC   C12 4612   1.164   3.308   4.810
   93DPPC   C13 4613   1.200   3.426   4.719
   93DPPC   O14 4614   1.109   3.476   4.620
   93DPPC   C15 4615   1.002   3.553   4.653
   93DPPC   O16 4616   0.967   3.576   4.769
   93DPPC   C17 4617   0.919   3.595   4.532
   93DPPC   C18 4618   0.782   3.526   4.536
   93DPPC   C19 4619   0.689   3.568   4.422
   93DPPC   C20 4620   0.760   3.541   4.289
   93DPPC   C21 4621   0.699   3.575   4.153
   93DPPC   C22 4622   0.673   3.725   4.133
   93DPPC   C23 4623   0.613   3.760   3.997
   93DPPC   C24 4624   0.718   3.745   3.886
   93DPPC   C25 4625   0.664   3.795   3.752
   93DPPC   C26 4626   0.550   3.700   3.714
   93DPPC   C27 4627   0.483   3.721   3.578
   93DPPC   C28 4628   0.574   3.698   3.457
   93DPPC   C29 4629   0.490   3.729   3.332
   93DPPC   C30 4630   0.571   3.667   3.218
   93DPPC   C31 4631   0.503   3.707   3.087
   93DPPC   C32 4632   1.327   3.374   4.651
   93DPPC   O33 4633   1.302   3.271   4.555
   93DPPC   C34 4634   1.397   3.247   4.461
   93DPPC   O35 4635   1.516   3.272   4.481
   93DPPC   C36 4636   1.365   3.148   4.349
   93DPPC   C37 4637   1.223   3.162   4.294
   93DPPC   C38 4638   1.193   3.057   4.187
   93DPPC   C39 4639   1.280   3.070   4.061
   93DPPC   C40 4640   1.243   2.962   3.960
   93DPPC   C41 4641   1.326   2.977   3.832
   93DPPC   C42 4642   1.260   2.889   3.726
   93DPPC   C43 4643   1.331   2.887   3.591
   93DPPC   C44 4644   1.252   2.974   3.492
   93DPPC   C45 4645   1.337   3.002   3.368
   93DPPC   C46 4646   1.249   3.098   3.287
   93DPPC   C47 4647   1.315   3.186   3.182
   93DPPC   C48 4648   1.333   3.117   3.047
   93DPPC   C49 4649   1.364   3.201   2.923
   93DPPC   C50 4650   1.386   3.128   2.790
   94DPPC    C1 4651   3.421   6.503   5.204
   94DPPC    C2 4652   3.515   6.606   5.408
   94DPPC    C3 4653   3.284   6.593   5.382
   94DPPC    N4 4654   3.409   6.523   5.349
   94DPPC    C5 4655   3.395   6.390   5.410
   94DPPC    C6 4656   3.518   6.301   5.432
   94DPPC    O7 4657   3.589   6.268   5.312
   94DPPC    P8 4658   3.708   6.170   5.357
   94DPPC    O9 4659   3.628   6.069   5.429
   94DPPC   O10 4660   3.793   6.269   5.429
   94DPPC   O11 4661   3.744   6.142   5.203
   94DPPC   C12 4662   3.810   6.258   5.152
   94DPPC   C13 4663   3.828   6.251   5.000
   94DPPC   O14 4664   3.713   6.306   4.934
   94DPPC   C15 4665   3.712   6.440   4.910
   94DPPC   O16 4666   3.800   6.513   4.955
   94DPPC   C17 4667   3.584   6.495   4.847
   94DPPC   C18 4668   3.624   6.588   4.732
   94DPPC   C19 4669   3.489   6.621   4.668
   94DPPC   C20 4670   3.510   6.722   4.555
   94DPPC   C21 4671   3.382   6.748   4.476
   94DPPC   C22 4672   3.422   6.855   4.374
   94DPPC   C23 4673   3.539   6.812   4.286
   94DPPC   C24 4674   3.501   6.692   4.199
   94DPPC   C25 4675   3.587   6.677   4.073
   94DPPC   C26 4676   3.591   6.534   4.019
   94DPPC   C27 4677   3.640   6.544   3.875
   94DPPC   C28 4678   3.700   6.408   3.836
   94DPPC   C29 4679   3.597   6.297   3.862
   94DPPC   C30 4680   3.526   6.265   3.731
   94DPPC   C31 4681   3.437   6.142   3.751
   94DPPC   C32 4682   3.859   6.107   4.961
   94DPPC   O33 4683   3.913   6.075   4.832
   94DPPC   C34 4684   3.967   5.951   4.839
   94DPPC   O35 4685   3.957   5.892   4.947
   94DPPC   C36 4686   4.049   5.906   4.718
   94DPPC   C37 4687   3.968   5.800   4.643
   94DPPC   C38 4688   4.009   5.817   4.497
   94DPPC   C39 4689   4.139   5.743   4.465
   94DPPC   C40 4690   4.177   5.807   4.331
   94DPPC   C41 4691   4.069   5.767   4.230
   94DPPC   C42 4692   4.127   5.804   4.093
   94DPPC   C43 4693   4.253   5.727   4.053
   94DPPC   C44 4694   4.259   5.741   3.901
   94DPPC   C45 4695   4.381   5.666   3.846
   94DPPC   C46 4696   4.395   5.672   3.694
   94DPPC   C47 4697   4.492   5.564   3.646
   94DPPC   C48 4698   4.540   5.588   3.502
   94DPPC   C49 4699   4.606   5.460   3.449
   94DPPC   C50 4700   4.640   5.482   3.301
   95DPPC    C1 4701   1.058   1.837   5.363
   95DPPC    C2 4702   0.899   1.755   5.214
   95DPPC    C3 4703   0.838   1.861   5.420
   95DPPC    N4 4704   0.927   1.868   5.304
   95DPPC    C5 4705   0.925   1.993   5.226
   95DPPC    C6 4706   0.933   2.124   5.305
   95DPPC    O7 4707   1.068   2.168   5.325
   95DPPC    P8 4708   1.058   2.313   5.394
   95DPPC    O9 4709   1.201   2.342   5.413
   95DPPC   O10 4710   0.972   2.297   5.513
   95DPPC   O11 4711   0.999   2.390   5.266
   95DPPC   C12 4712   1.101   2.420   5.170
   95DPPC   C13 4713   1.037   2.464   5.039
   95DPPC   O14 4714   1.121   2.476   4.923
   95DPPC   C15 4715   1.148   2.357   4.864
   95DPPC   O16 4716   1.097   2.256   4.912
   95DPPC   C17 4717   1.266   2.346   4.767
   95DPPC   C18 4718   1.267   2.219   4.681
   95DPPC   C19 4719   1.147   2.223   4.586
   95DPPC   C20 4720   1.131   2.084   4.523
   95DPPC   C21 4721   1.015   2.084   4.424
   95DPPC   C22 4722   0.999   1.943   4.366
   95DPPC   C23 4723   0.882   1.946   4.268
   95DPPC   C24 4724   0.923   2.030   4.147
   95DPPC   C25 4725   0.811   2.028   4.042
   95DPPC   C26 4726   0.863   1.983   3.906
   95DPPC   C27 4727   0.746   1.972   3.808
   95DPPC   C28 4728   0.807   1.942   3.671
   95DPPC   C29 4729   0.706   1.905   3.562
   95DPPC   C30 4730   0.794   1.854   3.447
   95DPPC   C31 4731   0.691   1.822   3.338
   95DPPC   C32 4732   0.957   2.580   5.097
   95DPPC   O33 4733   0.883   2.653   4.999
   95DPPC   C34 4734   0.760   2.690   5.044
   95DPPC   O35 4735   0.714   2.617   5.132
   95DPPC   C36 4736   0.684   2.806   4.979
   95DPPC   C37 4737   0.714   2.822   4.830
   95DPPC   C38 4738   0.633   2.940   4.776
   95DPPC   C39 4739   0.690   2.963   4.636
   95DPPC   C40 4740   0.773   3.091   4.626
   95DPPC   C41 4741   0.840   3.098   4.489
   95DPPC   C42 4742   0.747   3.150   4.379
   95DPPC   C43 4743   0.826   3.154   4.248
   95DPPC   C44 4744   0.729   3.188   4.134
   95DPPC   C45 4745   0.813   3.219   4.010
   95DPPC   C46 4746   0.732   3.254   3.885
   95DPPC   C47 4747   0.817   3.292   3.764
   95DPPC   C48 4748   0.738   3.315   3.635
   95DPPC   C49 4749   0.661   3.188   3.596
   95DPPC   C50 4750   0.743   3.064   3.559
   96DPPC    C1 4751   1.947   8.020   4.490
   96DPPC    C2 4752   1.924   7.928   4.713
   96DPPC    C3 4753   2.093   7.846   4.562
   96DPPC    N4 4754   2.018   7.965   4.606
   96DPPC    C5 4755   2.110   8.072   4.646
   96DPPC    C6 4756   2.227   8.041   4.740
   96DPPC    O7 4757   2.281   8.162   4.793
   96DPPC    P8 4758   2.435   8.160   4.838
   96DPPC    O9 4759   2.457   8.023   4.888
   96DPPC   O10 4760   2.451   8.281   4.922
   96DPPC   O11 4761   2.491   8.175   4.688
   96DPPC   C12 4762   2.496   8.315   4.657
   96DPPC   C13 4763   2.573   8.339   4.527
   96DPPC   O14 4764   2.516   8.446   4.450
   96DPPC   C15 4765   2.560   8.573   4.472
   96DPPC   O16 4766   2.603   8.606   4.583
   96DPPC   C17 4767   2.501   8.679   4.379
   96DPPC   C18 4768   2.592   8.688   4.256
   96DPPC   C19 4769   2.511   8.762   4.149
   96DPPC   C20 4770   2.383   8.687   4.115
   96DPPC   C21 4771   2.305   8.756   4.003
   96DPPC   C22 4772   2.189   8.671   3.950
   96DPPC   C23 4773   2.159   8.695   3.801
   96DPPC   C24 4774   2.105   8.832   3.761
   96DPPC   C25 4775   2.075   8.841   3.611
   96DPPC   C26 4776   2.042   8.984   3.566
   96DPPC   C27 4777   2.081   8.995   3.419
   96DPPC   C28 4778   2.035   9.135   3.376
   96DPPC   C29 4779   2.074   9.171   3.233
   96DPPC   C30 4780   2.226   9.153   3.236
   96DPPC   C31 4781   2.277   9.145   3.092
   96DPPC   C32 4782   2.577   8.213   4.441
   96DPPC   O33 4783   2.656   8.215   4.322
   96DPPC   C34 4784   2.615   8.123   4.231
   96DPPC   O35 4785   2.537   8.032   4.256
   96DPPC   C36 4786   2.685   8.128   4.095
   96DPPC   C37 4787   2.833   8.098   4.120
   96DPPC   C38 4788   2.920   8.114   3.995
   96DPPC   C39 4789   3.066   8.081   4.028
   96DPPC   C40 4790   3.102   8.160   4.153
   96DPPC   C41 4791   3.231   8.110   4.218
   96DPPC   C42 4792   3.346   8.120   4.117
   96DPPC   C43 4793   3.474   8.102   4.199
   96DPPC   C44 4794   3.600   8.138   4.120
   96DPPC   C45 4795   3.593   8.283   4.074
   96DPPC   C46 4796   3.705   8.325   3.978
   96DPPC   C47 4797   3.692   8.473   3.940
   96DPPC   C48 4798   3.810   8.523   3.856
   96DPPC   C49 4799   3.933   8.469   3.929
   96DPPC   C50 4800   4.061   8.512   3.856
   97DPPC    C1 4801   9.472   4.402   5.566
   97DPPC    C2 4802   9.431   4.252   5.373
   97DPPC    C3 4803   9.620   4.367   5.390
   97DPPC    N4 4804   9.524   4.298   5.477
   97DPPC    C5 4805   9.558   4.188   5.569
   97DPPC    C6 4806   9.655   4.076   5.531
   97DPPC    O7 4807   9.795   4.099   5.518
   97DPPC    P8 4808   9.858   3.951   5.532
   97DPPC    O9 4809   9.755   3.856   5.485
   97DPPC   O10 4810   9.880   3.945   5.678
   97DPPC   O11 4811   9.990   3.944   5.439
   97DPPC   C12 4812   9.937   3.973   5.310
   97DPPC   C13 4813  10.014   3.900   5.200
   97DPPC   O14 4814  10.026   3.984   5.085
   97DPPC   C15 4815  10.100   3.931   4.984
   97DPPC   O16 4816  10.163   3.827   5.001
   97DPPC   C17 4817  10.143   4.025   4.871
   97DPPC   C18 4818  10.152   3.939   4.745
   97DPPC   C19 4819  10.189   4.033   4.630
   97DPPC   C20 4820  10.191   3.964   4.494
   97DPPC   C21 4821  10.179   4.059   4.374
   97DPPC   C22 4822  10.036   4.110   4.358
   97DPPC   C23 4823  10.032   4.221   4.252
   97DPPC   C24 4824   9.886   4.243   4.213
   97DPPC   C25 4825   9.857   4.332   4.092
   97DPPC   C26 4826   9.911   4.276   3.961
   97DPPC   C27 4827   9.865   4.132   3.937
   97DPPC   C28 4828   9.859   4.094   3.789
   97DPPC   C29 4829   9.760   4.189   3.722
   97DPPC   C30 4830   9.745   4.147   3.575
   97DPPC   C31 4831   9.878   4.145   3.500
   97DPPC   C32 4832   9.956   3.760   5.173
   97DPPC   O33 4833   9.858   3.768   5.069
   97DPPC   C34 4834   9.794   3.655   5.029
   97DPPC   O35 4835   9.810   3.549   5.090
   97DPPC   C36 4836   9.724   3.672   4.894
   97DPPC   C37 4837   9.823   3.686   4.779
   97DPPC   C38 4838   9.752   3.692   4.644
   97DPPC   C39 4839   9.825   3.751   4.523
   97DPPC   C40 4840   9.735   3.766   4.401
   97DPPC   C41 4841   9.817   3.781   4.272
   97DPPC   C42 4842   9.737   3.736   4.149
   97DPPC   C43 4843   9.597   3.795   4.136
   97DPPC   C44 4844   9.522   3.759   4.008
   97DPPC   C45 4845   9.599   3.787   3.879
   97DPPC   C46 4846   9.510   3.749   3.760
   97DPPC   C47 4847   9.587   3.774   3.630
   97DPPC   C48 4848   9.503   3.777   3.502
   97DPPC   C49 4849   9.587   3.782   3.374
   97DPPC   C50 4850   9.514   3.821   3.245
   98DPPC    C1 4851   7.873   4.353   5.497
   98DPPC    C2 4852   7.699   4.204   5.548
   98DPPC    C3 4853   7.721   4.439   5.642
   98DPPC    N4 4854   7.729   4.346   5.529
   98DPPC    C5 4855   7.663   4.406   5.412
   98DPPC    C6 4856   7.510   4.414   5.408
   98DPPC    O7 4857   7.440   4.289   5.409
   98DPPC    P8 4858   7.294   4.342   5.454
   98DPPC    O9 4859   7.326   4.420   5.575
   98DPPC   O10 4860   7.203   4.225   5.453
   98DPPC   O11 4861   7.255   4.429   5.324
   98DPPC   C12 4862   7.228   4.330   5.224
   98DPPC   C13 4863   7.198   4.398   5.090
   98DPPC   O14 4864   7.155   4.304   4.991
   98DPPC   C15 4865   7.025   4.305   4.950
   98DPPC   O16 4866   6.958   4.386   5.015
   98DPPC   C17 4867   6.984   4.231   4.823
   98DPPC   C18 4868   7.103   4.229   4.727
   98DPPC   C19 4869   7.128   4.357   4.647
   98DPPC   C20 4870   7.136   4.338   4.495
   98DPPC   C21 4871   7.243   4.237   4.453
   98DPPC   C22 4872   7.273   4.244   4.303
   98DPPC   C23 4873   7.331   4.378   4.258
   98DPPC   C24 4874   7.367   4.403   4.111
   98DPPC   C25 4875   7.234   4.422   4.038
   98DPPC   C26 4876   7.249   4.401   3.888
   98DPPC   C27 4877   7.350   4.498   3.826
   98DPPC   C28 4878   7.323   4.510   3.676
   98DPPC   C29 4879   7.183   4.570   3.660
   98DPPC   C30 4880   7.141   4.563   3.513
   98DPPC   C31 4881   7.242   4.619   3.413
   98DPPC   C32 4882   7.329   4.468   5.051
   98DPPC   O33 4883   7.327   4.557   4.940
   98DPPC   C34 4884   7.445   4.561   4.871
   98DPPC   O35 4885   7.546   4.505   4.914
   98DPPC   C36 4886   7.439   4.606   4.725
   98DPPC   C37 4887   7.545   4.707   4.680
   98DPPC   C38 4888   7.504   4.763   4.544
   98DPPC   C39 4889   7.601   4.742   4.428
   98DPPC   C40 4890   7.548   4.819   4.307
   98DPPC   C41 4891   7.610   4.766   4.177
   98DPPC   C42 4892   7.571   4.849   4.055
   98DPPC   C43 4893   7.641   4.795   3.930
   98DPPC   C44 4894   7.613   4.869   3.799
   98DPPC   C45 4895   7.649   4.783   3.677
   98DPPC   C46 4896   7.799   4.754   3.676
   98DPPC   C47 4897   7.831   4.681   3.545
   98DPPC   C48 4898   7.979   4.709   3.516
   98DPPC   C49 4899   8.037   4.584   3.450
   98DPPC   C50 4900   8.189   4.596   3.433
   99DPPC    C1 4901   8.282   5.434   1.039
   99DPPC    C2 4902   8.418   5.546   1.210
   99DPPC    C3 4903   8.431   5.583   0.972
   99DPPC    N4 4904   8.340   5.560   1.086
   99DPPC    C5 4905   8.245   5.672   1.092
   99DPPC    C6 4906   8.132   5.675   1.196
   99DPPC    O7 4907   7.998   5.663   1.147
   99DPPC    P8 4908   7.907   5.772   1.222
   99DPPC    O9 4909   7.772   5.787   1.163
   99DPPC   O10 4910   7.982   5.899   1.229
   99DPPC   O11 4911   7.901   5.729   1.377
   99DPPC   C12 4912   7.778   5.776   1.434
   99DPPC   C13 4913   7.777   5.780   1.587
   99DPPC   O14 4914   7.795   5.913   1.637
   99DPPC   C15 4915   7.692   6.002   1.622
   99DPPC   O16 4916   7.598   6.000   1.544
   99DPPC   C17 4917   7.694   6.125   1.714
   99DPPC   C18 4918   7.552   6.160   1.757
   99DPPC   C19 4919   7.558   6.295   1.828
   99DPPC   C20 4920   7.637   6.272   1.957
   99DPPC   C21 4921   7.615   6.400   2.038
   99DPPC   C22 4922   7.466   6.402   2.072
   99DPPC   C23 4923   7.432   6.524   2.158
   99DPPC   C24 4924   7.284   6.563   2.151
   99DPPC   C25 4925   7.264   6.688   2.237
   99DPPC   C26 4926   7.340   6.673   2.369
   99DPPC   C27 4927   7.267   6.618   2.492
   99DPPC   C28 4928   7.357   6.546   2.593
   99DPPC   C29 4929   7.269   6.524   2.716
   99DPPC   C30 4930   7.324   6.404   2.793
   99DPPC   C31 4931   7.233   6.384   2.915
   99DPPC   C32 4932   7.881   5.679   1.635
   99DPPC   O33 4933   7.829   5.556   1.686
   99DPPC   C34 4934   7.927   5.482   1.743
   99DPPC   O35 4935   8.040   5.527   1.757
   99DPPC   C36 4936   7.879   5.366   1.832
   99DPPC   C37 4937   7.939   5.377   1.972
   99DPPC   C38 4938   7.896   5.262   2.064
   99DPPC   C39 4939   7.975   5.288   2.193
   99DPPC   C40 4940   7.939   5.179   2.294
   99DPPC   C41 4941   8.026   5.181   2.420
   99DPPC   C42 4942   7.946   5.123   2.537
   99DPPC   C43 4943   7.823   5.207   2.571
   99DPPC   C44 4944   7.761   5.178   2.708
   99DPPC   C45 4945   7.700   5.039   2.729
   99DPPC   C46 4946   7.660   5.017   2.875
   99DPPC   C47 4947   7.574   4.891   2.885
   99DPPC   C48 4948   7.541   4.835   3.023
   99DPPC   C49 4949   7.430   4.729   3.017
   99DPPC   C50 4950   7.298   4.804   3.002
  100DPPC    C1 4951   4.328   4.538   2.063
  100DPPC    C2 4952   4.196   4.562   1.868
  100DPPC    C3 4953   4.115   4.451   2.064
  100DPPC    N4 4954   4.192   4.566   2.014
  100DPPC    C5 4955   4.138   4.690   2.073
  100DPPC    C6 4956   3.996   4.729   2.031
  100DPPC    O7 4957   3.974   4.869   2.049
  100DPPC    P8 4958   3.875   4.925   1.935
  100DPPC    O9 4959   3.931   4.916   1.798
  100DPPC   O10 4960   3.829   5.055   1.990
  100DPPC   O11 4961   3.745   4.831   1.950
  100DPPC   C12 4962   3.653   4.872   2.052
  100DPPC   C13 4963   3.542   4.774   2.090
  100DPPC   O14 4964   3.428   4.837   2.151
  100DPPC   C15 4965   3.357   4.936   2.092
  100DPPC   O16 4966   3.365   4.952   1.970
  100DPPC   C17 4967   3.240   4.973   2.183
  100DPPC   C18 4968   3.112   4.894   2.154
  100DPPC   C19 4969   3.079   4.787   2.258
  100DPPC   C20 4970   3.065   4.850   2.397
  100DPPC   C21 4971   3.014   4.754   2.506
  100DPPC   C22 4972   2.992   4.831   2.636
  100DPPC   C23 4973   2.928   4.727   2.729
  100DPPC   C24 4974   2.923   4.786   2.870
  100DPPC   C25 4975   2.815   4.894   2.869
  100DPPC   C26 4976   2.798   4.967   3.003
  100DPPC   C27 4977   2.753   5.108   2.963
  100DPPC   C28 4978   2.739   5.198   3.086
  100DPPC   C29 4979   2.731   5.342   3.035
  100DPPC   C30 4980   2.721   5.434   3.157
  100DPPC   C31 4981   2.820   5.395   3.267
  100DPPC   C32 4982   3.609   4.648   2.146
  100DPPC   O33 4983   3.702   4.676   2.251
  100DPPC   C34 4984   3.756   4.561   2.300
  100DPPC   O35 4985   3.731   4.452   2.248
  100DPPC   C36 4986   3.875   4.581   2.394
  100DPPC   C37 4987   3.840   4.556   2.541
  100DPPC   C38 4988   3.963   4.575   2.631
  100DPPC   C39 4989   3.929   4.595   2.779
  100DPPC   C40 4990   3.875   4.736   2.804
  100DPPC   C41 4991   3.858   4.744   2.956
  100DPPC   C42 4992   3.818   4.877   3.019
  100DPPC   C43 4993   3.708   4.958   2.949
  100DPPC   C44 4994   3.673   5.086   3.025
  100DPPC   C45 4995   3.617   5.198   2.938
  100DPPC   C46 4996   3.607   5.327   3.019
  100DPPC   C47 4997   3.538   5.434   2.934
  100DPPC   C48 4998   3.522   5.560   3.019
  100DPPC   C49 4999   3.662   5.594   3.073
  100DPPC   C50 5000   3.640   5.735   3.127
  101DPPC    C1 5001   5.624   0.455   1.735
  101DPPC    C2 5002   5.601   0.248   1.827
  101DPPC    C3 5003   5.610   0.440   1.966
  101DPPC    N4 5004   5.551   0.385   1.843
  101DPPC    C5 5005   5.405   0.403   1.833
  101DPPC    C6 5006   5.319   0.324   1.734
  101DPPC    O7 5007   5.182   0.363   1.742
  101DPPC    P8 5008   5.082   0.246   1.695
  101DPPC    O9 5009   5.158   0.150   1.611
  101DPPC   O10 5010   4.964   0.310   1.633
  101DPPC   O11 5011   5.057   0.190   1.843
  101DPPC   C12 5012   4.982   0.285   1.919
  101DPPC   C13 5013   4.951   0.245   2.063
  101DPPC   O14 5014   4.897   0.367   2.116
  101DPPC   C15 5015   4.770   0.369   2.165
  101DPPC   O16 5016   4.688   0.292   2.115
  101DPPC   C17 5017   4.733   0.467   2.276
  101DPPC   C18 5018   4.810   0.417   2.399
  101DPPC   C19 5019   4.790   0.529   2.501
  101DPPC   C20 5020   4.832   0.503   2.646
  101DPPC   C21 5021   4.811   0.619   2.744
  101DPPC   C22 5022   4.665   0.651   2.776
  101DPPC   C23 5023   4.606   0.514   2.809
  101DPPC   C24 5024   4.456   0.523   2.840
  101DPPC   C25 5025   4.393   0.398   2.900
  101DPPC   C26 5026   4.250   0.429   2.947
  101DPPC   C27 5027   4.230   0.331   3.063
  101DPPC   C28 5028   4.271   0.192   3.013
  101DPPC   C29 5029   4.309   0.107   3.135
  101DPPC   C30 5030   4.372  -0.024   3.087
  101DPPC   C31 5031   4.510  -0.014   3.023
  101DPPC   C32 5032   5.074   0.184   2.130
  101DPPC   O33 5033   5.199   0.253   2.141
  101DPPC   C34 5034   5.299   0.177   2.194
  101DPPC   O35 5035   5.301   0.057   2.166
  101DPPC   C36 5036   5.426   0.249   2.239
  101DPPC   C37 5037   5.410   0.274   2.389
  101DPPC   C38 5038   5.531   0.330   2.465
  101DPPC   C39 5039   5.506   0.338   2.616
  101DPPC   C40 5040   5.614   0.436   2.664
  101DPPC   C41 5041   5.596   0.463   2.813
  101DPPC   C42 5042   5.706   0.542   2.884
  101DPPC   C43 5043   5.690   0.527   3.036
  101DPPC   C44 5044   5.802   0.589   3.119
  101DPPC   C45 5045   5.784   0.574   3.270
  101DPPC   C46 5046   5.903   0.633   3.347
  101DPPC   C47 5047   5.869   0.620   3.495
  101DPPC   C48 5048   5.974   0.687   3.583
  101DPPC   C49 5049   5.946   0.680   3.734
  101DPPC   C50 5050   6.066   0.691   3.828
  102DPPC    C1 5051   2.339   1.287   1.668
  102DPPC    C2 5052   2.445   1.190   1.851
  102DPPC    C3 5053   2.229   1.139   1.828
  102DPPC    N4 5054   2.347   1.162   1.745
  102DPPC    C5 5055   2.395   1.050   1.664
  102DPPC    C6 5056   2.358   1.043   1.515
  102DPPC    O7 5057   2.216   1.047   1.496
  102DPPC    P8 5058   2.173   0.938   1.386
  102DPPC    O9 5059   2.299   0.894   1.323
  102DPPC   O10 5060   2.042   0.970   1.325
  102DPPC   O11 5061   2.143   0.818   1.489
  102DPPC   C12 5062   2.027   0.861   1.562
  102DPPC   C13 5063   1.956   0.763   1.655
  102DPPC   O14 5064   1.831   0.811   1.709
  102DPPC   C15 5065   1.746   0.721   1.766
  102DPPC   O16 5066   1.762   0.601   1.744
  102DPPC   C17 5067   1.631   0.777   1.849
  102DPPC   C18 5068   1.671   0.746   1.993
  102DPPC   C19 5069   1.585   0.801   2.107
  102DPPC   C20 5070   1.640   0.758   2.243
  102DPPC   C21 5071   1.544   0.810   2.351
  102DPPC   C22 5072   1.610   0.806   2.489
  102DPPC   C23 5073   1.527   0.836   2.614
  102DPPC   C24 5074   1.487   0.983   2.614
  102DPPC   C25 5075   1.371   1.022   2.705
  102DPPC   C26 5076   1.374   1.173   2.727
  102DPPC   C27 5077   1.487   1.204   2.825
  102DPPC   C28 5078   1.532   1.346   2.790
  102DPPC   C29 5079   1.418   1.446   2.811
  102DPPC   C30 5080   1.459   1.587   2.770
  102DPPC   C31 5081   1.490   1.589   2.620
  102DPPC   C32 5082   2.060   0.730   1.762
  102DPPC   O33 5083   2.127   0.824   1.847
  102DPPC   C34 5084   2.191   0.759   1.948
  102DPPC   O35 5085   2.210   0.638   1.960
  102DPPC   C36 5086   2.248   0.840   2.064
  102DPPC   C37 5087   2.153   0.846   2.184
  102DPPC   C38 5088   2.148   0.713   2.259
  102DPPC   C39 5089   2.036   0.703   2.363
  102DPPC   C40 5090   2.068   0.817   2.460
  102DPPC   C41 5091   1.985   0.791   2.586
  102DPPC   C42 5092   2.026   0.656   2.647
  102DPPC   C43 5093   1.956   0.625   2.779
  102DPPC   C44 5094   2.026   0.506   2.844
  102DPPC   C45 5095   1.923   0.445   2.939
  102DPPC   C46 5096   1.969   0.325   3.022
  102DPPC   C47 5097   1.870   0.289   3.133
  102DPPC   C48 5098   1.885   0.138   3.156
  102DPPC   C49 5099   1.814   0.098   3.286
  102DPPC   C50 5100   1.664   0.083   3.258
  103DPPC    C1 5101   2.496   7.351   1.080
  103DPPC    C2 5102   2.447   7.147   1.191
  103DPPC    C3 5103   2.663   7.232   1.194
  103DPPC    N4 5104   2.522   7.273   1.202
  103DPPC    C5 5105   2.487   7.339   1.329
  103DPPC    C6 5106   2.562   7.468   1.360
  103DPPC    O7 5107   2.694   7.443   1.409
  103DPPC    P8 5108   2.783   7.576   1.428
  103DPPC    O9 5109   2.780   7.621   1.288
  103DPPC   O10 5110   2.911   7.540   1.492
  103DPPC   O11 5111   2.693   7.645   1.543
  103DPPC   C12 5112   2.740   7.613   1.675
  103DPPC   C13 5113   2.615   7.627   1.762
  103DPPC   O14 5114   2.520   7.522   1.741
  103DPPC   C15 5115   2.563   7.403   1.791
  103DPPC   O16 5116   2.673   7.386   1.844
  103DPPC   C17 5117   2.468   7.287   1.757
  103DPPC   C18 5118   2.477   7.191   1.876
  103DPPC   C19 5119   2.417   7.246   2.006
  103DPPC   C20 5120   2.441   7.141   2.114
  103DPPC   C21 5121   2.391   7.186   2.252
  103DPPC   C22 5122   2.403   7.080   2.362
  103DPPC   C23 5123   2.335   7.142   2.484
  103DPPC   C24 5124   2.299   7.050   2.601
  103DPPC   C25 5125   2.274   7.109   2.740
  103DPPC   C26 5126   2.231   7.017   2.855
  103DPPC   C27 5127   2.204   7.098   2.981
  103DPPC   C28 5128   2.193   6.987   3.086
  103DPPC   C29 5129   2.316   6.896   3.085
  103DPPC   C30 5130   2.311   6.779   3.183
  103DPPC   C31 5131   2.435   6.693   3.208
  103DPPC   C32 5132   2.566   7.771   1.747
  103DPPC   O33 5133   2.666   7.862   1.792
  103DPPC   C34 5134   2.637   7.994   1.780
  103DPPC   O35 5135   2.525   8.028   1.742
  103DPPC   C36 5136   2.739   8.095   1.834
  103DPPC   C37 5137   2.736   8.096   1.987
  103DPPC   C38 5138   2.812   8.209   2.055
  103DPPC   C39 5139   2.789   8.219   2.206
  103DPPC   C40 5140   2.899   8.312   2.256
  103DPPC   C41 5141   2.910   8.305   2.408
  103DPPC   C42 5142   2.778   8.360   2.463
  103DPPC   C43 5143   2.799   8.390   2.611
  103DPPC   C44 5144   2.678   8.431   2.696
  103DPPC   C45 5145   2.708   8.478   2.838
  103DPPC   C46 5146   2.571   8.525   2.887
  103DPPC   C47 5147   2.592   8.611   3.012
  103DPPC   C48 5148   2.452   8.654   3.057
  103DPPC   C49 5149   2.464   8.763   3.164
  103DPPC   C50 5150   2.523   8.703   3.292
  104DPPC    C1 5151   3.834   3.943   1.383
  104DPPC    C2 5152   3.900   3.716   1.383
  104DPPC    C3 5153   4.035   3.872   1.275
  104DPPC    N4 5154   3.950   3.854   1.394
  104DPPC    C5 5155   4.016   3.886   1.521
  104DPPC    C6 5156   4.121   3.796   1.587
  104DPPC    O7 5157   4.227   3.747   1.504
  104DPPC    P8 5158   4.262   3.599   1.558
  104DPPC    O9 5159   4.382   3.552   1.485
  104DPPC   O10 5160   4.134   3.526   1.548
  104DPPC   O11 5161   4.297   3.642   1.709
  104DPPC   C12 5162   4.435   3.664   1.739
  104DPPC   C13 5163   4.452   3.752   1.863
  104DPPC   O14 5164   4.590   3.768   1.899
  104DPPC   C15 5165   4.621   3.876   1.977
  104DPPC   O16 5166   4.568   3.986   1.966
  104DPPC   C17 5167   4.740   3.850   2.070
  104DPPC   C18 5168   4.760   3.711   2.132
  104DPPC   C19 5169   4.869   3.692   2.238
  104DPPC   C20 5170   4.840   3.582   2.340
  104DPPC   C21 5171   4.964   3.567   2.427
  104DPPC   C22 5172   4.916   3.521   2.565
  104DPPC   C23 5173   5.027   3.483   2.663
  104DPPC   C24 5174   4.969   3.441   2.798
  104DPPC   C25 5175   5.069   3.386   2.900
  104DPPC   C26 5176   5.025   3.392   3.047
  104DPPC   C27 5177   4.981   3.532   3.088
  104DPPC   C28 5178   4.926   3.525   3.231
  104DPPC   C29 5179   4.881   3.645   3.315
  104DPPC   C30 5180   4.788   3.604   3.429
  104DPPC   C31 5181   4.776   3.740   3.498
  104DPPC   C32 5182   4.384   3.665   1.969
  104DPPC   O33 5183   4.354   3.729   2.094
  104DPPC   C34 5184   4.261   3.673   2.176
  104DPPC   O35 5185   4.185   3.585   2.135
  104DPPC   C36 5186   4.245   3.751   2.307
  104DPPC   C37 5187   4.376   3.713   2.377
  104DPPC   C38 5188   4.403   3.826   2.478
  104DPPC   C39 5189   4.527   3.800   2.563
  104DPPC   C40 5190   4.515   3.664   2.633
  104DPPC   C41 5191   4.604   3.662   2.757
  104DPPC   C42 5192   4.586   3.780   2.853
  104DPPC   C43 5193   4.665   3.760   2.982
  104DPPC   C44 5194   4.694   3.891   3.056
  104DPPC   C45 5195   4.564   3.957   3.102
  104DPPC   C46 5196   4.571   4.061   3.215
  104DPPC   C47 5197   4.434   4.072   3.283
  104DPPC   C48 5198   4.427   4.158   3.409
  104DPPC   C49 5199   4.418   4.303   3.362
  104DPPC   C50 5200   4.436   4.395   3.483
  105DPPC    C1 5201   4.409   5.130   1.590
  105DPPC    C2 5202   4.418   4.981   1.410
  105DPPC    C3 5203   4.466   5.223   1.376
  105DPPC    N4 5204   4.478   5.105   1.463
  105DPPC    C5 5205   4.623   5.079   1.462
  105DPPC    C6 5206   4.680   4.999   1.579
  105DPPC    O7 5207   4.729   5.079   1.687
  105DPPC    P8 5208   4.809   4.982   1.788
  105DPPC    O9 5209   4.886   5.084   1.862
  105DPPC   O10 5210   4.881   4.887   1.700
  105DPPC   O11 5211   4.690   4.909   1.868
  105DPPC   C12 5212   4.679   4.963   2.000
  105DPPC   C13 5213   4.556   4.924   2.082
  105DPPC   O14 5214   4.508   5.023   2.174
  105DPPC   C15 5215   4.425   5.112   2.114
  105DPPC   O16 5216   4.352   5.069   2.025
  105DPPC   C17 5217   4.397   5.239   2.196
  105DPPC   C18 5218   4.247   5.257   2.218
  105DPPC   C19 5219   4.234   5.372   2.318
  105DPPC   C20 5220   4.279   5.500   2.246
  105DPPC   C21 5221   4.275   5.620   2.341
  105DPPC   C22 5222   4.332   5.739   2.263
  105DPPC   C23 5223   4.311   5.873   2.335
  105DPPC   C24 5224   4.404   5.878   2.456
  105DPPC   C25 5225   4.372   6.001   2.541
  105DPPC   C26 5226   4.238   5.973   2.609
  105DPPC   C27 5227   4.198   6.104   2.679
  105DPPC   C28 5228   4.052   6.084   2.719
  105DPPC   C29 5229   3.983   6.199   2.794
  105DPPC   C30 5230   4.016   6.334   2.730
  105DPPC   C31 5231   3.907   6.427   2.782
  105DPPC   C32 5232   4.579   4.782   2.133
  105DPPC   O33 5233   4.697   4.777   2.214
  105DPPC   C34 5234   4.726   4.658   2.273
  105DPPC   O35 5235   4.659   4.555   2.257
  105DPPC   C36 5236   4.873   4.650   2.314
  105DPPC   C37 5237   4.877   4.620   2.464
  105DPPC   C38 5238   4.832   4.745   2.542
  105DPPC   C39 5239   4.845   4.725   2.693
  105DPPC   C40 5240   4.771   4.833   2.772
  105DPPC   C41 5241   4.794   4.820   2.923
  105DPPC   C42 5242   4.754   4.953   2.986
  105DPPC   C43 5243   4.761   4.956   3.139
  105DPPC   C44 5244   4.696   5.081   3.199
  105DPPC   C45 5245   4.741   5.083   3.345
  105DPPC   C46 5246   4.691   4.963   3.426
  105DPPC   C47 5247   4.758   4.973   3.563
  105DPPC   C48 5248   4.729   4.854   3.654
  105DPPC   C49 5249   4.801   4.869   3.788
  105DPPC   C50 5250   4.953   4.881   3.779
  106DPPC    C1 5251   9.061   0.555   1.002
  106DPPC    C2 5252   8.907   0.447   1.139
  106DPPC    C3 5253   9.057   0.312   1.025
  106DPPC    N4 5254   9.047   0.441   1.095
  106DPPC    C5 5255   9.149   0.451   1.199
  106DPPC    C6 5256   9.300   0.439   1.176
  106DPPC    O7 5257   9.368   0.512   1.279
  106DPPC    P8 5258   9.527   0.489   1.266
  106DPPC    O9 5259   9.560   0.526   1.127
  106DPPC   O10 5260   9.594   0.373   1.329
  106DPPC   O11 5261   9.563   0.619   1.354
  106DPPC   C12 5262   9.551   0.599   1.495
  106DPPC   C13 5263   9.462   0.704   1.561
  106DPPC   O14 5264   9.521   0.760   1.679
  106DPPC   C15 5265   9.553   0.892   1.675
  106DPPC   O16 5266   9.525   0.954   1.573
  106DPPC   C17 5267   9.617   0.959   1.796
  106DPPC   C18 5268   9.547   0.913   1.924
  106DPPC   C19 5269   9.641   0.918   2.045
  106DPPC   C20 5270   9.583   0.869   2.178
  106DPPC   C21 5271   9.692   0.910   2.277
  106DPPC   C22 5272   9.789   0.794   2.297
  106DPPC   C23 5273   9.903   0.849   2.383
  106DPPC   C24 5274   9.996   0.934   2.296
  106DPPC   C25 5275  10.137   0.921   2.355
  106DPPC   C26 5276  10.251   0.974   2.268
  106DPPC   C27 5277  10.390   0.958   2.330
  106DPPC   C28 5278  10.377   1.008   2.474
  106DPPC   C29 5279  10.510   1.001   2.550
  106DPPC   C30 5280  10.483   1.055   2.691
  106DPPC   C31 5281  10.457   1.206   2.686
  106DPPC   C32 5282   9.324   0.638   1.572
  106DPPC   O33 5283   9.326   0.507   1.629
  106DPPC   C34 5284   9.209   0.440   1.607
  106DPPC   O35 5285   9.113   0.503   1.564
  106DPPC   C36 5286   9.202   0.294   1.654
  106DPPC   C37 5287   9.258   0.269   1.794
  106DPPC   C38 5288   9.178   0.343   1.901
  106DPPC   C39 5289   9.252   0.457   1.971
  106DPPC   C40 5290   9.159   0.514   2.079
  106DPPC   C41 5291   9.098   0.408   2.170
  106DPPC   C42 5292   8.998   0.490   2.252
  106DPPC   C43 5293   8.986   0.424   2.389
  106DPPC   C44 5294   8.907   0.507   2.491
  106DPPC   C45 5295   8.897   0.425   2.619
  106DPPC   C46 5296   8.846   0.518   2.729
  106DPPC   C47 5297   8.813   0.457   2.866
  106DPPC   C48 5298   8.698   0.356   2.866
  106DPPC   C49 5299   8.685   0.306   3.010
  106DPPC   C50 5300   8.679   0.427   3.104
  107DPPC    C1 5301   6.101   7.904   1.857
  107DPPC    C2 5302   6.060   8.000   1.653
  107DPPC    C3 5303   5.977   8.114   1.858
  107DPPC    N4 5304   6.084   8.035   1.793
  107DPPC    C5 5305   6.219   8.091   1.782
  107DPPC    C6 5306   6.262   8.180   1.900
  107DPPC    O7 5307   6.191   8.304   1.902
  107DPPC    P8 5308   6.289   8.413   1.835
  107DPPC    O9 5309   6.215   8.450   1.712
  107DPPC   O10 5310   6.425   8.353   1.837
  107DPPC   O11 5311   6.280   8.531   1.943
  107DPPC   C12 5312   6.139   8.545   1.963
  107DPPC   C13 5313   6.084   8.582   2.101
  107DPPC   O14 5314   6.122   8.716   2.137
  107DPPC   C15 5315   6.029   8.811   2.164
  107DPPC   O16 5316   5.924   8.803   2.101
  107DPPC   C17 5317   6.084   8.944   2.217
  107DPPC   C18 5318   6.161   8.929   2.348
  107DPPC   C19 5319   6.079   8.878   2.467
  107DPPC   C20 5320   5.968   8.975   2.509
  107DPPC   C21 5321   6.032   9.062   2.617
  107DPPC   C22 5322   5.951   9.188   2.653
  107DPPC   C23 5323   6.002   9.298   2.746
  107DPPC   C24 5324   6.115   9.373   2.676
  107DPPC   C25 5325   6.179   9.485   2.758
  107DPPC   C26 5326   6.079   9.597   2.788
  107DPPC   C27 5327   6.050   9.673   2.658
  107DPPC   C28 5328   5.943   9.778   2.688
  107DPPC   C29 5329   5.938   9.900   2.597
  107DPPC   C30 5330   5.888   9.855   2.459
  107DPPC   C31 5331   5.874   9.964   2.353
  107DPPC   C32 5332   6.135   8.468   2.190
  107DPPC   O33 5333   6.067   8.461   2.316
  107DPPC   C34 5334   5.933   8.437   2.323
  107DPPC   O35 5335   5.874   8.406   2.220
  107DPPC   C36 5336   5.867   8.464   2.459
  107DPPC   C37 5337   5.970   8.520   2.558
  107DPPC   C38 5338   5.909   8.565   2.691
  107DPPC   C39 5339   6.016   8.638   2.772
  107DPPC   C40 5340   5.962   8.766   2.835
  107DPPC   C41 5341   6.068   8.842   2.915
  107DPPC   C42 5342   6.107   8.754   3.034
  107DPPC   C43 5343   6.000   8.738   3.143
  107DPPC   C44 5344   6.072   8.700   3.272
  107DPPC   C45 5345   5.973   8.672   3.385
  107DPPC   C46 5346   6.058   8.639   3.509
  107DPPC   C47 5347   5.962   8.649   3.627
  107DPPC   C48 5348   5.886   8.782   3.624
  107DPPC   C49 5349   5.738   8.757   3.650
  107DPPC   C50 5350   5.648   8.878   3.628
  108DPPC    C1 5351   7.082   0.581   1.011
  108DPPC    C2 5352   6.930   0.768   1.036
  108DPPC    C3 5353   6.938   0.643   0.836
  108DPPC    N4 5354   6.947   0.632   0.982
  108DPPC    C5 5355   6.831   0.550   1.017
  108DPPC    C6 5356   6.849   0.442   1.124
  108DPPC    O7 5357   6.834   0.492   1.257
  108DPPC    P8 5358   6.851   0.362   1.350
  108DPPC    O9 5359   6.995   0.330   1.348
  108DPPC   O10 5360   6.746   0.270   1.302
  108DPPC   O11 5361   6.799   0.432   1.485
  108DPPC   C12 5362   6.901   0.514   1.542
  108DPPC   C13 5363   6.856   0.605   1.656
  108DPPC   O14 5364   6.935   0.723   1.677
  108DPPC   C15 5365   6.854   0.832   1.679
  108DPPC   O16 5366   6.741   0.825   1.630
  108DPPC   C17 5367   6.904   0.963   1.739
  108DPPC   C18 5368   6.874   0.981   1.888
  108DPPC   C19 5369   6.891   1.130   1.922
  108DPPC   C20 5370   6.825   1.167   2.054
  108DPPC   C21 5371   6.931   1.118   2.153
  108DPPC   C22 5372   6.891   1.143   2.299
  108DPPC   C23 5373   6.764   1.075   2.352
  108DPPC   C24 5374   6.790   0.990   2.477
  108DPPC   C25 5375   6.856   1.094   2.569
  108DPPC   C26 5376   6.918   1.026   2.690
  108DPPC   C27 5377   6.823   0.943   2.777
  108DPPC   C28 5378   6.877   0.901   2.914
  108DPPC   C29 5379   6.783   0.800   2.980
  108DPPC   C30 5380   6.843   0.790   3.121
  108DPPC   C31 5381   6.764   0.711   3.225
  108DPPC   C32 5382   6.869   0.501   1.767
  108DPPC   O33 5383   6.836   0.531   1.903
  108DPPC   C34 5384   6.849   0.422   1.983
  108DPPC   O35 5385   6.908   0.320   1.949
  108DPPC   C36 5386   6.846   0.447   2.134
  108DPPC   C37 5387   6.806   0.323   2.214
  108DPPC   C38 5388   6.828   0.355   2.362
  108DPPC   C39 5389   6.790   0.233   2.446
  108DPPC   C40 5390   6.878   0.110   2.420
  108DPPC   C41 5391   6.827  -0.016   2.490
  108DPPC   C42 5392   6.830   0.009   2.641
  108DPPC   C43 5393   6.772  -0.108   2.722
  108DPPC   C44 5394   6.807  -0.106   2.871
  108DPPC   C45 5395   6.760  -0.235   2.939
  108DPPC   C46 5396   6.803  -0.236   3.086
  108DPPC   C47 5397   6.721  -0.138   3.170
  108DPPC   C48 5398   6.762  -0.140   3.318
  108DPPC   C49 5399   6.908  -0.116   3.358
  108DPPC   C50 5400   6.920  -0.037   3.489
  109DPPC    C1 5401   9.269   6.052   0.269
  109DPPC    C2 5402   9.316   6.040   0.497
  109DPPC    C3 5403   9.389   6.224   0.364
  109DPPC    N4 5404   9.276   6.134   0.391
  109DPPC    C5 5405   9.146   6.201   0.406
  109DPPC    C6 5406   9.103   6.228   0.550
  109DPPC    O7 5407   9.031   6.116   0.601
  109DPPC    P8 5408   8.922   6.153   0.713
  109DPPC    O9 5409   8.825   6.044   0.691
  109DPPC   O10 5410   8.886   6.297   0.704
  109DPPC   O11 5411   9.014   6.142   0.844
  109DPPC   C12 5412   8.997   6.011   0.898
  109DPPC   C13 5413   9.110   5.957   0.986
  109DPPC   O14 5414   9.086   5.827   1.042
  109DPPC   C15 5415   9.189   5.755   1.095
  109DPPC   O16 5416   9.306   5.783   1.067
  109DPPC   C17 5417   9.149   5.620   1.154
  109DPPC   C18 5418   9.075   5.642   1.286
  109DPPC   C19 5419   9.161   5.724   1.382
  109DPPC   C20 5420   9.102   5.693   1.520
  109DPPC   C21 5421   9.173   5.753   1.641
  109DPPC   C22 5422   9.099   5.734   1.773
  109DPPC   C23 5423   9.166   5.817   1.883
  109DPPC   C24 5424   9.104   5.792   2.021
  109DPPC   C25 5425   9.176   5.855   2.140
  109DPPC   C26 5426   9.085   5.865   2.263
  109DPPC   C27 5427   9.151   5.889   2.399
  109DPPC   C28 5428   9.034   5.864   2.493
  109DPPC   C29 5429   9.075   5.868   2.641
  109DPPC   C30 5430   8.951   5.856   2.729
  109DPPC   C31 5431   8.993   5.874   2.875
  109DPPC   C32 5432   9.140   6.069   1.086
  109DPPC   O33 5433   9.046   6.086   1.193
  109DPPC   C34 5434   9.040   6.212   1.246
  109DPPC   O35 5435   9.126   6.294   1.214
  109DPPC   C36 5436   8.958   6.216   1.375
  109DPPC   C37 5437   9.048   6.196   1.497
  109DPPC   C38 5438   8.990   6.246   1.629
  109DPPC   C39 5439   9.097   6.248   1.739
  109DPPC   C40 5440   9.037   6.290   1.874
  109DPPC   C41 5441   9.152   6.288   1.975
  109DPPC   C42 5442   9.080   6.319   2.106
  109DPPC   C43 5443   9.176   6.336   2.224
  109DPPC   C44 5444   9.272   6.217   2.235
  109DPPC   C45 5445   9.356   6.246   2.359
  109DPPC   C46 5446   9.458   6.136   2.387
  109DPPC   C47 5447   9.549   6.177   2.503
  109DPPC   C48 5448   9.660   6.073   2.519
  109DPPC   C49 5449   9.732   6.092   2.652
  109DPPC   C50 5450   9.827   5.973   2.637
  110DPPC    C1 5451   1.286   3.458   0.756
  110DPPC    C2 5452   1.499   3.376   0.866
  110DPPC    C3 5453   1.502   3.549   0.706
  110DPPC    N4 5454   1.419   3.486   0.810
  110DPPC    C5 5455   1.404   3.592   0.911
  110DPPC    C6 5456   1.313   3.562   1.030
  110DPPC    O7 5457   1.274   3.673   1.111
  110DPPC    P8 5458   1.137   3.746   1.068
  110DPPC    O9 5459   1.077   3.657   0.966
  110DPPC   O10 5460   1.154   3.891   1.045
  110DPPC   O11 5461   1.076   3.733   1.217
  110DPPC   C12 5462   1.011   3.606   1.226
  110DPPC   C13 5463   1.072   3.503   1.322
  110DPPC   O14 5464   0.997   3.381   1.333
  110DPPC   C15 5465   1.066   3.267   1.359
  110DPPC   O16 5466   1.176   3.239   1.311
  110DPPC   C17 5467   0.972   3.160   1.415
  110DPPC   C18 5468   0.984   3.181   1.566
  110DPPC   C19 5469   0.899   3.078   1.640
  110DPPC   C20 5470   0.915   3.102   1.790
  110DPPC   C21 5471   0.812   3.019   1.868
  110DPPC   C22 5472   0.810   3.064   2.014
  110DPPC   C23 5473   0.711   2.978   2.092
  110DPPC   C24 5474   0.573   2.981   2.026
  110DPPC   C25 5475   0.478   2.924   2.132
  110DPPC   C26 5476   0.505   3.010   2.255
  110DPPC   C27 5477   0.414   2.977   2.374
  110DPPC   C28 5478   0.431   3.083   2.483
  110DPPC   C29 5479   0.570   3.063   2.543
  110DPPC   C30 5480   0.614   3.156   2.657
  110DPPC   C31 5481   0.539   3.140   2.789
  110DPPC   C32 5482   1.107   3.575   1.452
  110DPPC   O33 5483   1.185   3.498   1.544
  110DPPC   C34 5484   1.199   3.561   1.664
  110DPPC   O35 5485   1.192   3.683   1.677
  110DPPC   C36 5486   1.268   3.483   1.776
  110DPPC   C37 5487   1.161   3.421   1.866
  110DPPC   C38 5488   1.226   3.337   1.977
  110DPPC   C39 5489   1.129   3.270   2.074
  110DPPC   C40 5490   1.187   3.207   2.200
  110DPPC   C41 5491   1.078   3.124   2.266
  110DPPC   C42 5492   1.146   3.043   2.377
  110DPPC   C43 5493   1.045   2.978   2.472
  110DPPC   C44 5494   1.132   2.917   2.583
  110DPPC   C45 5495   1.059   2.874   2.710
  110DPPC   C46 5496   1.012   2.997   2.787
  110DPPC   C47 5497   0.930   2.984   2.915
  110DPPC   C48 5498   0.901   3.125   2.967
  110DPPC   C49 5499   0.816   3.091   3.090
  110DPPC   C50 5500   0.737   3.219   3.118
  111DPPC    C1 5501   1.632   1.080   1.481
  111DPPC    C2 5502   1.658   1.142   1.249
  111DPPC    C3 5503   1.646   0.921   1.301
  111DPPC    N4 5504   1.591   1.050   1.343
  111DPPC    C5 5505   1.445   1.050   1.322
  111DPPC    C6 5506   1.354   0.934   1.363
  111DPPC    O7 5507   1.380   0.892   1.497
  111DPPC    P8 5508   1.282   0.767   1.523
  111DPPC    O9 5509   1.369   0.665   1.584
  111DPPC   O10 5510   1.217   0.722   1.397
  111DPPC   O11 5511   1.189   0.844   1.630
  111DPPC   C12 5512   1.275   0.858   1.743
  111DPPC   C13 5513   1.193   0.868   1.872
  111DPPC   O14 5514   1.261   0.935   1.979
  111DPPC   C15 5515   1.189   0.995   2.077
  111DPPC   O16 5516   1.067   0.985   2.069
  111DPPC   C17 5517   1.262   1.044   2.202
  111DPPC   C18 5518   1.319   1.179   2.159
  111DPPC   C19 5519   1.387   1.235   2.284
  111DPPC   C20 5520   1.433   1.379   2.261
  111DPPC   C21 5521   1.330   1.477   2.205
  111DPPC   C22 5522   1.396   1.614   2.193
  111DPPC   C23 5523   1.289   1.716   2.232
  111DPPC   C24 5524   1.214   1.696   2.364
  111DPPC   C25 5525   1.088   1.782   2.357
  111DPPC   C26 5526   0.999   1.771   2.481
  111DPPC   C27 5527   0.900   1.888   2.479
  111DPPC   C28 5528   0.852   1.901   2.624
  111DPPC   C29 5529   0.769   2.029   2.636
  111DPPC   C30 5530   0.714   2.054   2.777
  111DPPC   C31 5531   0.644   1.931   2.834
  111DPPC   C32 5532   1.124   0.732   1.880
  111DPPC   O33 5533   1.211   0.630   1.930
  111DPPC   C34 5534   1.190   0.497   1.909
  111DPPC   O35 5535   1.119   0.468   1.813
  111DPPC   C36 5536   1.257   0.388   1.993
  111DPPC   C37 5537   1.316   0.440   2.125
  111DPPC   C38 5538   1.208   0.506   2.210
  111DPPC   C39 5539   1.255   0.547   2.350
  111DPPC   C40 5540   1.142   0.623   2.421
  111DPPC   C41 5541   1.181   0.672   2.560
  111DPPC   C42 5542   1.205   0.555   2.656
  111DPPC   C43 5543   1.229   0.615   2.795
  111DPPC   C44 5544   1.111   0.680   2.867
  111DPPC   C45 5545   1.156   0.717   3.009
  111DPPC   C46 5546   1.196   0.864   3.018
  111DPPC   C47 5547   1.218   0.910   3.162
  111DPPC   C48 5548   1.240   1.061   3.154
  111DPPC   C49 5549   1.120   1.109   3.071
  111DPPC   C50 5550   1.101   1.259   3.090
  112DPPC    C1 5551   4.834   8.063   1.596
  112DPPC    C2 5552   5.007   8.076   1.751
  112DPPC    C3 5553   4.794   8.083   1.838
  112DPPC    N4 5554   4.873   8.019   1.731
  112DPPC    C5 5555   4.887   7.873   1.738
  112DPPC    C6 5556   4.770   7.774   1.731
  112DPPC    O7 5557   4.664   7.790   1.825
  112DPPC    P8 5558   4.560   7.668   1.818
  112DPPC    O9 5559   4.550   7.614   1.681
  112DPPC   O10 5560   4.439   7.705   1.896
  112DPPC   O11 5561   4.645   7.555   1.895
  112DPPC   C12 5562   4.581   7.533   2.020
  112DPPC   C13 5563   4.653   7.440   2.118
  112DPPC   O14 5564   4.572   7.369   2.213
  112DPPC   C15 5565   4.535   7.248   2.165
  112DPPC   O16 5566   4.557   7.210   2.049
  112DPPC   C17 5567   4.488   7.150   2.272
  112DPPC   C18 5568   4.568   7.159   2.402
  112DPPC   C19 5569   4.519   7.072   2.518
  112DPPC   C20 5570   4.512   6.926   2.474
  112DPPC   C21 5571   4.480   6.848   2.602
  112DPPC   C22 5572   4.340   6.867   2.662
  112DPPC   C23 5573   4.310   6.752   2.759
  112DPPC   C24 5574   4.183   6.788   2.837
  112DPPC   C25 5575   4.063   6.823   2.748
  112DPPC   C26 5576   3.936   6.834   2.833
  112DPPC   C27 5577   3.832   6.905   2.745
  112DPPC   C28 5578   3.723   6.945   2.845
  112DPPC   C29 5579   3.628   7.049   2.786
  112DPPC   C30 5580   3.519   7.097   2.882
  112DPPC   C31 5581   3.406   7.190   2.837
  112DPPC   C32 5582   4.763   7.531   2.173
  112DPPC   O33 5583   4.875   7.467   2.236
  112DPPC   C34 5584   4.988   7.525   2.284
  112DPPC   O35 5585   5.023   7.639   2.257
  112DPPC   C36 5586   5.078   7.432   2.366
  112DPPC   C37 5587   5.123   7.502   2.495
  112DPPC   C38 5588   5.213   7.415   2.583
  112DPPC   C39 5589   5.235   7.491   2.714
  112DPPC   C40 5590   5.318   7.411   2.814
  112DPPC   C41 5591   5.446   7.345   2.763
  112DPPC   C42 5592   5.557   7.450   2.752
  112DPPC   C43 5593   5.654   7.427   2.868
  112DPPC   C44 5594   5.757   7.540   2.860
  112DPPC   C45 5595   5.827   7.539   2.996
  112DPPC   C46 5596   5.888   7.678   3.020
  112DPPC   C47 5597   5.936   7.687   3.165
  112DPPC   C48 5598   5.811   7.676   3.252
  112DPPC   C49 5599   5.860   7.664   3.396
  112DPPC   C50 5600   5.750   7.706   3.493
  113DPPC    C1 5601   0.876   1.560   1.343
  113DPPC    C2 5602   0.938   1.601   1.564
  113DPPC    C3 5603   0.734   1.514   1.518
  113DPPC    N4 5604   0.875   1.501   1.478
  113DPPC    C5 5605   0.924   1.363   1.491
  113DPPC    C6 5606   1.055   1.331   1.418
  113DPPC    O7 5607   1.164   1.412   1.463
  113DPPC    P8 5608   1.305   1.364   1.403
  113DPPC    O9 5609   1.418   1.460   1.405
  113DPPC   O10 5610   1.280   1.288   1.278
  113DPPC   O11 5611   1.325   1.265   1.529
  113DPPC   C12 5612   1.366   1.357   1.630
  113DPPC   C13 5613   1.371   1.297   1.770
  113DPPC   O14 5614   1.477   1.205   1.801
  113DPPC   C15 5615   1.602   1.252   1.826
  113DPPC   O16 5616   1.622   1.367   1.787
  113DPPC   C17 5617   1.701   1.142   1.864
  113DPPC   C18 5618   1.813   1.184   1.960
  113DPPC   C19 5619   1.752   1.190   2.100
  113DPPC   C20 5620   1.864   1.228   2.197
  113DPPC   C21 5621   1.812   1.226   2.340
  113DPPC   C22 5622   1.927   1.233   2.440
  113DPPC   C23 5623   1.871   1.232   2.582
  113DPPC   C24 5624   1.984   1.228   2.686
  113DPPC   C25 5625   1.931   1.215   2.829
  113DPPC   C26 5626   2.023   1.132   2.919
  113DPPC   C27 5627   1.953   1.116   3.054
  113DPPC   C28 5628   1.811   1.063   3.034
  113DPPC   C29 5629   1.795   0.916   2.992
  113DPPC   C30 5630   1.649   0.878   3.019
  113DPPC   C31 5631   1.634   0.728   2.993
  113DPPC   C32 5632   1.237   1.231   1.807
  113DPPC   O33 5633   1.138   1.326   1.846
  113DPPC   C34 5634   1.023   1.258   1.874
  113DPPC   O35 5635   0.991   1.160   1.806
  113DPPC   C36 5636   0.919   1.350   1.937
  113DPPC   C37 5637   0.855   1.287   2.060
  113DPPC   C38 5638   0.742   1.379   2.108
  113DPPC   C39 5639   0.702   1.336   2.249
  113DPPC   C40 5640   0.611   1.443   2.309
  113DPPC   C41 5641   0.542   1.404   2.440
  113DPPC   C42 5642   0.652   1.352   2.534
  113DPPC   C43 5643   0.601   1.353   2.679
  113DPPC   C44 5644   0.473   1.273   2.701
  113DPPC   C45 5645   0.500   1.128   2.742
  113DPPC   C46 5646   0.373   1.050   2.774
  113DPPC   C47 5647   0.413   0.905   2.806
  113DPPC   C48 5648   0.287   0.820   2.823
  113DPPC   C49 5649   0.325   0.677   2.863
  113DPPC   C50 5650   0.189   0.606   2.859
  114DPPC    C1 5651   1.058   3.964   1.567
  114DPPC    C2 5652   1.153   4.029   1.352
  114DPPC    C3 5653   1.099   4.189   1.516
  114DPPC    N4 5654   1.152   4.053   1.497
  114DPPC    C5 5655   1.277   4.030   1.571
  114DPPC    C6 5656   1.409   4.095   1.528
  114DPPC    O7 5657   1.518   4.044   1.605
  114DPPC    P8 5658   1.651   4.112   1.543
  114DPPC    O9 5659   1.615   4.159   1.408
  114DPPC   O10 5660   1.765   4.017   1.551
  114DPPC   O11 5661   1.657   4.230   1.652
  114DPPC   C12 5662   1.696   4.161   1.771
  114DPPC   C13 5663   1.637   4.229   1.894
  114DPPC   O14 5664   1.686   4.169   2.015
  114DPPC   C15 5665   1.800   4.217   2.072
  114DPPC   O16 5666   1.882   4.271   1.998
  114DPPC   C17 5667   1.849   4.154   2.202
  114DPPC   C18 5668   1.934   4.029   2.177
  114DPPC   C19 5669   2.059   4.035   2.265
  114DPPC   C20 5670   2.147   3.911   2.261
  114DPPC   C21 5671   2.246   3.897   2.377
  114DPPC   C22 5672   2.169   3.915   2.508
  114DPPC   C23 5673   2.269   3.950   2.618
  114DPPC   C24 5674   2.191   4.037   2.717
  114DPPC   C25 5675   2.291   4.113   2.804
  114DPPC   C26 5676   2.241   4.190   2.926
  114DPPC   C27 5677   2.351   4.273   2.992
  114DPPC   C28 5678   2.300   4.348   3.115
  114DPPC   C29 5679   2.414   4.422   3.185
  114DPPC   C30 5680   2.491   4.517   3.093
  114DPPC   C31 5681   2.601   4.569   3.185
  114DPPC   C32 5682   1.489   4.201   1.870
  114DPPC   O33 5683   1.397   4.300   1.919
  114DPPC   C34 5684   1.269   4.255   1.924
  114DPPC   O35 5685   1.230   4.186   1.829
  114DPPC   C36 5686   1.167   4.325   2.014
  114DPPC   C37 5687   1.109   4.228   2.118
  114DPPC   C38 5688   1.018   4.301   2.217
  114DPPC   C39 5689   0.960   4.189   2.303
  114DPPC   C40 5690   1.062   4.132   2.402
  114DPPC   C41 5691   1.000   4.029   2.497
  114DPPC   C42 5692   0.887   4.081   2.586
  114DPPC   C43 5693   0.946   4.178   2.689
  114DPPC   C44 5694   0.838   4.255   2.766
  114DPPC   C45 5695   0.903   4.382   2.822
  114DPPC   C46 5696   0.813   4.469   2.909
  114DPPC   C47 5697   0.737   4.564   2.817
  114DPPC   C48 5698   0.584   4.551   2.814
  114DPPC   C49 5699   0.511   4.650   2.723
  114DPPC   C50 5700   0.363   4.611   2.722
  115DPPC    C1 5701   3.943   3.190   1.911
  115DPPC    C2 5702   3.844   3.330   1.750
  115DPPC    C3 5703   3.736   3.302   1.958
  115DPPC    N4 5704   3.868   3.315   1.894
  115DPPC    C5 5705   3.952   3.420   1.953
  115DPPC    C6 5706   3.939   3.561   1.895
  115DPPC    O7 5707   3.819   3.628   1.934
  115DPPC    P8 5708   3.810   3.775   1.870
  115DPPC    O9 5709   3.705   3.740   1.772
  115DPPC   O10 5710   3.955   3.794   1.847
  115DPPC   O11 5711   3.751   3.852   1.998
  115DPPC   C12 5712   3.871   3.873   2.072
  115DPPC   C13 5713   3.866   3.968   2.192
  115DPPC   O14 5714   3.991   3.981   2.262
  115DPPC   C15 5715   4.043   4.106   2.273
  115DPPC   O16 5716   3.995   4.197   2.205
  115DPPC   C17 5717   4.164   4.122   2.365
  115DPPC   C18 5718   4.203   4.270   2.376
  115DPPC   C19 5719   4.346   4.277   2.428
  115DPPC   C20 5720   4.384   4.419   2.468
  115DPPC   C21 5721   4.521   4.431   2.535
  115DPPC   C22 5722   4.521   4.347   2.663
  115DPPC   C23 5723   4.666   4.314   2.700
  115DPPC   C24 5724   4.686   4.301   2.851
  115DPPC   C25 5725   4.826   4.250   2.885
  115DPPC   C26 5726   4.841   4.246   3.037
  115DPPC   C27 5727   4.987   4.226   3.078
  115DPPC   C28 5728   5.010   4.219   3.229
  115DPPC   C29 5729   4.951   4.092   3.290
  115DPPC   C30 5730   4.950   4.098   3.443
  115DPPC   C31 5731   4.826   4.178   3.483
  115DPPC   C32 5732   3.740   3.916   2.261
  115DPPC   O33 5733   3.697   3.993   2.373
  115DPPC   C34 5734   3.641   4.115   2.355
  115DPPC   O35 5735   3.620   4.174   2.249
  115DPPC   C36 5736   3.616   4.186   2.489
  115DPPC   C37 5737   3.724   4.171   2.597
  115DPPC   C38 5738   3.727   4.038   2.672
  115DPPC   C39 5739   3.820   4.059   2.791
  115DPPC   C40 5740   3.955   4.106   2.735
  115DPPC   C41 5741   4.055   4.127   2.849
  115DPPC   C42 5742   4.021   4.250   2.933
  115DPPC   C43 5743   4.105   4.228   3.059
  115DPPC   C44 5744   4.076   4.342   3.157
  115DPPC   C45 5745   3.925   4.356   3.175
  115DPPC   C46 5746   3.893   4.474   3.267
  115DPPC   C47 5747   3.743   4.488   3.290
  115DPPC   C48 5748   3.681   4.609   3.361
  115DPPC   C49 5749   3.530   4.584   3.376
  115DPPC   C50 5750   3.455   4.689   3.457
  116DPPC    C1 5751   6.687   8.494   1.960
  116DPPC    C2 5752   6.909   8.471   2.021
  116DPPC    C3 5753   6.741   8.326   2.103
  116DPPC    N4 5754   6.791   8.392   1.981
  116DPPC    C5 5755   6.819   8.308   1.864
  116DPPC    C6 5756   6.712   8.202   1.838
  116DPPC    O7 5757   6.727   8.082   1.914
  116DPPC    P8 5758   6.607   7.979   1.883
  116DPPC    O9 5759   6.649   7.837   1.887
  116DPPC   O10 5760   6.535   8.033   1.766
  116DPPC   O11 5761   6.522   8.013   2.015
  116DPPC   C12 5762   6.517   7.903   2.107
  116DPPC   C13 5763   6.423   7.926   2.225
  116DPPC   O14 5764   6.287   7.935   2.180
  116DPPC   C15 5765   6.171   7.955   2.247
  116DPPC   O16 5766   6.062   7.950   2.191
  116DPPC   C17 5767   6.186   7.930   2.397
  116DPPC   C18 5768   6.147   8.044   2.492
  116DPPC   C19 5769   6.196   8.001   2.630
  116DPPC   C20 5770   6.164   8.117   2.725
  116DPPC   C21 5771   6.267   8.226   2.696
  116DPPC   C22 5772   6.235   8.346   2.786
  116DPPC   C23 5773   6.226   8.299   2.931
  116DPPC   C24 5774   6.242   8.415   3.030
  116DPPC   C25 5775   6.270   8.379   3.176
  116DPPC   C26 5776   6.161   8.295   3.243
  116DPPC   C27 5777   6.206   8.245   3.380
  116DPPC   C28 5778   6.121   8.125   3.425
  116DPPC   C29 5779   6.154   8.064   3.561
  116DPPC   C30 5780   6.055   7.957   3.606
  116DPPC   C31 5781   5.915   8.012   3.637
  116DPPC   C32 5782   6.477   8.050   2.297
  116DPPC   O33 5783   6.594   8.006   2.366
  116DPPC   C34 5784   6.643   8.107   2.443
  116DPPC   O35 5785   6.573   8.205   2.465
  116DPPC   C36 5786   6.767   8.072   2.526
  116DPPC   C37 5787   6.891   8.045   2.440
  116DPPC   C38 5788   7.010   8.019   2.533
  116DPPC   C39 5789   7.034   8.120   2.645
  116DPPC   C40 5790   7.137   8.081   2.750
  116DPPC   C41 5791   7.266   8.032   2.682
  116DPPC   C42 5792   7.355   8.149   2.638
  116DPPC   C43 5793   7.432   8.225   2.745
  116DPPC   C44 5794   7.569   8.161   2.770
  116DPPC   C45 5795   7.638   8.221   2.893
  116DPPC   C46 5796   7.664   8.370   2.869
  116DPPC   C47 5797   7.766   8.420   2.972
  116DPPC   C48 5798   7.700   8.464   3.103
  116DPPC   C49 5799   7.786   8.566   3.178
  116DPPC   C50 5800   7.920   8.507   3.223
  117DPPC    C1 5801   5.621   4.557   1.690
  117DPPC    C2 5802   5.760   4.596   1.520
  117DPPC    C3 5803   5.807   4.652   1.753
  117DPPC    N4 5804   5.764   4.548   1.659
  117DPPC    C5 5805   5.800   4.407   1.681
  117DPPC    C6 5806   5.927   4.357   1.611
  117DPPC    O7 5807   5.944   4.216   1.623
  117DPPC    P8 5808   6.072   4.178   1.533
  117DPPC    O9 5809   6.059   4.251   1.404
  117DPPC   O10 5810   6.133   4.044   1.541
  117DPPC   O11 5811   6.181   4.265   1.612
  117DPPC   C12 5812   6.234   4.200   1.728
  117DPPC   C13 5813   6.341   4.285   1.798
  117DPPC   O14 5814   6.437   4.212   1.875
  117DPPC   C15 5815   6.535   4.137   1.817
  117DPPC   O16 5816   6.545   4.135   1.695
  117DPPC   C17 5817   6.630   4.054   1.904
  117DPPC   C18 5818   6.589   4.058   2.051
  117DPPC   C19 5819   6.708   4.012   2.135
  117DPPC   C20 5820   6.710   4.046   2.285
  117DPPC   C21 5821   6.775   3.938   2.372
  117DPPC   C22 5822   6.721   3.801   2.334
  117DPPC   C23 5823   6.787   3.688   2.413
  117DPPC   C24 5824   6.768   3.714   2.563
  117DPPC   C25 5825   6.814   3.589   2.637
  117DPPC   C26 5826   6.730   3.468   2.594
  117DPPC   C27 5827   6.643   3.412   2.707
  117DPPC   C28 5828   6.564   3.289   2.662
  117DPPC   C29 5829   6.491   3.235   2.785
  117DPPC   C30 5830   6.370   3.146   2.758
  117DPPC   C31 5831   6.296   3.099   2.883
  117DPPC   C32 5832   6.269   4.401   1.868
  117DPPC   O33 5833   6.173   4.359   1.966
  117DPPC   C34 5834   6.097   4.466   2.004
  117DPPC   O35 5835   6.090   4.559   1.923
  117DPPC   C36 5836   5.998   4.433   2.115
  117DPPC   C37 5837   5.868   4.381   2.054
  117DPPC   C38 5838   5.765   4.364   2.166
  117DPPC   C39 5839   5.761   4.494   2.247
  117DPPC   C40 5840   5.636   4.577   2.221
  117DPPC   C41 5841   5.639   4.689   2.325
  117DPPC   C42 5842   5.644   4.623   2.463
  117DPPC   C43 5843   5.602   4.729   2.566
  117DPPC   C44 5844   5.634   4.681   2.708
  117DPPC   C45 5845   5.625   4.787   2.818
  117DPPC   C46 5846   5.652   4.715   2.950
  117DPPC   C47 5847   5.599   4.812   3.057
  117DPPC   C48 5848   5.647   4.769   3.195
  117DPPC   C49 5849   5.615   4.620   3.195
  117DPPC   C50 5850   5.660   4.566   3.331
  118DPPC    C1 5851   4.581   0.148   1.365
  118DPPC    C2 5852   4.808   0.098   1.392
  118DPPC    C3 5853   4.708   0.328   1.450
  118DPPC    N4 5854   4.699   0.181   1.446
  118DPPC    C5 5855   4.687   0.150   1.589
  118DPPC    C6 5856   4.663   0.005   1.632
  118DPPC    O7 5857   4.521  -0.014   1.632
  118DPPC    P8 5858   4.491  -0.166   1.676
  118DPPC    O9 5859   4.560  -0.244   1.571
  118DPPC   O10 5860   4.346  -0.182   1.703
  118DPPC   O11 5861   4.572  -0.155   1.814
  118DPPC   C12 5862   4.472  -0.146   1.916
  118DPPC   C13 5863   4.519  -0.131   2.061
  118DPPC   O14 5864   4.535  -0.256   2.129
  118DPPC   C15 5865   4.659  -0.268   2.184
  118DPPC   O16 5866   4.732  -0.169   2.188
  118DPPC   C17 5867   4.691  -0.394   2.265
  118DPPC   C18 5868   4.702  -0.527   2.190
  118DPPC   C19 5869   4.792  -0.617   2.275
  118DPPC   C20 5870   4.725  -0.649   2.409
  118DPPC   C21 5871   4.677  -0.792   2.434
  118DPPC   C22 5872   4.589  -0.813   2.557
  118DPPC   C23 5873   4.512  -0.944   2.575
  118DPPC   C24 5874   4.431  -0.952   2.705
  118DPPC   C25 5875   4.345  -1.077   2.693
  118DPPC   C26 5876   4.239  -1.106   2.799
  118DPPC   C27 5877   4.157  -1.232   2.773
  118DPPC   C28 5878   4.070  -1.267   2.893
  118DPPC   C29 5879   4.146  -1.267   3.026
  118DPPC   C30 5880   4.052  -1.272   3.147
  118DPPC   C31 5881   3.956  -1.389   3.124
  118DPPC   C32 5882   4.422  -0.031   2.124
  118DPPC   O33 5883   4.291  -0.086   2.144
  118DPPC   C34 5884   4.203   0.012   2.178
  118DPPC   O35 5885   4.233   0.127   2.210
  118DPPC   C36 5886   4.061  -0.038   2.205
  118DPPC   C37 5887   4.077  -0.147   2.311
  118DPPC   C38 5888   3.939  -0.199   2.352
  118DPPC   C39 5889   3.955  -0.306   2.460
  118DPPC   C40 5890   3.812  -0.342   2.500
  118DPPC   C41 5891   3.794  -0.455   2.602
  118DPPC   C42 5892   3.648  -0.452   2.646
  118DPPC   C43 5893   3.611  -0.574   2.730
  118DPPC   C44 5894   3.459  -0.575   2.741
  118DPPC   C45 5895   3.421  -0.691   2.833
  118DPPC   C46 5896   3.268  -0.701   2.833
  118DPPC   C47 5897   3.235  -0.821   2.923
  118DPPC   C48 5898   3.217  -0.772   3.066
  118DPPC   C49 5899   3.107  -0.666   3.080
  118DPPC   C50 5900   2.982  -0.727   3.016
  119DPPC    C1 5901   0.334   6.273   0.389
  119DPPC    C2 5902   0.448   6.178   0.588
  119DPPC    C3 5903   0.511   6.388   0.496
  119DPPC    N4 5904   0.398   6.297   0.519
  119DPPC    C5 5905   0.305   6.363   0.612
  119DPPC    C6 5906   0.162   6.311   0.625
  119DPPC    O7 5907   0.101   6.359   0.745
  119DPPC    P8 5908  -0.025   6.262   0.772
  119DPPC    O9 5909   0.021   6.123   0.752
  119DPPC   O10 5910  -0.131   6.329   0.694
  119DPPC   O11 5911  -0.045   6.275   0.931
  119DPPC   C12 5912   0.055   6.185   0.979
  119DPPC   C13 5913   0.101   6.218   1.121
  119DPPC   O14 5914   0.015   6.189   1.233
  119DPPC   C15 5915   0.041   6.066   1.284
  119DPPC   O16 5916   0.140   6.006   1.243
  119DPPC   C17 5917  -0.056   6.001   1.383
  119DPPC   C18 5918  -0.028   6.039   1.529
  119DPPC   C19 5919  -0.078   6.174   1.580
  119DPPC   C20 5920   0.006   6.189   1.707
  119DPPC   C21 5921  -0.024   6.327   1.766
  119DPPC   C22 5922   0.059   6.333   1.894
  119DPPC   C23 5923   0.017   6.446   1.988
  119DPPC   C24 5924   0.075   6.426   2.128
  119DPPC   C25 5925   0.227   6.439   2.128
  119DPPC   C26 5926   0.270   6.433   2.274
  119DPPC   C27 5927   0.419   6.427   2.308
  119DPPC   C28 5928   0.512   6.520   2.229
  119DPPC   C29 5929   0.644   6.523   2.305
  119DPPC   C30 5930   0.620   6.564   2.451
  119DPPC   C31 5931   0.746   6.543   2.535
  119DPPC   C32 5932   0.148   6.363   1.107
  119DPPC   O33 5933   0.175   6.423   1.234
  119DPPC   C34 5934   0.186   6.558   1.234
  119DPPC   O35 5935   0.176   6.609   1.123
  119DPPC   C36 5936   0.170   6.642   1.361
  119DPPC   C37 5937   0.193   6.568   1.493
  119DPPC   C38 5938   0.165   6.650   1.619
  119DPPC   C39 5939   0.253   6.775   1.628
  119DPPC   C40 5940   0.251   6.853   1.760
  119DPPC   C41 5941   0.301   6.743   1.854
  119DPPC   C42 5942   0.251   6.791   1.990
  119DPPC   C43 5943   0.331   6.917   2.025
  119DPPC   C44 5944   0.277   6.971   2.157
  119DPPC   C45 5945   0.325   7.110   2.198
  119DPPC   C46 5946   0.265   7.150   2.333
  119DPPC   C47 5947   0.135   7.228   2.316
  119DPPC   C48 5948   0.074   7.268   2.451
  119DPPC   C49 5949   0.174   7.339   2.542
  119DPPC   C50 5950   0.135   7.339   2.690
  120DPPC    C1 5951   4.029   6.535   1.865
  120DPPC    C2 5952   3.831   6.626   1.759
  120DPPC    C3 5953   3.802   6.462   1.923
  120DPPC    N4 5954   3.888   6.574   1.884
  120DPPC    C5 5955   3.887   6.677   1.989
  120DPPC    C6 5956   3.980   6.798   1.992
  120DPPC    O7 5957   3.964   6.884   2.105
  120DPPC    P8 5958   4.101   6.966   2.129
  120DPPC    O9 5959   4.083   7.069   2.234
  120DPPC   O10 5960   4.144   7.001   1.992
  120DPPC   O11 5961   4.189   6.847   2.192
  120DPPC   C12 5962   4.146   6.828   2.327
  120DPPC   C13 5963   4.065   6.700   2.343
  120DPPC   O14 5964   3.951   6.716   2.430
  120DPPC   C15 5965   3.829   6.687   2.377
  120DPPC   O16 5966   3.811   6.621   2.275
  120DPPC   C17 5967   3.704   6.698   2.465
  120DPPC   C18 5968   3.681   6.562   2.530
  120DPPC   C19 5969   3.546   6.543   2.601
  120DPPC   C20 5970   3.524   6.649   2.709
  120DPPC   C21 5971   3.379   6.649   2.759
  120DPPC   C22 5972   3.376   6.755   2.870
  120DPPC   C23 5973   3.236   6.752   2.933
  120DPPC   C24 5974   3.223   6.873   3.026
  120DPPC   C25 5975   3.098   6.850   3.111
  120DPPC   C26 5976   3.101   6.714   3.182
  120DPPC   C27 5977   2.962   6.674   3.231
  120DPPC   C28 5978   2.963   6.685   3.383
  120DPPC   C29 5979   2.841   6.627   3.456
  120DPPC   C30 5980   2.739   6.737   3.485
  120DPPC   C31 5981   2.618   6.692   3.568
  120DPPC   C32 5982   4.143   6.569   2.361
  120DPPC   O33 5983   4.260   6.578   2.443
  120DPPC   C34 5984   4.321   6.458   2.458
  120DPPC   O35 5985   4.281   6.360   2.394
  120DPPC   C36 5986   4.441   6.429   2.550
  120DPPC   C37 5987   4.402   6.418   2.697
  120DPPC   C38 5988   4.518   6.390   2.792
  120DPPC   C39 5989   4.610   6.513   2.785
  120DPPC   C40 5990   4.734   6.509   2.874
  120DPPC   C41 5991   4.795   6.649   2.890
  120DPPC   C42 5992   4.825   6.715   2.756
  120DPPC   C43 5993   4.859   6.863   2.772
  120DPPC   C44 5994   4.867   6.929   2.634
  120DPPC   C45 5995   4.904   7.077   2.638
  120DPPC   C46 5996   4.827   7.162   2.740
  120DPPC   C47 5997   4.909   7.288   2.769
  120DPPC   C48 5998   4.832   7.384   2.860
  120DPPC   C49 5999   4.929   7.495   2.899
  120DPPC   C50 6000   4.863   7.597   2.992
  121DPPC    C1 6001   7.135   3.245   1.999
  121DPPC    C2 6002   7.185   3.060   2.130
  121DPPC    C3 6003   7.027   3.035   1.944
  121DPPC    N4 6004   7.150   3.099   1.993
  121DPPC    C5 6005   7.259   3.051   1.907
  121DPPC    C6 6006   7.292   3.123   1.776
  121DPPC    O7 6007   7.420   3.074   1.735
  121DPPC    P8 6008   7.462   3.120   1.587
  121DPPC    O9 6009   7.349   3.171   1.507
  121DPPC   O10 6010   7.557   3.023   1.527
  121DPPC   O11 6011   7.558   3.243   1.631
  121DPPC   C12 6012   7.672   3.197   1.704
  121DPPC   C13 6013   7.711   3.277   1.829
  121DPPC   O14 6014   7.834   3.236   1.891
  121DPPC   C15 6015   7.935   3.327   1.893
  121DPPC   O16 6016   7.940   3.416   1.807
  121DPPC   C17 6017   8.055   3.304   1.984
  121DPPC   C18 6018   8.051   3.398   2.106
  121DPPC   C19 6019   7.946   3.348   2.205
  121DPPC   C20 6020   7.965   3.424   2.337
  121DPPC   C21 6021   7.917   3.347   2.461
  121DPPC   C22 6022   7.950   3.436   2.582
  121DPPC   C23 6023   7.871   3.396   2.707
  121DPPC   C24 6024   7.723   3.426   2.684
  121DPPC   C25 6025   7.641   3.377   2.803
  121DPPC   C26 6026   7.693   3.430   2.937
  121DPPC   C27 6027   7.646   3.572   2.967
  121DPPC   C28 6028   7.723   3.624   3.089
  121DPPC   C29 6029   7.865   3.643   3.036
  121DPPC   C30 6030   7.958   3.687   3.149
  121DPPC   C31 6031   7.963   3.587   3.265
  121DPPC   C32 6032   7.601   3.263   1.935
  121DPPC   O33 6033   7.598   3.375   2.023
  121DPPC   C34 6034   7.515   3.353   2.128
  121DPPC   O35 6035   7.408   3.292   2.115
  121DPPC   C36 6036   7.552   3.418   2.262
  121DPPC   C37 6037   7.566   3.568   2.240
  121DPPC   C38 6038   7.643   3.637   2.353
  121DPPC   C39 6039   7.673   3.786   2.337
  121DPPC   C40 6040   7.756   3.820   2.461
  121DPPC   C41 6041   7.801   3.966   2.449
  121DPPC   C42 6042   7.870   4.003   2.581
  121DPPC   C43 6043   7.774   3.988   2.700
  121DPPC   C44 6044   7.837   4.055   2.822
  121DPPC   C45 6045   7.742   4.069   2.942
  121DPPC   C46 6046   7.827   4.130   3.054
  121DPPC   C47 6047   7.753   4.147   3.187
  121DPPC   C48 6048   7.853   4.176   3.299
  121DPPC   C49 6049   7.786   4.185   3.436
  121DPPC   C50 6050   7.896   4.239   3.528
  122DPPC    C1 6051   6.801   6.586   1.388
  122DPPC    C2 6052   7.034   6.600   1.341
  122DPPC    C3 6053   6.880   6.746   1.244
  122DPPC    N4 6054   6.913   6.679   1.370
  122DPPC    C5 6055   6.917   6.765   1.490
  122DPPC    C6 6056   7.038   6.854   1.517
  122DPPC    O7 6057   7.051   6.968   1.432
  122DPPC    P8 6058   7.211   6.987   1.438
  122DPPC    O9 6059   7.232   7.113   1.363
  122DPPC   O10 6060   7.262   6.853   1.405
  122DPPC   O11 6061   7.230   7.032   1.592
  122DPPC   C12 6062   7.171   7.155   1.636
  122DPPC   C13 6063   7.222   7.196   1.775
  122DPPC   O14 6064   7.360   7.224   1.798
  122DPPC   C15 6065   7.412   7.344   1.761
  122DPPC   O16 6066   7.347   7.426   1.695
  122DPPC   C17 6067   7.539   7.385   1.835
  122DPPC   C18 6068   7.524   7.376   1.987
  122DPPC   C19 6069   7.660   7.425   2.038
  122DPPC   C20 6070   7.653   7.431   2.190
  122DPPC   C21 6071   7.795   7.431   2.249
  122DPPC   C22 6072   7.862   7.294   2.254
  122DPPC   C23 6073   7.999   7.308   2.321
  122DPPC   C24 6074   8.022   7.167   2.376
  122DPPC   C25 6075   8.140   7.154   2.472
  122DPPC   C26 6076   8.141   7.006   2.513
  122DPPC   C27 6077   8.236   6.991   2.632
  122DPPC   C28 6078   8.202   7.097   2.736
  122DPPC   C29 6079   8.275   7.074   2.869
  122DPPC   C30 6080   8.264   7.200   2.954
  122DPPC   C31 6081   8.310   7.181   3.099
  122DPPC   C32 6082   7.182   7.072   1.855
  122DPPC   O33 6083   7.039   7.071   1.862
  122DPPC   C34 6084   6.981   6.973   1.936
  122DPPC   O35 6085   7.035   6.863   1.938
  122DPPC   C36 6086   6.831   6.990   1.963
  122DPPC   C37 6087   6.803   6.964   2.111
  122DPPC   C38 6088   6.786   6.814   2.132
  122DPPC   C39 6089   6.756   6.793   2.281
  122DPPC   C40 6090   6.877   6.826   2.369
  122DPPC   C41 6091   6.838   6.801   2.514
  122DPPC   C42 6092   6.949   6.821   2.618
  122DPPC   C43 6093   7.003   6.963   2.628
  122DPPC   C44 6094   7.139   6.975   2.698
  122DPPC   C45 6095   7.124   6.913   2.838
  122DPPC   C46 6096   7.254   6.925   2.917
  122DPPC   C47 6097   7.280   6.805   3.009
  122DPPC   C48 6098   7.405   6.817   3.098
  122DPPC   C49 6099   7.525   6.767   3.018
  122DPPC   C50 6100   7.649   6.811   3.097
  123DPPC    C1 6101   8.025   8.122   1.626
  123DPPC    C2 6102   7.841   8.227   1.542
  123DPPC    C3 6103   7.956   8.118   1.396
  123DPPC    N4 6104   7.912   8.098   1.535
  123DPPC    C5 6105   7.832   7.977   1.558
  123DPPC    C6 6106   7.902   7.843   1.536
  123DPPC    O7 6107   7.812   7.734   1.515
  123DPPC    P8 6108   7.900   7.618   1.445
  123DPPC    O9 6109   7.962   7.705   1.342
  123DPPC   O10 6110   7.801   7.511   1.420
  123DPPC   O11 6111   7.989   7.590   1.577
  123DPPC   C12 6112   7.938   7.464   1.624
  123DPPC   C13 6113   8.020   7.424   1.747
  123DPPC   O14 6114   7.960   7.304   1.797
  123DPPC   C15 6115   8.023   7.188   1.764
  123DPPC   O16 6116   8.094   7.181   1.665
  123DPPC   C17 6117   7.952   7.060   1.810
  123DPPC   C18 6118   8.050   6.963   1.875
  123DPPC   C19 6119   7.980   6.840   1.934
  123DPPC   C20 6120   8.083   6.767   2.020
  123DPPC   C21 6121   8.076   6.802   2.169
  123DPPC   C22 6122   7.984   6.720   2.260
  123DPPC   C23 6123   7.998   6.569   2.239
  123DPPC   C24 6124   7.881   6.514   2.322
  123DPPC   C25 6125   7.860   6.363   2.311
  123DPPC   C26 6126   7.743   6.316   2.399
  123DPPC   C27 6127   7.699   6.173   2.368
  123DPPC   C28 6128   7.605   6.111   2.471
  123DPPC   C29 6129   7.691   6.108   2.597
  123DPPC   C30 6130   7.638   6.024   2.714
  123DPPC   C31 6131   7.715   6.042   2.845
  123DPPC   C32 6132   8.003   7.543   1.841
  123DPPC   O33 6133   8.126   7.587   1.900
  123DPPC   C34 6134   8.102   7.687   1.989
  123DPPC   O35 6135   8.010   7.688   2.070
  123DPPC   C36 6136   8.234   7.765   2.001
  123DPPC   C37 6137   8.272   7.797   2.145
  123DPPC   C38 6138   8.307   7.673   2.228
  123DPPC   C39 6139   8.317   7.698   2.378
  123DPPC   C40 6140   8.353   7.573   2.458
  123DPPC   C41 6141   8.327   7.591   2.608
  123DPPC   C42 6142   8.191   7.537   2.651
  123DPPC   C43 6143   8.192   7.577   2.798
  123DPPC   C44 6144   8.052   7.557   2.856
  123DPPC   C45 6145   8.053   7.589   3.006
  123DPPC   C46 6146   8.109   7.731   3.012
  123DPPC   C47 6147   8.128   7.751   3.162
  123DPPC   C48 6148   8.194   7.626   3.222
  123DPPC   C49 6149   8.243   7.651   3.365
  123DPPC   C50 6150   8.133   7.667   3.471
  124DPPC    C1 6151   6.262   3.401   1.902
  124DPPC    C2 6152   6.238   3.241   2.066
  124DPPC    C3 6153   6.059   3.279   1.907
  124DPPC    N4 6154   6.204   3.268   1.926
  124DPPC    C5 6155   6.253   3.167   1.831
  124DPPC    C6 6156   6.402   3.167   1.797
  124DPPC    O7 6157   6.497   3.171   1.904
  124DPPC    P8 6158   6.645   3.169   1.841
  124DPPC    O9 6159   6.632   3.235   1.709
  124DPPC   O10 6160   6.729   3.047   1.851
  124DPPC   O11 6161   6.705   3.266   1.954
  124DPPC   C12 6162   6.719   3.204   2.082
  124DPPC   C13 6163   6.755   3.301   2.194
  124DPPC   O14 6164   6.750   3.237   2.323
  124DPPC   C15 6165   6.856   3.158   2.354
  124DPPC   O16 6166   6.945   3.145   2.271
  124DPPC   C17 6167   6.870   3.092   2.492
  124DPPC   C18 6168   7.012   3.097   2.549
  124DPPC   C19 6169   7.013   3.062   2.698
  124DPPC   C20 6170   6.923   3.148   2.787
  124DPPC   C21 6171   6.933   3.103   2.933
  124DPPC   C22 6172   6.853   3.186   3.033
  124DPPC   C23 6173   6.851   3.135   3.177
  124DPPC   C24 6174   6.725   3.197   3.237
  124DPPC   C25 6175   6.604   3.173   3.147
  124DPPC   C26 6176   6.474   3.210   3.218
  124DPPC   C27 6177   6.466   3.362   3.218
  124DPPC   C28 6178   6.349   3.395   3.310
  124DPPC   C29 6179   6.349   3.528   3.387
  124DPPC   C30 6180   6.237   3.526   3.491
  124DPPC   C31 6181   6.282   3.485   3.632
  124DPPC   C32 6182   6.668   3.426   2.185
  124DPPC   O33 6183   6.525   3.430   2.195
  124DPPC   C34 6184   6.486   3.560   2.184
  124DPPC   O35 6185   6.535   3.627   2.094
  124DPPC   C36 6186   6.380   3.609   2.283
  124DPPC   C37 6187   6.371   3.524   2.410
  124DPPC   C38 6188   6.256   3.572   2.499
  124DPPC   C39 6189   6.238   3.477   2.617
  124DPPC   C40 6190   6.100   3.491   2.682
  124DPPC   C41 6191   6.088   3.438   2.825
  124DPPC   C42 6192   5.940   3.422   2.862
  124DPPC   C43 6193   5.913   3.398   3.011
  124DPPC   C44 6194   5.879   3.250   3.028
  124DPPC   C45 6195   5.862   3.232   3.179
  124DPPC   C46 6196   5.875   3.082   3.204
  124DPPC   C47 6197   5.843   3.052   3.350
  124DPPC   C48 6198   5.851   2.901   3.377
  124DPPC   C49 6199   5.758   2.858   3.490
  124DPPC   C50 6200   5.782   2.709   3.515
  125DPPC    C1 6201   2.319   0.077   1.295
  125DPPC    C2 6202   2.191   0.192   1.463
  125DPPC    C3 6203   2.092   0.104   1.275
  125DPPC    N4 6204   2.196   0.075   1.374
  125DPPC    C5 6205   2.179  -0.045   1.459
  125DPPC    C6 6206   2.183  -0.180   1.387
  125DPPC    O7 6207   2.058  -0.215   1.326
  125DPPC    P8 6208   2.079  -0.339   1.227
  125DPPC    O9 6209   2.210  -0.315   1.162
  125DPPC   O10 6210   1.953  -0.352   1.150
  125DPPC   O11 6211   2.081  -0.441   1.352
  125DPPC   C12 6212   1.945  -0.482   1.371
  125DPPC   C13 6213   1.918  -0.544   1.508
  125DPPC   O14 6214   1.841  -0.463   1.597
  125DPPC   C15 6215   1.709  -0.454   1.564
  125DPPC   O16 6216   1.645  -0.537   1.499
  125DPPC   C17 6217   1.643  -0.347   1.651
  125DPPC   C18 6218   1.578  -0.416   1.771
  125DPPC   C19 6219   1.499  -0.310   1.847
  125DPPC   C20 6220   1.578  -0.222   1.944
  125DPPC   C21 6221   1.488  -0.112   2.001
  125DPPC   C22 6222   1.565  -0.043   2.114
  125DPPC   C23 6223   1.462   0.042   2.190
  125DPPC   C24 6224   1.344  -0.052   2.212
  125DPPC   C25 6225   1.230   0.014   2.291
  125DPPC   C26 6226   1.271   0.068   2.428
  125DPPC   C27 6227   1.163   0.155   2.491
  125DPPC   C28 6228   1.052   0.060   2.537
  125DPPC   C29 6229   0.925   0.141   2.561
  125DPPC   C30 6230   0.808   0.060   2.618
  125DPPC   C31 6231   0.688   0.154   2.632
  125DPPC   C32 6232   2.055  -0.574   1.570
  125DPPC   O33 6233   2.059  -0.648   1.692
  125DPPC   C34 6234   2.183  -0.669   1.746
  125DPPC   O35 6235   2.281  -0.674   1.672
  125DPPC   C36 6236   2.179  -0.722   1.889
  125DPPC   C37 6237   2.090  -0.636   1.979
  125DPPC   C38 6238   2.159  -0.506   2.021
  125DPPC   C39 6239   2.299  -0.541   2.073
  125DPPC   C40 6240   2.377  -0.411   2.097
  125DPPC   C41 6241   2.305  -0.308   2.183
  125DPPC   C42 6242   2.404  -0.206   2.240
  125DPPC   C43 6243   2.314  -0.111   2.320
  125DPPC   C44 6244   2.400   0.005   2.370
  125DPPC   C45 6245   2.467   0.084   2.258
  125DPPC   C46 6246   2.524   0.214   2.314
  125DPPC   C47 6247   2.404   0.274   2.388
  125DPPC   C48 6248   2.436   0.411   2.447
  125DPPC   C49 6249   2.324   0.445   2.545
  125DPPC   C50 6250   2.376   0.555   2.638
  126DPPC    C1 6251   6.476   3.815   1.539
  126DPPC    C2 6252   6.442   3.974   1.379
  126DPPC    C3 6253   6.499   3.759   1.296
  126DPPC    N4 6254   6.425   3.829   1.402
  126DPPC    C5 6255   6.282   3.801   1.386
  126DPPC    C6 6256   6.226   3.669   1.441
  126DPPC    O7 6257   6.088   3.639   1.423
  126DPPC    P8 6258   6.019   3.505   1.479
  126DPPC    O9 6259   6.126   3.433   1.552
  126DPPC   O10 6260   5.952   3.463   1.354
  126DPPC   O11 6261   5.923   3.578   1.585
  126DPPC   C12 6262   5.975   3.628   1.709
  126DPPC   C13 6263   6.027   3.771   1.701
  126DPPC   O14 6264   6.084   3.817   1.825
  126DPPC   C15 6265   6.212   3.785   1.857
  126DPPC   O16 6266   6.279   3.702   1.795
  126DPPC   C17 6267   6.261   3.862   1.979
  126DPPC   C18 6268   6.140   3.910   2.060
  126DPPC   C19 6269   6.181   3.936   2.205
  126DPPC   C20 6270   6.077   4.007   2.292
  126DPPC   C21 6271   6.116   4.019   2.439
  126DPPC   C22 6272   6.010   4.095   2.519
  126DPPC   C23 6273   6.005   4.243   2.481
  126DPPC   C24 6274   5.914   4.311   2.583
  126DPPC   C25 6275   5.977   4.305   2.723
  126DPPC   C26 6276   5.906   4.398   2.822
  126DPPC   C27 6277   5.980   4.416   2.954
  126DPPC   C28 6278   6.113   4.493   2.953
  126DPPC   C29 6279   6.186   4.467   3.085
  126DPPC   C30 6280   6.199   4.316   3.105
  126DPPC   C31 6281   6.239   4.278   3.248
  126DPPC   C32 6282   5.907   3.850   1.648
  126DPPC   O33 6283   5.797   3.849   1.738
  126DPPC   C34 6284   5.698   3.935   1.701
  126DPPC   O35 6285   5.686   3.974   1.585
  126DPPC   C36 6286   5.587   3.939   1.806
  126DPPC   C37 6287   5.621   4.019   1.932
  126DPPC   C38 6288   5.517   4.028   2.043
  126DPPC   C39 6289   5.587   4.060   2.175
  126DPPC   C40 6290   5.482   4.112   2.273
  126DPPC   C41 6291   5.557   4.135   2.404
  126DPPC   C42 6292   5.468   4.183   2.518
  126DPPC   C43 6293   5.551   4.191   2.647
  126DPPC   C44 6294   5.456   4.245   2.753
  126DPPC   C45 6295   5.516   4.218   2.891
  126DPPC   C46 6296   5.416   4.250   3.003
  126DPPC   C47 6297   5.479   4.232   3.141
  126DPPC   C48 6298   5.373   4.229   3.251
  126DPPC   C49 6299   5.439   4.215   3.388
  126DPPC   C50 6300   5.338   4.186   3.499
  127DPPC    C1 6301   2.131   6.235   1.085
  127DPPC    C2 6302   2.308   6.318   1.217
  127DPPC    C3 6303   2.309   6.304   0.969
  127DPPC    N4 6304   2.235   6.339   1.091
  127DPPC    C5 6305   2.153   6.460   1.085
  127DPPC    C6 6306   2.230   6.590   1.111
  127DPPC    O7 6307   2.133   6.687   1.149
  127DPPC    P8 6308   2.204   6.824   1.196
  127DPPC    O9 6309   2.184   6.914   1.080
  127DPPC   O10 6310   2.340   6.800   1.250
  127DPPC   O11 6311   2.106   6.882   1.310
  127DPPC   C12 6312   2.120   6.810   1.433
  127DPPC   C13 6313   2.073   6.880   1.561
  127DPPC   O14 6314   2.097   6.807   1.682
  127DPPC   C15 6315   2.218   6.790   1.741
  127DPPC   O16 6316   2.316   6.823   1.675
  127DPPC   C17 6317   2.230   6.763   1.892
  127DPPC   C18 6318   2.369   6.708   1.926
  127DPPC   C19 6319   2.382   6.682   2.076
  127DPPC   C20 6320   2.524   6.634   2.107
  127DPPC   C21 6321   2.533   6.618   2.259
  127DPPC   C22 6322   2.528   6.752   2.331
  127DPPC   C23 6323   2.535   6.733   2.483
  127DPPC   C24 6324   2.661   6.669   2.541
  127DPPC   C25 6325   2.655   6.681   2.693
  127DPPC   C26 6326   2.787   6.616   2.735
  127DPPC   C27 6327   2.785   6.590   2.885
  127DPPC   C28 6328   2.679   6.485   2.920
  127DPPC   C29 6329   2.703   6.435   3.062
  127DPPC   C30 6330   2.590   6.334   3.084
  127DPPC   C31 6331   2.598   6.275   3.225
  127DPPC   C32 6332   1.925   6.903   1.529
  127DPPC   O33 6333   1.845   7.002   1.593
  127DPPC   C34 6334   1.754   7.061   1.511
  127DPPC   O35 6335   1.756   7.035   1.390
  127DPPC   C36 6336   1.657   7.161   1.573
  127DPPC   C37 6337   1.610   7.103   1.707
  127DPPC   C38 6338   1.478   7.172   1.744
  127DPPC   C39 6339   1.431   7.137   1.885
  127DPPC   C40 6340   1.300   7.207   1.922
  127DPPC   C41 6341   1.224   7.147   2.040
  127DPPC   C42 6342   1.315   7.164   2.162
  127DPPC   C43 6343   1.251   7.104   2.288
  127DPPC   C44 6344   1.340   7.153   2.403
  127DPPC   C45 6345   1.488   7.118   2.390
  127DPPC   C46 6346   1.547   7.168   2.522
  127DPPC   C47 6347   1.690   7.113   2.524
  127DPPC   C48 6348   1.738   7.120   2.669
  127DPPC   C49 6349   1.731   7.265   2.717
  127DPPC   C50 6350   1.807   7.283   2.848
  128DPPC    C1 6351   1.953   4.051   1.245
  128DPPC    C2 6352   1.748   3.934   1.229
  128DPPC    C3 6353   1.938   3.848   1.114
  128DPPC    N4 6354   1.894   3.917   1.236
  128DPPC    C5 6355   1.927   3.841   1.357
  128DPPC    C6 6356   2.070   3.789   1.372
  128DPPC    O7 6357   2.129   3.829   1.496
  128DPPC    P8 6358   2.287   3.854   1.475
  128DPPC    O9 6359   2.297   4.002   1.482
  128DPPC   O10 6360   2.348   3.772   1.367
  128DPPC   O11 6361   2.337   3.781   1.609
  128DPPC   C12 6362   2.371   3.644   1.590
  128DPPC   C13 6363   2.379   3.561   1.718
  128DPPC   O14 6364   2.285   3.453   1.724
  128DPPC   C15 6365   2.340   3.339   1.772
  128DPPC   O16 6366   2.451   3.308   1.727
  128DPPC   C17 6367   2.245   3.231   1.825
  128DPPC   C18 6368   2.294   3.188   1.963
  128DPPC   C19 6369   2.287   3.300   2.067
  128DPPC   C20 6370   2.281   3.254   2.213
  128DPPC   C21 6371   2.241   3.364   2.312
  128DPPC   C22 6372   2.269   3.322   2.457
  128DPPC   C23 6373   2.255   3.444   2.548
  128DPPC   C24 6374   2.253   3.402   2.695
  128DPPC   C25 6375   2.214   3.527   2.775
  128DPPC   C26 6376   2.329   3.622   2.809
  128DPPC   C27 6377   2.278   3.693   2.934
  128DPPC   C28 6378   2.398   3.756   3.005
  128DPPC   C29 6379   2.498   3.646   3.038
  128DPPC   C30 6380   2.602   3.704   3.134
  128DPPC   C31 6381   2.538   3.749   3.266
  128DPPC   C32 6382   2.364   3.653   1.839
  128DPPC   O33 6383   2.432   3.604   1.955
  128DPPC   C34 6384   2.468   3.706   2.038
  128DPPC   O35 6385   2.454   3.826   2.014
  128DPPC   C36 6386   2.504   3.661   2.180
  128DPPC   C37 6387   2.560   3.771   2.270
  128DPPC   C38 6388   2.577   3.706   2.407
  128DPPC   C39 6389   2.622   3.811   2.508
  128DPPC   C40 6390   2.697   3.741   2.621
  128DPPC   C41 6391   2.763   3.834   2.723
  128DPPC   C42 6392   2.868   3.754   2.800
  128DPPC   C43 6393   2.943   3.858   2.884
  128DPPC   C44 6394   2.966   3.781   3.014
  128DPPC   C45 6395   3.040   3.870   3.115
  128DPPC   C46 6396   3.169   3.924   3.054
  128DPPC   C47 6397   3.249   3.992   3.166
  128DPPC   C48 6398   3.375   4.042   3.095
  128DPPC   C49 6399   3.468   4.112   3.194
  128DPPC   C50 6400   3.589   4.170   3.120
  129DPPC    C1 6401   2.681   2.221   5.435
  129DPPC    C2 6402   2.593   2.195   5.662
  129DPPC    C3 6403   2.632   2.406   5.562
  129DPPC    N4 6404   2.586   2.269   5.535
  129DPPC    C5 6405   2.445   2.266   5.492
  129DPPC    C6 6406   2.388   2.145   5.418
  129DPPC    O7 6407   2.285   2.176   5.324
  129DPPC    P8 6408   2.193   2.047   5.296
  129DPPC    O9 6409   2.099   2.116   5.205
  129DPPC   O10 6410   2.146   2.005   5.429
  129DPPC   O11 6411   2.295   1.941   5.231
  129DPPC   C12 6412   2.331   2.001   5.106
  129DPPC   C13 6413   2.478   1.970   5.078
  129DPPC   O14 6414   2.531   2.052   4.973
  129DPPC   C15 6415   2.587   2.172   5.003
  129DPPC   O16 6416   2.544   2.227   5.104
  129DPPC   C17 6417   2.658   2.258   4.898
  129DPPC   C18 6418   2.585   2.388   4.867
  129DPPC   C19 6419   2.613   2.441   4.726
  129DPPC   C20 6420   2.569   2.328   4.632
  129DPPC   C21 6421   2.597   2.368   4.487
  129DPPC   C22 6422   2.527   2.265   4.398
  129DPPC   C23 6423   2.483   2.333   4.268
  129DPPC   C24 6424   2.444   2.229   4.164
  129DPPC   C25 6425   2.418   2.288   4.025
  129DPPC   C26 6426   2.427   2.181   3.916
  129DPPC   C27 6427   2.430   2.246   3.778
  129DPPC   C28 6428   2.452   2.133   3.677
  129DPPC   C29 6429   2.471   2.193   3.537
  129DPPC   C30 6430   2.450   2.084   3.433
  129DPPC   C31 6431   2.492   2.143   3.298
  129DPPC   C32 6432   2.490   1.820   5.053
  129DPPC   O33 6433   2.379   1.774   4.976
  129DPPC   C34 6434   2.388   1.640   4.951
  129DPPC   O35 6435   2.485   1.581   4.998
  129DPPC   C36 6436   2.282   1.572   4.866
  129DPPC   C37 6437   2.325   1.434   4.815
  129DPPC   C38 6438   2.448   1.457   4.726
  129DPPC   C39 6439   2.487   1.317   4.677
  129DPPC   C40 6440   2.388   1.256   4.578
  129DPPC   C41 6441   2.470   1.146   4.510
  129DPPC   C42 6442   2.400   1.093   4.384
  129DPPC   C43 6443   2.474   0.966   4.341
  129DPPC   C44 6444   2.389   0.888   4.241
  129DPPC   C45 6445   2.477   0.786   4.168
  129DPPC   C46 6446   2.401   0.720   4.052
  129DPPC   C47 6447   2.495   0.624   3.979
  129DPPC   C48 6448   2.436   0.597   3.840
  129DPPC   C49 6449   2.531   0.514   3.754
  129DPPC   C50 6450   2.474   0.448   3.628
  130DPPC    C1 6451   0.571   7.729   1.053
  130DPPC    C2 6452   0.748   7.892   1.051
  130DPPC    C3 6453   0.519   7.956   1.070
  130DPPC    N4 6454   0.619   7.856   1.110
  130DPPC    C5 6455   0.603   7.852   1.256
  130DPPC    C6 6456   0.677   7.743   1.333
  130DPPC    O7 6457   0.587   7.651   1.395
  130DPPC    P8 6458   0.658   7.587   1.524
  130DPPC    O9 6459   0.789   7.652   1.541
  130DPPC   O10 6460   0.639   7.440   1.523
  130DPPC   O11 6461   0.552   7.651   1.627
  130DPPC   C12 6462   0.619   7.756   1.699
  130DPPC   C13 6463   0.533   7.820   1.808
  130DPPC   O14 6464   0.622   7.857   1.914
  130DPPC   C15 6465   0.711   7.960   1.911
  130DPPC   O16 6466   0.697   8.042   1.820
  130DPPC   C17 6467   0.797   7.974   2.037
  130DPPC   C18 6468   0.744   8.073   2.141
  130DPPC   C19 6469   0.756   8.007   2.278
  130DPPC   C20 6470   0.897   7.950   2.298
  130DPPC   C21 6471   0.987   8.072   2.323
  130DPPC   C22 6472   1.135   8.031   2.323
  130DPPC   C23 6473   1.201   8.136   2.412
  130DPPC   C24 6474   1.215   8.093   2.558
  130DPPC   C25 6475   1.332   7.995   2.572
  130DPPC   C26 6476   1.345   7.948   2.717
  130DPPC   C27 6477   1.388   8.052   2.821
  130DPPC   C28 6478   1.396   8.014   2.969
  130DPPC   C29 6479   1.502   7.903   2.968
  130DPPC   C30 6480   1.515   7.843   3.108
  130DPPC   C31 6481   1.384   7.836   3.186
  130DPPC   C32 6482   0.431   7.713   1.848
  130DPPC   O33 6483   0.315   7.768   1.911
  130DPPC   C34 6484   0.242   7.668   1.968
  130DPPC   O35 6485   0.262   7.549   1.945
  130DPPC   C36 6486   0.112   7.714   2.034
  130DPPC   C37 6487   0.058   7.609   2.132
  130DPPC   C38 6488  -0.087   7.625   2.177
  130DPPC   C39 6489  -0.120   7.762   2.237
  130DPPC   C40 6490  -0.251   7.779   2.314
  130DPPC   C41 6491  -0.262   7.929   2.337
  130DPPC   C42 6492  -0.407   7.963   2.373
  130DPPC   C43 6493  -0.431   8.110   2.408
  130DPPC   C44 6494  -0.547   8.141   2.502
  130DPPC   C45 6495  -0.568   8.291   2.524
  130DPPC   C46 6496  -0.681   8.332   2.618
  130DPPC   C47 6497  -0.642   8.281   2.757
  130DPPC   C48 6498  -0.765   8.281   2.849
  130DPPC   C49 6499  -0.818   8.425   2.857
  130DPPC   C50 6500  -0.964   8.426   2.904
  131DPPC    C1 6501   1.314   4.048   5.363
  131DPPC    C2 6502   1.339   3.873   5.193
  131DPPC    C3 6503   1.200   4.062   5.162
  131DPPC    N4 6504   1.328   4.017   5.220
  131DPPC    C5 6505   1.428   4.097   5.148
  131DPPC    C6 6506   1.441   4.247   5.177
  131DPPC    O7 6507   1.362   4.327   5.088
  131DPPC    P8 6508   1.381   4.479   5.137
  131DPPC    O9 6509   1.440   4.485   5.273
  131DPPC   O10 6510   1.259   4.556   5.105
  131DPPC   O11 6511   1.494   4.516   5.029
  131DPPC   C12 6512   1.435   4.502   4.900
  131DPPC   C13 6513   1.539   4.498   4.788
  131DPPC   O14 6514   1.474   4.513   4.662
  131DPPC   C15 6515   1.531   4.610   4.584
  131DPPC   O16 6516   1.630   4.674   4.618
  131DPPC   C17 6517   1.483   4.602   4.439
  131DPPC   C18 6518   1.587   4.517   4.365
  131DPPC   C19 6519   1.531   4.486   4.226
  131DPPC   C20 6520   1.649   4.471   4.130
  131DPPC   C21 6521   1.609   4.424   3.990
  131DPPC   C22 6522   1.732   4.447   3.902
  131DPPC   C23 6523   1.710   4.391   3.761
  131DPPC   C24 6524   1.826   4.421   3.666
  131DPPC   C25 6525   1.962   4.374   3.717
  131DPPC   C26 6526   2.069   4.398   3.609
  131DPPC   C27 6527   2.209   4.365   3.662
  131DPPC   C28 6528   2.312   4.369   3.549
  131DPPC   C29 6529   2.455   4.374   3.604
  131DPPC   C30 6530   2.527   4.503   3.564
  131DPPC   C31 6531   2.675   4.504   3.602
  131DPPC   C32 6532   1.621   4.371   4.810
  131DPPC   O33 6533   1.695   4.310   4.704
  131DPPC   C34 6534   1.760   4.191   4.702
  131DPPC   O35 6535   1.729   4.114   4.793
  131DPPC   C36 6536   1.842   4.137   4.585
  131DPPC   C37 6537   1.758   4.143   4.457
  131DPPC   C38 6538   1.831   4.080   4.339
  131DPPC   C39 6539   1.738   4.088   4.217
  131DPPC   C40 6540   1.595   4.033   4.220
  131DPPC   C41 6541   1.554   4.035   4.072
  131DPPC   C42 6542   1.401   4.028   4.069
  131DPPC   C43 6543   1.357   4.022   3.922
  131DPPC   C44 6544   1.413   3.900   3.849
  131DPPC   C45 6545   1.347   3.887   3.712
  131DPPC   C46 6546   1.399   3.983   3.604
  131DPPC   C47 6547   1.398   3.919   3.465
  131DPPC   C48 6548   1.420   4.021   3.353
  131DPPC   C49 6549   1.419   3.955   3.215
  131DPPC   C50 6550   1.523   3.848   3.183
  132DPPC    C1 6551   9.124   6.443   0.937
  132DPPC    C2 6552   9.325   6.553   1.040
  132DPPC    C3 6553   9.182   6.666   0.898
  132DPPC    N4 6554   9.183   6.561   1.001
  132DPPC    C5 6555   9.102   6.597   1.119
  132DPPC    C6 6556   8.950   6.609   1.117
  132DPPC    O7 6557   8.901   6.641   1.248
  132DPPC    P8 6558   8.744   6.615   1.268
  132DPPC    O9 6559   8.725   6.471   1.238
  132DPPC   O10 6560   8.688   6.720   1.181
  132DPPC   O11 6561   8.733   6.631   1.428
  132DPPC   C12 6562   8.846   6.583   1.500
  132DPPC   C13 6563   8.839   6.612   1.650
  132DPPC   O14 6564   8.955   6.569   1.724
  132DPPC   C15 6565   9.068   6.644   1.723
  132DPPC   O16 6566   9.091   6.715   1.625
  132DPPC   C17 6567   9.169   6.632   1.837
  132DPPC   C18 6568   9.141   6.715   1.963
  132DPPC   C19 6569   9.250   6.701   2.070
  132DPPC   C20 6570   9.193   6.755   2.201
  132DPPC   C21 6571   9.262   6.722   2.334
  132DPPC   C22 6572   9.410   6.759   2.340
  132DPPC   C23 6573   9.434   6.791   2.488
  132DPPC   C24 6574   9.571   6.738   2.530
  132DPPC   C25 6575   9.608   6.777   2.674
  132DPPC   C26 6576   9.758   6.747   2.671
  132DPPC   C27 6577   9.799   6.752   2.819
  132DPPC   C28 6578   9.951   6.749   2.839
  132DPPC   C29 6579   9.973   6.701   2.983
  132DPPC   C30 6580   9.962   6.548   2.981
  132DPPC   C31 6581   9.978   6.489   3.121
  132DPPC   C32 6582   8.709   6.549   1.702
  132DPPC   O33 6583   8.690   6.546   1.843
  132DPPC   C34 6584   8.574   6.495   1.895
  132DPPC   O35 6585   8.483   6.469   1.816
  132DPPC   C36 6586   8.562   6.491   2.047
  132DPPC   C37 6587   8.487   6.608   2.112
  132DPPC   C38 6588   8.430   6.570   2.249
  132DPPC   C39 6589   8.386   6.692   2.329
  132DPPC   C40 6590   8.385   6.663   2.479
  132DPPC   C41 6591   8.287   6.549   2.511
  132DPPC   C42 6592   8.296   6.515   2.660
  132DPPC   C43 6593   8.274   6.644   2.740
  132DPPC   C44 6594   8.244   6.600   2.883
  132DPPC   C45 6595   8.186   6.719   2.959
  132DPPC   C46 6596   8.174   6.680   3.107
  132DPPC   C47 6597   8.102   6.797   3.175
  132DPPC   C48 6598   8.094   6.789   3.327
  132DPPC   C49 6599   7.994   6.680   3.365
  132DPPC   C50 6600   8.005   6.657   3.516
  133DPPC    C1 6601   7.187   0.334   5.255
  133DPPC    C2 6602   7.165   0.536   5.346
  133DPPC    C3 6603   7.287   0.349   5.466
  133DPPC    N4 6604   7.262   0.426   5.343
  133DPPC    C5 6605   7.391   0.461   5.281
  133DPPC    C6 6606   7.492   0.561   5.336
  133DPPC    O7 6607   7.612   0.564   5.258
  133DPPC    P8 6608   7.723   0.664   5.317
  133DPPC    O9 6609   7.848   0.665   5.239
  133DPPC   O10 6610   7.705   0.656   5.464
  133DPPC   O11 6611   7.647   0.798   5.269
  133DPPC   C12 6612   7.672   0.820   5.130
  133DPPC   C13 6613   7.583   0.922   5.059
  133DPPC   O14 6614   7.637   1.055   5.045
  133DPPC   C15 6615   7.727   1.071   4.945
  133DPPC   O16 6616   7.762   0.967   4.888
  133DPPC   C17 6617   7.811   1.198   4.934
  133DPPC   C18 6618   7.748   1.322   4.870
  133DPPC   C19 6619   7.756   1.319   4.717
  133DPPC   C20 6620   7.704   1.452   4.662
  133DPPC   C21 6621   7.779   1.575   4.714
  133DPPC   C22 6622   7.698   1.701   4.681
  133DPPC   C23 6623   7.787   1.825   4.695
  133DPPC   C24 6624   7.689   1.944   4.700
  133DPPC   C25 6625   7.611   1.949   4.569
  133DPPC   C26 6626   7.496   2.049   4.562
  133DPPC   C27 6627   7.423   2.033   4.428
  133DPPC   C28 6628   7.312   2.139   4.430
  133DPPC   C29 6629   7.227   2.121   4.304
  133DPPC   C30 6630   7.095   2.198   4.307
  133DPPC   C31 6631   7.007   2.165   4.186
  133DPPC   C32 6632   7.458   0.932   5.147
  133DPPC   O33 6633   7.330   0.925   5.085
  133DPPC   C34 6634   7.283   0.800   5.058
  133DPPC   O35 6635   7.325   0.695   5.108
  133DPPC   C36 6636   7.145   0.798   4.992
  133DPPC   C37 6637   7.162   0.779   4.841
  133DPPC   C38 6638   7.023   0.809   4.785
  133DPPC   C39 6639   7.042   0.831   4.635
  133DPPC   C40 6640   7.098   0.706   4.566
  133DPPC   C41 6641   7.091   0.728   4.415
  133DPPC   C42 6642   7.102   0.596   4.338
  133DPPC   C43 6643   7.078   0.626   4.191
  133DPPC   C44 6644   7.176   0.717   4.116
  133DPPC   C45 6645   7.154   0.713   3.965
  133DPPC   C46 6646   7.167   0.570   3.914
  133DPPC   C47 6647   7.140   0.564   3.763
  133DPPC   C48 6648   7.161   0.424   3.704
  133DPPC   C49 6649   7.155   0.425   3.552
  133DPPC   C50 6650   7.009   0.440   3.506
  134DPPC    C1 6651   0.161   7.795   5.096
  134DPPC    C2 6652   0.101   7.843   5.303
  134DPPC    C3 6653   0.337   7.827   5.253
  134DPPC    N4 6654   0.207   7.879   5.208
  134DPPC    C5 6655   0.207   8.024   5.188
  134DPPC    C6 6656   0.292   8.087   5.078
  134DPPC    O7 6657   0.264   8.054   4.942
  134DPPC    P8 6658   0.370   8.141   4.858
  134DPPC    O9 6659   0.492   8.058   4.871
  134DPPC   O10 6660   0.360   8.276   4.918
  134DPPC   O11 6661   0.319   8.133   4.706
  134DPPC   C12 6662   0.336   8.255   4.632
  134DPPC   C13 6663   0.369   8.235   4.484
  134DPPC   O14 6664   0.368   8.357   4.409
  134DPPC   C15 6665   0.464   8.453   4.411
  134DPPC   O16 6666   0.572   8.421   4.460
  134DPPC   C17 6667   0.447   8.583   4.334
  134DPPC   C18 6668   0.356   8.570   4.211
  134DPPC   C19 6669   0.383   8.686   4.115
  134DPPC   C20 6670   0.311   8.674   3.981
  134DPPC   C21 6671   0.384   8.752   3.872
  134DPPC   C22 6672   0.289   8.859   3.818
  134DPPC   C23 6673   0.343   8.954   3.711
  134DPPC   C24 6674   0.328   9.100   3.754
  134DPPC   C25 6675   0.396   9.192   3.653
  134DPPC   C26 6676   0.377   9.340   3.686
  134DPPC   C27 6677   0.447   9.423   3.578
  134DPPC   C28 6678   0.399   9.568   3.577
  134DPPC   C29 6679   0.507   9.654   3.512
  134DPPC   C30 6680   0.512   9.605   3.368
  134DPPC   C31 6681   0.615   9.693   3.296
  134DPPC   C32 6682   0.260   8.138   4.437
  134DPPC   O33 6683   0.128   8.185   4.463
  134DPPC   C34 6684   0.026   8.094   4.461
  134DPPC   O35 6685   0.047   7.978   4.425
  134DPPC   C36 6686  -0.107   8.152   4.507
  134DPPC   C37 6687  -0.190   8.196   4.386
  134DPPC   C38 6688  -0.243   8.086   4.294
  134DPPC   C39 6689  -0.316   8.145   4.173
  134DPPC   C40 6690  -0.367   8.050   4.064
  134DPPC   C41 6691  -0.408   8.116   3.933
  134DPPC   C42 6692  -0.497   8.237   3.963
  134DPPC   C43 6693  -0.553   8.277   3.826
  134DPPC   C44 6694  -0.613   8.152   3.763
  134DPPC   C45 6695  -0.724   8.212   3.676
  134DPPC   C46 6696  -0.802   8.103   3.601
  134DPPC   C47 6697  -0.925   8.156   3.526
  134DPPC   C48 6698  -1.014   8.035   3.496
  134DPPC   C49 6699  -1.131   8.096   3.419
  134DPPC   C50 6700  -1.072   8.175   3.303
  135DPPC    C1 6701   7.773   7.809   5.381
  135DPPC    C2 6702   7.834   7.985   5.515
  135DPPC    C3 6703   7.967   7.960   5.321
  135DPPC    N4 6704   7.831   7.944   5.374
  135DPPC    C5 6705   7.731   8.026   5.302
  135DPPC    C6 6706   7.681   7.980   5.165
  135DPPC    O7 6707   7.557   8.023   5.108
  135DPPC    P8 6708   7.551   7.979   4.954
  135DPPC    O9 6709   7.420   8.022   4.899
  135DPPC   O10 6710   7.606   7.842   4.947
  135DPPC   O11 6711   7.663   8.087   4.912
  135DPPC   C12 6712   7.614   8.205   4.847
  135DPPC   C13 6713   7.721   8.313   4.835
  135DPPC   O14 6714   7.670   8.447   4.822
  135DPPC   C15 6715   7.757   8.552   4.819
  135DPPC   O16 6716   7.862   8.541   4.881
  135DPPC   C17 6717   7.695   8.692   4.810
  135DPPC   C18 6718   7.785   8.792   4.737
  135DPPC   C19 6719   7.827   8.738   4.601
  135DPPC   C20 6720   7.712   8.698   4.509
  135DPPC   C21 6721   7.737   8.569   4.431
  135DPPC   C22 6722   7.595   8.526   4.391
  135DPPC   C23 6723   7.525   8.627   4.301
  135DPPC   C24 6724   7.595   8.630   4.164
  135DPPC   C25 6725   7.523   8.703   4.050
  135DPPC   C26 6726   7.606   8.703   3.921
  135DPPC   C27 6727   7.538   8.793   3.818
  135DPPC   C28 6728   7.645   8.841   3.720
  135DPPC   C29 6729   7.561   8.935   3.633
  135DPPC   C30 6730   7.634   8.990   3.510
  135DPPC   C31 6731   7.598   8.908   3.386
  135DPPC   C32 6732   7.832   8.263   4.741
  135DPPC   O33 6733   7.779   8.205   4.622
  135DPPC   C34 6734   7.876   8.163   4.537
  135DPPC   O35 6735   7.993   8.195   4.560
  135DPPC   C36 6736   7.829   8.136   4.394
  135DPPC   C37 6737   7.700   8.055   4.412
  135DPPC   C38 6738   7.617   8.056   4.284
  135DPPC   C39 6739   7.494   7.966   4.276
  135DPPC   C40 6740   7.419   7.955   4.142
  135DPPC   C41 6741   7.404   8.100   4.095
  135DPPC   C42 6742   7.331   8.090   3.960
  135DPPC   C43 6743   7.423   8.008   3.869
  135DPPC   C44 6744   7.373   8.021   3.725
  135DPPC   C45 6745   7.481   7.976   3.625
  135DPPC   C46 6746   7.447   7.962   3.477
  135DPPC   C47 6747   7.355   7.843   3.447
  135DPPC   C48 6748   7.323   7.842   3.297
  135DPPC   C49 6749   7.232   7.730   3.246
  135DPPC   C50 6750   7.215   7.746   3.095
  136DPPC    C1 6751   6.996   3.243   5.793
  136DPPC    C2 6752   7.207   3.242   5.709
  136DPPC    C3 6753   7.089   3.428   5.680
  136DPPC    N4 6754   7.116   3.328   5.784
  136DPPC    C5 6755   7.172   3.380   5.910
  136DPPC    C6 6756   7.318   3.424   5.906
  136DPPC    O7 6757   7.346   3.543   5.832
  136DPPC    P8 6758   7.499   3.541   5.782
  136DPPC    O9 6759   7.563   3.441   5.871
  136DPPC   O10 6760   7.536   3.684   5.778
  136DPPC   O11 6761   7.466   3.487   5.634
  136DPPC   C12 6762   7.446   3.608   5.560
  136DPPC   C13 6763   7.521   3.601   5.426
  136DPPC   O14 6764   7.485   3.713   5.343
  136DPPC   C15 6765   7.550   3.832   5.356
  136DPPC   O16 6766   7.648   3.844   5.430
  136DPPC   C17 6767   7.489   3.954   5.288
  136DPPC   C18 6768   7.549   4.001   5.155
  136DPPC   C19 6769   7.482   4.120   5.086
  136DPPC   C20 6770   7.554   4.145   4.954
  136DPPC   C21 6771   7.571   4.030   4.855
  136DPPC   C22 6772   7.651   4.079   4.734
  136DPPC   C23 6773   7.581   4.201   4.673
  136DPPC   C24 6774   7.688   4.285   4.604
  136DPPC   C25 6775   7.744   4.239   4.469
  136DPPC   C26 6776   7.862   4.322   4.420
  136DPPC   C27 6777   7.935   4.245   4.310
  136DPPC   C28 6778   8.045   4.324   4.239
  136DPPC   C29 6779   7.993   4.459   4.189
  136DPPC   C30 6780   8.056   4.493   4.053
  136DPPC   C31 6781   8.018   4.632   4.004
  136DPPC   C32 6782   7.454   3.474   5.374
  136DPPC   O33 6783   7.533   3.388   5.291
  136DPPC   C34 6784   7.486   3.275   5.231
  136DPPC   O35 6785   7.369   3.242   5.246
  136DPPC   C36 6786   7.566   3.224   5.111
  136DPPC   C37 6787   7.531   3.322   4.999
  136DPPC   C38 6788   7.479   3.255   4.872
  136DPPC   C39 6789   7.411   3.350   4.773
  136DPPC   C40 6790   7.359   3.280   4.647
  136DPPC   C41 6791   7.276   3.380   4.567
  136DPPC   C42 6792   7.212   3.316   4.443
  136DPPC   C43 6793   7.151   3.427   4.357
  136DPPC   C44 6794   7.111   3.365   4.223
  136DPPC   C45 6795   7.037   3.461   4.130
  136DPPC   C46 6796   7.003   3.381   4.004
  136DPPC   C47 6797   6.949   3.479   3.899
  136DPPC   C48 6798   6.968   3.413   3.762
  136DPPC   C49 6799   6.871   3.295   3.751
  136DPPC   C50 6800   6.898   3.248   3.608
  137DPPC    C1 6801   2.985   6.191   4.777
  137DPPC    C2 6802   3.097   6.018   4.899
  137DPPC    C3 6803   3.202   6.231   4.836
  137DPPC    N4 6804   3.081   6.164   4.885
  137DPPC    C5 6805   3.048   6.236   5.009
  137DPPC    C6 6806   2.913   6.204   5.073
  137DPPC    O7 6807   2.798   6.273   5.024
  137DPPC    P8 6808   2.663   6.188   5.049
  137DPPC    O9 6809   2.550   6.263   4.991
  137DPPC   O10 6810   2.679   6.145   5.190
  137DPPC   O11 6811   2.693   6.061   4.956
  137DPPC   C12 6812   2.593   6.032   4.858
  137DPPC   C13 6813   2.628   5.900   4.790
  137DPPC   O14 6814   2.750   5.906   4.715
  137DPPC   C15 6815   2.820   5.791   4.699
  137DPPC   O16 6816   2.790   5.700   4.776
  137DPPC   C17 6817   2.946   5.784   4.613
  137DPPC   C18 6818   2.922   5.846   4.475
  137DPPC   C19 6819   3.047   5.820   4.391
  137DPPC   C20 6820   3.088   5.673   4.376
  137DPPC   C21 6821   3.194   5.665   4.266
  137DPPC   C22 6822   3.250   5.524   4.246
  137DPPC   C23 6823   3.372   5.507   4.155
  137DPPC   C24 6824   3.416   5.361   4.136
  137DPPC   C25 6825   3.530   5.346   4.035
  137DPPC   C26 6826   3.556   5.197   4.017
  137DPPC   C27 6827   3.677   5.163   3.930
  137DPPC   C28 6828   3.659   5.227   3.792
  137DPPC   C29 6829   3.749   5.163   3.686
  137DPPC   C30 6830   3.663   5.159   3.560
  137DPPC   C31 6831   3.724   5.070   3.451
  137DPPC   C32 6832   2.500   5.861   4.715
  137DPPC   O33 6833   2.436   5.964   4.639
  137DPPC   C34 6834   2.338   5.924   4.553
  137DPPC   O35 6835   2.309   5.805   4.541
  137DPPC   C36 6836   2.281   6.030   4.459
  137DPPC   C37 6837   2.246   5.984   4.317
  137DPPC   C38 6838   2.227   6.089   4.208
  137DPPC   C39 6839   2.196   6.019   4.076
  137DPPC   C40 6840   2.256   6.101   3.962
  137DPPC   C41 6841   2.165   6.218   3.925
  137DPPC   C42 6842   2.192   6.266   3.782
  137DPPC   C43 6843   2.166   6.147   3.690
  137DPPC   C44 6844   2.211   6.158   3.544
  137DPPC   C45 6845   2.158   6.039   3.463
  137DPPC   C46 6846   2.188   5.907   3.534
  137DPPC   C47 6847   2.127   5.792   3.455
  137DPPC   C48 6848   1.975   5.785   3.469
  137DPPC   C49 6849   1.904   5.676   3.389
  137DPPC   C50 6850   1.763   5.648   3.442
  138DPPC    C1 6851   1.966   2.736   5.432
  138DPPC    C2 6852   1.926   2.959   5.504
  138DPPC    C3 6853   2.096   2.826   5.594
  138DPPC    N4 6854   2.031   2.863   5.467
  138DPPC    C5 6855   2.117   2.899   5.354
  138DPPC    C6 6856   2.050   2.953   5.226
  138DPPC    O7 6857   1.971   2.867   5.145
  138DPPC    P8 6858   1.938   2.954   5.014
  138DPPC    O9 6859   1.881   3.074   5.080
  138DPPC   O10 6860   1.862   2.867   4.922
  138DPPC   O11 6861   2.093   2.974   4.974
  138DPPC   C12 6862   2.103   3.061   4.861
  138DPPC   C13 6863   2.241   3.123   4.840
  138DPPC   O14 6864   2.254   3.236   4.753
  138DPPC   C15 6865   2.232   3.362   4.799
  138DPPC   O16 6866   2.209   3.377   4.919
  138DPPC   C17 6867   2.233   3.474   4.694
  138DPPC   C18 6868   2.345   3.575   4.716
  138DPPC   C19 6869   2.344   3.683   4.607
  138DPPC   C20 6870   2.207   3.750   4.591
  138DPPC   C21 6871   2.197   3.840   4.467
  138DPPC   C22 6872   2.156   3.765   4.340
  138DPPC   C23 6873   2.153   3.865   4.224
  138DPPC   C24 6874   2.172   3.777   4.100
  138DPPC   C25 6875   2.193   3.846   3.965
  138DPPC   C26 6876   2.206   3.725   3.872
  138DPPC   C27 6877   2.225   3.768   3.726
  138DPPC   C28 6878   2.107   3.861   3.695
  138DPPC   C29 6879   2.144   3.946   3.573
  138DPPC   C30 6880   2.034   4.040   3.525
  138DPPC   C31 6881   1.925   3.952   3.464
  138DPPC   C32 6882   2.327   3.006   4.792
  138DPPC   O33 6883   2.261   2.939   4.684
  138DPPC   C34 6884   2.302   2.810   4.674
  138DPPC   O35 6885   2.366   2.761   4.767
  138DPPC   C36 6886   2.277   2.722   4.551
  138DPPC   C37 6887   2.339   2.790   4.428
  138DPPC   C38 6888   2.322   2.686   4.317
  138DPPC   C39 6889   2.180   2.652   4.273
  138DPPC   C40 6890   2.173   2.538   4.171
  138DPPC   C41 6891   2.028   2.523   4.123
  138DPPC   C42 6892   2.008   2.391   4.048
  138DPPC   C43 6893   1.863   2.391   4.001
  138DPPC   C44 6894   1.816   2.267   3.923
  138DPPC   C45 6895   1.664   2.269   3.943
  138DPPC   C46 6896   1.606   2.164   3.849
  138DPPC   C47 6897   1.453   2.160   3.860
  138DPPC   C48 6898   1.393   2.034   3.798
  138DPPC   C49 6899   1.246   2.009   3.831
  138DPPC   C50 6900   1.256   2.017   3.983
  139DPPC    C1 6901   8.967   3.857   5.109
  139DPPC    C2 6902   8.792   4.015   5.062
  139DPPC    C3 6903   8.791   3.882   5.258
  139DPPC    N4 6904   8.877   3.958   5.167
  139DPPC    C5 6905   8.946   4.056   5.252
  139DPPC    C6 6906   9.027   4.161   5.175
  139DPPC    O7 6907   9.097   4.245   5.269
  139DPPC    P8 6908   9.134   4.385   5.200
  139DPPC    O9 6909   9.166   4.489   5.301
  139DPPC   O10 6910   9.036   4.413   5.093
  139DPPC   O11 6911   9.263   4.341   5.115
  139DPPC   C12 6912   9.280   4.420   4.998
  139DPPC   C13 6913   9.346   4.345   4.882
  139DPPC   O14 6914   9.393   4.428   4.775
  139DPPC   C15 6915   9.506   4.504   4.785
  139DPPC   O16 6916   9.571   4.502   4.889
  139DPPC   C17 6917   9.519   4.614   4.680
  139DPPC   C18 6918   9.608   4.572   4.563
  139DPPC   C19 6919   9.607   4.667   4.443
  139DPPC   C20 6920   9.644   4.596   4.313
  139DPPC   C21 6921   9.625   4.680   4.186
  139DPPC   C22 6922   9.605   4.578   4.074
  139DPPC   C23 6923   9.614   4.652   3.940
  139DPPC   C24 6924   9.620   4.551   3.826
  139DPPC   C25 6925   9.628   4.620   3.690
  139DPPC   C26 6926   9.632   4.509   3.585
  139DPPC   C27 6927   9.688   4.559   3.452
  139DPPC   C28 6928   9.607   4.667   3.380
  139DPPC   C29 6929   9.686   4.691   3.251
  139DPPC   C30 6930   9.613   4.791   3.161
  139DPPC   C31 6931   9.674   4.806   3.022
  139DPPC   C32 6932   9.247   4.233   4.852
  139DPPC   O33 6933   9.308   4.107   4.824
  139DPPC   C34 6934   9.225   3.999   4.827
  139DPPC   O35 6935   9.112   4.020   4.871
  139DPPC   C36 6936   9.266   3.863   4.772
  139DPPC   C37 6937   9.230   3.865   4.623
  139DPPC   C38 6938   9.278   3.742   4.544
  139DPPC   C39 6939   9.232   3.771   4.401
  139DPPC   C40 6940   9.235   3.660   4.296
  139DPPC   C41 6941   9.178   3.711   4.163
  139DPPC   C42 6942   9.145   3.585   4.083
  139DPPC   C43 6943   9.123   3.618   3.935
  139DPPC   C44 6944   9.006   3.712   3.908
  139DPPC   C45 6945   8.978   3.717   3.758
  139DPPC   C46 6946   9.061   3.810   3.669
  139DPPC   C47 6947   9.041   3.779   3.520
  139DPPC   C48 6948   9.111   3.876   3.425
  139DPPC   C49 6949   9.089   3.818   3.285
  139DPPC   C50 6950   9.162   3.900   3.178
  140DPPC    C1 6951   0.061   2.499   5.122
  140DPPC    C2 6952   0.194   2.625   5.291
  140DPPC    C3 6953   0.037   2.720   5.165
  140DPPC    N4 6954   0.062   2.593   5.235
  140DPPC    C5 6955  -0.027   2.571   5.350
  140DPPC    C6 6956  -0.170   2.518   5.332
  140DPPC    O7 6957  -0.244   2.611   5.252
  140DPPC    P8 6958  -0.399   2.579   5.227
  140DPPC    O9 6959  -0.445   2.707   5.168
  140DPPC   O10 6960  -0.461   2.523   5.350
  140DPPC   O11 6961  -0.385   2.471   5.109
  140DPPC   C12 6962  -0.344   2.522   4.982
  140DPPC   C13 6963  -0.351   2.408   4.879
  140DPPC   O14 6964  -0.252   2.403   4.775
  140DPPC   C15 6965  -0.127   2.353   4.789
  140DPPC   O16 6966  -0.073   2.310   4.892
  140DPPC   C17 6967  -0.064   2.314   4.655
  140DPPC   C18 6968  -0.012   2.438   4.582
  140DPPC   C19 6969   0.022   2.400   4.437
  140DPPC   C20 6970   0.154   2.462   4.390
  140DPPC   C21 6971   0.181   2.449   4.240
  140DPPC   C22 6972   0.315   2.514   4.205
  140DPPC   C23 6973   0.393   2.444   4.093
  140DPPC   C24 6974   0.313   2.443   3.963
  140DPPC   C25 6975   0.397   2.412   3.839
  140DPPC   C26 6976   0.334   2.380   3.703
  140DPPC   C27 6977   0.440   2.360   3.594
  140DPPC   C28 6978   0.382   2.317   3.459
  140DPPC   C29 6979   0.272   2.211   3.470
  140DPPC   C30 6980   0.254   2.144   3.333
  140DPPC   C31 6981   0.155   2.028   3.346
  140DPPC   C32 6982  -0.492   2.427   4.822
  140DPPC   O33 6983  -0.517   2.563   4.788
  140DPPC   C34 6984  -0.603   2.598   4.688
  140DPPC   O35 6985  -0.620   2.532   4.585
  140DPPC   C36 6986  -0.667   2.737   4.696
  140DPPC   C37 6987  -0.812   2.688   4.703
  140DPPC   C38 6988  -0.892   2.769   4.602
  140DPPC   C39 6989  -1.043   2.751   4.626
  140DPPC   C40 6990  -1.101   2.868   4.546
  140DPPC   C41 6991  -1.069   2.855   4.397
  140DPPC   C42 6992  -1.112   2.977   4.314
  140DPPC   C43 6993  -1.089   2.955   4.165
  140DPPC   C44 6994  -1.153   3.063   4.078
  140DPPC   C45 6995  -1.128   3.022   3.933
  140DPPC   C46 6996  -1.192   2.885   3.906
  140DPPC   C47 6997  -1.135   2.838   3.773
  140DPPC   C48 6998  -1.234   2.855   3.657
  140DPPC   C49 6999  -1.212   2.748   3.550
  140DPPC   C50 7000  -1.078   2.786   3.485
  141DPPC    C1 7001   5.746   1.809   6.014
  141DPPC    C2 7002   5.592   1.676   5.904
  141DPPC    C3 7003   5.513   1.879   5.971
  141DPPC    N4 7004   5.634   1.816   5.919
  141DPPC    C5 7005   5.663   1.868   5.784
  141DPPC    C6 7006   5.707   2.015   5.780
  141DPPC    O7 7007   5.594   2.103   5.782
  141DPPC    P8 7008   5.639   2.241   5.713
  141DPPC    O9 7009   5.767   2.272   5.780
  141DPPC   O10 7010   5.518   2.327   5.716
  141DPPC   O11 7011   5.657   2.197   5.559
  141DPPC   C12 7012   5.540   2.159   5.487
  141DPPC   C13 7013   5.564   2.150   5.336
  141DPPC   O14 7014   5.646   2.048   5.276
  141DPPC   C15 7015   5.570   1.950   5.221
  141DPPC   O16 7016   5.449   1.937   5.232
  141DPPC   C17 7017   5.655   1.836   5.164
  141DPPC   C18 7018   5.663   1.850   5.012
  141DPPC   C19 7019   5.734   1.732   4.946
  141DPPC   C20 7020   5.668   1.703   4.811
  141DPPC   C21 7021   5.517   1.686   4.834
  141DPPC   C22 7022   5.438   1.632   4.714
  141DPPC   C23 7023   5.447   1.727   4.595
  141DPPC   C24 7024   5.396   1.663   4.466
  141DPPC   C25 7025   5.454   1.524   4.441
  141DPPC   C26 7026   5.413   1.469   4.304
  141DPPC   C27 7027   5.506   1.529   4.198
  141DPPC   C28 7028   5.472   1.475   4.059
  141DPPC   C29 7029   5.331   1.524   4.025
  141DPPC   C30 7030   5.323   1.659   3.954
  141DPPC   C31 7031   5.181   1.715   3.942
  141DPPC   C32 7032   5.621   2.287   5.299
  141DPPC   O33 7033   5.526   2.394   5.304
  141DPPC   C34 7034   5.574   2.520   5.289
  141DPPC   O35 7035   5.695   2.531   5.307
  141DPPC   C36 7036   5.478   2.638   5.269
  141DPPC   C37 7037   5.444   2.670   5.123
  141DPPC   C38 7038   5.385   2.553   5.046
  141DPPC   C39 7039   5.342   2.607   4.909
  141DPPC   C40 7040   5.461   2.640   4.819
  141DPPC   C41 7041   5.415   2.687   4.682
  141DPPC   C42 7042   5.527   2.677   4.578
  141DPPC   C43 7043   5.482   2.714   4.437
  141DPPC   C44 7044   5.362   2.626   4.404
  141DPPC   C45 7045   5.308   2.667   4.267
  141DPPC   C46 7046   5.250   2.808   4.268
  141DPPC   C47 7047   5.212   2.854   4.127
  141DPPC   C48 7048   5.321   2.867   4.021
  141DPPC   C49 7049   5.259   2.906   3.886
  141DPPC   C50 7050   5.154   2.809   3.832
  142DPPC    C1 7051   1.459   6.069   4.715
  142DPPC    C2 7052   1.467   6.300   4.743
  142DPPC    C3 7053   1.514   6.211   4.533
  142DPPC    N4 7054   1.425   6.196   4.648
  142DPPC    C5 7055   1.286   6.183   4.603
  142DPPC    C6 7056   1.203   6.310   4.583
  142DPPC    O7 7057   1.240   6.392   4.472
  142DPPC    P8 7058   1.189   6.544   4.493
  142DPPC    O9 7059   1.277   6.629   4.410
  142DPPC   O10 7060   1.168   6.567   4.638
  142DPPC   O11 7061   1.047   6.534   4.417
  142DPPC   C12 7062   1.064   6.495   4.280
  142DPPC   C13 7063   0.937   6.521   4.198
  142DPPC   O14 7064   0.932   6.436   4.083
  142DPPC   C15 7065   0.815   6.426   4.015
  142DPPC   O16 7066   0.704   6.455   4.059
  142DPPC   C17 7067   0.829   6.348   3.884
  142DPPC   C18 7068   0.723   6.380   3.777
  142DPPC   C19 7069   0.768   6.293   3.659
  142DPPC   C20 7070   0.670   6.269   3.545
  142DPPC   C21 7071   0.541   6.212   3.606
  142DPPC   C22 7072   0.559   6.065   3.643
  142DPPC   C23 7073   0.429   6.024   3.712
  142DPPC   C24 7074   0.433   5.888   3.782
  142DPPC   C25 7075   0.300   5.813   3.790
  142DPPC   C26 7076   0.203   5.911   3.857
  142DPPC   C27 7077   0.066   5.845   3.878
  142DPPC   C28 7078  -0.040   5.932   3.944
  142DPPC   C29 7079  -0.173   5.857   3.961
  142DPPC   C30 7080  -0.178   5.722   4.032
  142DPPC   C31 7081  -0.305   5.640   4.010
  142DPPC   C32 7082   0.931   6.670   4.165
  142DPPC   O33 7083   1.041   6.735   4.100
  142DPPC   C34 7084   1.004   6.862   4.068
  142DPPC   O35 7085   0.918   6.926   4.127
  142DPPC   C36 7086   1.115   6.927   3.984
  142DPPC   C37 7087   1.093   7.077   3.970
  142DPPC   C38 7088   0.983   7.113   3.869
  142DPPC   C39 7089   0.978   7.257   3.819
  142DPPC   C40 7090   0.864   7.287   3.721
  142DPPC   C41 7091   0.868   7.194   3.600
  142DPPC   C42 7092   0.798   7.256   3.479
  142DPPC   C43 7093   0.654   7.271   3.529
  142DPPC   C44 7094   0.568   7.357   3.435
  142DPPC   C45 7095   0.634   7.495   3.437
  142DPPC   C46 7096   0.569   7.578   3.326
  142DPPC   C47 7097   0.629   7.718   3.319
  142DPPC   C48 7098   0.578   7.809   3.207
  142DPPC   C49 7099   0.641   7.760   3.077
  142DPPC   C50 7100   0.789   7.796   3.065
  143DPPC    C1 7101   0.209   0.063   5.003
  143DPPC    C2 7102   0.029   0.207   5.087
  143DPPC    C3 7103   0.247   0.224   5.175
  143DPPC    N4 7104   0.171   0.196   5.053
  143DPPC    C5 7105   0.202   0.293   4.947
  143DPPC    C6 7106   0.163   0.441   4.952
  143DPPC    O7 7107   0.275   0.515   5.001
  143DPPC    P8 7108   0.227   0.667   5.025
  143DPPC    O9 7109   0.350   0.742   5.057
  143DPPC   O10 7110   0.117   0.652   5.123
  143DPPC   O11 7111   0.197   0.693   4.869
  143DPPC   C12 7112   0.291   0.784   4.810
  143DPPC   C13 7113   0.274   0.831   4.666
  143DPPC   O14 7114   0.185   0.943   4.658
  143DPPC   C15 7115   0.239   1.067   4.664
  143DPPC   O16 7116   0.345   1.083   4.723
  143DPPC   C17 7117   0.164   1.183   4.596
  143DPPC   C18 7118   0.060   1.132   4.496
  143DPPC   C19 7119  -0.078   1.164   4.554
  143DPPC   C20 7120  -0.194   1.129   4.461
  143DPPC   C21 7121  -0.242   1.254   4.387
  143DPPC   C22 7122  -0.372   1.227   4.311
  143DPPC   C23 7123  -0.340   1.106   4.224
  143DPPC   C24 7124  -0.472   1.066   4.157
  143DPPC   C25 7125  -0.518   1.171   4.056
  143DPPC   C26 7126  -0.655   1.147   3.994
  143DPPC   C27 7127  -0.684   1.261   3.896
  143DPPC   C28 7128  -0.597   1.278   3.771
  143DPPC   C29 7129  -0.626   1.154   3.686
  143DPPC   C30 7130  -0.538   1.161   3.561
  143DPPC   C31 7131  -0.592   1.286   3.491
  143DPPC   C32 7132   0.253   0.706   4.580
  143DPPC   O33 7133   0.203   0.728   4.447
  143DPPC   C34 7134   0.169   0.615   4.381
  143DPPC   O35 7135   0.118   0.526   4.449
  143DPPC   C36 7136   0.125   0.636   4.236
  143DPPC   C37 7137   0.057   0.510   4.182
  143DPPC   C38 7138  -0.013   0.522   4.046
  143DPPC   C39 7139  -0.129   0.621   4.063
  143DPPC   C40 7140  -0.210   0.643   3.935
  143DPPC   C41 7141  -0.118   0.708   3.831
  143DPPC   C42 7142  -0.145   0.632   3.701
  143DPPC   C43 7143  -0.064   0.686   3.583
  143DPPC   C44 7144  -0.076   0.835   3.554
  143DPPC   C45 7145   0.015   0.855   3.432
  143DPPC   C46 7146   0.050   0.999   3.395
  143DPPC   C47 7147   0.139   0.992   3.271
  143DPPC   C48 7148   0.185   1.126   3.214
  143DPPC   C49 7149   0.086   1.236   3.176
  143DPPC   C50 7150   0.155   1.358   3.113
  144DPPC    C1 7151   8.607   0.290   5.455
  144DPPC    C2 7152   8.810   0.406   5.506
  144DPPC    C3 7153   8.805   0.175   5.444
  144DPPC    N4 7154   8.747   0.307   5.416
  144DPPC    C5 7155   8.759   0.342   5.274
  144DPPC    C6 7156   8.763   0.491   5.237
  144DPPC    O7 7157   8.652   0.575   5.268
  144DPPC    P8 7158   8.697   0.726   5.235
  144DPPC    O9 7159   8.831   0.723   5.297
  144DPPC   O10 7160   8.586   0.801   5.298
  144DPPC   O11 7161   8.691   0.721   5.074
  144DPPC   C12 7162   8.556   0.738   5.032
  144DPPC   C13 7163   8.540   0.696   4.886
  144DPPC   O14 7164   8.407   0.716   4.834
  144DPPC   C15 7165   8.387   0.839   4.779
  144DPPC   O16 7166   8.433   0.946   4.818
  144DPPC   C17 7167   8.263   0.854   4.690
  144DPPC   C18 7168   8.284   0.900   4.545
  144DPPC   C19 7169   8.380   0.802   4.478
  144DPPC   C20 7170   8.415   0.841   4.334
  144DPPC   C21 7171   8.287   0.823   4.253
  144DPPC   C22 7172   8.324   0.832   4.104
  144DPPC   C23 7173   8.416   0.953   4.087
  144DPPC   C24 7174   8.440   0.996   3.942
  144DPPC   C25 7175   8.322   1.041   3.856
  144DPPC   C26 7176   8.377   1.103   3.728
  144DPPC   C27 7177   8.449   1.006   3.633
  144DPPC   C28 7178   8.520   1.096   3.532
  144DPPC   C29 7179   8.577   1.023   3.410
  144DPPC   C30 7180   8.457   0.948   3.350
  144DPPC   C31 7181   8.502   0.896   3.213
  144DPPC   C32 7182   8.603   0.557   4.875
  144DPPC   O33 7183   8.598   0.502   4.743
  144DPPC   C34 7184   8.712   0.536   4.678
  144DPPC   O35 7185   8.807   0.580   4.743
  144DPPC   C36 7186   8.735   0.474   4.540
  144DPPC   C37 7187   8.606   0.458   4.460
  144DPPC   C38 7188   8.621   0.336   4.370
  144DPPC   C39 7189   8.499   0.343   4.278
  144DPPC   C40 7190   8.500   0.220   4.187
  144DPPC   C41 7191   8.419   0.234   4.057
  144DPPC   C42 7192   8.428   0.103   3.978
  144DPPC   C43 7193   8.311   0.103   3.879
  144DPPC   C44 7194   8.343   0.010   3.762
  144DPPC   C45 7195   8.207  -0.019   3.697
  144DPPC   C46 7196   8.144   0.111   3.644
  144DPPC   C47 7197   8.007   0.106   3.576
  144DPPC   C48 7198   7.985   0.230   3.488
  144DPPC   C49 7199   8.017   0.357   3.567
  144DPPC   C50 7200   7.991   0.486   3.489
  145DPPC    C1 7201   7.939   5.627   5.344
  145DPPC    C2 7202   8.188   5.643   5.375
  145DPPC    C3 7203   8.106   5.444   5.310
  145DPPC    N4 7204   8.074   5.587   5.301
  145DPPC    C5 7205   8.078   5.615   5.157
  145DPPC    C6 7206   8.100   5.763   5.120
  145DPPC    O7 7207   8.116   5.782   4.980
  145DPPC    P8 7208   8.120   5.940   4.948
  145DPPC    O9 7209   8.183   5.945   4.815
  145DPPC   O10 7210   8.183   6.004   5.066
  145DPPC   O11 7211   7.961   5.924   4.936
  145DPPC   C12 7212   7.935   5.892   4.799
  145DPPC   C13 7213   7.792   5.846   4.767
  145DPPC   O14 7214   7.792   5.781   4.639
  145DPPC   C15 7215   7.695   5.690   4.610
  145DPPC   O16 7216   7.615   5.662   4.699
  145DPPC   C17 7217   7.669   5.663   4.462
  145DPPC   C18 7218   7.560   5.766   4.430
  145DPPC   C19 7219   7.519   5.734   4.286
  145DPPC   C20 7220   7.380   5.672   4.294
  145DPPC   C21 7221   7.342   5.613   4.158
  145DPPC   C22 7222   7.312   5.736   4.072
  145DPPC   C23 7223   7.201   5.827   4.125
  145DPPC   C24 7224   7.211   5.965   4.060
  145DPPC   C25 7225   7.078   6.039   4.045
  145DPPC   C26 7226   7.119   6.178   3.996
  145DPPC   C27 7227   7.166   6.187   3.851
  145DPPC   C28 7228   7.050   6.159   3.755
  145DPPC   C29 7229   7.099   6.133   3.612
  145DPPC   C30 7230   7.181   6.004   3.610
  145DPPC   C31 7231   7.228   5.978   3.467
  145DPPC   C32 7232   7.690   5.955   4.798
  145DPPC   O33 7233   7.696   6.069   4.712
  145DPPC   C34 7234   7.586   6.147   4.729
  145DPPC   O35 7235   7.512   6.136   4.827
  145DPPC   C36 7236   7.542   6.219   4.602
  145DPPC   C37 7237   7.447   6.134   4.516
  145DPPC   C38 7238   7.391   6.211   4.396
  145DPPC   C39 7239   7.486   6.252   4.284
  145DPPC   C40 7240   7.415   6.331   4.173
  145DPPC   C41 7241   7.499   6.386   4.057
  145DPPC   C42 7242   7.549   6.258   3.989
  145DPPC   C43 7243   7.608   6.282   3.850
  145DPPC   C44 7244   7.498   6.342   3.763
  145DPPC   C45 7245   7.549   6.365   3.621
  145DPPC   C46 7246   7.434   6.436   3.549
  145DPPC   C47 7247   7.490   6.472   3.411
  145DPPC   C48 7248   7.519   6.346   3.328
  145DPPC   C49 7249   7.576   6.364   3.187
  145DPPC   C50 7250   7.712   6.431   3.205
  146DPPC    C1 7251   6.806   4.170   5.621
  146DPPC    C2 7252   7.007   4.184   5.753
  146DPPC    C3 7253   6.817   4.125   5.859
  146DPPC    N4 7254   6.884   4.108   5.729
  146DPPC    C5 7255   6.927   3.969   5.706
  146DPPC    C6 7256   6.819   3.875   5.651
  146DPPC    O7 7257   6.862   3.740   5.629
  146DPPC    P8 7258   6.739   3.644   5.592
  146DPPC    O9 7259   6.614   3.691   5.657
  146DPPC   O10 7260   6.784   3.503   5.594
  146DPPC   O11 7261   6.721   3.682   5.436
  146DPPC   C12 7262   6.807   3.601   5.356
  146DPPC   C13 7263   6.829   3.630   5.207
  146DPPC   O14 7264   6.933   3.723   5.174
  146DPPC   C15 7265   7.065   3.695   5.195
  146DPPC   O16 7266   7.102   3.625   5.290
  146DPPC   C17 7267   7.156   3.802   5.136
  146DPPC   C18 7268   7.090   3.887   5.028
  146DPPC   C19 7269   7.114   3.821   4.892
  146DPPC   C20 7270   7.267   3.820   4.884
  146DPPC   C21 7271   7.305   3.771   4.745
  146DPPC   C22 7272   7.246   3.875   4.649
  146DPPC   C23 7273   7.301   3.848   4.509
  146DPPC   C24 7274   7.453   3.868   4.496
  146DPPC   C25 7275   7.481   3.869   4.346
  146DPPC   C26 7276   7.473   3.726   4.293
  146DPPC   C27 7277   7.513   3.741   4.146
  146DPPC   C28 7278   7.445   3.866   4.090
  146DPPC   C29 7279   7.493   3.905   3.950
  146DPPC   C30 7280   7.425   4.037   3.912
  146DPPC   C31 7281   7.409   4.041   3.760
  146DPPC   C32 7282   6.702   3.683   5.139
  146DPPC   O33 7283   6.606   3.584   5.100
  146DPPC   C34 7284   6.503   3.635   5.028
  146DPPC   O35 7285   6.505   3.745   4.975
  146DPPC   C36 7286   6.381   3.542   5.028
  146DPPC   C37 7287   6.314   3.541   4.890
  146DPPC   C38 7288   6.224   3.424   4.852
  146DPPC   C39 7289   6.132   3.481   4.743
  146DPPC   C40 7290   6.200   3.512   4.609
  146DPPC   C41 7291   6.108   3.575   4.504
  146DPPC   C42 7292   6.176   3.594   4.368
  146DPPC   C43 7293   6.078   3.671   4.279
  146DPPC   C44 7294   6.109   3.631   4.134
  146DPPC   C45 7295   5.996   3.689   4.049
  146DPPC   C46 7296   6.009   3.621   3.913
  146DPPC   C47 7297   5.906   3.689   3.821
  146DPPC   C48 7298   5.897   3.636   3.678
  146DPPC   C49 7299   5.779   3.696   3.602
  146DPPC   C50 7300   5.647   3.655   3.668
  147DPPC    C1 7301   8.162   3.117   5.937
  147DPPC    C2 7302   8.016   2.928   5.941
  147DPPC    C3 7303   7.926   3.150   5.974
  147DPPC    N4 7304   8.027   3.070   5.904
  147DPPC    C5 7305   8.005   3.066   5.758
  147DPPC    C6 7306   8.014   3.198   5.682
  147DPPC    O7 7307   7.916   3.301   5.697
  147DPPC    P8 7308   7.993   3.441   5.678
  147DPPC    O9 7309   8.112   3.414   5.762
  147DPPC   O10 7310   7.906   3.559   5.694
  147DPPC   O11 7311   8.027   3.413   5.523
  147DPPC   C12 7312   7.905   3.457   5.462
  147DPPC   C13 7313   7.948   3.447   5.315
  147DPPC   O14 7314   7.855   3.514   5.229
  147DPPC   C15 7315   7.900   3.635   5.185
  147DPPC   O16 7316   7.996   3.685   5.243
  147DPPC   C17 7317   7.802   3.700   5.087
  147DPPC   C18 7318   7.828   3.658   4.942
  147DPPC   C19 7319   7.692   3.670   4.873
  147DPPC   C20 7320   7.713   3.633   4.726
  147DPPC   C21 7321   7.811   3.736   4.667
  147DPPC   C22 7322   7.832   3.703   4.519
  147DPPC   C23 7323   7.914   3.813   4.452
  147DPPC   C24 7324   7.917   3.767   4.306
  147DPPC   C25 7325   7.943   3.890   4.219
  147DPPC   C26 7326   7.955   3.856   4.071
  147DPPC   C27 7327   7.955   3.983   3.986
  147DPPC   C28 7328   7.834   4.071   4.018
  147DPPC   C29 7329   7.842   4.206   3.947
  147DPPC   C30 7330   7.704   4.274   3.955
  147DPPC   C31 7331   7.702   4.395   3.863
  147DPPC   C32 7332   7.980   3.299   5.293
  147DPPC   O33 7333   7.874   3.214   5.337
  147DPPC   C34 7334   7.897   3.081   5.349
  147DPPC   O35 7335   8.001   3.022   5.379
  147DPPC   C36 7336   7.770   2.998   5.377
  147DPPC   C37 7337   7.776   2.858   5.316
  147DPPC   C38 7338   7.777   2.854   5.164
  147DPPC   C39 7339   7.752   2.712   5.113
  147DPPC   C40 7340   7.760   2.719   4.961
  147DPPC   C41 7341   7.657   2.806   4.888
  147DPPC   C42 7342   7.684   2.793   4.737
  147DPPC   C43 7343   7.570   2.872   4.673
  147DPPC   C44 7344   7.580   2.852   4.522
  147DPPC   C45 7345   7.463   2.929   4.461
  147DPPC   C46 7346   7.457   2.929   4.308
  147DPPC   C47 7347   7.326   3.000   4.274
  147DPPC   C48 7348   7.277   3.005   4.129
  147DPPC   C49 7349   7.128   3.033   4.107
  147DPPC   C50 7350   7.087   3.036   3.960
  148DPPC    C1 7351   2.542   6.544   5.223
  148DPPC    C2 7352   2.766   6.568   5.287
  148DPPC    C3 7353   2.698   6.596   5.056
  148DPPC    N4 7354   2.663   6.623   5.197
  148DPPC    C5 7355   2.655   6.766   5.227
  148DPPC    C6 7356   2.737   6.872   5.152
  148DPPC    O7 7357   2.877   6.846   5.144
  148DPPC    P8 7358   2.964   6.980   5.168
  148DPPC    O9 7359   3.105   6.939   5.156
  148DPPC   O10 7360   2.926   7.046   5.295
  148DPPC   O11 7361   2.903   7.056   5.040
  148DPPC   C12 7362   2.962   7.030   4.913
  148DPPC   C13 7363   2.870   7.074   4.799
  148DPPC   O14 7364   2.904   7.006   4.678
  148DPPC   C15 7365   2.882   6.874   4.653
  148DPPC   O16 7366   2.815   6.809   4.734
  148DPPC   C17 7367   2.939   6.810   4.527
  148DPPC   C18 7368   2.844   6.721   4.446
  148DPPC   C19 7369   2.907   6.646   4.328
  148DPPC   C20 7370   2.995   6.755   4.266
  148DPPC   C21 7371   3.091   6.675   4.177
  148DPPC   C22 7372   3.149   6.766   4.069
  148DPPC   C23 7373   3.054   6.849   3.983
  148DPPC   C24 7374   3.133   6.921   3.874
  148DPPC   C25 7375   3.192   6.828   3.768
  148DPPC   C26 7376   3.236   6.907   3.645
  148DPPC   C27 7377   3.348   6.825   3.580
  148DPPC   C28 7378   3.418   6.901   3.467
  148DPPC   C29 7379   3.507   6.807   3.386
  148DPPC   C30 7380   3.560   6.878   3.261
  148DPPC   C31 7381   3.684   6.794   3.226
  148DPPC   C32 7382   2.886   7.226   4.802
  148DPPC   O33 7383   3.018   7.278   4.822
  148DPPC   C34 7384   3.018   7.414   4.836
  148DPPC   O35 7385   2.910   7.472   4.834
  148DPPC   C36 7386   3.146   7.497   4.825
  148DPPC   C37 7387   3.186   7.557   4.690
  148DPPC   C38 7388   3.310   7.645   4.703
  148DPPC   C39 7389   3.383   7.667   4.570
  148DPPC   C40 7390   3.432   7.530   4.522
  148DPPC   C41 7391   3.491   7.547   4.382
  148DPPC   C42 7392   3.599   7.655   4.374
  148DPPC   C43 7393   3.647   7.668   4.230
  148DPPC   C44 7394   3.762   7.577   4.186
  148DPPC   C45 7395   3.808   7.607   4.043
  148DPPC   C46 7396   3.870   7.482   3.980
  148DPPC   C47 7397   3.896   7.519   3.833
  148DPPC   C48 7398   3.977   7.415   3.755
  148DPPC   C49 7399   3.989   7.455   3.608
  148DPPC   C50 7400   4.082   7.358   3.534
  149DPPC    C1 7401   5.105   0.550   5.051
  149DPPC    C2 7402   5.167   0.605   4.826
  149DPPC    C3 7403   5.004   0.723   4.952
  149DPPC    N4 7404   5.137   0.660   4.959
  149DPPC    C5 7405   5.232   0.760   5.008
  149DPPC    C6 7406   5.320   0.739   5.131
  149DPPC    O7 7407   5.414   0.841   5.169
  149DPPC    P8 7408   5.529   0.786   5.267
  149DPPC    O9 7409   5.488   0.654   5.319
  149DPPC   O10 7410   5.599   0.889   5.348
  149DPPC   O11 7411   5.619   0.724   5.149
  149DPPC   C12 7412   5.710   0.823   5.098
  149DPPC   C13 7413   5.735   0.808   4.948
  149DPPC   O14 7414   5.853   0.879   4.906
  149DPPC   C15 7415   5.962   0.828   4.844
  149DPPC   O16 7416   5.990   0.709   4.857
  149DPPC   C17 7417   6.060   0.934   4.794
  149DPPC   C18 7418   6.044   0.942   4.642
  149DPPC   C19 7419   6.155   1.021   4.573
  149DPPC   C20 7420   6.150   1.002   4.421
  149DPPC   C21 7421   6.235   1.096   4.336
  149DPPC   C22 7422   6.246   1.028   4.199
  149DPPC   C23 7423   6.325   1.125   4.112
  149DPPC   C24 7424   6.355   1.073   3.971
  149DPPC   C25 7425   6.459   1.177   3.928
  149DPPC   C26 7426   6.447   1.239   3.789
  149DPPC   C27 7427   6.568   1.332   3.781
  149DPPC   C28 7428   6.564   1.402   3.645
  149DPPC   C29 7429   6.663   1.520   3.643
  149DPPC   C30 7430   6.646   1.608   3.520
  149DPPC   C31 7431   6.517   1.691   3.515
  149DPPC   C32 7432   5.600   0.832   4.880
  149DPPC   O33 7433   5.599   0.821   4.738
  149DPPC   C34 7434   5.479   0.867   4.694
  149DPPC   O35 7435   5.375   0.870   4.759
  149DPPC   C36 7436   5.466   0.875   4.541
  149DPPC   C37 7437   5.479   1.018   4.489
  149DPPC   C38 7438   5.478   1.035   4.337
  149DPPC   C39 7439   5.598   0.997   4.249
  149DPPC   C40 7440   5.596   1.042   4.103
  149DPPC   C41 7441   5.715   0.988   4.024
  149DPPC   C42 7442   5.827   1.085   3.986
  149DPPC   C43 7443   5.751   1.199   3.919
  149DPPC   C44 7444   5.824   1.247   3.794
  149DPPC   C45 7445   5.748   1.367   3.737
  149DPPC   C46 7446   5.793   1.424   3.603
  149DPPC   C47 7447   5.710   1.544   3.556
  149DPPC   C48 7448   5.560   1.521   3.536
  149DPPC   C49 7449   5.486   1.654   3.520
  149DPPC   C50 7450   5.333   1.649   3.514
  150DPPC    C1 7451   4.592   0.955   5.658
  150DPPC    C2 7452   4.725   0.781   5.586
  150DPPC    C3 7453   4.634   0.941   5.427
  150DPPC    N4 7454   4.695   0.923   5.559
  150DPPC    C5 7455   4.804   1.020   5.575
  150DPPC    C6 7456   4.932   1.005   5.492
  150DPPC    O7 7457   4.924   1.036   5.353
  150DPPC    P8 7458   5.057   1.010   5.265
  150DPPC    O9 7459   5.084   0.871   5.309
  150DPPC   O10 7460   5.158   1.115   5.290
  150DPPC   O11 7461   4.991   1.007   5.119
  150DPPC   C12 7462   4.946   1.141   5.100
  150DPPC   C13 7463   4.817   1.174   5.024
  150DPPC   O14 7464   4.691   1.137   5.083
  150DPPC   C15 7465   4.606   1.239   5.110
  150DPPC   O16 7466   4.634   1.355   5.081
  150DPPC   C17 7467   4.464   1.204   5.155
  150DPPC   C18 7468   4.364   1.300   5.092
  150DPPC   C19 7469   4.284   1.216   4.992
  150DPPC   C20 7470   4.176   1.303   4.928
  150DPPC   C21 7471   4.080   1.232   4.833
  150DPPC   C22 7472   3.986   1.336   4.772
  150DPPC   C23 7473   3.854   1.259   4.755
  150DPPC   C24 7474   3.744   1.339   4.685
  150DPPC   C25 7475   3.631   1.248   4.636
  150DPPC   C26 7476   3.533   1.332   4.554
  150DPPC   C27 7477   3.415   1.238   4.525
  150DPPC   C28 7478   3.298   1.334   4.505
  150DPPC   C29 7479   3.177   1.269   4.438
  150DPPC   C30 7480   3.224   1.233   4.297
  150DPPC   C31 7481   3.111   1.151   4.233
  150DPPC   C32 7482   4.833   1.113   4.884
  150DPPC   O33 7483   4.951   1.150   4.812
  150DPPC   C34 7484   5.002   1.071   4.714
  150DPPC   O35 7485   4.964   0.954   4.710
  150DPPC   C36 7486   5.102   1.134   4.617
  150DPPC   C37 7487   5.034   1.169   4.484
  150DPPC   C38 7488   5.120   1.256   4.392
  150DPPC   C39 7489   5.051   1.288   4.259
  150DPPC   C40 7490   5.036   1.167   4.167
  150DPPC   C41 7491   4.955   1.216   4.047
  150DPPC   C42 7492   4.912   1.107   3.949
  150DPPC   C43 7493   4.780   1.139   3.877
  150DPPC   C44 7494   4.667   1.168   3.976
  150DPPC   C45 7495   4.533   1.176   3.903
  150DPPC   C46 7496   4.436   1.256   3.991
  150DPPC   C47 7497   4.295   1.225   3.942
  150DPPC   C48 7498   4.298   1.258   3.793
  150DPPC   C49 7499   4.156   1.262   3.736
  150DPPC   C50 7500   4.156   1.308   3.590
  151DPPC    C1 7501   0.888   0.961   4.936
  151DPPC    C2 7502   1.016   0.802   4.820
  151DPPC    C3 7503   0.908   0.744   5.027
  151DPPC    N4 7504   0.895   0.819   4.901
  151DPPC    C5 7505   0.784   0.788   4.809
  151DPPC    C6 7506   0.697   0.668   4.848
  151DPPC    O7 7507   0.604   0.626   4.748
  151DPPC    P8 7508   0.574   0.469   4.763
  151DPPC    O9 7509   0.438   0.423   4.726
  151DPPC   O10 7510   0.646   0.421   4.883
  151DPPC   O11 7511   0.656   0.446   4.626
  151DPPC   C12 7512   0.562   0.462   4.519
  151DPPC   C13 7513   0.615   0.490   4.378
  151DPPC   O14 7514   0.653   0.376   4.299
  151DPPC   C15 7515   0.769   0.309   4.319
  151DPPC   O16 7516   0.846   0.333   4.413
  151DPPC   C17 7517   0.790   0.194   4.221
  151DPPC   C18 7518   0.827   0.238   4.079
  151DPPC   C19 7519   0.854   0.116   3.989
  151DPPC   C20 7520   0.936   0.153   3.866
  151DPPC   C21 7521   0.859   0.243   3.769
  151DPPC   C22 7522   0.750   0.169   3.692
  151DPPC   C23 7523   0.810   0.072   3.590
  151DPPC   C24 7524   0.704  -0.008   3.514
  151DPPC   C25 7525   0.611   0.084   3.435
  151DPPC   C26 7526   0.513   0.016   3.339
  151DPPC   C27 7527   0.450   0.117   3.243
  151DPPC   C28 7528   0.373   0.224   3.321
  151DPPC   C29 7529   0.282   0.323   3.248
  151DPPC   C30 7530   0.242   0.444   3.332
  151DPPC   C31 7531   0.170   0.558   3.259
  151DPPC   C32 7532   0.716   0.605   4.389
  151DPPC   O33 7533   0.647   0.719   4.443
  151DPPC   C34 7534   0.717   0.833   4.466
  151DPPC   O35 7535   0.839   0.827   4.455
  151DPPC   C36 7536   0.641   0.965   4.477
  151DPPC   C37 7537   0.570   0.990   4.344
  151DPPC   C38 7538   0.421   1.023   4.343
  151DPPC   C39 7539   0.360   1.003   4.204
  151DPPC   C40 7540   0.209   1.018   4.190
  151DPPC   C41 7541   0.170   1.005   4.042
  151DPPC   C42 7542   0.023   1.046   4.033
  151DPPC   C43 7543  -0.028   1.054   3.889
  151DPPC   C44 7544   0.068   1.157   3.829
  151DPPC   C45 7545   0.042   1.308   3.841
  151DPPC   C46 7546   0.124   1.394   3.745
  151DPPC   C47 7547   0.074   1.386   3.601
  151DPPC   C48 7548  -0.058   1.462   3.582
  151DPPC   C49 7549  -0.096   1.477   3.434
  151DPPC   C50 7550  -0.242   1.519   3.417
  152DPPC    C1 7551   4.763   1.869   5.807
  152DPPC    C2 7552   4.975   1.882   5.685
  152DPPC    C3 7553   4.909   1.678   5.765
  152DPPC    N4 7554   4.854   1.803   5.712
  152DPPC    C5 7555   4.787   1.783   5.582
  152DPPC    C6 7556   4.677   1.682   5.551
  152DPPC    O7 7557   4.546   1.719   5.506
  152DPPC    P8 7558   4.442   1.596   5.496
  152DPPC    O9 7559   4.344   1.593   5.606
  152DPPC   O10 7560   4.513   1.477   5.444
  152DPPC   O11 7561   4.357   1.681   5.389
  152DPPC   C12 7562   4.431   1.692   5.267
  152DPPC   C13 7563   4.354   1.770   5.161
  152DPPC   O14 7564   4.359   1.707   5.032
  152DPPC   C15 7565   4.232   1.700   4.983
  152DPPC   O16 7566   4.138   1.677   5.058
  152DPPC   C17 7567   4.223   1.676   4.832
  152DPPC   C18 7568   4.258   1.804   4.756
  152DPPC   C19 7569   4.406   1.841   4.735
  152DPPC   C20 7570   4.406   1.972   4.657
  152DPPC   C21 7571   4.545   2.036   4.650
  152DPPC   C22 7572   4.586   2.068   4.506
  152DPPC   C23 7573   4.720   2.141   4.513
  152DPPC   C24 7574   4.767   2.169   4.370
  152DPPC   C25 7575   4.689   2.293   4.327
  152DPPC   C26 7576   4.719   2.318   4.179
  152DPPC   C27 7577   4.691   2.194   4.093
  152DPPC   C28 7578   4.811   2.160   4.004
  152DPPC   C29 7579   4.791   2.035   3.918
  152DPPC   C30 7580   4.880   2.023   3.794
  152DPPC   C31 7581   4.799   2.107   3.695
  152DPPC   C32 7582   4.375   1.922   5.166
  152DPPC   O33 7583   4.515   1.948   5.154
  152DPPC   C34 7584   4.557   2.072   5.116
  152DPPC   O35 7585   4.481   2.165   5.093
  152DPPC   C36 7586   4.700   2.077   5.062
  152DPPC   C37 7587   4.725   1.952   4.978
  152DPPC   C38 7588   4.863   1.954   4.910
  152DPPC   C39 7589   4.868   1.832   4.817
  152DPPC   C40 7590   4.993   1.861   4.735
  152DPPC   C41 7591   5.018   1.756   4.626
  152DPPC   C42 7592   4.905   1.773   4.523
  152DPPC   C43 7593   4.929   1.693   4.395
  152DPPC   C44 7594   4.838   1.738   4.281
  152DPPC   C45 7595   4.850   1.643   4.163
  152DPPC   C46 7596   4.779   1.698   4.038
  152DPPC   C47 7597   4.799   1.610   3.915
  152DPPC   C48 7598   4.694   1.643   3.809
  152DPPC   C49 7599   4.710   1.548   3.691
  152DPPC   C50 7600   4.591   1.550   3.596
  153DPPC    C1 7601   1.929   1.346   5.360
  153DPPC    C2 7602   2.090   1.214   5.470
  153DPPC    C3 7603   1.858   1.156   5.457
  153DPPC    N4 7604   1.973   1.207   5.381
  153DPPC    C5 7605   1.977   1.140   5.250
  153DPPC    C6 7606   2.017   0.992   5.254
  153DPPC    O7 7607   2.154   0.971   5.289
  153DPPC    P8 7608   2.161   0.823   5.353
  153DPPC    O9 7609   2.023   0.788   5.394
  153DPPC   O10 7610   2.281   0.815   5.438
  153DPPC   O11 7611   2.193   0.750   5.213
  153DPPC   C12 7612   2.320   0.790   5.161
  153DPPC   C13 7613   2.389   0.690   5.067
  153DPPC   O14 7614   2.509   0.738   5.006
  153DPPC   C15 7615   2.595   0.651   4.946
  153DPPC   O16 7616   2.592   0.532   4.976
  153DPPC   C17 7617   2.688   0.698   4.833
  153DPPC   C18 7618   2.638   0.645   4.699
  153DPPC   C19 7619   2.729   0.679   4.580
  153DPPC   C20 7620   2.667   0.625   4.451
  153DPPC   C21 7621   2.795   0.611   4.367
  153DPPC   C22 7622   2.780   0.525   4.241
  153DPPC   C23 7623   2.900   0.531   4.147
  153DPPC   C24 7624   2.861   0.449   4.024
  153DPPC   C25 7625   2.928   0.488   3.893
  153DPPC   C26 7626   2.886   0.418   3.763
  153DPPC   C27 7627   2.954   0.483   3.643
  153DPPC   C28 7628   2.916   0.421   3.508
  153DPPC   C29 7629   2.932   0.495   3.374
  153DPPC   C30 7630   2.848   0.428   3.265
  153DPPC   C31 7631   2.914   0.295   3.226
  153DPPC   C32 7632   2.279   0.658   4.966
  153DPPC   O33 7633   2.309   0.565   4.861
  153DPPC   C34 7634   2.206   0.511   4.790
  153DPPC   O35 7635   2.092   0.542   4.824
  153DPPC   C36 7636   2.231   0.442   4.656
  153DPPC   C37 7637   2.140   0.468   4.536
  153DPPC   C38 7638   2.198   0.406   4.409
  153DPPC   C39 7639   2.093   0.404   4.298
  153DPPC   C40 7640   2.104   0.520   4.199
  153DPPC   C41 7641   1.991   0.512   4.097
  153DPPC   C42 7642   1.994   0.632   4.003
  153DPPC   C43 7643   1.849   0.636   3.953
  153DPPC   C44 7644   1.746   0.668   4.061
  153DPPC   C45 7645   1.610   0.648   3.995
  153DPPC   C46 7646   1.507   0.725   4.078
  153DPPC   C47 7647   1.542   0.874   4.069
  153DPPC   C48 7648   1.454   0.969   4.150
  153DPPC   C49 7649   1.486   1.107   4.092
  153DPPC   C50 7650   1.391   1.205   4.161
  154DPPC    C1 7651   8.999   7.657   5.258
  154DPPC    C2 7652   9.087   7.870   5.224
  154DPPC    C3 7653   8.945   7.773   5.059
  154DPPC    N4 7654   8.966   7.790   5.204
  154DPPC    C5 7655   8.848   7.838   5.277
  154DPPC    C6 7656   8.792   7.980   5.265
  154DPPC    O7 7657   8.713   7.995   5.146
  154DPPC    P8 7658   8.689   8.150   5.111
  154DPPC    O9 7659   8.666   8.225   5.237
  154DPPC   O10 7660   8.600   8.173   4.994
  154DPPC   O11 7661   8.840   8.174   5.061
  154DPPC   C12 7662   8.845   8.227   4.928
  154DPPC   C13 7663   8.981   8.285   4.886
  154DPPC   O14 7664   8.976   8.364   4.766
  154DPPC   C15 7665   9.082   8.437   4.722
  154DPPC   O16 7666   9.184   8.462   4.787
  154DPPC   C17 7667   9.055   8.498   4.585
  154DPPC   C18 7668   9.143   8.615   4.541
  154DPPC   C19 7669   9.090   8.690   4.419
  154DPPC   C20 7670   9.192   8.788   4.361
  154DPPC   C21 7671   9.198   8.759   4.211
  154DPPC   C22 7672   9.055   8.796   4.169
  154DPPC   C23 7673   9.044   8.789   4.016
  154DPPC   C24 7674   8.903   8.804   3.958
  154DPPC   C25 7675   8.904   8.744   3.818
  154DPPC   C26 7676   8.767   8.776   3.757
  154DPPC   C27 7677   8.730   8.701   3.628
  154DPPC   C28 7678   8.819   8.748   3.513
  154DPPC   C29 7679   8.787   8.673   3.384
  154DPPC   C30 7680   8.804   8.525   3.418
  154DPPC   C31 7681   8.785   8.435   3.296
  154DPPC   C32 7682   9.058   8.155   4.862
  154DPPC   O33 7683   8.997   8.060   4.774
  154DPPC   C34 7684   9.060   7.950   4.726
  154DPPC   O35 7685   9.176   7.917   4.751
  154DPPC   C36 7686   8.979   7.865   4.627
  154DPPC   C37 7687   8.905   7.948   4.522
  154DPPC   C38 7688   8.836   7.861   4.417
  154DPPC   C39 7689   8.748   7.932   4.314
  154DPPC   C40 7690   8.677   7.832   4.223
  154DPPC   C41 7691   8.550   7.886   4.157
  154DPPC   C42 7692   8.497   7.821   4.029
  154DPPC   C43 7693   8.604   7.794   3.923
  154DPPC   C44 7694   8.560   7.721   3.796
  154DPPC   C45 7695   8.691   7.696   3.720
  154DPPC   C46 7696   8.692   7.556   3.659
  154DPPC   C47 7697   8.822   7.540   3.579
  154DPPC   C48 7698   8.825   7.633   3.457
  154DPPC   C49 7699   8.970   7.635   3.407
  154DPPC   C50 7700   8.998   7.719   3.282
  155DPPC    C1 7701   3.591   4.177   6.264
  155DPPC    C2 7702   3.551   3.938   6.257
  155DPPC    C3 7703   3.393   4.090   6.342
  155DPPC    N4 7704   3.492   4.071   6.236
  155DPPC    C5 7705   3.454   4.105   6.098
  155DPPC    C6 7706   3.341   4.029   6.030
  155DPPC    O7 7707   3.312   4.092   5.905
  155DPPC    P8 7708   3.176   4.041   5.836
  155DPPC    O9 7709   3.122   4.158   5.764
  155DPPC   O10 7710   3.107   3.954   5.935
  155DPPC   O11 7711   3.255   3.943   5.736
  155DPPC   C12 7712   3.348   4.005   5.647
  155DPPC   C13 7713   3.396   3.911   5.536
  155DPPC   O14 7714   3.481   3.986   5.448
  155DPPC   C15 7715   3.596   3.932   5.398
  155DPPC   O16 7716   3.671   3.875   5.476
  155DPPC   C17 7717   3.642   3.990   5.264
  155DPPC   C18 7718   3.555   3.957   5.143
  155DPPC   C19 7719   3.622   4.017   5.019
  155DPPC   C20 7720   3.553   3.979   4.888
  155DPPC   C21 7721   3.616   4.071   4.783
  155DPPC   C22 7722   3.510   4.080   4.673
  155DPPC   C23 7723   3.577   4.160   4.562
  155DPPC   C24 7724   3.502   4.161   4.429
  155DPPC   C25 7725   3.605   4.210   4.327
  155DPPC   C26 7726   3.572   4.197   4.178
  155DPPC   C27 7727   3.701   4.191   4.096
  155DPPC   C28 7728   3.675   4.167   3.947
  155DPPC   C29 7729   3.633   4.275   3.847
  155DPPC   C30 7730   3.621   4.213   3.707
  155DPPC   C31 7731   3.604   4.334   3.615
  155DPPC   C32 7732   3.275   3.851   5.465
  155DPPC   O33 7733   3.299   3.747   5.370
  155DPPC   C34 7734   3.190   3.693   5.308
  155DPPC   O35 7735   3.078   3.715   5.353
  155DPPC   C36 7736   3.221   3.590   5.199
  155DPPC   C37 7737   3.271   3.646   5.066
  155DPPC   C38 7738   3.278   3.531   4.965
  155DPPC   C39 7739   3.292   3.586   4.823
  155DPPC   C40 7740   3.301   3.471   4.722
  155DPPC   C41 7741   3.274   3.522   4.580
  155DPPC   C42 7742   3.296   3.396   4.495
  155DPPC   C43 7743   3.326   3.445   4.353
  155DPPC   C44 7744   3.346   3.340   4.244
  155DPPC   C45 7745   3.397   3.390   4.109
  155DPPC   C46 7746   3.422   3.274   4.013
  155DPPC   C47 7747   3.473   3.314   3.874
  155DPPC   C48 7748   3.518   3.186   3.804
  155DPPC   C49 7749   3.547   3.222   3.658
  155DPPC   C50 7750   3.430   3.252   3.565
  156DPPC    C1 7751   7.282   2.694   5.879
  156DPPC    C2 7752   7.061   2.685   5.976
  156DPPC    C3 7753   7.126   2.862   5.833
  156DPPC    N4 7754   7.139   2.718   5.856
  156DPPC    C5 7755   7.106   2.644   5.732
  156DPPC    C6 7756   7.125   2.493   5.729
  156DPPC    O7 7757   7.046   2.443   5.620
  156DPPC    P8 7758   7.099   2.295   5.587
  156DPPC    O9 7759   7.012   2.232   5.484
  156DPPC   O10 7760   7.145   2.232   5.713
  156DPPC   O11 7761   7.226   2.336   5.498
  156DPPC   C12 7762   7.185   2.431   5.399
  156DPPC   C13 7763   7.294   2.471   5.299
  156DPPC   O14 7764   7.249   2.557   5.193
  156DPPC   C15 7765   7.243   2.689   5.223
  156DPPC   O16 7766   7.261   2.713   5.343
  156DPPC   C17 7767   7.205   2.789   5.114
  156DPPC   C18 7768   7.302   2.803   4.996
  156DPPC   C19 7769   7.218   2.886   4.897
  156DPPC   C20 7770   7.092   2.809   4.857
  156DPPC   C21 7771   6.988   2.885   4.775
  156DPPC   C22 7772   6.893   2.781   4.715
  156DPPC   C23 7773   6.791   2.853   4.627
  156DPPC   C24 7774   6.875   2.928   4.524
  156DPPC   C25 7775   6.807   3.008   4.413
  156DPPC   C26 7776   6.710   3.113   4.466
  156DPPC   C27 7777   6.723   3.255   4.410
  156DPPC   C28 7778   6.610   3.279   4.309
  156DPPC   C29 7779   6.640   3.404   4.226
  156DPPC   C30 7780   6.529   3.426   4.123
  156DPPC   C31 7781   6.552   3.551   4.036
  156DPPC   C32 7782   7.384   2.350   5.272
  156DPPC   O33 7783   7.323   2.229   5.228
  156DPPC   C34 7784   7.409   2.126   5.208
  156DPPC   O35 7785   7.521   2.126   5.260
  156DPPC   C36 7786   7.363   2.006   5.125
  156DPPC   C37 7787   7.482   1.953   5.045
  156DPPC   C38 7788   7.444   1.831   4.960
  156DPPC   C39 7789   7.355   1.871   4.842
  156DPPC   C40 7790   7.304   1.753   4.759
  156DPPC   C41 7791   7.209   1.798   4.649
  156DPPC   C42 7792   7.074   1.842   4.707
  156DPPC   C43 7793   6.983   1.911   4.606
  156DPPC   C44 7794   6.833   1.926   4.634
  156DPPC   C45 7795   6.778   2.012   4.520
  156DPPC   C46 7796   6.626   1.997   4.522
  156DPPC   C47 7797   6.564   2.044   4.390
  156DPPC   C48 7798   6.589   1.932   4.289
  156DPPC   C49 7799   6.542   1.971   4.148
  156DPPC   C50 7800   6.579   2.112   4.103
  157DPPC    C1 7801   0.175   1.022   5.130
  157DPPC    C2 7802   0.090   1.196   5.246
  157DPPC    C3 7803   0.330   1.165   5.240
  157DPPC    N4 7804   0.205   1.162   5.162
  157DPPC    C5 7805   0.222   1.233   5.034
  157DPPC    C6 7806   0.258   1.381   5.041
  157DPPC    O7 7807   0.167   1.474   5.101
  157DPPC    P8 7808   0.254   1.584   5.180
  157DPPC    O9 7809   0.333   1.501   5.273
  157DPPC   O10 7810   0.150   1.686   5.212
  157DPPC   O11 7811   0.350   1.646   5.067
  157DPPC   C12 7812   0.282   1.755   5.006
  157DPPC   C13 7813   0.358   1.813   4.887
  157DPPC   O14 7814   0.303   1.930   4.824
  157DPPC   C15 7815   0.299   2.047   4.894
  157DPPC   O16 7816   0.331   2.058   5.012
  157DPPC   C17 7817   0.251   2.167   4.812
  157DPPC   C18 7818   0.273   2.158   4.661
  157DPPC   C19 7819   0.415   2.198   4.617
  157DPPC   C20 7820   0.420   2.184   4.465
  157DPPC   C21 7821   0.427   2.036   4.427
  157DPPC   C22 7822   0.452   2.024   4.276
  157DPPC   C23 7823   0.453   1.880   4.223
  157DPPC   C24 7824   0.453   1.891   4.070
  157DPPC   C25 7825   0.347   1.990   4.020
  157DPPC   C26 7826   0.335   1.981   3.868
  157DPPC   C27 7827   0.336   1.836   3.820
  157DPPC   C28 7828   0.335   1.842   3.667
  157DPPC   C29 7829   0.317   1.697   3.620
  157DPPC   C30 7830   0.302   1.682   3.468
  157DPPC   C31 7831   0.307   1.538   3.419
  157DPPC   C32 7832   0.366   1.695   4.790
  157DPPC   O33 7833   0.234   1.650   4.757
  157DPPC   C34 7834   0.221   1.544   4.672
  157DPPC   O35 7835   0.311   1.462   4.657
  157DPPC   C36 7836   0.080   1.522   4.617
  157DPPC   C37 7837  -0.002   1.648   4.590
  157DPPC   C38 7838   0.069   1.750   4.500
  157DPPC   C39 7839  -0.022   1.874   4.496
  157DPPC   C40 7840   0.031   1.987   4.408
  157DPPC   C41 7841  -0.081   2.076   4.353
  157DPPC   C42 7842  -0.180   1.996   4.269
  157DPPC   C43 7843  -0.286   2.078   4.195
  157DPPC   C44 7844  -0.385   1.999   4.109
  157DPPC   C45 7845  -0.467   2.099   4.028
  157DPPC   C46 7846  -0.557   2.025   3.929
  157DPPC   C47 7847  -0.642   2.132   3.860
  157DPPC   C48 7848  -0.567   2.227   3.765
  157DPPC   C49 7849  -0.663   2.330   3.705
  157DPPC   C50 7850  -0.757   2.253   3.612
  158DPPC    C1 7851   2.774   0.843   5.249
  158DPPC    C2 7852   2.863   0.618   5.302
  158DPPC    C3 7853   2.938   0.724   5.123
  158DPPC    N4 7854   2.891   0.755   5.259
  158DPPC    C5 7855   2.987   0.813   5.355
  158DPPC    C6 7856   3.086   0.925   5.321
  158DPPC    O7 7857   3.038   1.058   5.338
  158DPPC    P8 7858   3.158   1.142   5.406
  158DPPC    O9 7859   3.220   1.053   5.507
  158DPPC   O10 7860   3.129   1.285   5.431
  158DPPC   O11 7861   3.263   1.135   5.284
  158DPPC   C12 7862   3.220   1.226   5.183
  158DPPC   C13 7863   3.331   1.263   5.084
  158DPPC   O14 7864   3.317   1.392   5.024
  158DPPC   C15 7865   3.431   1.460   4.998
  158DPPC   O16 7866   3.545   1.416   5.014
  158DPPC   C17 7867   3.417   1.545   4.872
  158DPPC   C18 7868   3.357   1.683   4.903
  158DPPC   C19 7869   3.349   1.777   4.782
  158DPPC   C20 7870   3.278   1.713   4.663
  158DPPC   C21 7871   3.284   1.802   4.539
  158DPPC   C22 7872   3.182   1.740   4.442
  158DPPC   C23 7873   3.206   1.776   4.296
  158DPPC   C24 7874   3.107   1.708   4.201
  158DPPC   C25 7875   3.135   1.747   4.056
  158DPPC   C26 7876   3.043   1.670   3.961
  158DPPC   C27 7877   3.093   1.698   3.819
  158DPPC   C28 7878   3.008   1.632   3.711
  158DPPC   C29 7879   3.052   1.666   3.568
  158DPPC   C30 7880   3.197   1.631   3.534
  158DPPC   C31 7881   3.240   1.711   3.411
  158DPPC   C32 7882   3.354   1.145   4.989
  158DPPC   O33 7883   3.238   1.092   4.923
  158DPPC   C34 7884   3.272   0.994   4.834
  158DPPC   O35 7885   3.384   0.947   4.820
  158DPPC   C36 7886   3.148   0.966   4.748
  158DPPC   C37 7887   3.088   0.830   4.783
  158DPPC   C38 7888   3.155   0.708   4.720
  158DPPC   C39 7889   3.067   0.584   4.707
  158DPPC   C40 7890   3.138   0.499   4.601
  158DPPC   C41 7891   3.161   0.578   4.472
  158DPPC   C42 7892   3.235   0.482   4.379
  158DPPC   C43 7893   3.273   0.551   4.248
  158DPPC   C44 7894   3.378   0.658   4.279
  158DPPC   C45 7895   3.462   0.701   4.159
  158DPPC   C46 7896   3.544   0.821   4.208
  158DPPC   C47 7897   3.636   0.876   4.099
  158DPPC   C48 7898   3.720   0.995   4.145
  158DPPC   C49 7899   3.820   1.040   4.038
  158DPPC   C50 7900   3.915   0.924   4.008
  159DPPC    C1 7901   3.423   8.287   4.653
  159DPPC    C2 7902   3.341   8.061   4.639
  159DPPC    C3 7903   3.502   8.116   4.798
  159DPPC    N4 7904   3.382   8.169   4.731
  159DPPC    C5 7905   3.264   8.193   4.815
  159DPPC    C6 7906   3.232   8.323   4.889
  159DPPC    O7 7907   3.169   8.424   4.809
  159DPPC    P8 7908   3.175   8.565   4.886
  159DPPC    O9 7909   3.174   8.528   5.029
  159DPPC   O10 7910   3.070   8.647   4.822
  159DPPC   O11 7911   3.321   8.603   4.828
  159DPPC   C12 7912   3.328   8.716   4.740
  159DPPC   C13 7913   3.469   8.748   4.688
  159DPPC   O14 7914   3.496   8.885   4.657
  159DPPC   C15 7915   3.509   8.986   4.748
  159DPPC   O16 7916   3.489   8.961   4.867
  159DPPC   C17 7917   3.529   9.127   4.694
  159DPPC   C18 7918   3.652   9.146   4.605
  159DPPC   C19 7919   3.673   9.290   4.560
  159DPPC   C20 7920   3.819   9.320   4.527
  159DPPC   C21 7921   3.838   9.465   4.483
  159DPPC   C22 7922   3.989   9.493   4.487
  159DPPC   C23 7923   4.068   9.476   4.356
  159DPPC   C24 7924   4.216   9.501   4.382
  159DPPC   C25 7925   4.295   9.502   4.251
  159DPPC   C26 7926   4.292   9.362   4.189
  159DPPC   C27 7927   4.342   9.369   4.045
  159DPPC   C28 7928   4.308   9.232   3.986
  159DPPC   C29 7929   4.390   9.193   3.863
  159DPPC   C30 7930   4.377   9.294   3.748
  159DPPC   C31 7931   4.243   9.308   3.676
  159DPPC   C32 7932   3.495   8.651   4.572
  159DPPC   O33 7933   3.405   8.663   4.462
  159DPPC   C34 7934   3.440   8.583   4.358
  159DPPC   O35 7935   3.536   8.506   4.359
  159DPPC   C36 7936   3.347   8.604   4.238
  159DPPC   C37 7937   3.428   8.655   4.119
  159DPPC   C38 7938   3.330   8.736   4.034
  159DPPC   C39 7939   3.403   8.791   3.911
  159DPPC   C40 7940   3.312   8.798   3.788
  159DPPC   C41 7941   3.394   8.861   3.675
  159DPPC   C42 7942   3.496   8.767   3.612
  159DPPC   C43 7943   3.556   8.847   3.496
  159DPPC   C44 7944   3.658   8.762   3.421
  159DPPC   C45 7945   3.705   8.826   3.290
  159DPPC   C46 7946   3.589   8.876   3.205
  159DPPC   C47 7947   3.654   8.987   3.122
  159DPPC   C48 7948   3.787   8.932   3.069
  159DPPC   C49 7949   3.855   9.053   3.006
  159DPPC   C50 7950   3.775   9.113   2.890
  160DPPC    C1 7951   0.918   3.520   5.532
  160DPPC    C2 7952   0.823   3.422   5.339
  160DPPC    C3 7953   0.921   3.625   5.313
  160DPPC    N4 7954   0.938   3.499   5.388
  160DPPC    C5 7955   1.062   3.424   5.361
  160DPPC    C6 7956   1.197   3.481   5.405
  160DPPC    O7 7957   1.312   3.412   5.357
  160DPPC    P8 7958   1.451   3.489   5.384
  160DPPC    O9 7959   1.554   3.389   5.423
  160DPPC   O10 7960   1.408   3.603   5.468
  160DPPC   O11 7961   1.464   3.534   5.230
  160DPPC   C12 7962   1.506   3.419   5.156
  160DPPC   C13 7963   1.527   3.435   5.005
  160DPPC   O14 7964   1.659   3.398   4.964
  160DPPC   C15 7965   1.674   3.278   4.901
  160DPPC   O16 7966   1.611   3.185   4.951
  160DPPC   C17 7967   1.804   3.266   4.821
  160DPPC   C18 7968   1.776   3.202   4.685
  160DPPC   C19 7969   1.910   3.204   4.612
  160DPPC   C20 7970   1.916   3.111   4.491
  160DPPC   C21 7971   1.925   2.963   4.528
  160DPPC   C22 7972   1.916   2.878   4.400
  160DPPC   C23 7973   1.787   2.907   4.322
  160DPPC   C24 7974   1.749   2.785   4.238
  160DPPC   C25 7975   1.618   2.805   4.163
  160DPPC   C26 7976   1.582   2.703   4.054
  160DPPC   C27 7977   1.677   2.700   3.934
  160DPPC   C28 7978   1.617   2.611   3.825
  160DPPC   C29 7979   1.718   2.625   3.711
  160DPPC   C30 7980   1.658   2.544   3.596
  160DPPC   C31 7981   1.738   2.521   3.467
  160DPPC   C32 7982   1.482   3.580   4.981
  160DPPC   O33 7983   1.462   3.622   4.846
  160DPPC   C34 7984   1.479   3.757   4.845
  160DPPC   O35 7985   1.514   3.816   4.947
  160DPPC   C36 7986   1.446   3.828   4.713
  160DPPC   C37 7987   1.435   3.721   4.605
  160DPPC   C38 7988   1.413   3.777   4.464
  160DPPC   C39 7989   1.359   3.664   4.376
  160DPPC   C40 7990   1.349   3.696   4.227
  160DPPC   C41 7991   1.264   3.591   4.155
  160DPPC   C42 7992   1.220   3.638   4.016
  160DPPC   C43 7993   1.134   3.535   3.944
  160DPPC   C44 7994   1.056   3.595   3.826
  160DPPC   C45 7995   1.106   3.550   3.688
  160DPPC   C46 7996   1.028   3.599   3.566
  160DPPC   C47 7997   1.088   3.530   3.444
  160DPPC   C48 7998   1.022   3.587   3.319
  160DPPC   C49 7999   1.072   3.529   3.186
  160DPPC   C50 8000   1.224   3.543   3.173
  161DPPC    C1 8001   4.567   5.710   5.534
  161DPPC    C2 8002   4.344   5.651   5.561
  161DPPC    C3 8003   4.438   5.846   5.683
  161DPPC    N4 8004   4.434   5.767   5.559
  161DPPC    C5 8005   4.420   5.846   5.436
  161DPPC    C6 8006   4.314   5.957   5.438
  161DPPC    O7 8007   4.321   6.026   5.313
  161DPPC    P8 8008   4.179   6.096   5.283
  161DPPC    O9 8009   4.185   6.243   5.286
  161DPPC   O10 8010   4.074   6.012   5.345
  161DPPC   O11 8011   4.196   6.068   5.126
  161DPPC   C12 8012   4.289   6.155   5.060
  161DPPC   C13 8013   4.323   6.104   4.920
  161DPPC   O14 8014   4.236   6.134   4.810
  161DPPC   C15 8015   4.205   6.262   4.778
  161DPPC   O16 8016   4.227   6.360   4.850
  161DPPC   C17 8017   4.119   6.292   4.655
  161DPPC   C18 8018   4.096   6.442   4.631
  161DPPC   C19 8019   4.024   6.459   4.497
  161DPPC   C20 8020   3.895   6.378   4.504
  161DPPC   C21 8021   3.840   6.379   4.361
  161DPPC   C22 8022   3.951   6.325   4.271
  161DPPC   C23 8023   3.904   6.261   4.141
  161DPPC   C24 8024   4.008   6.171   4.074
  161DPPC   C25 8025   3.961   6.135   3.933
  161DPPC   C26 8026   4.067   6.054   3.857
  161DPPC   C27 8027   3.998   5.999   3.732
  161DPPC   C28 8028   3.988   6.090   3.609
  161DPPC   C29 8029   3.958   6.009   3.483
  161DPPC   C30 8030   3.831   5.929   3.512
  161DPPC   C31 8031   3.707   6.015   3.485
  161DPPC   C32 8032   4.357   5.957   4.947
  161DPPC   O33 8033   4.449   5.887   4.863
  161DPPC   C34 8034   4.456   5.753   4.886
  161DPPC   O35 8035   4.391   5.701   4.977
  161DPPC   C36 8036   4.529   5.667   4.782
  161DPPC   C37 8037   4.486   5.709   4.641
  161DPPC   C38 8038   4.594   5.663   4.543
  161DPPC   C39 8039   4.565   5.732   4.410
  161DPPC   C40 8040   4.650   5.679   4.295
  161DPPC   C41 8041   4.642   5.757   4.163
  161DPPC   C42 8042   4.752   5.699   4.073
  161DPPC   C43 8043   4.750   5.760   3.933
  161DPPC   C44 8044   4.865   5.706   3.847
  161DPPC   C45 8045   4.993   5.783   3.877
  161DPPC   C46 8046   5.097   5.739   3.775
  161DPPC   C47 8047   5.232   5.810   3.793
  161DPPC   C48 8048   5.333   5.744   3.700
  161DPPC   C49 8049   5.475   5.794   3.730
  161DPPC   C50 8050   5.471   5.946   3.727
  162DPPC    C1 8051   6.098   6.155   4.957
  162DPPC    C2 8052   6.331   6.117   4.986
  162DPPC    C3 8053   6.210   6.213   5.167
  162DPPC    N4 8054   6.202   6.119   5.055
  162DPPC    C5 8055   6.191   5.985   5.115
  162DPPC    C6 8056   6.140   5.871   5.027
  162DPPC    O7 8057   6.216   5.840   4.910
  162DPPC    P8 8058   6.144   5.722   4.826
  162DPPC    O9 8059   6.030   5.810   4.791
  162DPPC   O10 8060   6.142   5.608   4.920
  162DPPC   O11 8061   6.263   5.717   4.717
  162DPPC   C12 8062   6.236   5.829   4.632
  162DPPC   C13 8063   6.348   5.873   4.538
  162DPPC   O14 8064   6.325   5.826   4.405
  162DPPC   C15 8065   6.235   5.899   4.333
  162DPPC   O16 8066   6.154   5.973   4.387
  162DPPC   C17 8067   6.248   5.901   4.181
  162DPPC   C18 8068   6.366   5.814   4.136
  162DPPC   C19 8069   6.395   5.835   3.987
  162DPPC   C20 8070   6.276   5.810   3.894
  162DPPC   C21 8071   6.315   5.820   3.747
  162DPPC   C22 8072   6.342   5.966   3.709
  162DPPC   C23 8073   6.387   5.967   3.563
  162DPPC   C24 8074   6.392   6.108   3.504
  162DPPC   C25 8075   6.475   6.118   3.376
  162DPPC   C26 8076   6.610   6.048   3.398
  162DPPC   C27 8077   6.679   6.072   3.263
  162DPPC   C28 8078   6.606   5.997   3.152
  162DPPC   C29 8079   6.578   5.847   3.169
  162DPPC   C30 8080   6.439   5.819   3.112
  162DPPC   C31 8081   6.434   5.824   2.959
  162DPPC   C32 8082   6.475   5.819   4.604
  162DPPC   O33 8083   6.595   5.873   4.548
  162DPPC   C34 8084   6.711   5.803   4.568
  162DPPC   O35 8085   6.705   5.709   4.647
  162DPPC   C36 8086   6.834   5.857   4.496
  162DPPC   C37 8087   6.874   5.773   4.374
  162DPPC   C38 8088   6.788   5.803   4.251
  162DPPC   C39 8089   6.853   5.741   4.127
  162DPPC   C40 8090   6.772   5.756   3.998
  162DPPC   C41 8091   6.852   5.705   3.878
  162DPPC   C42 8092   6.763   5.710   3.753
  162DPPC   C43 8093   6.833   5.657   3.628
  162DPPC   C44 8094   6.767   5.673   3.491
  162DPPC   C45 8095   6.856   5.626   3.375
  162DPPC   C46 8096   6.967   5.725   3.337
  162DPPC   C47 8097   7.051   5.667   3.224
  162DPPC   C48 8098   7.167   5.762   3.195
  162DPPC   C49 8099   7.119   5.853   3.081
  162DPPC   C50 8100   7.234   5.952   3.061
  163DPPC    C1 8101   6.075   5.117   1.114
  163DPPC    C2 8102   6.058   5.187   1.342
  163DPPC    C3 8103   5.904   5.029   1.241
  163DPPC    N4 8104   6.044   5.072   1.251
  163DPPC    C5 8105   6.139   4.969   1.293
  163DPPC    C6 8106   6.121   4.884   1.419
  163DPPC    O7 8107   6.235   4.804   1.452
  163DPPC    P8 8108   6.186   4.687   1.552
  163DPPC    O9 8109   6.299   4.603   1.598
  163DPPC   O10 8110   6.068   4.617   1.497
  163DPPC   O11 8111   6.122   4.777   1.669
  163DPPC   C12 8112   6.222   4.803   1.768
  163DPPC   C13 8113   6.174   4.920   1.853
  163DPPC   O14 8114   6.280   4.975   1.933
  163DPPC   C15 8115   6.379   5.046   1.873
  163DPPC   O16 8116   6.390   5.044   1.751
  163DPPC   C17 8117   6.497   5.095   1.958
  163DPPC   C18 8118   6.458   5.227   2.024
  163DPPC   C19 8119   6.577   5.276   2.107
  163DPPC   C20 8120   6.547   5.406   2.183
  163DPPC   C21 8121   6.652   5.411   2.294
  163DPPC   C22 8122   6.648   5.550   2.358
  163DPPC   C23 8123   6.511   5.600   2.403
  163DPPC   C24 8124   6.538   5.731   2.476
  163DPPC   C25 8125   6.586   5.841   2.381
  163DPPC   C26 8126   6.603   5.970   2.463
  163DPPC   C27 8127   6.694   5.941   2.582
  163DPPC   C28 8128   6.697   6.060   2.678
  163DPPC   C29 8129   6.806   6.052   2.785
  163DPPC   C30 8130   6.846   6.189   2.841
  163DPPC   C31 8131   6.951   6.189   2.952
  163DPPC   C32 8132   6.055   4.865   1.931
  163DPPC   O33 8133   5.980   4.978   1.977
  163DPPC   C34 8134   5.870   4.936   2.045
  163DPPC   O35 8135   5.848   4.815   2.044
  163DPPC   C36 8136   5.788   5.034   2.129
  163DPPC   C37 8137   5.811   5.034   2.280
  163DPPC   C38 8138   5.719   5.138   2.343
  163DPPC   C39 8139   5.745   5.147   2.494
  163DPPC   C40 8140   5.637   5.234   2.558
  163DPPC   C41 8141   5.636   5.212   2.709
  163DPPC   C42 8142   5.536   5.311   2.769
  163DPPC   C43 8143   5.534   5.318   2.921
  163DPPC   C44 8144   5.489   5.453   2.980
  163DPPC   C45 8145   5.524   5.459   3.128
  163DPPC   C46 8146   5.498   5.604   3.169
  163DPPC   C47 8147   5.523   5.632   3.317
  163DPPC   C48 8148   5.529   5.783   3.339
  163DPPC   C49 8149   5.626   5.836   3.233
  163DPPC   C50 8150   5.642   5.986   3.208
  164DPPC    C1 8151   2.486   2.236   2.100
  164DPPC    C2 8152   2.679   2.232   2.242
  164DPPC    C3 8153   2.591   2.029   2.169
  164DPPC    N4 8154   2.614   2.168   2.127
  164DPPC    C5 8155   2.698   2.162   2.007
  164DPPC    C6 8156   2.738   2.276   1.913
  164DPPC    O7 8157   2.828   2.362   1.982
  164DPPC    P8 8158   2.859   2.480   1.876
  164DPPC    O9 8159   2.723   2.514   1.829
  164DPPC   O10 8160   2.963   2.411   1.797
  164DPPC   O11 8161   2.929   2.583   1.978
  164DPPC   C12 8162   2.842   2.603   2.090
  164DPPC   C13 8163   2.925   2.670   2.200
  164DPPC   O14 8164   2.860   2.695   2.325
  164DPPC   C15 8165   2.865   2.589   2.410
  164DPPC   O16 8166   2.903   2.475   2.382
  164DPPC   C17 8167   2.791   2.596   2.544
  164DPPC   C18 8168   2.848   2.506   2.654
  164DPPC   C19 8169   2.773   2.514   2.787
  164DPPC   C20 8170   2.651   2.422   2.785
  164DPPC   C21 8171   2.553   2.460   2.896
  164DPPC   C22 8172   2.507   2.606   2.894
  164DPPC   C23 8173   2.366   2.601   2.951
  164DPPC   C24 8174   2.400   2.592   3.099
  164DPPC   C25 8175   2.274   2.605   3.186
  164DPPC   C26 8176   2.294   2.596   3.338
  164DPPC   C27 8177   2.164   2.600   3.418
  164DPPC   C28 8178   2.173   2.579   3.569
  164DPPC   C29 8179   2.263   2.683   3.635
  164DPPC   C30 8180   2.195   2.819   3.623
  164DPPC   C31 8181   2.281   2.934   3.676
  164DPPC   C32 8182   2.989   2.790   2.130
  164DPPC   O33 8183   2.897   2.895   2.098
  164DPPC   C34 8184   2.946   2.998   2.024
  164DPPC   O35 8185   3.064   2.999   1.989
  164DPPC   C36 8186   2.863   3.126   2.017
  164DPPC   C37 8187   2.866   3.190   2.156
  164DPPC   C38 8188   2.731   3.260   2.170
  164DPPC   C39 8189   2.715   3.349   2.294
  164DPPC   C40 8190   2.695   3.244   2.404
  164DPPC   C41 8191   2.670   3.318   2.535
  164DPPC   C42 8192   2.692   3.221   2.651
  164DPPC   C43 8193   2.667   3.285   2.787
  164DPPC   C44 8194   2.689   3.178   2.895
  164DPPC   C45 8195   2.685   3.238   3.036
  164DPPC   C46 8196   2.731   3.128   3.131
  164DPPC   C47 8197   2.762   3.193   3.266
  164DPPC   C48 8198   2.793   3.093   3.377
  164DPPC   C49 8199   2.685   3.002   3.435
  164DPPC   C50 8200   2.738   2.966   3.574
  165DPPC    C1 8201   0.053   3.368   1.110
  165DPPC    C2 8202   0.234   3.490   1.235
  165DPPC    C3 8203   0.020   3.577   1.212
  165DPPC    N4 8204   0.093   3.450   1.225
  165DPPC    C5 8205   0.044   3.375   1.342
  165DPPC    C6 8206   0.107   3.238   1.368
  165DPPC    O7 8207   0.028   3.128   1.321
  165DPPC    P8 8208   0.112   2.993   1.297
  165DPPC    O9 8209   0.216   3.049   1.207
  165DPPC   O10 8210   0.009   2.891   1.265
  165DPPC   O11 8211   0.164   2.978   1.448
  165DPPC   C12 8212   0.052   2.935   1.527
  165DPPC   C13 8213   0.055   2.987   1.671
  165DPPC   O14 8214   0.051   3.129   1.692
  165DPPC   C15 8215  -0.070   3.184   1.722
  165DPPC   O16 8216  -0.177   3.129   1.697
  165DPPC   C17 8217  -0.063   3.334   1.750
  165DPPC   C18 8218   0.008   3.371   1.880
  165DPPC   C19 8219  -0.074   3.340   2.006
  165DPPC   C20 8220  -0.016   3.388   2.139
  165DPPC   C21 8221  -0.117   3.379   2.253
  165DPPC   C22 8222  -0.063   3.384   2.396
  165DPPC   C23 8223  -0.179   3.366   2.494
  165DPPC   C24 8224  -0.102   3.367   2.626
  165DPPC   C25 8225  -0.191   3.305   2.733
  165DPPC   C26 8226  -0.141   3.373   2.861
  165DPPC   C27 8227  -0.203   3.293   2.976
  165DPPC   C28 8228  -0.356   3.284   2.966
  165DPPC   C29 8229  -0.419   3.228   3.094
  165DPPC   C30 8230  -0.483   3.336   3.181
  165DPPC   C31 8231  -0.541   3.265   3.304
  165DPPC   C32 8232   0.184   2.928   1.730
  165DPPC   O33 8233   0.180   2.875   1.863
  165DPPC   C34 8234   0.136   2.748   1.879
  165DPPC   O35 8235   0.154   2.668   1.787
  165DPPC   C36 8236   0.145   2.703   2.025
  165DPPC   C37 8237   0.092   2.562   2.050
  165DPPC   C38 8238   0.133   2.539   2.196
  165DPPC   C39 8239   0.005   2.500   2.271
  165DPPC   C40 8240   0.023   2.513   2.422
  165DPPC   C41 8241  -0.100   2.472   2.503
  165DPPC   C42 8242  -0.083   2.503   2.652
  165DPPC   C43 8243  -0.201   2.473   2.744
  165DPPC   C44 8244  -0.189   2.567   2.864
  165DPPC   C45 8245  -0.302   2.529   2.960
  165DPPC   C46 8246  -0.293   2.618   3.084
  165DPPC   C47 8247  -0.399   2.566   3.180
  165DPPC   C48 8248  -0.377   2.424   3.233
  165DPPC   C49 8249  -0.483   2.363   3.325
  165DPPC   C50 8250  -0.428   2.235   3.388
  166DPPC    C1 8251   2.216   3.422   1.114
  166DPPC    C2 8252   2.439   3.448   1.213
  166DPPC    C3 8253   2.261   3.350   1.336
  166DPPC    N4 8254   2.318   3.364   1.201
  166DPPC    C5 8255   2.374   3.236   1.153
  166DPPC    C6 8256   2.314   3.100   1.187
  166DPPC    O7 8257   2.186   3.094   1.123
  166DPPC    P8 8258   2.106   2.960   1.161
  166DPPC    O9 8259   2.198   2.845   1.143
  166DPPC   O10 8260   1.974   2.962   1.095
  166DPPC   O11 8261   2.076   3.003   1.314
  166DPPC   C12 8262   1.982   2.906   1.361
  166DPPC   C13 8263   1.922   2.938   1.498
  166DPPC   O14 8264   1.805   2.862   1.532
  166DPPC   C15 8265   1.814   2.732   1.569
  166DPPC   O16 8266   1.920   2.670   1.581
  166DPPC   C17 8267   1.686   2.681   1.636
  166DPPC   C18 8268   1.716   2.644   1.781
  166DPPC   C19 8269   1.599   2.570   1.845
  166DPPC   C20 8270   1.613   2.589   1.996
  166DPPC   C21 8271   1.542   2.486   2.084
  166DPPC   C22 8272   1.571   2.511   2.232
  166DPPC   C23 8273   1.545   2.654   2.282
  166DPPC   C24 8274   1.543   2.655   2.435
  166DPPC   C25 8275   1.589   2.794   2.479
  166DPPC   C26 8276   1.609   2.799   2.631
  166DPPC   C27 8277   1.478   2.754   2.696
  166DPPC   C28 8278   1.500   2.746   2.847
  166DPPC   C29 8279   1.384   2.661   2.897
  166DPPC   C30 8280   1.367   2.663   3.049
  166DPPC   C31 8281   1.255   2.562   3.077
  166DPPC   C32 8282   1.910   3.091   1.494
  166DPPC   O33 8283   1.876   3.160   1.614
  166DPPC   C34 8284   1.884   3.296   1.605
  166DPPC   O35 8285   1.954   3.355   1.523
  166DPPC   C36 8286   1.807   3.380   1.707
  166DPPC   C37 8287   1.900   3.414   1.824
  166DPPC   C38 8288   1.840   3.504   1.931
  166DPPC   C39 8289   1.948   3.510   2.040
  166DPPC   C40 8290   1.887   3.608   2.141
  166DPPC   C41 8291   1.971   3.606   2.269
  166DPPC   C42 8292   1.870   3.590   2.383
  166DPPC   C43 8293   1.927   3.595   2.525
  166DPPC   C44 8294   1.819   3.548   2.623
  166DPPC   C45 8295   1.787   3.658   2.725
  166DPPC   C46 8296   1.761   3.795   2.663
  166DPPC   C47 8297   1.741   3.896   2.776
  166DPPC   C48 8298   1.862   3.918   2.868
  166DPPC   C49 8299   1.829   4.018   2.980
  166DPPC   C50 8300   1.947   4.029   3.076
  167DPPC    C1 8301   2.185   2.318   1.249
  167DPPC    C2 8302   2.361   2.176   1.327
  167DPPC    C3 8303   2.337   2.400   1.401
  167DPPC    N4 8304   2.262   2.278   1.367
  167DPPC    C5 8305   2.179   2.235   1.481
  167DPPC    C6 8306   2.077   2.122   1.468
  167DPPC    O7 8307   2.146   1.999   1.489
  167DPPC    P8 8308   2.039   1.885   1.451
  167DPPC    O9 8309   2.124   1.767   1.425
  167DPPC   O10 8310   1.959   1.951   1.345
  167DPPC   O11 8311   1.977   1.914   1.597
  167DPPC   C12 8312   2.049   1.864   1.710
  167DPPC   C13 8313   1.977   1.899   1.840
  167DPPC   O14 8314   1.862   1.819   1.869
  167DPPC   C15 8315   1.882   1.691   1.911
  167DPPC   O16 8316   1.977   1.625   1.871
  167DPPC   C17 8317   1.779   1.643   2.013
  167DPPC   C18 8318   1.833   1.660   2.155
  167DPPC   C19 8319   1.750   1.605   2.272
  167DPPC   C20 8320   1.801   1.646   2.410
  167DPPC   C21 8321   1.949   1.613   2.429
  167DPPC   C22 8322   2.006   1.699   2.542
  167DPPC   C23 8323   2.144   1.631   2.539
  167DPPC   C24 8324   2.223   1.728   2.626
  167DPPC   C25 8325   2.339   1.660   2.699
  167DPPC   C26 8326   2.280   1.576   2.812
  167DPPC   C27 8327   2.379   1.500   2.901
  167DPPC   C28 8328   2.335   1.365   2.958
  167DPPC   C29 8329   2.455   1.311   3.036
  167DPPC   C30 8330   2.415   1.190   3.120
  167DPPC   C31 8331   2.296   1.233   3.205
  167DPPC   C32 8332   1.964   2.051   1.825
  167DPPC   O33 8333   1.966   2.122   1.949
  167DPPC   C34 8334   1.899   2.241   1.951
  167DPPC   O35 8335   1.824   2.282   1.863
  167DPPC   C36 8336   1.898   2.318   2.083
  167DPPC   C37 8337   2.012   2.419   2.093
  167DPPC   C38 8338   1.978   2.519   2.203
  167DPPC   C39 8339   1.962   2.450   2.338
  167DPPC   C40 8340   1.960   2.565   2.439
  167DPPC   C41 8341   1.964   2.529   2.588
  167DPPC   C42 8342   1.960   2.656   2.674
  167DPPC   C43 8343   1.919   2.622   2.818
  167DPPC   C44 8344   1.896   2.744   2.908
  167DPPC   C45 8345   1.866   2.708   3.054
  167DPPC   C46 8346   1.865   2.839   3.132
  167DPPC   C47 8347   1.798   2.827   3.269
  167DPPC   C48 8348   1.834   2.954   3.347
  167DPPC   C49 8349   1.761   2.947   3.481
  167DPPC   C50 8350   1.820   3.041   3.585
  168DPPC    C1 8351   2.694   8.031   1.207
  168DPPC    C2 8352   2.473   7.992   1.129
  168DPPC    C3 8353   2.535   7.937   1.352
  168DPPC    N4 8354   2.552   8.036   1.245
  168DPPC    C5 8355   2.519   8.172   1.287
  168DPPC    C6 8356   2.584   8.246   1.404
  168DPPC    O7 8357   2.553   8.386   1.411
  168DPPC    P8 8358   2.641   8.455   1.526
  168DPPC    O9 8359   2.624   8.602   1.528
  168DPPC   O10 8360   2.770   8.387   1.500
  168DPPC   O11 8361   2.598   8.374   1.659
  168DPPC   C12 8362   2.476   8.427   1.713
  168DPPC   C13 8363   2.445   8.380   1.855
  168DPPC   O14 8364   2.318   8.431   1.899
  168DPPC   C15 8365   2.209   8.352   1.885
  168DPPC   O16 8366   2.195   8.291   1.779
  168DPPC   C17 8367   2.090   8.368   1.979
  168DPPC   C18 8368   2.076   8.515   2.019
  168DPPC   C19 8369   2.005   8.525   2.155
  168DPPC   C20 8370   1.982   8.674   2.180
  168DPPC   C21 8371   1.921   8.714   2.315
  168DPPC   C22 8372   1.839   8.842   2.296
  168DPPC   C23 8373   1.786   8.895   2.429
  168DPPC   C24 8374   1.669   8.815   2.487
  168DPPC   C25 8375   1.619   8.881   2.615
  168DPPC   C26 8376   1.541   8.784   2.704
  168DPPC   C27 8377   1.625   8.658   2.727
  168DPPC   C28 8378   1.575   8.544   2.817
  168DPPC   C29 8379   1.425   8.518   2.814
  168DPPC   C30 8380   1.403   8.411   2.921
  168DPPC   C31 8381   1.253   8.384   2.929
  168DPPC   C32 8382   2.566   8.428   1.934
  168DPPC   O33 8383   2.592   8.569   1.924
  168DPPC   C34 8384   2.721   8.611   1.933
  168DPPC   O35 8385   2.810   8.535   1.969
  168DPPC   C36 8386   2.733   8.762   1.915
  168DPPC   C37 8387   2.695   8.843   2.039
  168DPPC   C38 8388   2.699   8.986   1.985
  168DPPC   C39 8389   2.670   9.090   2.093
  168DPPC   C40 8390   2.754   9.067   2.218
  168DPPC   C41 8391   2.723   9.172   2.326
  168DPPC   C42 8392   2.807   9.144   2.450
  168DPPC   C43 8393   2.804   9.263   2.546
  168DPPC   C44 8394   2.890   9.242   2.671
  168DPPC   C45 8395   3.038   9.213   2.649
  168DPPC   C46 8396   3.112   9.219   2.783
  168DPPC   C47 8397   3.257   9.171   2.776
  168DPPC   C48 8398   3.323   9.271   2.681
  168DPPC   C49 8399   3.473   9.241   2.678
  168DPPC   C50 8400   3.517   9.138   2.574
  169DPPC    C1 8401   0.035   2.558   1.489
  169DPPC    C2 8402   0.253   2.500   1.473
  169DPPC    C3 8403   0.095   2.346   1.374
  169DPPC    N4 8404   0.127   2.488   1.398
  169DPPC    C5 8405   0.129   2.570   1.276
  169DPPC    C6 8406   0.223   2.545   1.158
  169DPPC    O7 8407   0.355   2.599   1.171
  169DPPC    P8 8408   0.376   2.745   1.106
  169DPPC    O9 8409   0.263   2.789   1.022
  169DPPC   O10 8410   0.510   2.724   1.046
  169DPPC   O11 8411   0.396   2.806   1.254
  169DPPC   C12 8412   0.524   2.777   1.312
  169DPPC   C13 8413   0.546   2.850   1.445
  169DPPC   O14 8414   0.494   2.789   1.563
  169DPPC   C15 8415   0.581   2.730   1.650
  169DPPC   O16 8416   0.684   2.678   1.608
  169DPPC   C17 8417   0.525   2.683   1.784
  169DPPC   C18 8418   0.592   2.555   1.834
  169DPPC   C19 8419   0.588   2.541   1.987
  169DPPC   C20 8420   0.661   2.416   2.034
  169DPPC   C21 8421   0.573   2.291   2.021
  169DPPC   C22 8422   0.458   2.310   2.120
  169DPPC   C23 8423   0.516   2.300   2.262
  169DPPC   C24 8424   0.406   2.327   2.365
  169DPPC   C25 8425   0.459   2.320   2.508
  169DPPC   C26 8426   0.352   2.335   2.616
  169DPPC   C27 8427   0.294   2.194   2.625
  169DPPC   C28 8428   0.181   2.193   2.727
  169DPPC   C29 8429   0.226   2.201   2.873
  169DPPC   C30 8430   0.105   2.201   2.966
  169DPPC   C31 8431   0.024   2.080   2.917
  169DPPC   C32 8432   0.508   2.996   1.416
  169DPPC   O33 8433   0.531   3.085   1.525
  169DPPC   C34 8434   0.488   3.214   1.514
  169DPPC   O35 8435   0.454   3.267   1.408
  169DPPC   C36 8436   0.509   3.294   1.642
  169DPPC   C37 8437   0.431   3.245   1.764
  169DPPC   C38 8438   0.432   3.364   1.860
  169DPPC   C39 8439   0.358   3.322   1.987
  169DPPC   C40 8440   0.337   3.441   2.080
  169DPPC   C41 8441   0.467   3.520   2.097
  169DPPC   C42 8442   0.548   3.469   2.216
  169DPPC   C43 8443   0.695   3.508   2.207
  169DPPC   C44 8444   0.776   3.480   2.334
  169DPPC   C45 8445   0.926   3.478   2.305
  169DPPC   C46 8446   0.975   3.616   2.261
  169DPPC   C47 8447   1.125   3.642   2.268
  169DPPC   C48 8448   1.164   3.779   2.214
  169DPPC   C49 8449   1.129   3.770   2.065
  169DPPC   C50 8450   1.109   3.899   1.985
  170DPPC    C1 8451   6.781   8.424   1.305
  170DPPC    C2 8452   6.957   8.311   1.239
  170DPPC    C3 8453   6.972   8.471   1.426
  170DPPC    N4 8454   6.898   8.359   1.365
  170DPPC    C5 8455   6.848   8.248   1.447
  170DPPC    C6 8456   6.946   8.158   1.523
  170DPPC    O7 8457   6.872   8.048   1.576
  170DPPC    P8 8458   6.959   7.913   1.565
  170DPPC    O9 8459   7.049   7.929   1.449
  170DPPC   O10 8460   6.869   7.796   1.576
  170DPPC   O11 8461   7.061   7.923   1.689
  170DPPC   C12 8462   6.974   7.892   1.798
  170DPPC   C13 8463   7.047   7.884   1.932
  170DPPC   O14 8464   6.976   7.808   2.032
  170DPPC   C15 8465   6.983   7.672   2.032
  170DPPC   O16 8466   7.019   7.610   1.932
  170DPPC   C17 8467   6.908   7.598   2.143
  170DPPC   C18 8468   6.875   7.676   2.270
  170DPPC   C19 8469   6.825   7.586   2.383
  170DPPC   C20 8470   6.766   7.669   2.498
  170DPPC   C21 8471   6.695   7.584   2.604
  170DPPC   C22 8472   6.646   7.665   2.724
  170DPPC   C23 8473   6.759   7.753   2.778
  170DPPC   C24 8474   6.702   7.846   2.885
  170DPPC   C25 8475   6.580   7.925   2.836
  170DPPC   C26 8476   6.516   8.007   2.949
  170DPPC   C27 8477   6.473   7.896   3.044
  170DPPC   C28 8478   6.397   7.953   3.164
  170DPPC   C29 8479   6.333   7.836   3.240
  170DPPC   C30 8480   6.441   7.738   3.284
  170DPPC   C31 8481   6.361   7.614   3.326
  170DPPC   C32 8482   7.086   8.024   1.979
  170DPPC   O33 8483   7.172   8.031   2.093
  170DPPC   C34 8484   7.198   8.153   2.146
  170DPPC   O35 8485   7.126   8.250   2.118
  170DPPC   C36 8486   7.318   8.167   2.239
  170DPPC   C37 8487   7.434   8.209   2.148
  170DPPC   C38 8488   7.566   8.211   2.224
  170DPPC   C39 8489   7.561   8.318   2.334
  170DPPC   C40 8490   7.695   8.339   2.405
  170DPPC   C41 8491   7.690   8.465   2.490
  170DPPC   C42 8492   7.837   8.492   2.522
  170DPPC   C43 8493   7.865   8.606   2.621
  170DPPC   C44 8494   8.010   8.593   2.667
  170DPPC   C45 8495   8.028   8.688   2.785
  170DPPC   C46 8496   8.161   8.678   2.860
  170DPPC   C47 8497   8.157   8.746   2.997
  170DPPC   C48 8498   8.280   8.693   3.071
  170DPPC   C49 8499   8.269   8.749   3.213
  170DPPC   C50 8500   8.386   8.722   3.308
  171DPPC    C1 8501   5.718   7.418   1.209
  171DPPC    C2 8502   5.654   7.213   1.138
  171DPPC    C3 8503   5.877   7.243   1.244
  171DPPC    N4 8504   5.734   7.276   1.245
  171DPPC    C5 8505   5.682   7.233   1.375
  171DPPC    C6 8506   5.562   7.310   1.430
  171DPPC    O7 8507   5.516   7.242   1.547
  171DPPC    P8 8508   5.389   7.292   1.632
  171DPPC    O9 8509   5.362   7.186   1.731
  171DPPC   O10 8510   5.287   7.311   1.526
  171DPPC   O11 8511   5.461   7.430   1.672
  171DPPC   C12 8512   5.526   7.406   1.797
  171DPPC   C13 8513   5.639   7.505   1.823
  171DPPC   O14 8514   5.733   7.465   1.924
  171DPPC   C15 8515   5.852   7.523   1.954
  171DPPC   O16 8516   5.906   7.608   1.884
  171DPPC   C17 8517   5.945   7.447   2.049
  171DPPC   C18 8518   6.073   7.527   2.072
  171DPPC   C19 8519   6.180   7.469   2.164
  171DPPC   C20 8520   6.139   7.515   2.304
  171DPPC   C21 8521   6.240   7.486   2.415
  171DPPC   C22 8522   6.196   7.564   2.539
  171DPPC   C23 8523   6.269   7.510   2.662
  171DPPC   C24 8524   6.246   7.362   2.691
  171DPPC   C25 8525   6.282   7.321   2.834
  171DPPC   C26 8526   6.172   7.347   2.937
  171DPPC   C27 8527   6.237   7.314   3.072
  171DPPC   C28 8528   6.134   7.316   3.185
  171DPPC   C29 8529   6.171   7.206   3.285
  171DPPC   C30 8530   6.045   7.154   3.353
  171DPPC   C31 8531   6.068   7.047   3.461
  171DPPC   C32 8532   5.582   7.641   1.864
  171DPPC   O33 8533   5.489   7.633   1.972
  171DPPC   C34 8534   5.436   7.751   2.014
  171DPPC   O35 8535   5.468   7.860   1.968
  171DPPC   C36 8536   5.351   7.756   2.141
  171DPPC   C37 8537   5.409   7.847   2.250
  171DPPC   C38 8538   5.318   7.849   2.373
  171DPPC   C39 8539   5.380   7.937   2.481
  171DPPC   C40 8540   5.396   8.080   2.431
  171DPPC   C41 8541   5.479   8.173   2.520
  171DPPC   C42 8542   5.464   8.315   2.467
  171DPPC   C43 8543   5.441   8.414   2.581
  171DPPC   C44 8544   5.564   8.417   2.673
  171DPPC   C45 8545   5.517   8.456   2.813
  171DPPC   C46 8546   5.401   8.364   2.854
  171DPPC   C47 8547   5.335   8.411   2.983
  171DPPC   C48 8548   5.193   8.357   3.003
  171DPPC   C49 8549   5.129   8.443   3.112
  171DPPC   C50 8550   4.979   8.425   3.091
  172DPPC    C1 8551   2.928   5.031   1.493
  172DPPC    C2 8552   2.915   5.024   1.746
  172DPPC    C3 8553   3.028   4.876   1.623
  172DPPC    N4 8554   2.996   5.019   1.623
  172DPPC    C5 8555   3.125   5.086   1.643
  172DPPC    C6 8556   3.122   5.238   1.634
  172DPPC    O7 8557   3.246   5.309   1.638
  172DPPC    P8 8558   3.217   5.457   1.581
  172DPPC    O9 8559   3.075   5.473   1.544
  172DPPC   O10 8560   3.326   5.527   1.509
  172DPPC   O11 8561   3.205   5.534   1.721
  172DPPC   C12 8562   3.339   5.507   1.764
  172DPPC   C13 8563   3.372   5.539   1.910
  172DPPC   O14 8564   3.348   5.428   1.997
  172DPPC   C15 8565   3.458   5.405   2.074
  172DPPC   O16 8566   3.567   5.399   2.017
  172DPPC   C17 8567   3.437   5.307   2.190
  172DPPC   C18 8568   3.392   5.376   2.318
  172DPPC   C19 8569   3.488   5.484   2.369
  172DPPC   C20 8570   3.447   5.535   2.507
  172DPPC   C21 8571   3.534   5.652   2.551
  172DPPC   C22 8572   3.490   5.714   2.684
  172DPPC   C23 8573   3.569   5.841   2.714
  172DPPC   C24 8574   3.491   5.924   2.816
  172DPPC   C25 8575   3.581   6.046   2.839
  172DPPC   C26 8576   3.526   6.132   2.952
  172DPPC   C27 8577   3.581   6.274   2.937
  172DPPC   C28 8578   3.534   6.356   3.058
  172DPPC   C29 8579   3.548   6.276   3.188
  172DPPC   C30 8580   3.564   6.355   3.318
  172DPPC   C31 8581   3.441   6.447   3.326
  172DPPC   C32 8582   3.296   5.669   1.940
  172DPPC   O33 8583   3.298   5.706   2.078
  172DPPC   C34 8584   3.219   5.804   2.129
  172DPPC   O35 8585   3.177   5.889   2.051
  172DPPC   C36 8586   3.217   5.836   2.279
  172DPPC   C37 8587   3.155   5.728   2.368
  172DPPC   C38 8588   3.136   5.778   2.512
  172DPPC   C39 8589   3.049   5.692   2.603
  172DPPC   C40 8590   3.051   5.745   2.746
  172DPPC   C41 8591   2.977   5.653   2.843
  172DPPC   C42 8592   2.997   5.691   2.990
  172DPPC   C43 8593   3.142   5.652   3.020
  172DPPC   C44 8594   3.190   5.719   3.149
  172DPPC   C45 8595   3.157   5.639   3.275
  172DPPC   C46 8596   3.203   5.715   3.400
  172DPPC   C47 8597   3.352   5.747   3.387
  172DPPC   C48 8598   3.407   5.824   3.507
  172DPPC   C49 8599   3.417   5.735   3.631
  172DPPC   C50 8600   3.508   5.612   3.615
  173DPPC    C1 8601   6.000   2.029   2.060
  173DPPC    C2 8602   5.867   2.044   1.869
  173DPPC    C3 8603   5.875   2.236   2.020
  173DPPC    N4 8604   5.951   2.125   1.960
  173DPPC    C5 8605   6.076   2.176   1.903
  173DPPC    C6 8606   6.079   2.282   1.792
  173DPPC    O7 8607   6.201   2.336   1.741
  173DPPC    P8 8608   6.192   2.481   1.672
  173DPPC    O9 8609   6.070   2.457   1.591
  173DPPC   O10 8610   6.318   2.537   1.619
  173DPPC   O11 8611   6.149   2.560   1.806
  173DPPC   C12 8612   6.268   2.619   1.859
  173DPPC   C13 8613   6.247   2.694   1.991
  173DPPC   O14 8614   6.368   2.740   2.053
  173DPPC   C15 8615   6.348   2.853   2.126
  173DPPC   O16 8616   6.261   2.928   2.083
  173DPPC   C17 8617   6.474   2.914   2.189
  173DPPC   C18 8618   6.445   3.000   2.312
  173DPPC   C19 8619   6.535   2.969   2.431
  173DPPC   C20 8620   6.520   2.831   2.495
  173DPPC   C21 8621   6.615   2.819   2.615
  173DPPC   C22 8622   6.586   2.688   2.688
  173DPPC   C23 8623   6.673   2.651   2.809
  173DPPC   C24 8624   6.618   2.744   2.917
  173DPPC   C25 8625   6.689   2.721   3.051
  173DPPC   C26 8626   6.598   2.798   3.147
  173DPPC   C27 8627   6.667   2.818   3.282
  173DPPC   C28 8628   6.696   2.690   3.361
  173DPPC   C29 8629   6.747   2.737   3.498
  173DPPC   C30 8630   6.637   2.821   3.562
  173DPPC   C31 8631   6.673   2.877   3.700
  173DPPC   C32 8632   6.192   2.575   2.070
  173DPPC   O33 8633   6.155   2.589   2.208
  173DPPC   C34 8634   6.133   2.478   2.283
  173DPPC   O35 8635   6.108   2.372   2.226
  173DPPC   C36 8636   6.099   2.499   2.431
  173DPPC   C37 8637   6.207   2.516   2.538
  173DPPC   C38 8638   6.151   2.590   2.660
  173DPPC   C39 8639   6.235   2.596   2.788
  173DPPC   C40 8640   6.188   2.700   2.889
  173DPPC   C41 8641   6.232   2.669   3.033
  173DPPC   C42 8642   6.167   2.770   3.127
  173DPPC   C43 8643   6.231   2.774   3.266
  173DPPC   C44 8644   6.218   2.631   3.319
  173DPPC   C45 8645   6.264   2.637   3.465
  173DPPC   C46 8646   6.186   2.742   3.544
  173DPPC   C47 8647   6.231   2.751   3.690
  173DPPC   C48 8648   6.184   2.885   3.748
  173DPPC   C49 8649   6.274   3.007   3.728
  173DPPC   C50 8650   6.203   3.141   3.742
  174DPPC    C1 8651   8.919   4.934   0.977
  174DPPC    C2 8652   9.065   4.876   1.137
  174DPPC    C3 8653   8.926   4.697   1.059
  174DPPC    N4 8654   8.999   4.819   1.019
  174DPPC    C5 8655   9.084   4.805   0.900
  174DPPC    C6 8656   9.172   4.680   0.899
  174DPPC    O7 8657   9.247   4.669   1.021
  174DPPC    P8 8658   9.317   4.525   1.001
  174DPPC    O9 8659   9.403   4.530   0.880
  174DPPC   O10 8660   9.202   4.432   1.002
  174DPPC   O11 8661   9.403   4.533   1.137
  174DPPC   C12 8662   9.319   4.496   1.247
  174DPPC   C13 8663   9.389   4.513   1.381
  174DPPC   O14 8664   9.309   4.479   1.495
  174DPPC   C15 8665   9.320   4.347   1.527
  174DPPC   O16 8666   9.369   4.264   1.450
  174DPPC   C17 8667   9.259   4.297   1.658
  174DPPC   C18 8668   9.253   4.403   1.768
  174DPPC   C19 8669   9.194   4.341   1.895
  174DPPC   C20 8670   9.186   4.437   2.014
  174DPPC   C21 8671   9.102   4.391   2.133
  174DPPC   C22 8672   9.103   4.481   2.257
  174DPPC   C23 8673   9.042   4.398   2.370
  174DPPC   C24 8674   9.043   4.463   2.509
  174DPPC   C25 8675   9.031   4.356   2.618
  174DPPC   C26 8676   9.005   4.410   2.759
  174DPPC   C27 8677   8.966   4.299   2.857
  174DPPC   C28 8678   8.837   4.230   2.812
  174DPPC   C29 8679   8.803   4.136   2.928
  174DPPC   C30 8680   8.684   4.045   2.895
  174DPPC   C31 8681   8.600   4.013   3.018
  174DPPC   C32 8682   9.458   4.650   1.382
  174DPPC   O33 8683   9.371   4.760   1.355
  174DPPC   C34 8684   9.433   4.881   1.361
  174DPPC   O35 8685   9.556   4.886   1.355
  174DPPC   C36 8686   9.337   5.000   1.356
  174DPPC   C37 8687   9.377   5.100   1.464
  174DPPC   C38 8688   9.283   5.221   1.461
  174DPPC   C39 8689   9.294   5.323   1.574
  174DPPC   C40 8690   9.285   5.261   1.714
  174DPPC   C41 8691   9.268   5.371   1.820
  174DPPC   C42 8692   9.250   5.302   1.955
  174DPPC   C43 8693   9.280   5.401   2.068
  174DPPC   C44 8694   9.244   5.338   2.203
  174DPPC   C45 8695   9.283   5.434   2.316
  174DPPC   C46 8696   9.225   5.390   2.451
  174DPPC   C47 8697   9.267   5.499   2.550
  174DPPC   C48 8698   9.195   5.466   2.681
  174DPPC   C49 8699   9.045   5.477   2.651
  174DPPC   C50 8700   8.952   5.430   2.763
  175DPPC    C1 8701   3.688   1.766   1.760
  175DPPC    C2 8702   3.878   1.882   1.837
  175DPPC    C3 8703   3.672   1.976   1.876
  175DPPC    N4 8704   3.740   1.846   1.872
  175DPPC    C5 8705   3.748   1.781   2.004
  175DPPC    C6 8706   3.617   1.712   2.046
  175DPPC    O7 8707   3.504   1.797   2.064
  175DPPC    P8 8708   3.366   1.716   2.083
  175DPPC    O9 8709   3.406   1.576   2.109
  175DPPC   O10 8710   3.266   1.768   1.986
  175DPPC   O11 8711   3.345   1.787   2.226
  175DPPC   C12 8712   3.378   1.692   2.328
  175DPPC   C13 8713   3.402   1.758   2.464
  175DPPC   O14 8714   3.485   1.690   2.559
  175DPPC   C15 8715   3.618   1.675   2.536
  175DPPC   O16 8716   3.678   1.743   2.453
  175DPPC   C17 8717   3.688   1.596   2.647
  175DPPC   C18 8718   3.672   1.680   2.774
  175DPPC   C19 8719   3.721   1.624   2.908
  175DPPC   C20 8720   3.734   1.734   3.014
  175DPPC   C21 8721   3.772   1.683   3.153
  175DPPC   C22 8722   3.904   1.608   3.171
  175DPPC   C23 8723   3.931   1.575   3.318
  175DPPC   C24 8724   3.943   1.689   3.419
  175DPPC   C25 8725   3.963   1.645   3.564
  175DPPC   C26 8726   3.991   1.771   3.647
  175DPPC   C27 8727   4.034   1.730   3.788
  175DPPC   C28 8728   4.103   1.844   3.864
  175DPPC   C29 8729   4.122   1.819   4.014
  175DPPC   C30 8730   4.214   1.697   4.017
  175DPPC   C31 8731   4.352   1.720   3.956
  175DPPC   C32 8732   3.267   1.815   2.509
  175DPPC   O33 8733   3.173   1.708   2.520
  175DPPC   C34 8734   3.057   1.727   2.589
  175DPPC   O35 8735   2.984   1.813   2.539
  175DPPC   C36 8736   3.002   1.589   2.626
  175DPPC   C37 8737   2.862   1.612   2.683
  175DPPC   C38 8738   2.797   1.477   2.716
  175DPPC   C39 8739   2.882   1.386   2.805
  175DPPC   C40 8740   2.805   1.255   2.819
  175DPPC   C41 8741   2.886   1.161   2.909
  175DPPC   C42 8742   2.911   1.226   3.045
  175DPPC   C43 8743   3.023   1.159   3.124
  175DPPC   C44 8744   3.080   1.236   3.243
  175DPPC   C45 8745   3.194   1.140   3.277
  175DPPC   C46 8746   3.282   1.196   3.388
  175DPPC   C47 8747   3.216   1.233   3.521
  175DPPC   C48 8748   3.332   1.233   3.621
  175DPPC   C49 8749   3.283   1.281   3.758
  175DPPC   C50 8750   3.377   1.253   3.875
  176DPPC    C1 8751   8.260   4.759   1.037
  176DPPC    C2 8752   8.329   4.786   0.806
  176DPPC    C3 8753   8.096   4.765   0.870
  176DPPC    N4 8754   8.228   4.820   0.907
  176DPPC    C5 8755   8.213   4.966   0.918
  176DPPC    C6 8756   8.343   5.047   0.930
  176DPPC    O7 8757   8.387   5.062   1.065
  176DPPC    P8 8758   8.543   5.101   1.074
  176DPPC    O9 8759   8.552   5.233   1.139
  176DPPC   O10 8760   8.599   5.093   0.937
  176DPPC   O11 8761   8.594   4.974   1.159
  176DPPC   C12 8762   8.523   4.952   1.282
  176DPPC   C13 8763   8.587   4.848   1.374
  176DPPC   O14 8764   8.505   4.815   1.487
  176DPPC   C15 8765   8.531   4.693   1.543
  176DPPC   O16 8766   8.590   4.608   1.478
  176DPPC   C17 8767   8.454   4.659   1.671
  176DPPC   C18 8768   8.313   4.601   1.655
  176DPPC   C19 8769   8.249   4.577   1.792
  176DPPC   C20 8770   8.104   4.528   1.802
  176DPPC   C21 8771   8.079   4.468   1.941
  176DPPC   C22 8772   7.936   4.416   1.950
  176DPPC   C23 8773   7.900   4.356   2.087
  176DPPC   C24 8774   7.867   4.468   2.186
  176DPPC   C25 8775   7.841   4.419   2.329
  176DPPC   C26 8776   7.769   4.520   2.418
  176DPPC   C27 8777   7.749   4.474   2.563
  176DPPC   C28 8778   7.670   4.579   2.641
  176DPPC   C29 8779   7.687   4.549   2.790
  176DPPC   C30 8780   7.838   4.569   2.801
  176DPPC   C31 8781   7.892   4.496   2.925
  176DPPC   C32 8782   8.730   4.893   1.402
  176DPPC   O33 8783   8.734   5.024   1.461
  176DPPC   C34 8784   8.858   5.074   1.488
  176DPPC   O35 8785   8.957   5.008   1.457
  176DPPC   C36 8786   8.848   5.197   1.578
  176DPPC   C37 8787   8.844   5.166   1.728
  176DPPC   C38 8788   8.858   5.301   1.797
  176DPPC   C39 8789   8.828   5.285   1.946
  176DPPC   C40 8790   8.862   5.408   2.031
  176DPPC   C41 8791   8.810   5.395   2.174
  176DPPC   C42 8792   8.797   5.526   2.251
  176DPPC   C43 8793   8.742   5.491   2.389
  176DPPC   C44 8794   8.706   5.628   2.447
  176DPPC   C45 8795   8.645   5.618   2.587
  176DPPC   C46 8796   8.519   5.531   2.593
  176DPPC   C47 8797   8.393   5.608   2.555
  176DPPC   C48 8798   8.270   5.517   2.545
  176DPPC   C49 8799   8.172   5.595   2.457
  176DPPC   C50 8800   8.132   5.715   2.543
  177DPPC    C1 8801   9.102   2.613   1.469
  177DPPC    C2 8802   8.913   2.618   1.316
  177DPPC    C3 8803   8.907   2.695   1.538
  177DPPC    N4 8804   8.990   2.692   1.416
  177DPPC    C5 8805   9.044   2.822   1.374
  177DPPC    C6 8806   8.982   2.894   1.255
  177DPPC    O7 8807   8.850   2.941   1.286
  177DPPC    P8 8808   8.862   3.098   1.320
  177DPPC    O9 8809   8.782   3.185   1.231
  177DPPC   O10 8810   8.999   3.127   1.368
  177DPPC   O11 8811   8.778   3.092   1.457
  177DPPC   C12 8812   8.862   3.097   1.573
  177DPPC   C13 8813   8.799   3.128   1.709
  177DPPC   O14 8814   8.744   3.012   1.772
  177DPPC   C15 8815   8.816   2.925   1.848
  177DPPC   O16 8816   8.939   2.918   1.846
  177DPPC   C17 8817   8.736   2.817   1.921
  177DPPC   C18 8818   8.716   2.852   2.069
  177DPPC   C19 8819   8.633   2.755   2.154
  177DPPC   C20 8820   8.606   2.812   2.293
  177DPPC   C21 8821   8.514   2.714   2.367
  177DPPC   C22 8822   8.527   2.719   2.519
  177DPPC   C23 8823   8.439   2.615   2.588
  177DPPC   C24 8824   8.426   2.620   2.741
  177DPPC   C25 8825   8.377   2.755   2.793
  177DPPC   C26 8826   8.342   2.746   2.942
  177DPPC   C27 8827   8.239   2.639   2.977
  177DPPC   C28 8828   8.218   2.621   3.127
  177DPPC   C29 8829   8.100   2.525   3.142
  177DPPC   C30 8830   8.085   2.499   3.292
  177DPPC   C31 8831   7.955   2.433   3.340
  177DPPC   C32 8832   8.694   3.238   1.692
  177DPPC   O33 8833   8.612   3.268   1.805
  177DPPC   C34 8834   8.509   3.192   1.849
  177DPPC   O35 8835   8.465   3.095   1.786
  177DPPC   C36 8836   8.432   3.237   1.973
  177DPPC   C37 8837   8.529   3.296   2.076
  177DPPC   C38 8838   8.451   3.350   2.197
  177DPPC   C39 8839   8.556   3.407   2.293
  177DPPC   C40 8840   8.649   3.294   2.337
  177DPPC   C41 8841   8.740   3.348   2.448
  177DPPC   C42 8842   8.849   3.241   2.457
  177DPPC   C43 8843   8.790   3.118   2.527
  177DPPC   C44 8844   8.890   3.012   2.570
  177DPPC   C45 8845   8.838   2.890   2.647
  177DPPC   C46 8846   8.946   2.818   2.727
  177DPPC   C47 8847   8.905   2.725   2.842
  177DPPC   C48 8848   8.803   2.618   2.804
  177DPPC   C49 8849   8.729   2.549   2.918
  177DPPC   C50 8850   8.814   2.445   2.991
  178DPPC    C1 8851   7.953   2.252   1.620
  178DPPC    C2 8852   8.055   2.465   1.681
  178DPPC    C3 8853   8.131   2.252   1.770
  178DPPC    N4 8854   8.077   2.322   1.653
  178DPPC    C5 8855   8.164   2.308   1.535
  178DPPC    C6 8856   8.315   2.317   1.559
  178DPPC    O7 8857   8.361   2.449   1.585
  178DPPC    P8 8858   8.510   2.451   1.646
  178DPPC    O9 8859   8.548   2.593   1.667
  178DPPC   O10 8860   8.599   2.375   1.556
  178DPPC   O11 8861   8.465   2.375   1.781
  178DPPC   C12 8862   8.428   2.461   1.889
  178DPPC   C13 8863   8.393   2.380   2.014
  178DPPC   O14 8864   8.364   2.459   2.130
  178DPPC   C15 8865   8.231   2.480   2.152
  178DPPC   O16 8866   8.154   2.480   2.056
  178DPPC   C17 8867   8.181   2.505   2.294
  178DPPC   C18 8868   8.029   2.496   2.307
  178DPPC   C19 8869   8.006   2.531   2.455
  178DPPC   C20 8870   8.047   2.676   2.484
  178DPPC   C21 8871   8.008   2.688   2.632
  178DPPC   C22 8872   7.986   2.836   2.664
  178DPPC   C23 8873   7.959   2.844   2.815
  178DPPC   C24 8874   7.947   2.993   2.849
  178DPPC   C25 8875   8.010   3.025   2.984
  178DPPC   C26 8876   8.043   3.173   3.002
  178DPPC   C27 8877   8.070   3.222   3.144
  178DPPC   C28 8878   8.203   3.159   3.187
  178DPPC   C29 8879   8.247   3.209   3.324
  178DPPC   C30 8880   8.385   3.148   3.348
  178DPPC   C31 8881   8.442   3.191   3.484
  178DPPC   C32 8882   8.516   2.292   2.035
  178DPPC   O33 8883   8.507   2.179   2.123
  178DPPC   C34 8884   8.436   2.065   2.105
  178DPPC   O35 8885   8.387   2.039   1.996
  178DPPC   C36 8886   8.430   1.975   2.229
  178DPPC   C37 8887   8.321   2.022   2.326
  178DPPC   C38 8888   8.327   1.951   2.462
  178DPPC   C39 8889   8.202   2.000   2.535
  178DPPC   C40 8890   8.183   1.929   2.669
  178DPPC   C41 8891   8.062   1.992   2.738
  178DPPC   C42 8892   8.045   1.914   2.868
  178DPPC   C43 8893   7.918   1.971   2.930
  178DPPC   C44 8894   7.888   1.917   3.070
  178DPPC   C45 8895   7.784   2.014   3.126
  178DPPC   C46 8896   7.701   1.957   3.242
  178DPPC   C47 8897   7.614   1.840   3.194
  178DPPC   C48 8898   7.532   1.780   3.308
  178DPPC   C49 8899   7.428   1.876   3.366
  178DPPC   C50 8900   7.293   1.804   3.377
  179DPPC    C1 8901   5.220   6.433   1.786
  179DPPC    C2 8902   5.337   6.333   1.968
  179DPPC    C3 8903   5.109   6.328   1.962
  179DPPC    N4 8904   5.226   6.315   1.873
  179DPPC    C5 8905   5.249   6.181   1.818
  179DPPC    C6 8906   5.129   6.124   1.741
  179DPPC    O7 8907   5.096   6.179   1.613
  179DPPC    P8 8908   4.937   6.173   1.591
  179DPPC    O9 8909   4.883   6.039   1.625
  179DPPC   O10 8910   4.894   6.254   1.475
  179DPPC   O11 8911   4.895   6.259   1.721
  179DPPC   C12 8912   4.779   6.342   1.713
  179DPPC   C13 8913   4.724   6.406   1.841
  179DPPC   O14 8914   4.814   6.504   1.895
  179DPPC   C15 8915   4.760   6.593   1.982
  179DPPC   O16 8916   4.652   6.646   1.954
  179DPPC   C17 8917   4.843   6.637   2.102
  179DPPC   C18 8918   4.811   6.556   2.227
  179DPPC   C19 8919   4.902   6.578   2.349
  179DPPC   C20 8920   5.048   6.566   2.305
  179DPPC   C21 8921   5.150   6.567   2.419
  179DPPC   C22 8922   5.131   6.428   2.481
  179DPPC   C23 8923   5.213   6.411   2.609
  179DPPC   C24 8924   5.149   6.502   2.714
  179DPPC   C25 8925   5.221   6.491   2.848
  179DPPC   C26 8926   5.213   6.348   2.904
  179DPPC   C27 8927   5.291   6.352   3.036
  179DPPC   C28 8928   5.259   6.234   3.128
  179DPPC   C29 8929   5.312   6.266   3.268
  179DPPC   C30 8930   5.311   6.144   3.361
  179DPPC   C31 8931   5.172   6.127   3.422
  179DPPC   C32 8932   4.694   6.276   1.916
  179DPPC   O33 8933   4.686   6.277   2.058
  179DPPC   C34 8934   4.656   6.164   2.128
  179DPPC   O35 8935   4.645   6.060   2.064
  179DPPC   C36 8936   4.665   6.164   2.281
  179DPPC   C37 8937   4.798   6.163   2.357
  179DPPC   C38 8938   4.774   6.155   2.508
  179DPPC   C39 8939   4.904   6.123   2.582
  179DPPC   C40 8940   4.895   6.145   2.733
  179DPPC   C41 8941   4.773   6.060   2.767
  179DPPC   C42 8942   4.753   6.032   2.916
  179DPPC   C43 8943   4.630   5.948   2.949
  179DPPC   C44 8944   4.586   5.968   3.094
  179DPPC   C45 8945   4.469   5.875   3.128
  179DPPC   C46 8946   4.416   5.890   3.271
  179DPPC   C47 8947   4.279   5.823   3.276
  179DPPC   C48 8948   4.288   5.671   3.256
  179DPPC   C49 8949   4.185   5.592   3.336
  179DPPC   C50 8950   4.038   5.633   3.327
  180DPPC    C1 8951   5.920   2.658   1.152
  180DPPC    C2 8952   6.143   2.641   1.221
  180DPPC    C3 8953   6.032   2.854   1.218
  180DPPC    N4 8954   6.017   2.711   1.249
  180DPPC    C5 8955   5.964   2.706   1.386
  180DPPC    C6 8956   6.042   2.779   1.494
  180DPPC    O7 8957   5.958   2.795   1.609
  180DPPC    P8 8958   6.031   2.890   1.717
  180DPPC    O9 8959   5.950   3.014   1.718
  180DPPC   O10 8960   6.178   2.891   1.700
  180DPPC   O11 8961   5.996   2.803   1.848
  180DPPC   C12 8962   5.892   2.872   1.918
  180DPPC   C13 8963   5.876   2.803   2.053
  180DPPC   O14 8964   5.740   2.771   2.084
  180DPPC   C15 8965   5.709   2.651   2.142
  180DPPC   O16 8966   5.732   2.550   2.075
  180DPPC   C17 8967   5.626   2.640   2.270
  180DPPC   C18 8968   5.699   2.539   2.359
  180DPPC   C19 8969   5.675   2.537   2.510
  180DPPC   C20 8970   5.740   2.412   2.569
  180DPPC   C21 8971   5.717   2.392   2.719
  180DPPC   C22 8972   5.776   2.255   2.755
  180DPPC   C23 8973   5.929   2.254   2.740
  180DPPC   C24 8974   5.975   2.110   2.762
  180DPPC   C25 8975   6.107   2.087   2.689
  180DPPC   C26 8976   6.202   2.191   2.748
  180DPPC   C27 8977   6.341   2.174   2.686
  180DPPC   C28 8978   6.447   2.267   2.748
  180DPPC   C29 8979   6.439   2.256   2.900
  180DPPC   C30 8980   6.522   2.364   2.969
  180DPPC   C31 8981   6.525   2.336   3.120
  180DPPC   C32 8982   5.969   2.881   2.146
  180DPPC   O33 8983   5.929   2.896   2.283
  180DPPC   C34 8984   5.996   2.987   2.360
  180DPPC   O35 8985   6.052   3.081   2.306
  180DPPC   C36 8986   5.957   2.995   2.508
  180DPPC   C37 8987   5.810   2.965   2.537
  180DPPC   C38 8988   5.779   2.990   2.684
  180DPPC   C39 8989   5.643   2.937   2.727
  180DPPC   C40 8990   5.619   2.951   2.877
  180DPPC   C41 8991   5.499   2.882   2.943
  180DPPC   C42 8992   5.508   2.883   3.096
  180DPPC   C43 8993   5.375   2.827   3.146
  180DPPC   C44 8994   5.355   2.833   3.298
  180DPPC   C45 8995   5.220   2.772   3.331
  180DPPC   C46 8996   5.119   2.860   3.258
  180DPPC   C47 8997   5.094   2.982   3.347
  180DPPC   C48 8998   4.976   3.064   3.295
  180DPPC   C49 8999   4.895   3.122   3.411
  180DPPC   C50 9000   4.985   3.181   3.520
  181DPPC    C1 9001   5.583   5.891   1.339
  181DPPC    C2 9002   5.743   5.855   1.524
  181DPPC    C3 9003   5.530   5.960   1.547
  181DPPC    N4 9004   5.604   5.853   1.479
  181DPPC    C5 9005   5.541   5.725   1.517
  181DPPC    C6 9006   5.562   5.592   1.446
  181DPPC    O7 9007   5.532   5.477   1.526
  181DPPC    P8 9008   5.614   5.345   1.485
  181DPPC    O9 9009   5.694   5.389   1.369
  181DPPC   O10 9010   5.514   5.238   1.463
  181DPPC   O11 9011   5.693   5.327   1.625
  181DPPC   C12 9012   5.596   5.331   1.730
  181DPPC   C13 9013   5.653   5.309   1.871
  181DPPC   O14 9014   5.563   5.360   1.971
  181DPPC   C15 9015   5.473   5.273   2.024
  181DPPC   O16 9016   5.465   5.154   1.997
  181DPPC   C17 9017   5.429   5.332   2.158
  181DPPC   C18 9018   5.294   5.400   2.138
  181DPPC   C19 9019   5.256   5.488   2.257
  181DPPC   C20 9020   5.196   5.405   2.371
  181DPPC   C21 9021   5.212   5.479   2.504
  181DPPC   C22 9022   5.144   5.412   2.623
  181DPPC   C23 9023   5.150   5.506   2.744
  181DPPC   C24 9024   5.116   5.439   2.878
  181DPPC   C25 9025   4.977   5.375   2.878
  181DPPC   C26 9026   4.866   5.479   2.891
  181DPPC   C27 9027   4.734   5.425   2.838
  181DPPC   C28 9028   4.613   5.499   2.897
  181DPPC   C29 9029   4.489   5.454   2.821
  181DPPC   C30 9030   4.368   5.542   2.855
  181DPPC   C31 9031   4.385   5.679   2.787
  181DPPC   C32 9032   5.794   5.368   1.881
  181DPPC   O33 9033   5.871   5.309   1.986
  181DPPC   C34 9034   6.005   5.330   1.988
  181DPPC   O35 9035   6.053   5.418   1.916
  181DPPC   C36 9036   6.086   5.250   2.090
  181DPPC   C37 9037   6.105   5.344   2.209
  181DPPC   C38 9038   6.159   5.284   2.339
  181DPPC   C39 9039   6.151   5.383   2.456
  181DPPC   C40 9040   6.216   5.321   2.580
  181DPPC   C41 9041   6.367   5.294   2.572
  181DPPC   C42 9042   6.414   5.232   2.704
  181DPPC   C43 9043   6.561   5.188   2.709
  181DPPC   C44 9044   6.578   5.080   2.816
  181DPPC   C45 9045   6.485   4.959   2.802
  181DPPC   C46 9046   6.541   4.833   2.868
  181DPPC   C47 9047   6.564   4.868   3.015
  181DPPC   C48 9048   6.642   4.765   3.097
  181DPPC   C49 9049   6.590   4.622   3.091
  181DPPC   C50 9050   6.676   4.515   3.157
  182DPPC    C1 9051   8.022   0.601   1.252
  182DPPC    C2 9052   8.243   0.694   1.229
  182DPPC    C3 9053   8.119   0.655   1.037
  182DPPC    N4 9054   8.106   0.696   1.177
  182DPPC    C5 9055   8.057   0.835   1.187
  182DPPC    C6 9056   7.913   0.868   1.148
  182DPPC    O7 9057   7.894   1.009   1.132
  182DPPC    P8 9058   7.753   1.021   1.055
  182DPPC    O9 9059   7.746   0.902   0.968
  182DPPC   O10 9060   7.738   1.162   1.013
  182DPPC   O11 9061   7.682   0.980   1.193
  182DPPC   C12 9062   7.669   1.099   1.271
  182DPPC   C13 9063   7.607   1.056   1.405
  182DPPC   O14 9064   7.577   1.172   1.483
  182DPPC   C15 9065   7.461   1.242   1.468
  182DPPC   O16 9066   7.373   1.213   1.388
  182DPPC   C17 9067   7.441   1.367   1.555
  182DPPC   C18 9068   7.324   1.351   1.652
  182DPPC   C19 9069   7.293   1.489   1.710
  182DPPC   C20 9070   7.188   1.480   1.820
  182DPPC   C21 9071   7.137   1.617   1.867
  182DPPC   C22 9072   7.038   1.596   1.982
  182DPPC   C23 9073   7.097   1.533   2.108
  182DPPC   C24 9074   6.989   1.509   2.213
  182DPPC   C25 9075   7.056   1.472   2.346
  182DPPC   C26 9076   6.959   1.459   2.464
  182DPPC   C27 9077   7.025   1.455   2.602
  182DPPC   C28 9078   6.940   1.396   2.714
  182DPPC   C29 9079   7.018   1.407   2.845
  182DPPC   C30 9080   6.934   1.329   2.947
  182DPPC   C31 9081   6.987   1.328   3.090
  182DPPC   C32 9082   7.706   0.952   1.459
  182DPPC   O33 9083   7.826   1.022   1.491
  182DPPC   C34 9084   7.930   0.947   1.536
  182DPPC   O35 9085   7.937   0.825   1.525
  182DPPC   C36 9086   8.027   1.033   1.617
  182DPPC   C37 9087   7.983   1.070   1.759
  182DPPC   C38 9088   8.085   1.160   1.829
  182DPPC   C39 9089   8.055   1.174   1.978
  182DPPC   C40 9090   8.166   1.258   2.041
  182DPPC   C41 9091   8.133   1.297   2.185
  182DPPC   C42 9092   8.038   1.417   2.179
  182DPPC   C43 9093   8.011   1.490   2.311
  182DPPC   C44 9094   7.946   1.623   2.272
  182DPPC   C45 9095   7.906   1.702   2.397
  182DPPC   C46 9096   7.780   1.629   2.443
  182DPPC   C47 9097   7.725   1.699   2.567
  182DPPC   C48 9098   7.592   1.637   2.613
  182DPPC   C49 9099   7.546   1.685   2.751
  182DPPC   C50 9100   7.644   1.660   2.865
  183DPPC    C1 9101   7.471   3.535   1.611
  183DPPC    C2 9102   7.504   3.726   1.488
  183DPPC    C3 9103   7.409   3.527   1.382
  183DPPC    N4 9104   7.411   3.613   1.502
  183DPPC    C5 9105   7.280   3.672   1.531
  183DPPC    C6 9106   7.151   3.590   1.535
  183DPPC    O7 9107   7.138   3.481   1.626
  183DPPC    P8 9108   6.998   3.402   1.624
  183DPPC    O9 9109   7.009   3.297   1.728
  183DPPC   O10 9110   6.964   3.377   1.483
  183DPPC   O11 9111   6.914   3.524   1.687
  183DPPC   C12 9112   6.887   3.496   1.825
  183DPPC   C13 9113   6.964   3.595   1.913
  183DPPC   O14 9114   6.980   3.540   2.044
  183DPPC   C15 9115   7.084   3.602   2.108
  183DPPC   O16 9116   7.188   3.636   2.052
  183DPPC   C17 9117   7.081   3.583   2.259
  183DPPC   C18 9118   7.192   3.492   2.313
  183DPPC   C19 9119   7.166   3.472   2.462
  183DPPC   C20 9120   7.262   3.386   2.545
  183DPPC   C21 9121   7.201   3.391   2.686
  183DPPC   C22 9122   7.298   3.315   2.777
  183DPPC   C23 9123   7.242   3.331   2.918
  183DPPC   C24 9124   7.332   3.285   3.033
  183DPPC   C25 9125   7.253   3.271   3.163
  183DPPC   C26 9126   7.324   3.221   3.289
  183DPPC   C27 9127   7.453   3.298   3.321
  183DPPC   C28 9128   7.511   3.265   3.459
  183DPPC   C29 9129   7.411   3.256   3.574
  183DPPC   C30 9130   7.483   3.202   3.698
  183DPPC   C31 9131   7.548   3.065   3.680
  183DPPC   C32 9132   6.889   3.727   1.899
  183DPPC   O33 9133   6.953   3.839   1.962
  183DPPC   C34 9134   7.061   3.894   1.901
  183DPPC   O35 9135   7.119   3.840   1.807
  183DPPC   C36 9136   7.122   4.017   1.968
  183DPPC   C37 9137   7.213   3.979   2.085
  183DPPC   C38 9138   7.125   3.966   2.209
  183DPPC   C39 9139   7.218   3.948   2.329
  183DPPC   C40 9140   7.127   3.936   2.452
  183DPPC   C41 9141   7.176   3.831   2.552
  183DPPC   C42 9142   7.310   3.887   2.602
  183DPPC   C43 9143   7.369   3.812   2.721
  183DPPC   C44 9144   7.269   3.820   2.837
  183DPPC   C45 9145   7.319   3.770   2.973
  183DPPC   C46 9146   7.218   3.806   3.082
  183DPPC   C47 9147   7.093   3.724   3.051
  183DPPC   C48 9148   6.983   3.736   3.156
  183DPPC   C49 9149   6.890   3.616   3.137
  183DPPC   C50 9150   6.809   3.631   3.008
  184DPPC    C1 9151   1.594   1.768   1.455
  184DPPC    C2 9152   1.384   1.795   1.563
  184DPPC    C3 9153   1.578   1.765   1.685
  184DPPC    N4 9154   1.526   1.835   1.566
  184DPPC    C5 9155   1.552   1.978   1.585
  184DPPC    C6 9156   1.496   2.064   1.471
  184DPPC    O7 9157   1.542   2.199   1.483
  184DPPC    P8 9158   1.469   2.264   1.356
  184DPPC    O9 9159   1.432   2.172   1.246
  184DPPC   O10 9160   1.520   2.403   1.348
  184DPPC   O11 9161   1.340   2.285   1.450
  184DPPC   C12 9162   1.363   2.385   1.550
  184DPPC   C13 9163   1.252   2.398   1.655
  184DPPC   O14 9164   1.270   2.518   1.732
  184DPPC   C15 9165   1.159   2.594   1.755
  184DPPC   O16 9166   1.065   2.572   1.679
  184DPPC   C17 9167   1.179   2.716   1.845
  184DPPC   C18 9168   1.210   2.663   1.985
  184DPPC   C19 9169   1.079   2.612   2.045
  184DPPC   C20 9170   1.096   2.591   2.196
  184DPPC   C21 9171   0.967   2.553   2.269
  184DPPC   C22 9172   0.989   2.568   2.419
  184DPPC   C23 9173   0.864   2.500   2.476
  184DPPC   C24 9174   0.844   2.548   2.620
  184DPPC   C25 9175   0.734   2.490   2.708
  184DPPC   C26 9176   0.721   2.546   2.850
  184DPPC   C27 9177   0.592   2.483   2.902
  184DPPC   C28 9178   0.560   2.509   3.050
  184DPPC   C29 9179   0.666   2.436   3.133
  184DPPC   C30 9180   0.640   2.285   3.127
  184DPPC   C31 9181   0.745   2.222   3.218
  184DPPC   C32 9182   1.241   2.262   1.724
  184DPPC   O33 9183   1.364   2.233   1.790
  184DPPC   C34 9184   1.373   2.114   1.856
  184DPPC   O35 9185   1.335   2.014   1.795
  184DPPC   C36 9186   1.498   2.102   1.944
  184DPPC   C37 9187   1.488   2.007   2.064
  184DPPC   C38 9188   1.614   2.021   2.150
  184DPPC   C39 9189   1.590   1.953   2.285
  184DPPC   C40 9190   1.720   1.982   2.360
  184DPPC   C41 9191   1.737   2.134   2.353
  184DPPC   C42 9192   1.654   2.202   2.462
  184DPPC   C43 9193   1.693   2.134   2.594
  184DPPC   C44 9194   1.655   2.214   2.719
  184DPPC   C45 9195   1.720   2.143   2.838
  184DPPC   C46 9196   1.699   1.993   2.816
  184DPPC   C47 9197   1.778   1.903   2.910
  184DPPC   C48 9198   1.752   1.754   2.890
  184DPPC   C49 9199   1.815   1.675   3.005
  184DPPC   C50 9200   1.766   1.530   3.008
  185DPPC    C1 9201   6.550   7.257   1.358
  185DPPC    C2 9202   6.500   7.344   1.593
  185DPPC    C3 9203   6.374   7.403   1.403
  185DPPC    N4 9204   6.454   7.296   1.463
  185DPPC    C5 9205   6.354   7.191   1.486
  185DPPC    C6 9206   6.387   7.045   1.516
  185DPPC    O7 9207   6.495   7.039   1.609
  185DPPC    P8 9208   6.601   6.925   1.568
  185DPPC    O9 9209   6.726   6.967   1.636
  185DPPC   O10 9210   6.597   6.911   1.421
  185DPPC   O11 9211   6.540   6.808   1.661
  185DPPC   C12 9212   6.555   6.849   1.797
  185DPPC   C13 9213   6.459   6.765   1.882
  185DPPC   O14 9214   6.450   6.790   2.023
  185DPPC   C15 9215   6.338   6.743   2.084
  185DPPC   O16 9216   6.247   6.691   2.019
  185DPPC   C17 9217   6.323   6.778   2.232
  185DPPC   C18 9218   6.188   6.844   2.259
  185DPPC   C19 9219   6.139   6.818   2.402
  185DPPC   C20 9220   6.221   6.883   2.514
  185DPPC   C21 9221   6.172   6.854   2.656
  185DPPC   C22 9222   6.267   6.925   2.752
  185DPPC   C23 9223   6.241   6.889   2.899
  185DPPC   C24 9224   6.338   6.953   2.999
  185DPPC   C25 9225   6.327   6.885   3.136
  185DPPC   C26 9226   6.410   6.973   3.230
  185DPPC   C27 9227   6.448   6.900   3.360
  185DPPC   C28 9228   6.528   6.978   3.464
  185DPPC   C29 9229   6.582   6.880   3.569
  185DPPC   C30 9230   6.477   6.851   3.676
  185DPPC   C31 9231   6.532   6.759   3.785
  185DPPC   C32 9232   6.524   6.628   1.859
  185DPPC   O33 9233   6.666   6.621   1.872
  185DPPC   C34 9234   6.718   6.510   1.813
  185DPPC   O35 9235   6.648   6.432   1.749
  185DPPC   C36 9236   6.869   6.509   1.841
  185DPPC   C37 9237   6.919   6.406   1.942
  185DPPC   C38 9238   6.922   6.458   2.085
  185DPPC   C39 9239   6.956   6.345   2.183
  185DPPC   C40 9240   6.967   6.397   2.326
  185DPPC   C41 9241   7.005   6.290   2.428
  185DPPC   C42 9242   7.135   6.210   2.411
  185DPPC   C43 9243   7.131   6.087   2.503
  185DPPC   C44 9244   7.252   5.998   2.475
  185DPPC   C45 9245   7.256   5.883   2.575
  185DPPC   C46 9246   7.382   5.796   2.578
  185DPPC   C47 9247   7.374   5.699   2.460
  185DPPC   C48 9248   7.494   5.605   2.452
  185DPPC   C49 9249   7.630   5.675   2.448
  185DPPC   C50 9250   7.739   5.573   2.416
  186DPPC    C1 9251   6.703   2.185   1.623
  186DPPC    C2 9252   6.700   2.414   1.617
  186DPPC    C3 9253   6.507   2.297   1.533
  186DPPC    N4 9254   6.611   2.299   1.637
  186DPPC    C5 9255   6.549   2.316   1.769
  186DPPC    C6 9256   6.449   2.210   1.815
  186DPPC    O7 9257   6.503   2.078   1.829
  186DPPC    P8 9258   6.394   1.961   1.841
  186DPPC    O9 9259   6.475   1.838   1.855
  186DPPC   O10 9260   6.310   1.984   1.721
  186DPPC   O11 9261   6.339   2.010   1.984
  186DPPC   C12 9262   6.424   1.935   2.071
  186DPPC   C13 9263   6.389   1.962   2.218
  186DPPC   O14 9264   6.273   1.894   2.266
  186DPPC   C15 9265   6.280   1.758   2.273
  186DPPC   O16 9266   6.370   1.703   2.211
  186DPPC   C17 9267   6.176   1.681   2.356
  186DPPC   C18 9268   6.225   1.619   2.487
  186DPPC   C19 9269   6.230   1.709   2.610
  186DPPC   C20 9270   6.246   1.623   2.736
  186DPPC   C21 9271   6.290   1.719   2.846
  186DPPC   C22 9272   6.274   1.669   2.989
  186DPPC   C23 9273   6.305   1.769   3.101
  186DPPC   C24 9274   6.201   1.881   3.111
  186DPPC   C25 9275   6.234   2.004   3.194
  186DPPC   C26 9276   6.157   2.129   3.152
  186DPPC   C27 9277   6.189   2.237   3.255
  186DPPC   C28 9278   6.113   2.206   3.384
  186DPPC   C29 9279   6.168   2.290   3.500
  186DPPC   C30 9280   6.096   2.255   3.630
  186DPPC   C31 9281   6.155   2.330   3.750
  186DPPC   C32 9282   6.391   2.113   2.240
  186DPPC   O33 9283   6.520   2.159   2.281
  186DPPC   C34 9284   6.530   2.294   2.293
  186DPPC   O35 9285   6.430   2.365   2.295
  186DPPC   C36 9286   6.663   2.352   2.342
  186DPPC   C37 9287   6.681   2.317   2.490
  186DPPC   C38 9288   6.821   2.344   2.544
  186DPPC   C39 9289   6.823   2.276   2.681
  186DPPC   C40 9290   6.971   2.268   2.720
  186DPPC   C41 9291   6.989   2.208   2.860
  186DPPC   C42 9292   6.949   2.301   2.974
  186DPPC   C43 9293   6.951   2.236   3.112
  186DPPC   C44 9294   6.952   2.340   3.224
  186DPPC   C45 9295   6.963   2.282   3.364
  186DPPC   C46 9296   6.910   2.388   3.461
  186DPPC   C47 9297   6.871   2.344   3.602
  186DPPC   C48 9298   6.761   2.237   3.604
  186DPPC   C49 9299   6.623   2.283   3.558
  186DPPC   C50 9300   6.522   2.193   3.630
  187DPPC    C1 9301   9.153   1.275   0.490
  187DPPC    C2 9302   8.930   1.246   0.510
  187DPPC    C3 9303   9.073   1.067   0.426
  187DPPC    N4 9304   9.056   1.172   0.528
  187DPPC    C5 9305   9.083   1.137   0.668
  187DPPC    C6 9306   9.004   1.019   0.724
  187DPPC    O7 9307   8.879   1.064   0.777
  187DPPC    P8 9308   8.827   0.932   0.854
  187DPPC    O9 9309   8.914   0.815   0.832
  187DPPC   O10 9310   8.681   0.908   0.847
  187DPPC   O11 9311   8.880   0.976   1.000
  187DPPC   C12 9312   8.780   0.990   1.101
  187DPPC   C13 9313   8.820   1.014   1.246
  187DPPC   O14 9314   8.728   0.993   1.355
  187DPPC   C15 9315   8.687   0.868   1.391
  187DPPC   O16 9316   8.744   0.773   1.339
  187DPPC   C17 9317   8.582   0.849   1.501
  187DPPC   C18 9318   8.599   0.728   1.592
  187DPPC   C19 9319   8.489   0.709   1.696
  187DPPC   C20 9320   8.351   0.683   1.634
  187DPPC   C21 9321   8.262   0.655   1.755
  187DPPC   C22 9322   8.255   0.789   1.828
  187DPPC   C23 9323   8.240   0.734   1.971
  187DPPC   C24 9324   8.242   0.862   2.055
  187DPPC   C25 9325   8.251   0.842   2.207
  187DPPC   C26 9326   8.267   0.980   2.269
  187DPPC   C27 9327   8.286   0.972   2.421
  187DPPC   C28 9328   8.263   1.104   2.495
  187DPPC   C29 9329   8.282   1.072   2.643
  187DPPC   C30 9330   8.433   1.062   2.668
  187DPPC   C31 9331   8.454   1.059   2.820
  187DPPC   C32 9332   8.867   1.159   1.242
  187DPPC   O33 9333   8.945   1.211   1.350
  187DPPC   C34 9334   9.070   1.157   1.357
  187DPPC   O35 9335   9.123   1.112   1.256
  187DPPC   C36 9336   9.135   1.159   1.496
  187DPPC   C37 9337   9.180   1.021   1.545
  187DPPC   C38 9338   9.068   0.947   1.616
  187DPPC   C39 9339   9.028   1.008   1.751
  187DPPC   C40 9340   8.917   0.920   1.808
  187DPPC   C41 9341   8.967   0.776   1.813
  187DPPC   C42 9342   8.857   0.678   1.854
  187DPPC   C43 9343   8.789   0.724   1.983
  187DPPC   C44 9344   8.687   0.623   2.036
  187DPPC   C45 9345   8.617   0.682   2.158
  187DPPC   C46 9346   8.562   0.580   2.258
  187DPPC   C47 9347   8.511   0.662   2.376
  187DPPC   C48 9348   8.495   0.574   2.500
  187DPPC   C49 9349   8.443   0.664   2.612
  187DPPC   C50 9350   8.371   0.592   2.726
  188DPPC    C1 9351   7.366   2.391   1.554
  188DPPC    C2 9352   7.470   2.185   1.488
  188DPPC    C3 9353   7.240   2.229   1.430
  188DPPC    N4 9354   7.373   2.289   1.448
  188DPPC    C5 9355   7.410   2.354   1.322
  188DPPC    C6 9356   7.546   2.413   1.283
  188DPPC    O7 9357   7.658   2.326   1.297
  188DPPC    P8 9358   7.787   2.422   1.286
  188DPPC    O9 9359   7.760   2.522   1.180
  188DPPC   O10 9360   7.912   2.343   1.293
  188DPPC   O11 9361   7.770   2.503   1.425
  188DPPC   C12 9362   7.789   2.641   1.392
  188DPPC   C13 9363   7.823   2.730   1.512
  188DPPC   O14 9364   7.965   2.737   1.530
  188DPPC   C15 9365   8.014   2.860   1.561
  188DPPC   O16 9366   7.985   2.957   1.492
  188DPPC   C17 9367   8.149   2.850   1.633
  188DPPC   C18 9368   8.147   2.803   1.779
  188DPPC   C19 9369   8.075   2.898   1.876
  188DPPC   C20 9370   8.125   2.878   2.020
  188DPPC   C21 9371   8.101   2.995   2.116
  188DPPC   C22 9372   8.178   2.949   2.239
  188DPPC   C23 9373   8.159   3.064   2.338
  188DPPC   C24 9374   8.245   3.027   2.459
  188DPPC   C25 9375   8.265   3.151   2.545
  188DPPC   C26 9376   8.343   3.126   2.674
  188DPPC   C27 9377   8.346   3.257   2.754
  188DPPC   C28 9378   8.416   3.225   2.886
  188DPPC   C29 9379   8.555   3.166   2.865
  188DPPC   C30 9380   8.606   3.134   3.006
  188DPPC   C31 9381   8.618   2.982   3.021
  188DPPC   C32 9382   7.736   2.672   1.624
  188DPPC   O33 9383   7.720   2.753   1.741
  188DPPC   C34 9384   7.615   2.718   1.820
  188DPPC   O35 9385   7.531   2.639   1.776
  188DPPC   C36 9386   7.585   2.802   1.944
  188DPPC   C37 9387   7.709   2.827   2.029
  188DPPC   C38 9388   7.712   2.930   2.143
  188DPPC   C39 9389   7.605   2.884   2.243
  188DPPC   C40 9390   7.611   2.985   2.357
  188DPPC   C41 9391   7.512   2.957   2.471
  188DPPC   C42 9392   7.570   2.992   2.608
  188DPPC   C43 9393   7.478   2.955   2.725
  188DPPC   C44 9394   7.567   2.978   2.847
  188DPPC   C45 9395   7.526   2.905   2.975
  188DPPC   C46 9396   7.631   2.935   3.082
  188DPPC   C47 9397   7.612   2.863   3.215
  188DPPC   C48 9398   7.743   2.872   3.292
  188DPPC   C49 9399   7.728   2.811   3.432
  188DPPC   C50 9400   7.843   2.839   3.528
  189DPPC    C1 9401   8.907   3.720   1.135
  189DPPC    C2 9402   8.786   3.530   1.225
  189DPPC    C3 9403   8.826   3.730   1.358
  189DPPC    N4 9404   8.798   3.677   1.224
  189DPPC    C5 9405   8.665   3.716   1.177
  189DPPC    C6 9406   8.617   3.860   1.197
  189DPPC    O7 9407   8.718   3.954   1.159
  189DPPC    P8 9408   8.677   4.109   1.148
  189DPPC    O9 9409   8.532   4.109   1.119
  189DPPC   O10 9410   8.774   4.177   1.059
  189DPPC   O11 9411   8.698   4.142   1.304
  189DPPC   C12 9412   8.839   4.134   1.328
  189DPPC   C13 9413   8.896   4.210   1.447
  189DPPC   O14 9414   8.869   4.159   1.578
  189DPPC   C15 9415   8.929   4.044   1.620
  189DPPC   O16 9416   8.984   3.971   1.538
  189DPPC   C17 9417   8.893   4.002   1.762
  189DPPC   C18 9418   8.934   4.108   1.865
  189DPPC   C19 9419   8.845   4.098   1.989
  189DPPC   C20 9420   8.700   4.131   1.955
  189DPPC   C21 9421   8.632   4.186   2.081
  189DPPC   C22 9422   8.483   4.210   2.058
  189DPPC   C23 9423   8.433   4.245   2.199
  189DPPC   C24 9424   8.292   4.303   2.185
  189DPPC   C25 9425   8.242   4.364   2.316
  189DPPC   C26 9426   8.240   4.278   2.443
  189DPPC   C27 9427   8.188   4.349   2.568
  189DPPC   C28 9428   8.167   4.260   2.691
  189DPPC   C29 9429   8.297   4.243   2.768
  189DPPC   C30 9430   8.295   4.277   2.917
  189DPPC   C31 9431   8.190   4.194   2.993
  189DPPC   C32 9432   8.872   4.360   1.426
  189DPPC   O33 9433   8.957   4.446   1.502
  189DPPC   C34 9434   8.974   4.574   1.461
  189DPPC   O35 9435   8.945   4.610   1.346
  189DPPC   C36 9436   9.055   4.666   1.553
  189DPPC   C37 9437   8.963   4.738   1.652
  189DPPC   C38 9438   8.919   4.657   1.775
  189DPPC   C39 9439   8.796   4.726   1.833
  189DPPC   C40 9440   8.773   4.697   1.981
  189DPPC   C41 9441   8.653   4.767   2.046
  189DPPC   C42 9442   8.682   4.760   2.195
  189DPPC   C43 9443   8.663   4.616   2.241
  189DPPC   C44 9444   8.640   4.615   2.392
  189DPPC   C45 9445   8.612   4.478   2.455
  189DPPC   C46 9446   8.565   4.512   2.597
  189DPPC   C47 9447   8.669   4.606   2.659
  189DPPC   C48 9448   8.606   4.664   2.785
  189DPPC   C49 9449   8.539   4.554   2.867
  189DPPC   C50 9450   8.477   4.624   2.988
  190DPPC    C1 9451   4.987   7.180   1.552
  190DPPC    C2 9452   4.754   7.247   1.511
  190DPPC    C3 9453   4.857   7.283   1.725
  190DPPC    N4 9454   4.880   7.276   1.580
  190DPPC    C5 9455   4.918   7.416   1.551
  190DPPC    C6 9456   5.049   7.467   1.611
  190DPPC    O7 9457   5.027   7.561   1.716
  190DPPC    P8 9458   5.173   7.615   1.755
  190DPPC    O9 9459   5.132   7.704   1.865
  190DPPC   O10 9460   5.250   7.653   1.634
  190DPPC   O11 9461   5.214   7.472   1.815
  190DPPC   C12 9462   5.153   7.460   1.943
  190DPPC   C13 9463   5.136   7.311   1.974
  190DPPC   O14 9464   5.019   7.265   2.044
  190DPPC   C15 9465   4.990   7.134   2.025
  190DPPC   O16 9466   5.040   7.056   1.944
  190DPPC   C17 9467   4.876   7.090   2.117
  190DPPC   C18 9468   4.934   6.997   2.223
  190DPPC   C19 9469   5.048   7.065   2.299
  190DPPC   C20 9470   5.133   6.949   2.349
  190DPPC   C21 9471   5.285   6.970   2.351
  190DPPC   C22 9472   5.344   6.891   2.468
  190DPPC   C23 9473   5.492   6.926   2.490
  190DPPC   C24 9474   5.527   6.882   2.632
  190DPPC   C25 9475   5.522   6.729   2.641
  190DPPC   C26 9476   5.620   6.652   2.552
  190DPPC   C27 9477   5.575   6.506   2.556
  190DPPC   C28 9478   5.606   6.444   2.692
  190DPPC   C29 9479   5.592   6.291   2.694
  190DPPC   C30 9480   5.652   6.242   2.826
  190DPPC   C31 9481   5.611   6.099   2.859
  190DPPC   C32 9482   5.273   7.275   2.031
  190DPPC   O33 9483   5.316   7.343   2.150
  190DPPC   C34 9484   5.448   7.308   2.156
  190DPPC   O35 9485   5.477   7.197   2.114
  190DPPC   C36 9486   5.544   7.419   2.200
  190DPPC   C37 9487   5.541   7.435   2.352
  190DPPC   C38 9488   5.609   7.565   2.395
  190DPPC   C39 9489   5.760   7.546   2.410
  190DPPC   C40 9490   5.824   7.663   2.485
  190DPPC   C41 9491   5.800   7.792   2.407
  190DPPC   C42 9492   5.845   7.916   2.485
  190DPPC   C43 9493   5.760   7.928   2.612
  190DPPC   C44 9494   5.811   8.034   2.710
  190DPPC   C45 9495   5.729   8.053   2.838
  190DPPC   C46 9496   5.795   8.153   2.933
  190DPPC   C47 9497   5.718   8.178   3.063
  190DPPC   C48 9498   5.797   8.268   3.158
  190DPPC   C49 9499   5.721   8.282   3.290
  190DPPC   C50 9500   5.798   8.328   3.414
  191DPPC    C1 9501   0.938   2.269   1.176
  191DPPC    C2 9502   1.123   2.149   1.070
  191DPPC    C3 9503   1.081   2.130   1.308
  191DPPC    N4 9504   1.020   2.147   1.175
  191DPPC    C5 9505   0.940   2.032   1.130
  191DPPC    C6 9506   0.847   1.962   1.229
  191DPPC    O7 9507   0.749   2.043   1.294
  191DPPC    P8 9508   0.654   1.954   1.389
  191DPPC    O9 9509   0.758   1.874   1.459
  191DPPC   O10 9510   0.574   1.904   1.276
  191DPPC   O11 9511   0.588   2.086   1.452
  191DPPC   C12 9512   0.649   2.090   1.581
  191DPPC   C13 9513   0.663   2.232   1.635
  191DPPC   O14 9514   0.744   2.258   1.751
  191DPPC   C15 9515   0.872   2.215   1.768
  191DPPC   O16 9516   0.943   2.198   1.669
  191DPPC   C17 9517   0.932   2.227   1.909
  191DPPC   C18 9518   0.942   2.089   1.973
  191DPPC   C19 9519   0.994   2.114   2.115
  191DPPC   C20 9520   1.124   2.195   2.122
  191DPPC   C21 9521   1.179   2.153   2.259
  191DPPC   C22 9522   1.238   2.270   2.336
  191DPPC   C23 9523   1.248   2.233   2.484
  191DPPC   C24 9524   1.308   2.346   2.567
  191DPPC   C25 9525   1.271   2.320   2.713
  191DPPC   C26 9526   1.120   2.305   2.736
  191DPPC   C27 9527   1.089   2.254   2.877
  191DPPC   C28 9528   1.174   2.130   2.906
  191DPPC   C29 9529   1.128   2.077   3.042
  191DPPC   C30 9530   1.192   1.945   3.088
  191DPPC   C31 9531   1.138   1.896   3.222
  191DPPC   C32 9532   0.516   2.271   1.654
  191DPPC   O33 9533   0.440   2.190   1.744
  191DPPC   C34 9534   0.304   2.193   1.737
  191DPPC   O35 9535   0.243   2.261   1.655
  191DPPC   C36 9536   0.236   2.081   1.816
  191DPPC   C37 9537   0.160   2.124   1.941
  191DPPC   C38 9538   0.122   1.996   2.016
  191DPPC   C39 9539   0.082   2.034   2.159
  191DPPC   C40 9540  -0.044   2.120   2.156
  191DPPC   C41 9541  -0.091   2.117   2.301
  191DPPC   C42 9542  -0.111   1.969   2.332
  191DPPC   C43 9543  -0.132   1.945   2.482
  191DPPC   C44 9544  -0.244   2.028   2.544
  191DPPC   C45 9545  -0.278   1.937   2.662
  191DPPC   C46 9546  -0.393   2.006   2.736
  191DPPC   C47 9547  -0.363   2.126   2.826
  191DPPC   C48 9548  -0.490   2.172   2.898
  191DPPC   C49 9549  -0.542   2.047   2.969
  191DPPC   C50 9550  -0.672   2.046   3.049
  192DPPC    C1 9551   4.753   1.071   1.562
  192DPPC    C2 9552   4.743   0.832   1.569
  192DPPC    C3 9553   4.955   0.940   1.546
  192DPPC    N4 9554   4.822   0.950   1.608
  192DPPC    C5 9555   4.836   0.936   1.754
  192DPPC    C6 9556   4.889   1.040   1.852
  192DPPC    O7 9557   4.823   1.166   1.840
  192DPPC    P8 9558   4.909   1.274   1.923
  192DPPC    O9 9559   4.847   1.403   1.887
  192DPPC   O10 9560   5.049   1.241   1.889
  192DPPC   O11 9561   4.872   1.249   2.077
  192DPPC   C12 9562   4.756   1.314   2.129
  192DPPC   C13 9563   4.762   1.306   2.281
  192DPPC   O14 9564   4.641   1.351   2.343
  192DPPC   C15 9565   4.534   1.268   2.329
  192DPPC   O16 9566   4.533   1.164   2.262
  192DPPC   C17 9567   4.402   1.321   2.386
  192DPPC   C18 9568   4.418   1.445   2.474
  192DPPC   C19 9569   4.288   1.497   2.535
  192DPPC   C20 9570   4.238   1.418   2.656
  192DPPC   C21 9571   4.118   1.484   2.725
  192DPPC   C22 9572   4.064   1.387   2.830
  192DPPC   C23 9573   4.147   1.377   2.958
  192DPPC   C24 9574   4.083   1.286   3.062
  192DPPC   C25 9575   4.181   1.267   3.177
  192DPPC   C26 9576   4.316   1.239   3.109
  192DPPC   C27 9577   4.392   1.152   3.210
  192DPPC   C28 9578   4.488   1.071   3.123
  192DPPC   C29 9579   4.564   0.971   3.211
  192DPPC   C30 9580   4.654   0.888   3.118
  192DPPC   C31 9581   4.789   0.951   3.085
  192DPPC   C32 9582   4.892   1.372   2.329
  192DPPC   O33 9583   4.931   1.326   2.458
  192DPPC   C34 9584   5.059   1.353   2.496
  192DPPC   O35 9585   5.151   1.343   2.415
  192DPPC   C36 9586   5.075   1.324   2.646
  192DPPC   C37 9587   5.133   1.183   2.655
  192DPPC   C38 9588   5.148   1.173   2.807
  192DPPC   C39 9589   5.113   1.031   2.852
  192DPPC   C40 9590   5.181   1.010   2.988
  192DPPC   C41 9591   5.217   0.866   3.022
  192DPPC   C42 9592   5.274   0.859   3.164
  192DPPC   C43 9593   5.313   0.718   3.208
  192DPPC   C44 9594   5.352   0.698   3.355
  192DPPC   C45 9595   5.339   0.552   3.398
  192DPPC   C46 9596   5.417   0.470   3.294
  192DPPC   C47 9597   5.416   0.324   3.339
  192DPPC   C48 9598   5.496   0.242   3.239
  192DPPC   C49 9599   5.530   0.102   3.290
  192DPPC   C50 9600   5.409   0.026   3.344
  193DPPC    C1 9601   5.376   5.728   5.923
  193DPPC    C2 9602   5.241   5.540   5.918
  193DPPC    C3 9603   5.199   5.729   5.784
  193DPPC    N4 9604   5.305   5.639   5.831
  193DPPC    C5 9605   5.398   5.580   5.733
  193DPPC    C6 9606   5.351   5.454   5.661
  193DPPC    O7 9607   5.419   5.436   5.536
  193DPPC    P8 9608   5.388   5.280   5.507
  193DPPC    O9 9609   5.354   5.216   5.636
  193DPPC   O10 9610   5.495   5.221   5.424
  193DPPC   O11 9611   5.260   5.292   5.410
  193DPPC   C12 9612   5.284   5.255   5.274
  193DPPC   C13 9613   5.171   5.301   5.181
  193DPPC   O14 9614   5.162   5.206   5.074
  193DPPC   C15 9615   5.077   5.100   5.087
  193DPPC   O16 9616   4.988   5.107   5.171
  193DPPC   C17 9617   5.073   5.008   4.965
  193DPPC   C18 9618   5.213   4.992   4.906
  193DPPC   C19 9619   5.207   4.877   4.807
  193DPPC   C20 9620   5.307   4.898   4.693
  193DPPC   C21 9621   5.305   4.773   4.604
  193DPPC   C22 9622   5.421   4.785   4.505
  193DPPC   C23 9623   5.423   4.657   4.420
  193DPPC   C24 9624   5.508   4.702   4.301
  193DPPC   C25 9625   5.522   4.590   4.197
  193DPPC   C26 9626   5.582   4.654   4.071
  193DPPC   C27 9627   5.725   4.701   4.098
  193DPPC   C28 9628   5.778   4.784   3.980
  193DPPC   C29 9629   5.782   4.702   3.851
  193DPPC   C30 9630   5.854   4.786   3.746
  193DPPC   C31 9631   5.762   4.889   3.680
  193DPPC   C32 9632   5.192   5.447   5.141
  193DPPC   O33 9633   5.308   5.472   5.061
  193DPPC   C34 9634   5.261   5.495   4.936
  193DPPC   O35 9635   5.152   5.546   4.914
  193DPPC   C36 9636   5.373   5.487   4.831
  193DPPC   C37 9637   5.412   5.340   4.814
  193DPPC   C38 9638   5.554   5.330   4.757
  193DPPC   C39 9639   5.559   5.181   4.726
  193DPPC   C40 9640   5.697   5.133   4.679
  193DPPC   C41 9641   5.709   4.980   4.672
  193DPPC   C42 9642   5.838   4.932   4.606
  193DPPC   C43 9643   5.873   4.788   4.644
  193DPPC   C44 9644   5.991   4.753   4.553
  193DPPC   C45 9645   5.958   4.782   4.406
  193DPPC   C46 9646   6.068   4.731   4.312
  193DPPC   C47 9647   6.085   4.579   4.325
  193DPPC   C48 9648   6.200   4.530   4.238
  193DPPC   C49 9649   6.160   4.538   4.091
  193DPPC   C50 9650   6.271   4.464   4.015
  194DPPC    C1 9651   7.948   5.515   0.795
  194DPPC    C2 9652   7.785   5.689   0.834
  194DPPC    C3 9653   7.772   5.541   0.645
  194DPPC    N4 9654   7.806   5.551   0.788
  194DPPC    C5 9655   7.705   5.467   0.854
  194DPPC    C6 9656   7.714   5.314   0.856
  194DPPC    O7 9657   7.804   5.271   0.958
  194DPPC    P8 9658   7.801   5.111   0.974
  194DPPC    O9 9659   7.827   5.068   0.834
  194DPPC   O10 9660   7.668   5.083   1.033
  194DPPC   O11 9661   7.923   5.082   1.075
  194DPPC   C12 9662   7.891   5.137   1.203
  194DPPC   C13 9663   7.968   5.260   1.252
  194DPPC   O14 9664   8.059   5.229   1.358
  194DPPC   C15 9665   8.143   5.314   1.422
  194DPPC   O16 9666   8.156   5.428   1.378
  194DPPC   C17 9667   8.234   5.267   1.536
  194DPPC   C18 9668   8.179   5.160   1.630
  194DPPC   C19 9669   8.292   5.063   1.665
  194DPPC   C20 9670   8.349   5.047   1.806
  194DPPC   C21 9671   8.242   4.976   1.888
  194DPPC   C22 9672   8.283   4.959   2.034
  194DPPC   C23 9673   8.218   4.836   2.098
  194DPPC   C24 9674   8.186   4.873   2.242
  194DPPC   C25 9675   8.104   4.762   2.307
  194DPPC   C26 9676   8.107   4.790   2.458
  194DPPC   C27 9677   8.246   4.776   2.520
  194DPPC   C28 9678   8.226   4.779   2.671
  194DPPC   C29 9679   8.135   4.886   2.733
  194DPPC   C30 9680   8.152   4.897   2.885
  194DPPC   C31 9681   8.070   5.018   2.931
  194DPPC   C32 9682   7.857   5.353   1.300
  194DPPC   O33 9683   7.773   5.313   1.409
  194DPPC   C34 9684   7.660   5.386   1.426
  194DPPC   O35 9685   7.641   5.480   1.348
  194DPPC   C36 9686   7.578   5.350   1.549
  194DPPC   C37 9687   7.442   5.419   1.551
  194DPPC   C38 9688   7.368   5.398   1.683
  194DPPC   C39 9689   7.239   5.480   1.686
  194DPPC   C40 9690   7.144   5.455   1.803
  194DPPC   C41 9691   7.079   5.316   1.800
  194DPPC   C42 9692   7.001   5.298   1.930
  194DPPC   C43 9693   7.095   5.305   2.051
  194DPPC   C44 9694   7.022   5.309   2.186
  194DPPC   C45 9695   7.133   5.343   2.285
  194DPPC   C46 9696   7.086   5.317   2.428
  194DPPC   C47 9697   7.185   5.352   2.539
  194DPPC   C48 9698   7.120   5.316   2.672
  194DPPC   C49 9699   7.221   5.344   2.783
  194DPPC   C50 9700   7.346   5.259   2.761
  195DPPC    C1 9701   2.454   3.557   5.331
  195DPPC    C2 9702   2.244   3.618   5.276
  195DPPC    C3 9703   2.376   3.571   5.095
  195DPPC    N4 9704   2.350   3.525   5.232
  195DPPC    C5 9705   2.294   3.390   5.247
  195DPPC    C6 9706   2.355   3.271   5.173
  195DPPC    O7 9707   2.480   3.228   5.228
  195DPPC    P8 9708   2.524   3.082   5.176
  195DPPC    O9 9709   2.489   3.083   5.032
  195DPPC   O10 9710   2.470   2.984   5.274
  195DPPC   O11 9711   2.684   3.094   5.183
  195DPPC   C12 9712   2.715   3.201   5.094
  195DPPC   C13 9713   2.787   3.330   5.137
  195DPPC   O14 9714   2.767   3.428   5.034
  195DPPC   C15 9715   2.798   3.560   5.049
  195DPPC   O16 9716   2.780   3.605   5.162
  195DPPC   C17 9717   2.796   3.649   4.925
  195DPPC   C18 9718   2.903   3.607   4.825
  195DPPC   C19 9719   2.889   3.698   4.703
  195DPPC   C20 9720   2.953   3.636   4.579
  195DPPC   C21 9721   2.871   3.512   4.543
  195DPPC   C22 9722   2.902   3.456   4.405
  195DPPC   C23 9723   2.854   3.566   4.310
  195DPPC   C24 9724   2.884   3.546   4.161
  195DPPC   C25 9725   2.838   3.412   4.103
  195DPPC   C26 9726   2.873   3.393   3.955
  195DPPC   C27 9727   3.024   3.409   3.938
  195DPPC   C28 9728   3.046   3.417   3.787
  195DPPC   C29 9729   3.016   3.279   3.727
  195DPPC   C30 9730   3.110   3.184   3.801
  195DPPC   C31 9731   3.102   3.041   3.747
  195DPPC   C32 9732   2.933   3.292   5.161
  195DPPC   O33 9733   2.986   3.200   5.065
  195DPPC   C34 9734   3.117   3.168   5.083
  195DPPC   O35 9735   3.176   3.215   5.179
  195DPPC   C36 9736   3.184   3.070   4.987
  195DPPC   C37 9737   3.251   3.156   4.880
  195DPPC   C38 9738   3.269   3.074   4.751
  195DPPC   C39 9739   3.134   3.063   4.680
  195DPPC   C40 9740   3.168   3.007   4.541
  195DPPC   C41 9741   3.063   3.040   4.434
  195DPPC   C42 9742   3.125   2.998   4.301
  195DPPC   C43 9743   3.031   3.015   4.181
  195DPPC   C44 9744   2.889   2.961   4.194
  195DPPC   C45 9745   2.812   2.979   4.063
  195DPPC   C46 9746   2.664   2.942   4.078
  195DPPC   C47 9747   2.565   2.996   3.975
  195DPPC   C48 9748   2.565   3.148   3.957
  195DPPC   C49 9749   2.532   3.201   3.818
  195DPPC   C50 9750   2.534   3.352   3.843
  196DPPC    C1 9751   0.588   0.132   1.382
  196DPPC    C2 9752   0.449   0.286   1.283
  196DPPC    C3 9753   0.418   0.242   1.518
  196DPPC    N4 9754   0.517   0.257   1.410
  196DPPC    C5 9755   0.620   0.361   1.424
  196DPPC    C6 9756   0.581   0.509   1.430
  196DPPC    O7 9757   0.468   0.552   1.507
  196DPPC    P8 9758   0.466   0.713   1.502
  196DPPC    O9 9759   0.331   0.764   1.469
  196DPPC   O10 9760   0.581   0.760   1.420
  196DPPC   O11 9761   0.528   0.752   1.645
  196DPPC   C12 9762   0.415   0.737   1.730
  196DPPC   C13 9763   0.450   0.711   1.877
  196DPPC   O14 9764   0.338   0.667   1.955
  196DPPC   C15 9765   0.292   0.541   1.933
  196DPPC   O16 9766   0.357   0.459   1.869
  196DPPC   C17 9767   0.156   0.496   1.988
  196DPPC   C18 9768   0.166   0.477   2.140
  196DPPC   C19 9769   0.043   0.425   2.215
  196DPPC   C20 9770   0.086   0.422   2.362
  196DPPC   C21 9771  -0.011   0.360   2.462
  196DPPC   C22 9772   0.090   0.293   2.556
  196DPPC   C23 9773   0.007   0.249   2.676
  196DPPC   C24 9774   0.099   0.195   2.785
  196DPPC   C25 9775   0.006   0.135   2.891
  196DPPC   C26 9776   0.075   0.037   2.986
  196DPPC   C27 9777   0.108  -0.099   2.923
  196DPPC   C28 9778   0.161  -0.197   3.028
  196DPPC   C29 9779   0.207  -0.332   2.971
  196DPPC   C30 9780   0.222  -0.462   3.050
  196DPPC   C31 9781   0.253  -0.579   2.957
  196DPPC   C32 9782   0.536   0.829   1.922
  196DPPC   O33 9783   0.472   0.953   1.889
  196DPPC   C34 9784   0.540   1.071   1.887
  196DPPC   O35 9785   0.657   1.063   1.922
  196DPPC   C36 9786   0.460   1.196   1.851
  196DPPC   C37 9787   0.389   1.274   1.962
  196DPPC   C38 9788   0.292   1.377   1.905
  196DPPC   C39 9789   0.214   1.438   2.022
  196DPPC   C40 9790   0.144   1.331   2.105
  196DPPC   C41 9791   0.067   1.398   2.219
  196DPPC   C42 9792   0.002   1.292   2.308
  196DPPC   C43 9793  -0.071   1.361   2.424
  196DPPC   C44 9794  -0.128   1.256   2.520
  196DPPC   C45 9795  -0.154   1.305   2.663
  196DPPC   C46 9796  -0.228   1.205   2.752
  196DPPC   C47 9797  -0.274   1.268   2.884
  196DPPC   C48 9798  -0.338   1.164   2.976
  196DPPC   C49 9799  -0.239   1.116   3.082
  196DPPC   C50 9800  -0.307   1.045   3.199
  197DPPC    C1 9801   8.773   2.052   5.533
  197DPPC    C2 9802   8.822   1.816   5.549
  197DPPC    C3 9803   8.662   1.902   5.399
  197DPPC    N4 9804   8.794   1.928   5.457
  197DPPC    C5 9805   8.908   1.943   5.366
  197DPPC    C6 9806   8.948   1.824   5.277
  197DPPC    O7 9807   8.848   1.769   5.191
  197DPPC    P8 9808   8.919   1.675   5.081
  197DPPC    O9 9809   8.820   1.584   5.018
  197DPPC   O10 9810   9.053   1.633   5.129
  197DPPC   O11 9811   8.948   1.795   4.979
  197DPPC   C12 9812   8.822   1.843   4.931
  197DPPC   C13 9813   8.823   1.988   4.880
  197DPPC   O14 9814   8.696   2.044   4.845
  197DPPC   C15 9815   8.678   2.177   4.868
  197DPPC   O16 9816   8.731   2.226   4.967
  197DPPC   C17 9817   8.566   2.247   4.792
  197DPPC   C18 9818   8.615   2.281   4.651
  197DPPC   C19 9819   8.490   2.297   4.564
  197DPPC   C20 9820   8.534   2.352   4.429
  197DPPC   C21 9821   8.416   2.383   4.337
  197DPPC   C22 9822   8.457   2.406   4.191
  197DPPC   C23 9823   8.332   2.446   4.113
  197DPPC   C24 9824   8.238   2.532   4.198
  197DPPC   C25 9825   8.125   2.579   4.106
  197DPPC   C26 9826   8.092   2.453   4.024
  197DPPC   C27 9827   7.974   2.497   3.937
  197DPPC   C28 9828   7.927   2.369   3.868
  197DPPC   C29 9829   7.801   2.412   3.793
  197DPPC   C30 9830   7.729   2.285   3.746
  197DPPC   C31 9831   7.810   2.187   3.661
  197DPPC   C32 9832   8.922   1.977   4.764
  197DPPC   O33 9833   8.957   2.098   4.697
  197DPPC   C34 9834   9.055   2.093   4.602
  197DPPC   O35 9835   9.138   2.002   4.598
  197DPPC   C36 9836   9.071   2.217   4.515
  197DPPC   C37 9837   8.949   2.234   4.423
  197DPPC   C38 9838   8.958   2.340   4.313
  197DPPC   C39 9839   8.843   2.348   4.213
  197DPPC   C40 9840   8.874   2.487   4.158
  197DPPC   C41 9841   8.844   2.601   4.255
  197DPPC   C42 9842   8.893   2.738   4.207
  197DPPC   C43 9843   8.857   2.848   4.306
  197DPPC   C44 9844   8.937   2.977   4.281
  197DPPC   C45 9845   8.910   3.079   4.391
  197DPPC   C46 9846   9.024   3.180   4.408
  197DPPC   C47 9847   8.959   3.279   4.504
  197DPPC   C48 9848   9.050   3.395   4.548
  197DPPC   C49 9849   8.991   3.478   4.662
  197DPPC   C50 9850   8.973   3.394   4.788
  198DPPC    C1 9851   3.901   4.845   5.119
  198DPPC    C2 9852   3.691   4.782   5.199
  198DPPC    C3 9853   3.875   4.773   5.347
  198DPPC    N4 9854   3.815   4.851   5.238
  198DPPC    C5 9855   3.785   4.988   5.283
  198DPPC    C6 9856   3.888   5.070   5.362
  198DPPC    O7 9857   3.989   5.122   5.276
  198DPPC    P8 9858   4.126   5.116   5.362
  198DPPC    O9 9859   4.151   4.971   5.341
  198DPPC   O10 9860   4.110   5.182   5.493
  198DPPC   O11 9861   4.212   5.201   5.256
  198DPPC   C12 9862   4.264   5.112   5.157
  198DPPC   C13 9863   4.339   5.173   5.038
  198DPPC   O14 9864   4.462   5.245   5.050
  198DPPC   C15 9865   4.569   5.162   5.067
  198DPPC   O16 9866   4.564   5.049   5.114
  198DPPC   C17 9867   4.710   5.215   5.041
  198DPPC   C18 9868   4.712   5.287   4.906
  198DPPC   C19 9869   4.841   5.336   4.840
  198DPPC   C20 9870   4.817   5.384   4.696
  198DPPC   C21 9871   4.952   5.413   4.631
  198DPPC   C22 9872   5.027   5.284   4.598
  198DPPC   C23 9873   5.141   5.326   4.505
  198DPPC   C24 9874   5.219   5.215   4.435
  198DPPC   C25 9875   5.363   5.255   4.402
  198DPPC   C26 9876   5.429   5.148   4.315
  198DPPC   C27 9877   5.574   5.177   4.277
  198DPPC   C28 9878   5.607   5.100   4.149
  198DPPC   C29 9879   5.749   5.137   4.108
  198DPPC   C30 9880   5.843   5.104   4.224
  198DPPC   C31 9881   5.996   5.103   4.215
  198DPPC   C32 9882   4.226   5.243   4.962
  198DPPC   O33 9883   4.122   5.158   4.915
  198DPPC   C34 9884   4.018   5.221   4.853
  198DPPC   O35 9885   4.021   5.341   4.826
  198DPPC   C36 9886   3.891   5.144   4.819
  198DPPC   C37 9887   3.949   5.011   4.770
  198DPPC   C38 9888   4.009   5.011   4.629
  198DPPC   C39 9889   4.071   4.874   4.603
  198DPPC   C40 9890   4.130   4.874   4.462
  198DPPC   C41 9891   4.187   4.737   4.427
  198DPPC   C42 9892   4.295   4.753   4.320
  198DPPC   C43 9893   4.392   4.636   4.307
  198DPPC   C44 9894   4.493   4.660   4.195
  198DPPC   C45 9895   4.611   4.563   4.184
  198DPPC   C46 9896   4.711   4.596   4.073
  198DPPC   C47 9897   4.828   4.498   4.064
  198DPPC   C48 9898   4.789   4.353   4.037
  198DPPC   C49 9899   4.910   4.267   4.000
  198DPPC   C50 9900   4.859   4.131   3.952
  199DPPC    C1 9901   6.889   6.308   5.161
  199DPPC    C2 9902   6.842   6.531   5.096
  199DPPC    C3 9903   6.755   6.357   4.973
  199DPPC    N4 9904   6.783   6.397   5.112
  199DPPC    C5 9905   6.666   6.387   5.201
  199DPPC    C6 9906   6.557   6.493   5.190
  199DPPC    O7 9907   6.473   6.468   5.077
  199DPPC    P8 9908   6.351   6.573   5.074
  199DPPC    O9 9909   6.424   6.702   5.062
  199DPPC   O10 9910   6.258   6.535   5.182
  199DPPC   O11 9911   6.284   6.518   4.939
  199DPPC   C12 9912   6.383   6.461   4.852
  199DPPC   C13 9913   6.351   6.484   4.704
  199DPPC   O14 9914   6.440   6.424   4.609
  199DPPC   C15 9915   6.424   6.293   4.577
  199DPPC   O16 9916   6.354   6.225   4.652
  199DPPC   C17 9917   6.491   6.233   4.454
  199DPPC   C18 9918   6.447   6.284   4.316
  199DPPC   C19 9919   6.534   6.209   4.215
  199DPPC   C20 9920   6.502   6.274   4.081
  199DPPC   C21 9921   6.584   6.191   3.982
  199DPPC   C22 9922   6.579   6.251   3.842
  199DPPC   C23 9923   6.678   6.367   3.833
  199DPPC   C24 9924   6.672   6.415   3.688
  199DPPC   C25 9925   6.760   6.341   3.589
  199DPPC   C26 9926   6.759   6.422   3.459
  199DPPC   C27 9927   6.814   6.563   3.483
  199DPPC   C28 9928   6.814   6.644   3.353
  199DPPC   C29 9929   6.897   6.771   3.370
  199DPPC   C30 9930   6.927   6.852   3.243
  199DPPC   C31 9931   7.001   6.980   3.280
  199DPPC   C32 9932   6.336   6.636   4.699
  199DPPC   O33 9933   6.441   6.723   4.743
  199DPPC   C34 9934   6.407   6.855   4.736
  199DPPC   O35 9935   6.293   6.888   4.707
  199DPPC   C36 9936   6.512   6.952   4.789
  199DPPC   C37 9937   6.512   7.082   4.708
  199DPPC   C38 9938   6.427   7.193   4.769
  199DPPC   C39 9939   6.399   7.312   4.676
  199DPPC   C40 9940   6.332   7.264   4.548
  199DPPC   C41 9941   6.313   7.386   4.458
  199DPPC   C42 9942   6.451   7.442   4.422
  199DPPC   C43 9943   6.527   7.356   4.321
  199DPPC   C44 9944   6.659   7.427   4.292
  199DPPC   C45 9945   6.647   7.567   4.231
  199DPPC   C46 9946   6.783   7.609   4.176
  199DPPC   C47 9947   6.841   7.510   4.074
  199DPPC   C48 9948   6.981   7.552   4.027
  199DPPC   C49 9949   7.071   7.563   4.150
  199DPPC   C50 9950   7.216   7.601   4.116
  200DPPC    C1 9951   2.587   7.569   4.886
  200DPPC    C2 9952   2.669   7.437   5.079
  200DPPC    C3 9953   2.719   7.657   5.043
  200DPPC    N4 9954   2.608   7.562   5.031
  200DPPC    C5 9955   2.504   7.625   5.115
  200DPPC    C6 9956   2.363   7.569   5.102
  200DPPC    O7 9957   2.342   7.429   5.125
  200DPPC    P8 9958   2.192   7.377   5.103
  200DPPC    O9 9959   2.096   7.484   5.137
  200DPPC   O10 9960   2.199   7.253   5.183
  200DPPC   O11 9961   2.200   7.360   4.943
  200DPPC   C12 9962   2.281   7.243   4.925
  200DPPC   C13 9963   2.262   7.184   4.785
  200DPPC   O14 9964   2.344   7.231   4.676
  200DPPC   C15 9965   2.479   7.215   4.677
  200DPPC   O16 9966   2.549   7.209   4.778
  200DPPC   C17 9967   2.530   7.240   4.535
  200DPPC   C18 9968   2.626   7.128   4.494
  200DPPC   C19 9969   2.675   7.167   4.354
  200DPPC   C20 9970   2.784   7.071   4.307
  200DPPC   C21 9971   2.835   7.092   4.165
  200DPPC   C22 9972   2.729   7.079   4.054
  200DPPC   C23 9973   2.804   7.085   3.921
  200DPPC   C24 9974   2.719   7.082   3.793
  200DPPC   C25 9975   2.795   7.095   3.662
  200DPPC   C26 9976   2.870   7.227   3.644
  200DPPC   C27 9977   2.945   7.237   3.510
  200DPPC   C28 9978   3.044   7.353   3.503
  200DPPC   C29 9979   3.111   7.354   3.366
  200DPPC   C30 9980   3.192   7.225   3.348
  200DPPC   C31 9981   3.290   7.214   3.231
  200DPPC   C32 9982   2.110   7.172   4.777
  200DPPC   O33 9983   2.062   7.091   4.670
  200DPPC   C34 9984   1.927   7.079   4.678
  200DPPC   O35 9985   1.860   7.095   4.780
  200DPPC   C36 9986   1.872   7.006   4.555
  200DPPC   C37 9987   1.832   7.091   4.435
  200DPPC   C38 9988   1.795   7.001   4.316
  200DPPC   C39 9989   1.923   6.947   4.252
  200DPPC   C40 9990   1.904   6.835   4.149
  200DPPC   C41 9991   2.032   6.785   4.082
  200DPPC   C42 9992   1.987   6.678   3.983
  200DPPC   C43 9993   1.868   6.732   3.903
  200DPPC   C44 9994   1.796   6.621   3.827
  200DPPC   C45 9995   1.648   6.656   3.806
  200DPPC   C46 9996   1.619   6.791   3.740
  200DPPC   C47 9997   1.475   6.804   3.689
  200DPPC   C48 9998   1.444   6.951   3.663
  200DPPC   C49 9999   1.302   6.987   3.618
  200DPPC   C5010000   1.283   7.138   3.600
  201DPPC    C110001   7.738   1.506   5.513
  201DPPC    C210002   7.748   1.573   5.746
  201DPPC    C310003   7.772   1.349   5.692
  201DPPC    N410004   7.803   1.484   5.643
  201DPPC    C510005   7.949   1.496   5.656
  201DPPC    C610006   8.023   1.607   5.580
  201DPPC    O710007   7.978   1.731   5.636
  201DPPC    P810008   8.031   1.854   5.547
  201DPPC    O910009   8.173   1.821   5.520
  201DPPC   O1010010   7.997   1.991   5.591
  201DPPC   O1110011   7.944   1.819   5.416
  201DPPC   C1210012   8.014   1.878   5.306
  201DPPC   C1310013   7.939   1.905   5.175
  201DPPC   O1410014   7.840   2.009   5.172
  201DPPC   C1510015   7.879   2.139   5.185
  201DPPC   O1610016   7.971   2.168   5.260
  201DPPC   C1710017   7.787   2.239   5.115
  201DPPC   C1810018   7.809   2.238   4.963
  201DPPC   C1910019   7.727   2.350   4.898
  201DPPC   C2010020   7.579   2.314   4.913
  201DPPC   C2110021   7.489   2.420   4.849
  201DPPC   C2210022   7.345   2.374   4.828
  201DPPC   C2310023   7.264   2.486   4.764
  201DPPC   C2410024   7.302   2.500   4.616
  201DPPC   C2510025   7.210   2.603   4.550
  201DPPC   C2610026   7.233   2.604   4.399
  201DPPC   C2710027   7.117   2.667   4.321
  201DPPC   C2810028   7.120   2.627   4.173
  201DPPC   C2910029   6.994   2.648   4.089
  201DPPC   C3010030   7.002   2.591   3.947
  201DPPC   C3110031   6.885   2.494   3.930
  201DPPC   C3210032   7.885   1.765   5.143
  201DPPC   O3310033   7.995   1.676   5.124
  201DPPC   C3410034   7.961   1.547   5.147
  201DPPC   O3510035   7.847   1.520   5.186
  201DPPC   C3610036   8.069   1.443   5.118
  201DPPC   C3710037   8.125   1.459   4.976
  201DPPC   C3810038   8.205   1.338   4.928
  201DPPC   C3910039   8.264   1.359   4.788
  201DPPC   C4010040   8.153   1.408   4.696
  201DPPC   C4110041   8.204   1.457   4.560
  201DPPC   C4210042   8.090   1.542   4.502
  201DPPC   C4310043   8.113   1.615   4.370
  201DPPC   C4410044   7.981   1.677   4.324
  201DPPC   C4510045   7.863   1.582   4.301
  201DPPC   C4610046   7.740   1.660   4.255
  201DPPC   C4710047   7.614   1.573   4.252
  201DPPC   C4810048   7.497   1.668   4.225
  201DPPC   C4910049   7.368   1.604   4.276
  201DPPC   C5010050   7.379   1.572   4.425
  202DPPC    C110051   0.614   2.600   5.428
  202DPPC    C210052   0.829   2.614   5.527
  202DPPC    C310053   0.627   2.685   5.630
  202DPPC    N410054   0.689   2.577   5.552
  202DPPC    C510055   0.667   2.447   5.617
  202DPPC    C610056   0.646   2.319   5.536
  202DPPC    O710057   0.518   2.312   5.473
  202DPPC    P810058   0.489   2.173   5.398
  202DPPC    O910059   0.345   2.141   5.404
  202DPPC   O1010060   0.602   2.093   5.451
  202DPPC   O1110061   0.534   2.231   5.254
  202DPPC   C1210062   0.433   2.299   5.179
  202DPPC   C1310063   0.492   2.404   5.085
  202DPPC   O1410064   0.391   2.446   4.993
  202DPPC   C1510065   0.387   2.573   4.945
  202DPPC   O1610066   0.379   2.666   5.026
  202DPPC   C1710067   0.332   2.592   4.804
  202DPPC   C1810068   0.295   2.731   4.751
  202DPPC   C1910069   0.269   2.725   4.600
  202DPPC   C2010070   0.210   2.864   4.576
  202DPPC   C2110071   0.153   2.889   4.436
  202DPPC   C2210072   0.263   2.888   4.329
  202DPPC   C2310073   0.197   2.928   4.197
  202DPPC   C2410074   0.292   2.887   4.085
  202DPPC   C2510075   0.232   2.896   3.944
  202DPPC   C2610076   0.328   2.831   3.845
  202DPPC   C2710077   0.285   2.850   3.699
  202DPPC   C2810078   0.398   2.797   3.611
  202DPPC   C2910079   0.375   2.822   3.461
  202DPPC   C3010080   0.500   2.801   3.376
  202DPPC   C3110081   0.494   2.870   3.240
  202DPPC   C3210082   0.605   2.320   5.025
  202DPPC   O3310083   0.660   2.351   4.896
  202DPPC   C3410084   0.747   2.262   4.842
  202DPPC   O3510085   0.764   2.156   4.901
  202DPPC   C3610086   0.778   2.279   4.693
  202DPPC   C3710087   0.728   2.415   4.646
  202DPPC   C3810088   0.722   2.431   4.494
  202DPPC   C3910089   0.712   2.583   4.482
  202DPPC   C4010090   0.667   2.633   4.344
  202DPPC   C4110091   0.638   2.784   4.347
  202DPPC   C4210092   0.628   2.827   4.201
  202DPPC   C4310093   0.755   2.788   4.126
  202DPPC   C4410094   0.730   2.788   3.975
  202DPPC   C4510095   0.851   2.754   3.887
  202DPPC   C4610096   0.806   2.739   3.742
  202DPPC   C4710097   0.931   2.746   3.653
  202DPPC   C4810098   0.886   2.717   3.509
  202DPPC   C4910099   0.989   2.728   3.396
  202DPPC   C5010100   0.922   2.676   3.268
  203DPPC    C110101   1.881   7.625   4.222
  203DPPC    C210102   1.670   7.570   4.117
  203DPPC    C310103   1.787   7.412   4.256
  203DPPC    N410104   1.753   7.554   4.237
  203DPPC    C510105   1.678   7.604   4.353
  203DPPC    C610106   1.702   7.566   4.499
  203DPPC    O710107   1.824   7.619   4.552
  203DPPC    P810108   1.893   7.504   4.641
  203DPPC    O910109   1.800   7.393   4.672
  203DPPC   O1010110   1.979   7.577   4.737
  203DPPC   O1110111   1.989   7.434   4.533
  203DPPC   C1210112   2.128   7.465   4.546
  203DPPC   C1310113   2.188   7.418   4.413
  203DPPC   O1410114   2.177   7.515   4.308
  203DPPC   C1510115   2.284   7.592   4.275
  203DPPC   O1610116   2.325   7.658   4.370
  203DPPC   C1710117   2.293   7.634   4.128
  203DPPC   C1810118   2.433   7.624   4.067
  203DPPC   C1910119   2.429   7.624   3.914
  203DPPC   C2010120   2.563   7.632   3.841
  203DPPC   C2110121   2.670   7.533   3.887
  203DPPC   C2210122   2.797   7.543   3.802
  203DPPC   C2310123   2.820   7.688   3.761
  203DPPC   C2410124   2.945   7.712   3.675
  203DPPC   C2510125   2.966   7.861   3.651
  203DPPC   C2610126   3.070   7.885   3.540
  203DPPC   C2710127   3.105   8.030   3.509
  203DPPC   C2810128   3.150   8.097   3.639
  203DPPC   C2910129   3.206   8.237   3.618
  203DPPC   C3010130   3.216   8.296   3.759
  203DPPC   C3110131   3.315   8.413   3.753
  203DPPC   C3210132   2.153   7.272   4.385
  203DPPC   O3310133   2.209   7.213   4.267
  203DPPC   C3410134   2.162   7.254   4.147
  203DPPC   O3510135   2.057   7.318   4.140
  203DPPC   C3610136   2.257   7.248   4.027
  203DPPC   C3710137   2.219   7.135   3.930
  203DPPC   C3810138   2.329   7.127   3.823
  203DPPC   C3910139   2.317   6.997   3.743
  203DPPC   C4010140   2.209   7.011   3.635
  203DPPC   C4110141   2.157   6.873   3.597
  203DPPC   C4210142   2.026   6.880   3.518
  203DPPC   C4310143   1.965   6.742   3.490
  203DPPC   C4410144   1.838   6.767   3.410
  203DPPC   C4510145   1.765   6.645   3.353
  203DPPC   C4610146   1.635   6.694   3.290
  203DPPC   C4710147   1.528   6.586   3.308
  203DPPC   C4810148   1.401   6.636   3.239
  203DPPC   C4910149   1.325   6.740   3.321
  203DPPC   C5010150   1.190   6.785   3.263
  204DPPC    C110151   9.368   7.692   4.468
  204DPPC    C210152   9.558   7.670   4.319
  204DPPC    C310153   9.571   7.596   4.541
  204DPPC    N410154   9.480   7.606   4.426
  204DPPC    C510155   9.443   7.473   4.376
  204DPPC    C610156   9.323   7.410   4.447
  204DPPC    O710157   9.272   7.298   4.375
  204DPPC    P810158   9.180   7.229   4.487
  204DPPC    O910159   9.141   7.325   4.592
  204DPPC   O1010160   9.246   7.099   4.516
  204DPPC   O1110161   9.056   7.212   4.385
  204DPPC   C1210162   9.073   7.084   4.322
  204DPPC   C1310163   8.951   7.039   4.242
  204DPPC   O1410164   8.938   6.902   4.200
  204DPPC   C1510165   8.910   6.806   4.292
  204DPPC   O1610166   8.891   6.836   4.410
  204DPPC   C1710167   8.896   6.664   4.236
  204DPPC   C1810168   8.758   6.622   4.187
  204DPPC   C1910169   8.759   6.484   4.121
  204DPPC   C2010170   8.851   6.483   3.999
  204DPPC   C2110171   8.813   6.362   3.912
  204DPPC   C2210172   8.874   6.396   3.776
  204DPPC   C2310173   8.778   6.359   3.662
  204DPPC   C2410174   8.846   6.412   3.535
  204DPPC   C2510175   8.980   6.340   3.520
  204DPPC   C2610176   9.047   6.386   3.391
  204DPPC   C2710177   8.946   6.400   3.276
  204DPPC   C2810178   9.006   6.463   3.150
  204DPPC   C2910179   8.888   6.528   3.077
  204DPPC   C3010180   8.824   6.432   2.976
  204DPPC   C3110181   8.714   6.504   2.898
  204DPPC   C3210182   8.926   7.148   4.139
  204DPPC   O3310183   9.031   7.182   4.048
  204DPPC   C3410184   8.994   7.274   3.956
  204DPPC   O3510185   8.883   7.326   3.950
  204DPPC   C3610186   9.109   7.313   3.862
  204DPPC   C3710187   9.064   7.357   3.722
  204DPPC   C3810188   9.180   7.374   3.624
  204DPPC   C3910189   9.233   7.234   3.591
  204DPPC   C4010190   9.121   7.161   3.517
  204DPPC   C4110191   9.180   7.032   3.461
  204DPPC   C4210192   9.078   6.957   3.374
  204DPPC   C4310193   9.156   6.843   3.308
  204DPPC   C4410194   9.274   6.891   3.224
  204DPPC   C4510195   9.360   6.774   3.176
  204DPPC   C4610196   9.403   6.681   3.289
  204DPPC   C4710197   9.482   6.568   3.225
  204DPPC   C4810198   9.400   6.522   3.104
  204DPPC   C4910199   9.473   6.421   3.016
  204DPPC   C5010200   9.546   6.311   3.094
  205DPPC    C110201   2.105   8.127   5.373
  205DPPC    C210202   2.325   8.023   5.367
  205DPPC    C310203   2.141   7.915   5.281
  205DPPC    N410204   2.201   8.049   5.293
  205DPPC    C510205   2.223   8.123   5.168
  205DPPC    C610206   2.111   8.126   5.063
  205DPPC    O710207   2.002   8.211   5.100
  205DPPC    P810208   1.864   8.156   5.037
  205DPPC    O910209   1.750   8.236   5.087
  205DPPC   O1010210   1.867   8.010   5.062
  205DPPC   O1110211   1.897   8.186   4.882
  205DPPC   C1210212   1.837   8.312   4.853
  205DPPC   C1310213   1.920   8.440   4.865
  205DPPC   O1410214   1.838   8.553   4.833
  205DPPC   C1510215   1.881   8.678   4.865
  205DPPC   O1610216   1.961   8.691   4.957
  205DPPC   C1710217   1.785   8.786   4.815
  205DPPC   C1810218   1.794   8.802   4.663
  205DPPC   C1910219   1.725   8.936   4.639
  205DPPC   C2010220   1.695   8.964   4.492
  205DPPC   C2110221   1.592   8.859   4.447
  205DPPC   C2210222   1.553   8.867   4.300
  205DPPC   C2310223   1.445   8.760   4.280
  205DPPC   C2410224   1.311   8.811   4.227
  205DPPC   C2510225   1.329   8.882   4.093
  205DPPC   C2610226   1.203   8.939   4.027
  205DPPC   C2710227   1.239   8.982   3.884
  205DPPC   C2810228   1.110   9.047   3.833
  205DPPC   C2910229   1.150   9.102   3.696
  205DPPC   C3010230   1.034   9.147   3.606
  205DPPC   C3110231   1.088   9.215   3.480
  205DPPC   C3210232   2.046   8.430   4.778
  205DPPC   O3310233   2.028   8.414   4.637
  205DPPC   C3410234   2.108   8.486   4.555
  205DPPC   O3510235   2.185   8.575   4.589
  205DPPC   C3610236   2.104   8.455   4.405
  205DPPC   C3710237   2.193   8.339   4.360
  205DPPC   C3810238   2.173   8.321   4.209
  205DPPC   C3910239   2.250   8.199   4.161
  205DPPC   C4010240   2.234   8.184   4.009
  205DPPC   C4110241   2.289   8.053   3.952
  205DPPC   C4210242   2.267   8.065   3.801
  205DPPC   C4310243   2.290   7.930   3.733
  205DPPC   C4410244   2.325   7.974   3.591
  205DPPC   C4510245   2.368   7.863   3.496
  205DPPC   C4610246   2.396   7.915   3.355
  205DPPC   C4710247   2.471   7.817   3.264
  205DPPC   C4810248   2.592   7.766   3.343
  205DPPC   C4910249   2.688   7.686   3.254
  205DPPC   C5010250   2.805   7.624   3.330
  206DPPC    C110251   1.949   5.372   4.721
  206DPPC    C210252   1.876   5.201   4.574
  206DPPC    C310253   1.989   5.135   4.779
  206DPPC    N410254   1.900   5.233   4.716
  206DPPC    C510255   1.785   5.202   4.802
  206DPPC    C610256   1.662   5.293   4.794
  206DPPC    O710257   1.594   5.302   4.669
  206DPPC    P810258   1.449   5.371   4.679
  206DPPC    O910259   1.467   5.447   4.804
  206DPPC   O1010260   1.331   5.281   4.671
  206DPPC   O1110261   1.462   5.475   4.557
  206DPPC   C1210262   1.418   5.404   4.440
  206DPPC   C1310263   1.440   5.479   4.309
  206DPPC   O1410264   1.372   5.422   4.196
  206DPPC   C1510265   1.236   5.432   4.187
  206DPPC   O1610266   1.168   5.496   4.266
  206DPPC   C1710267   1.168   5.356   4.073
  206DPPC   C1810268   1.120   5.444   3.958
  206DPPC   C1910269   1.092   5.342   3.847
  206DPPC   C2010270   1.054   5.418   3.719
  206DPPC   C2110271   1.027   5.321   3.604
  206DPPC   C2210272   0.992   5.410   3.484
  206DPPC   C2310273   0.958   5.333   3.357
  206DPPC   C2410274   0.932   5.429   3.241
  206DPPC   C2510275   1.059   5.512   3.218
  206DPPC   C2610276   1.044   5.619   3.110
  206DPPC   C2710277   1.166   5.702   3.072
  206DPPC   C2810278   1.199   5.820   3.163
  206DPPC   C2910279   1.335   5.884   3.132
  206DPPC   C3010280   1.384   5.974   3.246
  206DPPC   C3110281   1.427   5.893   3.368
  206DPPC   C3210282   1.592   5.463   4.299
  206DPPC   O3310283   1.640   5.344   4.235
  206DPPC   C3410284   1.776   5.336   4.232
  206DPPC   O3510285   1.854   5.396   4.307
  206DPPC   C3610286   1.827   5.209   4.165
  206DPPC   C3710287   1.875   5.242   4.024
  206DPPC   C3810288   1.928   5.114   3.959
  206DPPC   C3910289   2.027   5.044   4.052
  206DPPC   C4010290   2.058   4.923   3.963
  206DPPC   C4110291   2.161   4.825   4.020
  206DPPC   C4210292   2.187   4.728   3.904
  206DPPC   C4310293   2.255   4.799   3.787
  206DPPC   C4410294   2.396   4.846   3.824
  206DPPC   C4510295   2.490   4.866   3.706
  206DPPC   C4610296   2.636   4.900   3.739
  206DPPC   C4710297   2.730   4.895   3.619
  206DPPC   C4810298   2.867   4.948   3.660
  206DPPC   C4910299   2.958   4.961   3.538
  206DPPC   C5010300   3.103   4.981   3.583
  207DPPC    C110301   6.427   0.316   5.822
  207DPPC    C210302   6.634   0.338   5.713
  207DPPC    C310303   6.464   0.211   5.609
  207DPPC    N410304   6.489   0.331   5.690
  207DPPC    C510305   6.430   0.442   5.613
  207DPPC    C610306   6.476   0.587   5.636
  207DPPC    O710307   6.394   0.676   5.559
  207DPPC    P810308   6.454   0.825   5.569
  207DPPC    O910309   6.472   0.857   5.712
  207DPPC   O1010310   6.371   0.914   5.485
  207DPPC   O1110311   6.588   0.780   5.492
  207DPPC   C1210312   6.618   0.841   5.366
  207DPPC   C1310313   6.760   0.888   5.333
  207DPPC   O1410314   6.773   1.001   5.246
  207DPPC   C1510315   6.890   1.071   5.245
  207DPPC   O1610316   6.968   1.054   5.338
  207DPPC   C1710317   6.918   1.162   5.125
  207DPPC   C1810318   6.858   1.301   5.145
  207DPPC   C1910319   6.856   1.390   5.020
  207DPPC   C2010320   6.774   1.337   4.903
  207DPPC   C2110321   6.771   1.428   4.780
  207DPPC   C2210322   6.899   1.407   4.699
  207DPPC   C2310323   6.872   1.502   4.582
  207DPPC   C2410324   6.973   1.478   4.470
  207DPPC   C2510325   6.924   1.554   4.346
  207DPPC   C2610326   7.034   1.542   4.240
  207DPPC   C2710327   6.998   1.585   4.098
  207DPPC   C2810328   6.954   1.732   4.090
  207DPPC   C2910329   6.881   1.751   3.957
  207DPPC   C3010330   6.916   1.893   3.910
  207DPPC   C3110331   6.866   1.922   3.769
  207DPPC   C3210332   6.826   0.762   5.277
  207DPPC   O3310333   6.751   0.696   5.175
  207DPPC   C3410334   6.822   0.600   5.110
  207DPPC   O3510335   6.933   0.561   5.144
  207DPPC   C3610336   6.745   0.531   4.997
  207DPPC   C3710337   6.629   0.611   4.938
  207DPPC   C3810338   6.551   0.536   4.830
  207DPPC   C3910339   6.458   0.625   4.748
  207DPPC   C4010340   6.416   0.542   4.626
  207DPPC   C4110341   6.326   0.428   4.674
  207DPPC   C4210342   6.284   0.340   4.556
  207DPPC   C4310343   6.240   0.198   4.589
  207DPPC   C4410344   6.231   0.110   4.464
  207DPPC   C4510345   6.363   0.113   4.385
  207DPPC   C4610346   6.329   0.050   4.250
  207DPPC   C4710347   6.447   0.007   4.163
  207DPPC   C4810348   6.404  -0.031   4.021
  207DPPC   C4910349   6.534  -0.060   3.944
  207DPPC   C5010350   6.477  -0.127   3.819
  208DPPC    C110351   5.131   1.499   5.302
  208DPPC    C210352   5.278   1.400   5.148
  208DPPC    C310353   5.176   1.624   5.110
  208DPPC    N410354   5.236   1.529   5.204
  208DPPC    C510355   5.355   1.603   5.249
  208DPPC    C610356   5.443   1.545   5.360
  208DPPC    O710357   5.580   1.582   5.341
  208DPPC    P810358   5.688   1.543   5.453
  208DPPC    O910359   5.612   1.544   5.580
  208DPPC   O1010360   5.819   1.603   5.419
  208DPPC   O1110361   5.703   1.387   5.415
  208DPPC   C1210362   5.758   1.380   5.283
  208DPPC   C1310363   5.775   1.239   5.228
  208DPPC   O1410364   5.875   1.238   5.126
  208DPPC   C1510365   5.984   1.158   5.143
  208DPPC   O1610366   5.987   1.070   5.229
  208DPPC   C1710367   6.103   1.199   5.056
  208DPPC   C1810368   6.065   1.299   4.946
  208DPPC   C1910369   6.191   1.376   4.905
  208DPPC   C2010370   6.157   1.428   4.765
  208DPPC   C2110371   6.260   1.521   4.701
  208DPPC   C2210372   6.184   1.576   4.580
  208DPPC   C2310373   6.107   1.700   4.627
  208DPPC   C2410374   6.046   1.771   4.506
  208DPPC   C2510375   5.964   1.894   4.547
  208DPPC   C2610376   5.899   1.949   4.420
  208DPPC   C2710377   5.782   1.865   4.369
  208DPPC   C2810378   5.744   1.926   4.234
  208DPPC   C2910379   5.871   1.913   4.149
  208DPPC   C3010380   5.827   1.956   4.009
  208DPPC   C3110381   5.924   1.908   3.901
  208DPPC   C3210382   5.631   1.195   5.202
  208DPPC   O3310383   5.597   1.170   5.065
  208DPPC   C3410384   5.605   1.273   4.977
  208DPPC   O3510385   5.576   1.386   5.017
  208DPPC   C3610386   5.599   1.238   4.828
  208DPPC   C3710387   5.721   1.292   4.754
  208DPPC   C3810388   5.716   1.273   4.602
  208DPPC   C3910389   5.842   1.331   4.537
  208DPPC   C4010390   5.832   1.332   4.384
  208DPPC   C4110391   5.928   1.438   4.329
  208DPPC   C4210392   5.926   1.413   4.178
  208DPPC   C4310393   6.012   1.507   4.093
  208DPPC   C4410394   6.163   1.497   4.117
  208DPPC   C4510395   6.219   1.605   4.026
  208DPPC   C4610396   6.356   1.629   4.090
  208DPPC   C4710397   6.423   1.492   4.092
  208DPPC   C4810398   6.569   1.487   4.138
  208DPPC   C4910399   6.576   1.524   4.286
  208DPPC   C5010400   6.544   1.395   4.362
  209DPPC    C110401   4.688   3.853   5.820
  209DPPC    C210402   4.827   4.017   5.703
  209DPPC    C310403   4.821   3.779   5.647
  209DPPC    N410404   4.744   3.897   5.691
  209DPPC    C510405   4.638   3.905   5.590
  209DPPC    C610406   4.535   4.012   5.628
  209DPPC    O710407   4.416   4.021   5.549
  209DPPC    P810408   4.324   4.142   5.602
  209DPPC    O910409   4.375   4.169   5.739
  209DPPC   O1010410   4.184   4.103   5.574
  209DPPC   O1110411   4.386   4.263   5.515
  209DPPC   C1210412   4.403   4.225   5.379
  209DPPC   C1310413   4.271   4.204   5.305
  209DPPC   O1410414   4.282   4.143   5.175
  209DPPC   C1510415   4.169   4.085   5.125
  209DPPC   O1610416   4.080   4.055   5.204
  209DPPC   C1710417   4.180   4.021   4.987
  209DPPC   C1810418   4.043   3.989   4.928
  209DPPC   C1910419   4.061   3.995   4.776
  209DPPC   C2010420   4.169   3.894   4.737
  209DPPC   C2110421   4.183   3.886   4.585
  209DPPC   C2210422   4.292   3.785   4.549
  209DPPC   C2310423   4.325   3.767   4.401
  209DPPC   C2410424   4.447   3.675   4.402
  209DPPC   C2510425   4.442   3.539   4.471
  209DPPC   C2610426   4.567   3.450   4.471
  209DPPC   C2710427   4.613   3.413   4.329
  209DPPC   C2810428   4.739   3.328   4.337
  209DPPC   C2910429   4.781   3.293   4.194
  209DPPC   C3010430   4.919   3.228   4.176
  209DPPC   C3110431   4.960   3.187   4.034
  209DPPC   C3210432   4.189   4.332   5.317
  209DPPC   O3310433   4.238   4.452   5.256
  209DPPC   C3410434   4.181   4.573   5.283
  209DPPC   O3510435   4.143   4.602   5.396
  209DPPC   C3610436   4.228   4.685   5.190
  209DPPC   C3710437   4.252   4.627   5.051
  209DPPC   C3810438   4.335   4.722   4.965
  209DPPC   C3910439   4.345   4.663   4.824
  209DPPC   C4010440   4.467   4.713   4.746
  209DPPC   C4110441   4.433   4.862   4.736
  209DPPC   C4210442   4.548   4.924   4.657
  209DPPC   C4310443   4.679   4.914   4.735
  209DPPC   C4410444   4.806   4.950   4.657
  209DPPC   C4510445   4.807   4.873   4.525
  209DPPC   C4610446   4.908   4.934   4.427
  209DPPC   C4710447   4.879   4.870   4.291
  209DPPC   C4810448   4.955   4.928   4.172
  209DPPC   C4910449   5.104   4.896   4.181
  209DPPC   C5010450   5.124   4.744   4.183
  210DPPC    C110451   6.360   1.417   5.671
  210DPPC    C210452   6.319   1.460   5.908
  210DPPC    C310453   6.201   1.287   5.795
  210DPPC    N410454   6.330   1.358   5.803
  210DPPC    C510455   6.432   1.261   5.846
  210DPPC    C610456   6.507   1.192   5.732
  210DPPC    O710457   6.621   1.267   5.689
  210DPPC    P810458   6.707   1.196   5.573
  210DPPC    O910459   6.761   1.068   5.626
  210DPPC   O1010460   6.783   1.313   5.523
  210DPPC   O1110461   6.587   1.169   5.469
  210DPPC   C1210462   6.576   1.287   5.389
  210DPPC   C1310463   6.467   1.291   5.281
  210DPPC   O1410464   6.347   1.352   5.330
  210DPPC   C1510465   6.342   1.484   5.296
  210DPPC   O1610466   6.447   1.547   5.301
  210DPPC   C1710467   6.210   1.562   5.304
  210DPPC   C1810468   6.234   1.695   5.233
  210DPPC   C1910469   6.105   1.777   5.232
  210DPPC   C2010470   6.123   1.901   5.144
  210DPPC   C2110471   6.024   2.005   5.199
  210DPPC   C2210472   6.058   2.142   5.142
  210DPPC   C2310473   6.068   2.139   4.989
  210DPPC   C2410474   6.112   2.272   4.927
  210DPPC   C2510475   6.114   2.249   4.776
  210DPPC   C2610476   6.183   2.357   4.693
  210DPPC   C2710477   6.181   2.329   4.542
  210DPPC   C2810478   6.233   2.452   4.467
  210DPPC   C2910479   6.257   2.381   4.334
  210DPPC   C3010480   6.126   2.344   4.264
  210DPPC   C3110481   6.134   2.244   4.149
  210DPPC   C3210482   6.468   1.147   5.230
  210DPPC   O3310483   6.495   1.132   5.090
  210DPPC   C3410484   6.482   1.008   5.036
  210DPPC   O3510485   6.395   0.935   5.084
  210DPPC   C3610486   6.528   0.996   4.891
  210DPPC   C3710487   6.438   1.069   4.791
  210DPPC   C3810488   6.500   1.102   4.656
  210DPPC   C3910489   6.567   0.970   4.616
  210DPPC   C4010490   6.637   0.980   4.479
  210DPPC   C4110491   6.756   1.075   4.492
  210DPPC   C4210492   6.833   1.089   4.361
  210DPPC   C4310493   6.747   1.123   4.239
  210DPPC   C4410494   6.839   1.154   4.121
  210DPPC   C4510495   6.870   1.023   4.048
  210DPPC   C4610496   6.749   0.961   3.977
  210DPPC   C4710497   6.779   0.842   3.886
  210DPPC   C4810498   6.651   0.810   3.808
  210DPPC   C4910499   6.615   0.924   3.712
  210DPPC   C5010500   6.491   0.891   3.628
  211DPPC    C110501   1.310   7.975   5.080
  211DPPC    C210502   1.447   8.172   5.073
  211DPPC    C310503   1.491   7.985   5.230
  211DPPC    N410504   1.447   8.026   5.096
  211DPPC    C510505   1.540   7.984   4.990
  211DPPC    C610506   1.546   7.841   4.937
  211DPPC    O710507   1.444   7.815   4.841
  211DPPC    P810508   1.466   7.680   4.757
  211DPPC    O910509   1.328   7.629   4.772
  211DPPC   O1010510   1.585   7.617   4.819
  211DPPC   O1110511   1.504   7.778   4.635
  211DPPC   C1210512   1.384   7.832   4.579
  211DPPC   C1310513   1.411   7.935   4.469
  211DPPC   O1410514   1.429   7.882   4.337
  211DPPC   C1510515   1.317   7.850   4.268
  211DPPC   O1610516   1.210   7.843   4.329
  211DPPC   C1710517   1.342   7.777   4.136
  211DPPC   C1810518   1.326   7.886   4.030
  211DPPC   C1910519   1.178   7.923   4.017
  211DPPC   C2010520   1.143   7.996   3.887
  211DPPC   C2110521   1.003   8.055   3.903
  211DPPC   C2210522   0.965   8.152   3.790
  211DPPC   C2310523   1.006   8.084   3.659
  211DPPC   C2410524   0.983   8.186   3.548
  211DPPC   C2510525   0.997   8.129   3.407
  211DPPC   C2610526   0.876   8.049   3.358
  211DPPC   C2710527   0.784   8.138   3.273
  211DPPC   C2810528   0.863   8.208   3.162
  211DPPC   C2910529   0.759   8.268   3.068
  211DPPC   C3010530   0.809   8.364   2.960
  211DPPC   C3110531   0.906   8.301   2.860
  211DPPC   C3210532   1.522   8.025   4.523
  211DPPC   O3310533   1.543   8.140   4.442
  211DPPC   C3410534   1.611   8.229   4.519
  211DPPC   O3510535   1.659   8.194   4.627
  211DPPC   C3610536   1.625   8.372   4.465
  211DPPC   C3710537   1.744   8.381   4.369
  211DPPC   C3810538   1.728   8.510   4.288
  211DPPC   C3910539   1.827   8.513   4.171
  211DPPC   C4010540   1.787   8.644   4.104
  211DPPC   C4110541   1.752   8.618   3.957
  211DPPC   C4210542   1.704   8.745   3.888
  211DPPC   C4310543   1.669   8.720   3.742
  211DPPC   C4410544   1.651   8.842   3.651
  211DPPC   C4510545   1.511   8.901   3.671
  211DPPC   C4610546   1.490   9.032   3.595
  211DPPC   C4710547   1.532   9.009   3.450
  211DPPC   C4810548   1.513   9.144   3.381
  211DPPC   C4910549   1.610   9.256   3.422
  211DPPC   C5010550   1.545   9.376   3.352
  212DPPC    C110551   4.587   8.233   5.468
  212DPPC    C210552   4.641   8.448   5.389
  212DPPC    C310553   4.796   8.276   5.346
  212DPPC    N410554   4.653   8.305   5.358
  212DPPC    C510555   4.574   8.268   5.239
  212DPPC    C610556   4.582   8.349   5.110
  212DPPC    O710557   4.713   8.370   5.056
  212DPPC    P810558   4.699   8.516   4.988
  212DPPC    O910559   4.820   8.544   4.908
  212DPPC   O1010560   4.641   8.600   5.095
  212DPPC   O1110561   4.588   8.498   4.873
  212DPPC   C1210562   4.641   8.391   4.793
  212DPPC   C1310563   4.550   8.336   4.683
  212DPPC   O1410564   4.603   8.223   4.612
  212DPPC   C1510565   4.618   8.101   4.670
  212DPPC   O1610566   4.568   8.084   4.781
  212DPPC   C1710567   4.673   7.994   4.575
  212DPPC   C1810568   4.607   8.014   4.439
  212DPPC   C1910569   4.657   7.923   4.326
  212DPPC   C2010570   4.559   7.963   4.216
  212DPPC   C2110571   4.603   7.892   4.087
  212DPPC   C2210572   4.474   7.827   4.036
  212DPPC   C2310573   4.484   7.740   3.910
  212DPPC   C2410574   4.357   7.658   3.888
  212DPPC   C2510575   4.377   7.573   3.762
  212DPPC   C2610576   4.387   7.649   3.630
  212DPPC   C2710577   4.429   7.532   3.539
  212DPPC   C2810578   4.476   7.566   3.398
  212DPPC   C2910579   4.515   7.444   3.315
  212DPPC   C3010580   4.548   7.472   3.168
  212DPPC   C3110581   4.592   7.334   3.119
  212DPPC   C3210582   4.502   8.459   4.607
  212DPPC   O3310583   4.614   8.524   4.546
  212DPPC   C3410584   4.593   8.640   4.479
  212DPPC   O3510585   4.487   8.702   4.484
  212DPPC   C3610586   4.726   8.700   4.432
  212DPPC   C3710587   4.722   8.706   4.279
  212DPPC   C3810588   4.856   8.713   4.206
  212DPPC   C3910589   4.819   8.740   4.060
  212DPPC   C4010590   4.945   8.754   3.973
  212DPPC   C4110591   5.057   8.653   4.001
  212DPPC   C4210592   5.179   8.675   3.911
  212DPPC   C4310593   5.312   8.609   3.947
  212DPPC   C4410594   5.367   8.668   4.076
  212DPPC   C4510595   5.489   8.584   4.117
  212DPPC   C4610596   5.589   8.585   4.002
  212DPPC   C4710597   5.721   8.533   4.059
  212DPPC   C4810598   5.828   8.503   3.954
  212DPPC   C4910599   5.937   8.433   4.035
  212DPPC   C5010600   6.030   8.387   3.923
  213DPPC    C110601   7.593   1.959   5.745
  213DPPC    C210602   7.656   2.166   5.668
  213DPPC    C310603   7.678   1.997   5.513
  213DPPC    N410604   7.592   2.041   5.624
  213DPPC    C510605   7.460   2.070   5.565
  213DPPC    C610606   7.355   1.960   5.560
  213DPPC    O710607   7.403   1.840   5.498
  213DPPC    P810608   7.335   1.716   5.573
  213DPPC    O910609   7.255   1.763   5.689
  213DPPC   O1010610   7.440   1.613   5.589
  213DPPC   O1110611   7.238   1.661   5.456
  213DPPC   C1210612   7.304   1.643   5.330
  213DPPC   C1310613   7.215   1.617   5.208
  213DPPC   O1410614   7.285   1.562   5.096
  213DPPC   C1510615   7.321   1.431   5.108
  213DPPC   O1610616   7.298   1.365   5.209
  213DPPC   C1710617   7.382   1.365   4.984
  213DPPC   C1810618   7.284   1.344   4.869
  213DPPC   C1910619   7.334   1.253   4.756
  213DPPC   C2010620   7.225   1.227   4.652
  213DPPC   C2110621   7.266   1.131   4.540
  213DPPC   C2210622   7.387   1.183   4.462
  213DPPC   C2310623   7.452   1.064   4.391
  213DPPC   C2410624   7.363   1.048   4.268
  213DPPC   C2510625   7.345   1.177   4.188
  213DPPC   C2610626   7.466   1.178   4.094
  213DPPC   C2710627   7.457   1.304   4.008
  213DPPC   C2810628   7.339   1.284   3.913
  213DPPC   C2910629   7.320   1.392   3.805
  213DPPC   C3010630   7.178   1.398   3.749
  213DPPC   C3110631   7.187   1.495   3.632
  213DPPC   C3210632   7.121   1.738   5.198
  213DPPC   O3310633   7.007   1.719   5.115
  213DPPC   C3410634   6.919   1.821   5.093
  213DPPC   O3510635   6.919   1.920   5.167
  213DPPC   C3610636   6.806   1.800   4.993
  213DPPC   C3710637   6.681   1.763   5.073
  213DPPC   C3810638   6.558   1.778   4.982
  213DPPC   C3910639   6.550   1.912   4.910
  213DPPC   C4010640   6.514   2.016   5.016
  213DPPC   C4110641   6.513   2.161   4.968
  213DPPC   C4210642   6.490   2.267   5.076
  213DPPC   C4310643   6.484   2.408   5.017
  213DPPC   C4410644   6.603   2.463   4.937
  213DPPC   C4510645   6.589   2.610   4.898
  213DPPC   C4610646   6.457   2.627   4.823
  213DPPC   C4710647   6.444   2.768   4.765
  213DPPC   C4810648   6.317   2.796   4.683
  213DPPC   C4910649   6.318   2.942   4.637
  213DPPC   C5010650   6.269   3.028   4.753
  214DPPC    C110651   5.435   7.915   5.382
  214DPPC    C210652   5.451   7.737   5.534
  214DPPC    C310653   5.403   7.678   5.306
  214DPPC    N410654   5.473   7.773   5.393
  214DPPC    C510655   5.619   7.762   5.388
  214DPPC    C610656   5.699   7.804   5.264
  214DPPC    O710657   5.696   7.700   5.166
  214DPPC    P810658   5.782   7.745   5.037
  214DPPC    O910659   5.855   7.617   5.023
  214DPPC   O1010660   5.847   7.872   5.075
  214DPPC   O1110661   5.651   7.752   4.944
  214DPPC   C1210662   5.643   7.642   4.853
  214DPPC   C1310663   5.497   7.627   4.811
  214DPPC   O1410664   5.470   7.512   4.730
  214DPPC   C1510665   5.488   7.390   4.789
  214DPPC   O1610666   5.509   7.368   4.908
  214DPPC   C1710667   5.494   7.287   4.677
  214DPPC   C1810668   5.576   7.163   4.715
  214DPPC   C1910669   5.622   7.084   4.593
  214DPPC   C2010670   5.704   6.956   4.613
  214DPPC   C2110671   5.696   6.864   4.491
  214DPPC   C2210672   5.790   6.745   4.511
  214DPPC   C2310673   5.930   6.808   4.509
  214DPPC   C2410674   6.032   6.694   4.516
  214DPPC   C2510675   6.005   6.587   4.410
  214DPPC   C2610676   6.093   6.462   4.417
  214DPPC   C2710677   6.041   6.359   4.317
  214DPPC   C2810678   5.888   6.364   4.314
  214DPPC   C2910679   5.839   6.277   4.198
  214DPPC   C3010680   5.838   6.126   4.224
  214DPPC   C3110681   5.827   6.036   4.102
  214DPPC   C3210682   5.477   7.758   4.734
  214DPPC   O3310683   5.568   7.807   4.636
  214DPPC   C3410684   5.528   7.929   4.591
  214DPPC   O3510685   5.446   7.993   4.658
  214DPPC   C3610686   5.589   7.994   4.467
  214DPPC   C3710687   5.646   7.892   4.369
  214DPPC   C3810688   5.741   7.950   4.264
  214DPPC   C3910689   5.817   7.831   4.204
  214DPPC   C4010690   5.881   7.862   4.069
  214DPPC   C4110691   5.973   7.741   4.052
  214DPPC   C4210692   5.960   7.696   3.907
  214DPPC   C4310693   6.053   7.578   3.878
  214DPPC   C4410694   6.195   7.604   3.929
  214DPPC   C4510695   6.296   7.504   3.872
  214DPPC   C4610696   6.247   7.364   3.909
  214DPPC   C4710697   6.335   7.246   3.866
  214DPPC   C4810698   6.474   7.261   3.928
  214DPPC   C4910699   6.557   7.137   3.891
  214DPPC   C5010700   6.692   7.143   3.962
  215DPPC    C110701   8.000   0.302   5.021
  215DPPC    C210702   8.083   0.433   5.210
  215DPPC    C310703   7.894   0.307   5.220
  215DPPC    N410704   8.030   0.303   5.165
  215DPPC    C510705   8.092   0.182   5.222
  215DPPC    C610706   8.243   0.173   5.200
  215DPPC    O710707   8.286   0.105   5.082
  215DPPC    P810708   8.428   0.153   5.024
  215DPPC    O910709   8.527   0.066   5.091
  215DPPC   O1010710   8.419   0.295   5.065
  215DPPC   O1110711   8.395   0.122   4.869
  215DPPC   C1210712   8.335   0.237   4.811
  215DPPC   C1310713   8.316   0.212   4.661
  215DPPC   O1410714   8.285   0.330   4.585
  215DPPC   C1510715   8.179   0.411   4.610
  215DPPC   O1610716   8.126   0.415   4.720
  215DPPC   C1710717   8.152   0.514   4.500
  215DPPC   C1810718   8.113   0.429   4.379
  215DPPC   C1910719   8.091   0.502   4.246
  215DPPC   C2010720   8.053   0.397   4.142
  215DPPC   C2110721   8.013   0.455   4.006
  215DPPC   C2210722   8.132   0.535   3.955
  215DPPC   C2310723   8.087   0.602   3.824
  215DPPC   C2410724   8.023   0.735   3.863
  215DPPC   C2510725   7.971   0.809   3.739
  215DPPC   C2610726   7.906   0.940   3.784
  215DPPC   C2710727   7.845   0.991   3.653
  215DPPC   C2810728   7.767   0.879   3.583
  215DPPC   C2910729   7.684   0.915   3.460
  215DPPC   C3010730   7.557   0.983   3.509
  215DPPC   C3110731   7.490   0.914   3.628
  215DPPC   C3210732   8.203   0.109   4.654
  215DPPC   O3310733   8.158   0.090   4.520
  215DPPC   C3410734   8.234   0.051   4.413
  215DPPC   O3510735   8.332  -0.017   4.444
  215DPPC   C3610736   8.171   0.068   4.275
  215DPPC   C3710737   8.093  -0.055   4.228
  215DPPC   C3810738   8.023  -0.008   4.100
  215DPPC   C3910739   7.919  -0.115   4.066
  215DPPC   C4010740   7.825  -0.079   3.951
  215DPPC   C4110741   7.747  -0.203   3.908
  215DPPC   C4210742   7.645  -0.165   3.800
  215DPPC   C4310743   7.719  -0.122   3.673
  215DPPC   C4410744   7.619  -0.115   3.557
  215DPPC   C4510745   7.512  -0.006   3.563
  215DPPC   C4610746   7.414  -0.012   3.445
  215DPPC   C4710747   7.341  -0.146   3.439
  215DPPC   C4810748   7.277  -0.149   3.300
  215DPPC   C4910749   7.214  -0.285   3.266
  215DPPC   C5010750   7.231  -0.317   3.117
  216DPPC    C110751   4.371   0.245   4.905
  216DPPC    C210752   4.436   0.440   4.763
  216DPPC    C310753   4.276   0.467   4.930
  216DPPC    N410754   4.396   0.389   4.895
  216DPPC    C510755   4.494   0.426   4.999
  216DPPC    C610756   4.555   0.566   5.007
  216DPPC    O710757   4.475   0.667   5.069
  216DPPC    P810758   4.559   0.803   5.052
  216DPPC    O910759   4.704   0.773   5.068
  216DPPC   O1010760   4.474   0.871   5.152
  216DPPC   O1110761   4.513   0.842   4.903
  216DPPC   C1210762   4.375   0.880   4.896
  216DPPC   C1310763   4.324   0.919   4.757
  216DPPC   O1410764   4.263   0.803   4.699
  216DPPC   C1510765   4.130   0.774   4.706
  216DPPC   O1610766   4.075   0.809   4.810
  216DPPC   C1710767   4.107   0.639   4.637
  216DPPC   C1810768   4.180   0.617   4.504
  216DPPC   C1910769   4.162   0.479   4.441
  216DPPC   C2010770   4.199   0.478   4.293
  216DPPC   C2110771   4.168   0.349   4.216
  216DPPC   C2210772   4.227   0.338   4.076
  216DPPC   C2310773   4.379   0.336   4.056
  216DPPC   C2410774   4.428   0.345   3.911
  216DPPC   C2510775   4.475   0.204   3.875
  216DPPC   C2610776   4.596   0.209   3.781
  216DPPC   C2710777   4.662   0.081   3.730
  216DPPC   C2810778   4.775   0.112   3.632
  216DPPC   C2910779   4.841  -0.015   3.576
  216DPPC   C3010780   4.754  -0.089   3.475
  216DPPC   C3110781   4.700  -0.003   3.360
  216DPPC   C3210782   4.429   0.992   4.674
  216DPPC   O3310783   4.447   1.133   4.692
  216DPPC   C3410784   4.548   1.185   4.617
  216DPPC   O3510785   4.638   1.114   4.573
  216DPPC   C3610786   4.527   1.329   4.569
  216DPPC   C3710787   4.436   1.343   4.447
  216DPPC   C3810788   4.371   1.482   4.457
  216DPPC   C3910789   4.252   1.499   4.363
  216DPPC   C4010790   4.160   1.386   4.409
  216DPPC   C4110791   4.058   1.343   4.303
  216DPPC   C4210792   3.947   1.448   4.291
  216DPPC   C4310793   3.841   1.394   4.194
  216DPPC   C4410794   3.889   1.368   4.051
  216DPPC   C4510795   3.776   1.406   3.955
  216DPPC   C4610796   3.800   1.363   3.810
  216DPPC   C4710797   3.701   1.423   3.710
  216DPPC   C4810798   3.718   1.340   3.582
  216DPPC   C4910799   3.630   1.392   3.468
  216DPPC   C5010800   3.639   1.302   3.344
  217DPPC    C110801   5.443   6.876   5.288
  217DPPC    C210802   5.462   7.045   5.130
  217DPPC    C310803   5.324   6.863   5.085
  217DPPC    N410804   5.364   6.955   5.193
  217DPPC    C510805   5.242   7.008   5.257
  217DPPC    C610806   5.254   7.149   5.315
  217DPPC    O710807   5.132   7.223   5.309
  217DPPC    P810808   5.148   7.361   5.390
  217DPPC    O910809   5.270   7.375   5.472
  217DPPC   O1010810   5.027   7.431   5.439
  217DPPC   O1110811   5.198   7.439   5.258
  217DPPC   C1210812   5.093   7.457   5.163
  217DPPC   C1310813   5.133   7.515   5.027
  217DPPC   O1410814   5.040   7.610   4.972
  217DPPC   C1510815   5.068   7.695   4.870
  217DPPC   O1610816   5.182   7.735   4.848
  217DPPC   C1710817   4.948   7.754   4.794
  217DPPC   C1810818   4.981   7.775   4.646
  217DPPC   C1910819   5.028   7.918   4.617
  217DPPC   C2010820   5.014   7.955   4.470
  217DPPC   C2110821   5.083   7.862   4.370
  217DPPC   C2210822   5.065   7.908   4.225
  217DPPC   C2310823   5.142   7.809   4.137
  217DPPC   C2410824   5.120   7.859   3.994
  217DPPC   C2510825   4.970   7.844   3.967
  217DPPC   C2610826   4.954   7.868   3.816
  217DPPC   C2710827   4.810   7.892   3.772
  217DPPC   C2810828   4.805   7.978   3.646
  217DPPC   C2910829   4.860   7.897   3.529
  217DPPC   C3010830   4.885   7.996   3.415
  217DPPC   C3110831   4.958   7.922   3.302
  217DPPC   C3210832   5.176   7.397   4.939
  217DPPC   O3310833   5.066   7.305   4.939
  217DPPC   C3410834   5.107   7.185   4.888
  217DPPC   O3510835   5.222   7.156   4.857
  217DPPC   C3610836   4.993   7.084   4.878
  217DPPC   C3710837   4.892   7.122   4.770
  217DPPC   C3810838   4.954   7.094   4.632
  217DPPC   C3910839   4.846   7.034   4.542
  217DPPC   C4010840   4.836   7.085   4.398
  217DPPC   C4110841   4.713   7.031   4.324
  217DPPC   C4210842   4.732   7.054   4.174
  217DPPC   C4310843   4.861   7.002   4.110
  217DPPC   C4410844   4.841   7.051   3.966
  217DPPC   C4510845   4.964   7.017   3.881
  217DPPC   C4610846   4.933   7.039   3.733
  217DPPC   C4710847   5.058   7.015   3.648
  217DPPC   C4810848   5.139   7.128   3.714
  217DPPC   C4910849   5.260   7.161   3.626
  217DPPC   C5010850   5.365   7.257   3.681
  218DPPC    C110851   1.941   4.290   5.619
  218DPPC    C210852   2.122   4.401   5.538
  218DPPC    C310853   2.145   4.265   5.736
  218DPPC    N410854   2.086   4.273   5.601
  218DPPC    C510855   2.103   4.160   5.509
  218DPPC    C610856   2.243   4.138   5.451
  218DPPC    O710857   2.253   4.031   5.357
  218DPPC    P810858   2.402   4.021   5.298
  218DPPC    O910859   2.427   3.876   5.282
  218DPPC   O1010860   2.503   4.097   5.375
  218DPPC   O1110861   2.371   4.061   5.145
  218DPPC   C1210862   2.324   3.952   5.065
  218DPPC   C1310863   2.171   3.959   5.055
  218DPPC   O1410864   2.129   3.841   4.986
  218DPPC   C1510865   1.999   3.802   4.996
  218DPPC   O1610866   1.924   3.861   5.074
  218DPPC   C1710867   1.950   3.687   4.907
  218DPPC   C1810868   1.880   3.743   4.784
  218DPPC   C1910869   1.834   3.624   4.699
  218DPPC   C2010870   1.778   3.661   4.561
  218DPPC   C2110871   1.793   3.542   4.465
  218DPPC   C2210872   1.746   3.591   4.328
  218DPPC   C2310873   1.691   3.473   4.247
  218DPPC   C2410874   1.667   3.517   4.102
  218DPPC   C2510875   1.582   3.418   4.023
  218DPPC   C2610876   1.566   3.473   3.881
  218DPPC   C2710877   1.504   3.368   3.789
  218DPPC   C2810878   1.472   3.429   3.653
  218DPPC   C2910879   1.594   3.501   3.595
  218DPPC   C3010880   1.580   3.529   3.445
  218DPPC   C3110881   1.707   3.601   3.399
  218DPPC   C3210882   2.143   4.093   4.986
  218DPPC   O3310883   2.215   4.106   4.863
  218DPPC   C3410884   2.198   4.224   4.797
  218DPPC   O3510885   2.093   4.286   4.800
  218DPPC   C3610886   2.282   4.233   4.669
  218DPPC   C3710887   2.191   4.257   4.549
  218DPPC   C3810888   2.265   4.242   4.416
  218DPPC   C3910889   2.384   4.335   4.388
  218DPPC   C4010890   2.425   4.315   4.242
  218DPPC   C4110891   2.538   4.412   4.207
  218DPPC   C4210892   2.549   4.444   4.058
  218DPPC   C4310893   2.681   4.519   4.037
  218DPPC   C4410894   2.682   4.645   4.125
  218DPPC   C4510895   2.822   4.705   4.107
  218DPPC   C4610896   2.835   4.839   4.181
  218DPPC   C4710897   2.980   4.888   4.178
  218DPPC   C4810898   3.036   4.893   4.035
  218DPPC   C4910899   3.186   4.924   4.042
  218DPPC   C5010900   3.250   4.909   3.903
  219DPPC    C110901   8.874   6.802   4.839
  219DPPC    C210902   9.052   6.908   4.753
  219DPPC    C310903   9.084   6.797   4.958
  219DPPC    N410904   9.019   6.785   4.827
  219DPPC    C510905   9.063   6.686   4.727
  219DPPC    C610906   8.991   6.560   4.677
  219DPPC    O710907   9.078   6.482   4.594
  219DPPC    P810908   8.980   6.362   4.553
  219DPPC    O910909   8.868   6.431   4.485
  219DPPC   O1010910   8.949   6.279   4.672
  219DPPC   O1110911   9.065   6.260   4.462
  219DPPC   C1210912   9.073   6.332   4.339
  219DPPC   C1310913   9.159   6.274   4.226
  219DPPC   O1410914   9.147   6.347   4.103
  219DPPC   C1510915   9.240   6.335   4.004
  219DPPC   O1610916   9.341   6.270   4.031
  219DPPC   C1710917   9.231   6.420   3.877
  219DPPC   C1810918   9.301   6.362   3.754
  219DPPC   C1910919   9.323   6.471   3.650
  219DPPC   C2010920   9.446   6.446   3.562
  219DPPC   C2110921   9.427   6.313   3.489
  219DPPC   C2210922   9.570   6.258   3.486
  219DPPC   C2310923   9.573   6.112   3.442
  219DPPC   C2410924   9.719   6.080   3.413
  219DPPC   C2510925   9.714   5.939   3.353
  219DPPC   C2610926   9.624   5.852   3.440
  219DPPC   C2710927   9.563   5.734   3.363
  219DPPC   C2810928   9.482   5.795   3.249
  219DPPC   C2910929   9.362   5.878   3.294
  219DPPC   C3010930   9.344   5.986   3.187
  219DPPC   C3110931   9.210   6.058   3.211
  219DPPC   C3210932   9.129   6.125   4.208
  219DPPC   O3310933   8.995   6.080   4.191
  219DPPC   C3410934   8.984   5.945   4.191
  219DPPC   O3510935   9.071   5.883   4.254
  219DPPC   C3610936   8.862   5.878   4.129
  219DPPC   C3710937   8.837   5.746   4.203
  219DPPC   C3810938   8.700   5.696   4.157
  219DPPC   C3910939   8.699   5.656   4.010
  219DPPC   C4010940   8.568   5.598   3.956
  219DPPC   C4110941   8.567   5.577   3.805
  219DPPC   C4210942   8.433   5.511   3.770
  219DPPC   C4310943   8.426   5.474   3.622
  219DPPC   C4410944   8.456   5.597   3.536
  219DPPC   C4510945   8.473   5.561   3.389
  219DPPC   C4610946   8.339   5.509   3.337
  219DPPC   C4710947   8.342   5.529   3.185
  219DPPC   C4810948   8.209   5.515   3.111
  219DPPC   C4910949   8.234   5.482   2.964
  219DPPC   C5010950   8.096   5.468   2.898
  220DPPC    C110951   4.503   6.723   5.074
  220DPPC    C210952   4.344   6.560   5.085
  220DPPC    C310953   4.356   6.704   4.901
  220DPPC    N410954   4.438   6.621   4.991
  220DPPC    C510955   4.517   6.520   4.918
  220DPPC    C610956   4.628   6.453   4.999
  220DPPC    O710957   4.577   6.361   5.095
  220DPPC    P810958   4.671   6.238   5.140
  220DPPC    O910959   4.598   6.188   5.259
  220DPPC   O1010960   4.808   6.293   5.132
  220DPPC   O1110961   4.622   6.151   5.014
  220DPPC   C1210962   4.729   6.113   4.926
  220DPPC   C1310963   4.690   6.075   4.783
  220DPPC   O1410964   4.807   6.049   4.703
  220DPPC   C1510965   4.846   5.918   4.704
  220DPPC   O1610966   4.798   5.837   4.782
  220DPPC   C1710967   4.973   5.896   4.621
  220DPPC   C1810968   4.958   5.902   4.469
  220DPPC   C1910969   5.084   5.892   4.383
  220DPPC   C2010970   5.154   5.757   4.397
  220DPPC   C2110971   5.265   5.717   4.300
  220DPPC   C2210972   5.209   5.678   4.163
  220DPPC   C2310973   5.331   5.660   4.073
  220DPPC   C2410974   5.441   5.565   4.119
  220DPPC   C2510975   5.541   5.526   4.010
  220DPPC   C2610976   5.493   5.416   3.916
  220DPPC   C2710977   5.605   5.376   3.820
  220DPPC   C2810978   5.544   5.283   3.715
  220DPPC   C2910979   5.652   5.241   3.615
  220DPPC   C3010980   5.615   5.286   3.474
  220DPPC   C3110981   5.743   5.292   3.390
  220DPPC   C3210982   4.613   6.194   4.727
  220DPPC   O3310983   4.560   6.190   4.594
  220DPPC   C3410984   4.495   6.301   4.550
  220DPPC   O3510985   4.492   6.407   4.611
  220DPPC   C3610986   4.422   6.278   4.417
  220DPPC   C3710987   4.528   6.296   4.308
  220DPPC   C3810988   4.583   6.158   4.272
  220DPPC   C3910989   4.683   6.177   4.158
  220DPPC   C4010990   4.650   6.112   4.023
  220DPPC   C4110991   4.509   6.147   3.975
  220DPPC   C4210992   4.482   6.056   3.855
  220DPPC   C4310993   4.592   6.067   3.749
  220DPPC   C4410994   4.559   5.981   3.626
  220DPPC   C4510995   4.686   5.960   3.544
  220DPPC   C4610996   4.758   6.092   3.517
  220DPPC   C4710997   4.680   6.189   3.428
  220DPPC   C4810998   4.760   6.318   3.411
  220DPPC   C4910999   4.693   6.416   3.315
  220DPPC   C5011000   4.776   6.544   3.330
  221DPPC    C111001   0.326   6.231   4.346
  221DPPC    C211002   0.275   6.037   4.227
  221DPPC    C311003   0.408   6.197   4.116
  221DPPC    N411004   0.381   6.137   4.248
  221DPPC    C511005   0.502   6.074   4.302
  221DPPC    C611006   0.627   6.152   4.344
  221DPPC    O711007   0.723   6.098   4.435
  221DPPC    P811008   0.832   6.214   4.460
  221DPPC    O911009   0.917   6.172   4.573
  221DPPC   O1011010   0.759   6.343   4.459
  221DPPC   O1111011   0.904   6.199   4.317
  221DPPC   C1211012   1.024   6.124   4.328
  221DPPC   C1311013   1.094   6.091   4.196
  221DPPC   O1411014   1.190   6.176   4.132
  221DPPC   C1511015   1.315   6.195   4.183
  221DPPC   O1611016   1.356   6.117   4.268
  221DPPC   C1711017   1.398   6.283   4.090
  221DPPC   C1811018   1.343   6.426   4.080
  221DPPC   C1911019   1.239   6.451   3.971
  221DPPC   C2011020   1.293   6.415   3.832
  221DPPC   C2111021   1.187   6.414   3.722
  221DPPC   C2211022   1.258   6.361   3.598
  221DPPC   C2311023   1.166   6.364   3.476
  221DPPC   C2411024   1.241   6.298   3.359
  221DPPC   C2511025   1.154   6.311   3.233
  221DPPC   C2611026   1.023   6.233   3.247
  221DPPC   C2711027   0.933   6.236   3.124
  221DPPC   C2811028   0.869   6.373   3.097
  221DPPC   C2911029   0.831   6.404   2.952
  221DPPC   C3011030   0.932   6.502   2.893
  221DPPC   C3111031   0.935   6.618   2.993
  221DPPC   C3211032   0.978   6.058   4.102
  221DPPC   O3311033   0.940   5.922   4.129
  221DPPC   C3411034   0.821   5.902   4.067
  221DPPC   O3511035   0.744   5.995   4.042
  221DPPC   C3611036   0.770   5.760   4.087
  221DPPC   C3711037   0.743   5.693   3.952
  221DPPC   C3811038   0.670   5.559   3.967
  221DPPC   C3911039   0.674   5.450   3.861
  221DPPC   C4011040   0.602   5.495   3.733
  221DPPC   C4111041   0.653   5.395   3.629
  221DPPC   C4211042   0.595   5.436   3.494
  221DPPC   C4311043   0.442   5.424   3.487
  221DPPC   C4411044   0.382   5.422   3.346
  221DPPC   C4511045   0.234   5.382   3.344
  221DPPC   C4611046   0.170   5.425   3.211
  221DPPC   C4711047   0.037   5.354   3.187
  221DPPC   C4811048  -0.021   5.385   3.048
  221DPPC   C4911049  -0.151   5.307   3.025
  221DPPC   C5011050  -0.129   5.157   3.044
  222DPPC    C111051   5.790   4.105   6.194
  222DPPC    C211052   5.608   3.974   6.203
  222DPPC    C311053   5.649   4.093   5.996
  222DPPC    N411054   5.711   4.017   6.107
  222DPPC    C511055   5.815   3.929   6.054
  222DPPC    C611056   5.796   3.781   6.019
  222DPPC    O711057   5.679   3.756   5.941
  222DPPC    P811058   5.652   3.597   5.949
  222DPPC    O911059   5.505   3.591   5.966
  222DPPC   O1011060   5.743   3.526   6.041
  222DPPC   O1111061   5.709   3.565   5.802
  222DPPC   C1211062   5.617   3.614   5.704
  222DPPC   C1311063   5.655   3.611   5.556
  222DPPC   O1411064   5.540   3.626   5.470
  222DPPC   C1511065   5.504   3.741   5.406
  222DPPC   O1611066   5.568   3.842   5.434
  222DPPC   C1711067   5.429   3.712   5.276
  222DPPC   C1811068   5.447   3.803   5.154
  222DPPC   C1911069   5.583   3.813   5.085
  222DPPC   C2011070   5.568   3.919   4.977
  222DPPC   C2111071   5.457   3.886   4.877
  222DPPC   C2211072   5.495   3.954   4.745
  222DPPC   C2311073   5.385   3.953   4.639
  222DPPC   C2411074   5.427   4.046   4.525
  222DPPC   C2511075   5.317   4.061   4.421
  222DPPC   C2611076   5.247   4.197   4.424
  222DPPC   C2711077   5.174   4.218   4.291
  222DPPC   C2811078   5.102   4.353   4.294
  222DPPC   C2911079   5.028   4.357   4.428
  222DPPC   C3011080   4.955   4.486   4.464
  222DPPC   C3111081   4.957   4.485   4.617
  222DPPC   C3211082   5.736   3.482   5.538
  222DPPC   O3311083   5.831   3.486   5.431
  222DPPC   C3411084   5.873   3.370   5.375
  222DPPC   O3511085   5.819   3.261   5.388
  222DPPC   C3611086   5.990   3.386   5.276
  222DPPC   C3711087   5.938   3.384   5.133
  222DPPC   C3811088   5.822   3.473   5.089
  222DPPC   C3911089   5.796   3.447   4.940
  222DPPC   C4011090   5.697   3.541   4.872
  222DPPC   C4111091   5.704   3.522   4.721
  222DPPC   C4211092   5.612   3.618   4.645
  222DPPC   C4311093   5.618   3.595   4.494
  222DPPC   C4411094   5.527   3.704   4.437
  222DPPC   C4511095   5.526   3.695   4.285
  222DPPC   C4611096   5.425   3.782   4.210
  222DPPC   C4711097   5.460   3.786   4.061
  222DPPC   C4811098   5.367   3.876   3.979
  222DPPC   C4911099   5.215   3.859   3.991
  222DPPC   C5011100   5.141   3.921   3.873
  223DPPC    C111101   3.384   7.423   5.679
  223DPPC    C211102   3.466   7.201   5.700
  223DPPC    C311103   3.237   7.240   5.646
  223DPPC    N411104   3.375   7.287   5.624
  223DPPC    C511105   3.436   7.281   5.490
  223DPPC    C611106   3.381   7.373   5.380
  223DPPC    O711107   3.423   7.338   5.248
  223DPPC    P811108   3.340   7.420   5.138
  223DPPC    O911109   3.418   7.542   5.110
  223DPPC   O1011110   3.204   7.418   5.195
  223DPPC   O1111111   3.365   7.300   5.033
  223DPPC   C1211112   3.485   7.326   4.960
  223DPPC   C1311113   3.549   7.207   4.887
  223DPPC   O1411114   3.657   7.259   4.809
  223DPPC   C1511115   3.772   7.186   4.808
  223DPPC   O1611116   3.779   7.083   4.874
  223DPPC   C1711117   3.891   7.236   4.726
  223DPPC   C1811118   3.846   7.296   4.593
  223DPPC   C1911119   3.788   7.189   4.500
  223DPPC   C2011120   3.763   7.241   4.358
  223DPPC   C2111121   3.724   7.144   4.247
  223DPPC   C2211122   3.853   7.095   4.181
  223DPPC   C2311123   3.838   7.008   4.056
  223DPPC   C2411124   3.806   7.103   3.940
  223DPPC   C2511125   3.821   7.036   3.804
  223DPPC   C2611126   3.966   7.019   3.756
  223DPPC   C2711127   3.966   6.962   3.614
  223DPPC   C2811128   3.918   6.816   3.614
  223DPPC   C2911129   3.960   6.745   3.485
  223DPPC   C3011130   3.887   6.611   3.476
  223DPPC   C3111131   3.935   6.541   3.348
  223DPPC   C3211132   3.434   7.137   4.814
  223DPPC   O3311133   3.360   7.203   4.711
  223DPPC   C3411134   3.258   7.134   4.652
  223DPPC   O3511135   3.225   7.028   4.705
  223DPPC   C3611136   3.194   7.189   4.524
  223DPPC   C3711137   3.292   7.194   4.407
  223DPPC   C3811138   3.228   7.225   4.271
  223DPPC   C3911139   3.331   7.255   4.163
  223DPPC   C4011140   3.283   7.284   4.020
  223DPPC   C4111141   3.405   7.315   3.933
  223DPPC   C4211142   3.360   7.379   3.801
  223DPPC   C4311143   3.488   7.397   3.719
  223DPPC   C4411144   3.449   7.434   3.576
  223DPPC   C4511145   3.566   7.460   3.481
  223DPPC   C4611146   3.517   7.477   3.337
  223DPPC   C4711147   3.635   7.518   3.249
  223DPPC   C4811148   3.590   7.532   3.104
  223DPPC   C4911149   3.713   7.505   3.016
  223DPPC   C5011150   3.679   7.530   2.869
  224DPPC    C111151   3.488   3.469   5.865
  224DPPC    C211152   3.271   3.384   5.792
  224DPPC    C311153   3.286   3.597   5.878
  224DPPC    N411154   3.361   3.500   5.797
  224DPPC    C511155   3.381   3.569   5.669
  224DPPC    C611156   3.487   3.516   5.572
  224DPPC    O711157   3.474   3.380   5.532
  224DPPC    P811158   3.615   3.318   5.484
  224DPPC    O911159   3.562   3.180   5.487
  224DPPC   O1011160   3.713   3.374   5.579
  224DPPC   O1111161   3.613   3.385   5.338
  224DPPC   C1211162   3.601   3.278   5.244
  224DPPC   C1311163   3.600   3.318   5.096
  224DPPC   O1411164   3.592   3.208   5.005
  224DPPC   C1511165   3.684   3.108   4.997
  224DPPC   O1611166   3.782   3.110   5.071
  224DPPC   C1711167   3.692   3.035   4.863
  224DPPC   C1811168   3.676   3.134   4.748
  224DPPC   C1911169   3.679   3.057   4.615
  224DPPC   C2011170   3.673   3.151   4.494
  224DPPC   C2111171   3.676   3.097   4.351
  224DPPC   C2211172   3.560   3.004   4.313
  224DPPC   C2311173   3.581   2.958   4.169
  224DPPC   C2411174   3.467   2.874   4.112
  224DPPC   C2511175   3.485   2.859   3.961
  224DPPC   C2611176   3.612   2.780   3.929
  224DPPC   C2711177   3.600   2.700   3.799
  224DPPC   C2811178   3.575   2.784   3.673
  224DPPC   C2911179   3.592   2.706   3.543
  224DPPC   C3011180   3.575   2.794   3.419
  224DPPC   C3111181   3.591   2.715   3.289
  224DPPC   C3211182   3.728   3.401   5.084
  224DPPC   O3311183   3.714   3.502   4.984
  224DPPC   C3411184   3.830   3.566   4.952
  224DPPC   O3511185   3.932   3.558   5.020
  224DPPC   C3611186   3.820   3.655   4.828
  224DPPC   C3711187   3.737   3.601   4.710
  224DPPC   C3811188   3.751   3.701   4.595
  224DPPC   C3911189   3.684   3.649   4.467
  224DPPC   C4011190   3.693   3.748   4.351
  224DPPC   C4111191   3.649   3.681   4.220
  224DPPC   C4211192   3.695   3.747   4.090
  224DPPC   C4311193   3.616   3.687   3.974
  224DPPC   C4411194   3.647   3.768   3.848
  224DPPC   C4511195   3.592   3.692   3.727
  224DPPC   C4611196   3.579   3.788   3.609
  224DPPC   C4711197   3.579   3.709   3.478
  224DPPC   C4811198   3.698   3.614   3.468
  224DPPC   C4911199   3.670   3.536   3.340
  224DPPC   C5011200   3.763   3.418   3.308
  225DPPC    C111201   8.895   3.113   5.113
  225DPPC    C211202   9.083   3.244   5.113
  225DPPC    C311203   8.981   3.177   5.321
  225DPPC    N411204   9.021   3.133   5.187
  225DPPC    C511205   9.105   3.013   5.194
  225DPPC    C611206   9.235   3.017   5.275
  225DPPC    O711207   9.329   3.121   5.246
  225DPPC    P811208   9.455   3.094   5.342
  225DPPC    O911209   9.421   2.991   5.443
  225DPPC   O1011210   9.515   3.227   5.369
  225DPPC   O1111211   9.540   3.017   5.229
  225DPPC   C1211212   9.616   3.107   5.148
  225DPPC   C1311213   9.602   3.085   4.998
  225DPPC   O1411214   9.682   3.184   4.931
  225DPPC   C1511215   9.816   3.175   4.909
  225DPPC   O1611216   9.886   3.142   5.004
  225DPPC   C1711217   9.863   3.281   4.810
  225DPPC   C1811218   9.859   3.216   4.671
  225DPPC   C1911219   9.896   3.318   4.564
  225DPPC   C2011220   9.856   3.262   4.427
  225DPPC   C2111221   9.908   3.346   4.310
  225DPPC   C2211222   9.831   3.302   4.186
  225DPPC   C2311223   9.881   3.364   4.055
  225DPPC   C2411224   9.785   3.329   3.941
  225DPPC   C2511225   9.836   3.378   3.805
  225DPPC   C2611226   9.737   3.358   3.690
  225DPPC   C2711227   9.791   3.414   3.559
  225DPPC   C2811228   9.714   3.352   3.442
  225DPPC   C2911229   9.802   3.363   3.318
  225DPPC   C3011230   9.733   3.304   3.195
  225DPPC   C3111231   9.814   3.335   3.069
  225DPPC   C3211232   9.452   3.087   4.972
  225DPPC   O3311233   9.415   2.988   4.875
  225DPPC   C3411234   9.294   3.001   4.814
  225DPPC   O3511235   9.218   3.090   4.852
  225DPPC   C3611236   9.260   2.884   4.722
  225DPPC   C3711237   9.297   2.930   4.581
  225DPPC   C3811238   9.252   2.805   4.504
  225DPPC   C3911239   9.287   2.819   4.356
  225DPPC   C4011240   9.294   2.683   4.286
  225DPPC   C4111241   9.317   2.696   4.136
  225DPPC   C4211242   9.334   2.558   4.072
  225DPPC   C4311243   9.316   2.583   3.922
  225DPPC   C4411244   9.355   2.458   3.842
  225DPPC   C4511245   9.344   2.478   3.690
  225DPPC   C4611246   9.466   2.561   3.650
  225DPPC   C4711247   9.460   2.594   3.500
  225DPPC   C4811248   9.465   2.469   3.412
  225DPPC   C4911249   9.485   2.494   3.262
  225DPPC   C5011250   9.617   2.571   3.248
  226DPPC    C111251   3.767   7.951   5.375
  226DPPC    C211252   3.738   8.181   5.352
  226DPPC    C311253   3.955   8.107   5.334
  226DPPC    N411254   3.817   8.068   5.302
  226DPPC    C511255   3.783   8.049   5.160
  226DPPC    C611256   3.866   7.954   5.072
  226DPPC    O711257   3.973   8.023   5.007
  226DPPC    P811258   4.062   7.909   4.937
  226DPPC    O911259   3.955   7.854   4.852
  226DPPC   O1011260   4.107   7.840   5.061
  226DPPC   O1111261   4.148   8.036   4.890
  226DPPC   C1211262   4.107   8.102   4.770
  226DPPC   C1311263   4.207   8.116   4.655
  226DPPC   O1411264   4.162   8.190   4.540
  226DPPC   C1511265   4.185   8.324   4.531
  226DPPC   O1611266   4.219   8.385   4.632
  226DPPC   C1711267   4.138   8.390   4.402
  226DPPC   C1811268   4.247   8.459   4.319
  226DPPC   C1911269   4.375   8.377   4.297
  226DPPC   C2011270   4.465   8.419   4.181
  226DPPC   C2111271   4.604   8.355   4.193
  226DPPC   C2211272   4.678   8.371   4.060
  226DPPC   C2311273   4.820   8.317   4.073
  226DPPC   C2411274   4.880   8.306   3.933
  226DPPC   C2511275   5.025   8.259   3.926
  226DPPC   C2611276   5.085   8.260   3.785
  226DPPC   C2711277   5.224   8.198   3.795
  226DPPC   C2811278   5.302   8.223   3.667
  226DPPC   C2911279   5.229   8.156   3.550
  226DPPC   C3011280   5.329   8.134   3.437
  226DPPC   C3111281   5.438   8.037   3.481
  226DPPC   C3211282   4.270   7.980   4.626
  226DPPC   O3311283   4.173   7.876   4.615
  226DPPC   C3411284   4.226   7.751   4.616
  226DPPC   O3511285   4.344   7.726   4.638
  226DPPC   C3611286   4.130   7.634   4.590
  226DPPC   C3711287   4.100   7.608   4.442
  226DPPC   C3811288   4.211   7.542   4.361
  226DPPC   C3911289   4.159   7.416   4.292
  226DPPC   C4011290   4.279   7.373   4.208
  226DPPC   C4111291   4.244   7.282   4.090
  226DPPC   C4211292   4.366   7.262   4.001
  226DPPC   C4311293   4.321   7.195   3.871
  226DPPC   C4411294   4.440   7.189   3.776
  226DPPC   C4511295   4.385   7.152   3.638
  226DPPC   C4611296   4.498   7.088   3.558
  226DPPC   C4711297   4.456   7.041   3.418
  226DPPC   C4811298   4.580   6.984   3.349
  226DPPC   C4911299   4.555   6.945   3.204
  226DPPC   C5011300   4.685   6.913   3.128
  227DPPC    C111301   4.638   4.129   1.334
  227DPPC    C211302   4.694   4.344   1.288
  227DPPC    C311303   4.465   4.292   1.272
  227DPPC    N411304   4.586   4.265   1.350
  227DPPC    C511305   4.568   4.308   1.490
  227DPPC    C611306   4.551   4.458   1.516
  227DPPC    O711307   4.524   4.486   1.653
  227DPPC    P811308   4.583   4.628   1.701
  227DPPC    O911309   4.511   4.670   1.823
  227DPPC   O1011310   4.598   4.713   1.580
  227DPPC   O1111311   4.735   4.590   1.739
  227DPPC   C1211312   4.740   4.580   1.881
  227DPPC   C1311313   4.876   4.523   1.920
  227DPPC   O1411314   4.885   4.448   2.041
  227DPPC   C1511315   4.818   4.330   2.055
  227DPPC   O1611316   4.759   4.286   1.957
  227DPPC   C1711317   4.810   4.266   2.194
  227DPPC   C1811318   4.926   4.172   2.228
  227DPPC   C1911319   4.926   4.149   2.380
  227DPPC   C2011320   5.030   4.053   2.437
  227DPPC   C2111321   5.003   4.027   2.585
  227DPPC   C2211322   5.111   3.948   2.659
  227DPPC   C2311323   5.083   3.900   2.801
  227DPPC   C2411324   5.220   3.907   2.868
  227DPPC   C2511325   5.171   3.854   3.003
  227DPPC   C2611326   5.280   3.834   3.109
  227DPPC   C2711327   5.212   3.813   3.244
  227DPPC   C2811328   5.310   3.802   3.362
  227DPPC   C2911329   5.248   3.754   3.493
  227DPPC   C3011330   5.198   3.611   3.474
  227DPPC   C3111331   5.148   3.571   3.613
  227DPPC   C3211332   4.979   4.634   1.897
  227DPPC   O3311333   4.969   4.729   2.004
  227DPPC   C3411334   5.079   4.808   2.017
  227DPPC   O3511335   5.152   4.826   1.920
  227DPPC   C3611336   5.095   4.902   2.137
  227DPPC   C3711337   5.219   4.861   2.216
  227DPPC   C3811338   5.254   4.949   2.337
  227DPPC   C3911339   5.174   4.920   2.464
  227DPPC   C4011340   5.215   5.012   2.579
  227DPPC   C4111341   5.156   4.989   2.718
  227DPPC   C4211342   5.252   5.050   2.820
  227DPPC   C4311343   5.176   5.047   2.953
  227DPPC   C4411344   5.244   5.110   3.075
  227DPPC   C4511345   5.180   5.052   3.202
  227DPPC   C4611346   5.278   5.085   3.315
  227DPPC   C4711347   5.242   4.997   3.435
  227DPPC   C4811348   5.348   5.024   3.543
  227DPPC   C4911349   5.301   4.930   3.653
  227DPPC   C5011350   5.384   4.941   3.781
  228DPPC    C111351   5.469   2.748   1.862
  228DPPC    C211352   5.631   2.671   1.692
  228DPPC    C311353   5.435   2.565   1.708
  228DPPC    N411354   5.491   2.700   1.725
  228DPPC    C511355   5.414   2.775   1.625
  228DPPC    C611356   5.419   2.928   1.626
  228DPPC    O711357   5.543   2.972   1.571
  228DPPC    P811358   5.531   3.128   1.535
  228DPPC    O911359   5.395   3.149   1.482
  228DPPC   O1011360   5.650   3.162   1.453
  228DPPC   O1111361   5.532   3.201   1.678
  228DPPC   C1211362   5.657   3.171   1.740
  228DPPC   C1311363   5.663   3.189   1.892
  228DPPC   O1411364   5.592   3.088   1.964
  228DPPC   C1511365   5.610   3.094   2.099
  228DPPC   O1611366   5.708   3.141   2.156
  228DPPC   C1711367   5.516   2.998   2.173
  228DPPC   C1811368   5.465   3.072   2.297
  228DPPC   C1911369   5.384   2.975   2.382
  228DPPC   C2011370   5.332   3.060   2.497
  228DPPC   C2111371   5.245   2.980   2.595
  228DPPC   C2211372   5.201   3.089   2.693
  228DPPC   C2311373   5.138   3.032   2.821
  228DPPC   C2411374   5.005   2.967   2.781
  228DPPC   C2511375   4.912   2.948   2.901
  228DPPC   C2611376   4.798   2.849   2.874
  228DPPC   C2711377   4.761   2.768   2.999
  228DPPC   C2811378   4.879   2.684   3.048
  228DPPC   C2911379   4.827   2.617   3.175
  228DPPC   C3011380   4.937   2.519   3.218
  228DPPC   C3111381   4.888   2.415   3.319
  228DPPC   C3211382   5.622   3.332   1.927
  228DPPC   O3311383   5.727   3.429   1.929
  228DPPC   C3411384   5.686   3.556   1.956
  228DPPC   O3511385   5.573   3.590   1.920
  228DPPC   C3611386   5.803   3.642   2.003
  228DPPC   C3711387   5.781   3.734   2.123
  228DPPC   C3811388   5.804   3.663   2.257
  228DPPC   C3911389   5.798   3.776   2.360
  228DPPC   C4011390   5.796   3.716   2.500
  228DPPC   C4111391   5.791   3.833   2.598
  228DPPC   C4211392   5.788   3.753   2.729
  228DPPC   C4311393   5.769   3.851   2.845
  228DPPC   C4411394   5.749   3.769   2.972
  228DPPC   C4511395   5.700   3.869   3.078
  228DPPC   C4611396   5.734   3.831   3.222
  228DPPC   C4711397   5.869   3.894   3.255
  228DPPC   C4811398   5.990   3.822   3.194
  228DPPC   C4911399   6.110   3.903   3.244
  228DPPC   C5011400   6.239   3.855   3.178
  229DPPC    C111401   3.219   3.944   1.928
  229DPPC    C211402   3.451   3.985   1.917
  229DPPC    C311403   3.358   3.860   2.106
  229DPPC    N411404   3.350   3.888   1.961
  229DPPC    C511405   3.376   3.761   1.892
  229DPPC    C611406   3.275   3.648   1.916
  229DPPC    O711407   3.332   3.521   1.881
  229DPPC    P811408   3.245   3.390   1.914
  229DPPC    O911409   3.331   3.292   1.843
  229DPPC   O1011410   3.106   3.421   1.873
  229DPPC   O1111411   3.277   3.400   2.072
  229DPPC   C1211412   3.299   3.270   2.127
  229DPPC   C1311413   3.328   3.266   2.277
  229DPPC   O1411414   3.210   3.239   2.354
  229DPPC   C1511415   3.180   3.109   2.383
  229DPPC   O1611416   3.238   3.018   2.324
  229DPPC   C1711417   3.066   3.078   2.480
  229DPPC   C1811418   3.118   2.978   2.584
  229DPPC   C1911419   3.019   2.954   2.698
  229DPPC   C2011420   3.075   2.856   2.801
  229DPPC   C2111421   3.015   2.879   2.940
  229DPPC   C2211422   2.969   2.746   3.001
  229DPPC   C2311423   2.900   2.774   3.134
  229DPPC   C2411424   2.824   2.649   3.178
  229DPPC   C2511425   2.789   2.642   3.327
  229DPPC   C2611426   2.705   2.518   3.356
  229DPPC   C2711427   2.710   2.465   3.499
  229DPPC   C2811428   2.689   2.582   3.596
  229DPPC   C2911429   2.693   2.522   3.737
  229DPPC   C3011430   2.745   2.597   3.859
  229DPPC   C3111431   2.749   2.499   3.977
  229DPPC   C3211432   3.397   3.393   2.326
  229DPPC   O3311433   3.519   3.425   2.257
  229DPPC   C3411434   3.574   3.547   2.277
  229DPPC   O3511435   3.515   3.648   2.315
  229DPPC   C3611436   3.715   3.553   2.216
  229DPPC   C3711437   3.833   3.528   2.310
  229DPPC   C3811438   3.810   3.606   2.440
  229DPPC   C3911439   3.938   3.595   2.524
  229DPPC   C4011440   3.928   3.681   2.650
  229DPPC   C4111441   4.053   3.659   2.736
  229DPPC   C4211442   4.017   3.707   2.877
  229DPPC   C4311443   4.132   3.739   2.973
  229DPPC   C4411444   4.069   3.774   3.108
  229DPPC   C4511445   4.177   3.806   3.211
  229DPPC   C4611446   4.124   3.832   3.352
  229DPPC   C4711447   4.072   3.976   3.362
  229DPPC   C4811448   4.033   4.007   3.506
  229DPPC   C4911449   4.017   4.158   3.521
  229DPPC   C5011450   3.969   4.183   3.664
  230DPPC    C111451   5.473   1.108   2.073
  230DPPC    C211452   5.312   1.096   2.258
  230DPPC    C311453   5.294   1.253   2.077
  230DPPC    N411454   5.332   1.116   2.113
  230DPPC    C511455   5.260   1.004   2.051
  230DPPC    C611456   5.283   0.954   1.908
  230DPPC    O711457   5.172   0.899   1.838
  230DPPC    P811458   5.207   0.752   1.784
  230DPPC    O911459   5.335   0.769   1.713
  230DPPC   O1011460   5.094   0.703   1.701
  230DPPC   O1111461   5.222   0.687   1.930
  230DPPC   C1211462   5.092   0.640   1.968
  230DPPC   C1311463   5.055   0.655   2.116
  230DPPC   O1411464   5.014   0.784   2.162
  230DPPC   C1511465   4.889   0.833   2.137
  230DPPC   O1611466   4.815   0.794   2.047
  230DPPC   C1711467   4.834   0.942   2.229
  230DPPC   C1811468   4.819   0.886   2.371
  230DPPC   C1911469   4.777   1.006   2.455
  230DPPC   C2011470   4.777   0.966   2.603
  230DPPC   C2111471   4.741   1.093   2.681
  230DPPC   C2211472   4.591   1.123   2.686
  230DPPC   C2311473   4.582   1.235   2.790
  230DPPC   C2411474   4.683   1.345   2.757
  230DPPC   C2511475   4.662   1.452   2.864
  230DPPC   C2611476   4.709   1.395   2.999
  230DPPC   C2711477   4.691   1.479   3.125
  230DPPC   C2811478   4.724   1.381   3.238
  230DPPC   C2911479   4.858   1.309   3.227
  230DPPC   C3011480   4.873   1.236   3.360
  230DPPC   C3111481   4.992   1.141   3.373
  230DPPC   C3211482   5.176   0.597   2.190
  230DPPC   O3311483   5.181   0.580   2.331
  230DPPC   C3411484   5.227   0.693   2.390
  230DPPC   O3511485   5.278   0.787   2.329
  230DPPC   C3611486   5.214   0.702   2.542
  230DPPC   C3711487   5.222   0.563   2.605
  230DPPC   C3811488   5.245   0.574   2.756
  230DPPC   C3911489   5.218   0.439   2.821
  230DPPC   C4011490   5.238   0.438   2.973
  230DPPC   C4111491   5.202   0.295   3.016
  230DPPC   C4211492   5.055   0.258   3.002
  230DPPC   C4311493   4.984   0.327   3.119
  230DPPC   C4411494   4.833   0.305   3.118
  230DPPC   C4511495   4.755   0.376   3.230
  230DPPC   C4611496   4.603   0.363   3.223
  230DPPC   C4711497   4.536   0.445   3.334
  230DPPC   C4811498   4.544   0.593   3.299
  230DPPC   C4911499   4.405   0.646   3.262
  230DPPC   C5011500   4.298   0.615   3.367
  231DPPC    C111501   1.016   0.218   1.560
  231DPPC    C211502   1.097   0.398   1.462
  231DPPC    C311503   1.266   0.270   1.575
  231DPPC    N411504   1.141   0.262   1.497
  231DPPC    C511505   1.168   0.187   1.374
  231DPPC    C611506   1.250   0.058   1.371
  231DPPC    O711507   1.184  -0.049   1.440
  231DPPC    P811508   1.290  -0.166   1.473
  231DPPC    O911509   1.385  -0.123   1.578
  231DPPC   O1011510   1.312  -0.247   1.351
  231DPPC   O1111511   1.174  -0.246   1.550
  231DPPC   C1211512   1.163  -0.191   1.682
  231DPPC   C1311513   1.027  -0.213   1.748
  231DPPC   O1411514   1.007  -0.143   1.872
  231DPPC   C1511515   0.906  -0.052   1.876
  231DPPC   O1611516   0.831  -0.039   1.779
  231DPPC   C1711517   0.896   0.042   1.997
  231DPPC   C1811518   0.932   0.186   1.961
  231DPPC   C1911519   0.883   0.289   2.064
  231DPPC   C2011520   0.731   0.306   2.062
  231DPPC   C2111521   0.694   0.423   2.153
  231DPPC   C2211522   0.747   0.406   2.295
  231DPPC   C2311523   0.714   0.525   2.384
  231DPPC   C2411524   0.747   0.486   2.528
  231DPPC   C2511525   0.706   0.609   2.609
  231DPPC   C2611526   0.742   0.595   2.757
  231DPPC   C2711527   0.702   0.717   2.841
  231DPPC   C2811528   0.708   0.679   2.989
  231DPPC   C2911529   0.711   0.807   3.074
  231DPPC   C3011530   0.727   0.777   3.223
  231DPPC   C3111531   0.609   0.698   3.279
  231DPPC   C3211532   1.008  -0.365   1.743
  231DPPC   O3311533   1.129  -0.433   1.777
  231DPPC   C3411534   1.113  -0.566   1.802
  231DPPC   O3511535   1.047  -0.633   1.723
  231DPPC   C3611536   1.218  -0.624   1.897
  231DPPC   C3711537   1.147  -0.661   2.027
  231DPPC   C3811538   1.262  -0.730   2.099
  231DPPC   C3911539   1.234  -0.805   2.230
  231DPPC   C4011540   1.367  -0.862   2.280
  231DPPC   C4111541   1.351  -0.943   2.409
  231DPPC   C4211542   1.492  -0.983   2.452
  231DPPC   C4311543   1.562  -0.851   2.486
  231DPPC   C4411544   1.684  -0.861   2.577
  231DPPC   C4511545   1.748  -0.722   2.580
  231DPPC   C4611546   1.890  -0.735   2.524
  231DPPC   C4711547   1.973  -0.607   2.539
  231DPPC   C4811548   2.107  -0.644   2.603
  231DPPC   C4911549   2.227  -0.583   2.531
  231DPPC   C5011550   2.351  -0.659   2.580
  232DPPC    C111551   7.646   6.895   1.041
  232DPPC    C211552   7.750   7.022   1.222
  232DPPC    C311553   7.527   7.056   1.166
  232DPPC    N411554   7.630   6.951   1.176
  232DPPC    C511555   7.598   6.840   1.267
  232DPPC    C611556   7.709   6.739   1.299
  232DPPC    O711557   7.659   6.620   1.361
  232DPPC    P811558   7.731   6.484   1.313
  232DPPC    O911559   7.777   6.498   1.173
  232DPPC   O1011560   7.642   6.374   1.356
  232DPPC   O1111561   7.854   6.486   1.417
  232DPPC   C1211562   7.813   6.446   1.548
  232DPPC   C1311563   7.894   6.512   1.660
  232DPPC   O1411564   7.897   6.435   1.781
  232DPPC   C1511565   8.005   6.354   1.798
  232DPPC   O1611566   8.096   6.358   1.716
  232DPPC   C1711567   8.010   6.273   1.928
  232DPPC   C1811568   8.138   6.297   2.008
  232DPPC   C1911569   8.128   6.208   2.132
  232DPPC   C2011570   8.235   6.233   2.240
  232DPPC   C2111571   8.202   6.144   2.360
  232DPPC   C2211572   8.302   6.148   2.476
  232DPPC   C2311573   8.252   6.068   2.596
  232DPPC   C2411574   8.339   6.103   2.717
  232DPPC   C2511575   8.490   6.100   2.696
  232DPPC   C2611576   8.559   6.131   2.829
  232DPPC   C2711577   8.558   6.006   2.917
  232DPPC   C2811578   8.621   6.033   3.055
  232DPPC   C2911579   8.549   6.147   3.127
  232DPPC   C3011580   8.598   6.167   3.271
  232DPPC   C3111581   8.518   6.278   3.340
  232DPPC   C3211582   7.844   6.657   1.664
  232DPPC   O3311583   7.704   6.674   1.688
  232DPPC   C3411584   7.663   6.803   1.677
  232DPPC   O3511585   7.727   6.883   1.608
  232DPPC   C3611586   7.525   6.831   1.736
  232DPPC   C3711587   7.533   6.926   1.856
  232DPPC   C3811588   7.565   6.841   1.979
  232DPPC   C3911589   7.574   6.944   2.092
  232DPPC   C4011590   7.439   7.014   2.110
  232DPPC   C4111591   7.444   7.110   2.229
  232DPPC   C4211592   7.494   7.029   2.348
  232DPPC   C4311593   7.500   7.110   2.478
  232DPPC   C4411594   7.546   7.029   2.599
  232DPPC   C4511595   7.673   6.948   2.573
  232DPPC   C4611596   7.675   6.828   2.668
  232DPPC   C4711597   7.819   6.777   2.673
  232DPPC   C4811598   7.837   6.652   2.760
  232DPPC   C4911599   7.730   6.553   2.713
  232DPPC   C5011600   7.725   6.436   2.812
  233DPPC    C111601   0.357   5.372   1.007
  233DPPC    C211602   0.529   5.208   1.010
  233DPPC    C311603   0.565   5.425   0.949
  233DPPC    N411604   0.495   5.345   1.051
  233DPPC    C511605   0.530   5.368   1.192
  233DPPC    C611606   0.516   5.512   1.240
  233DPPC    O711607   0.638   5.567   1.291
  233DPPC    P811608   0.611   5.720   1.332
  233DPPC    O911609   0.522   5.765   1.222
  233DPPC   O1011610   0.736   5.793   1.362
  233DPPC   O1111611   0.521   5.697   1.464
  233DPPC   C1211612   0.476   5.814   1.533
  233DPPC   C1311613   0.356   5.897   1.486
  233DPPC   O1411614   0.338   6.017   1.563
  233DPPC   C1511615   0.402   6.131   1.526
  233DPPC   O1611616   0.482   6.123   1.433
  233DPPC   C1711617   0.396   6.249   1.623
  233DPPC   C1811618   0.531   6.289   1.682
  233DPPC   C1911619   0.499   6.394   1.788
  233DPPC   C2011620   0.630   6.446   1.849
  233DPPC   C2111621   0.707   6.337   1.923
  233DPPC   C2211622   0.834   6.388   1.992
  233DPPC   C2311623   0.900   6.267   2.058
  233DPPC   C2411624   1.046   6.297   2.090
  233DPPC   C2511625   1.106   6.187   2.178
  233DPPC   C2611626   1.104   6.054   2.102
  233DPPC   C2711627   1.201   5.953   2.164
  233DPPC   C2811628   1.193   5.966   2.316
  233DPPC   C2911629   1.297   5.873   2.380
  233DPPC   C3011630   1.275   5.867   2.532
  233DPPC   C3111631   1.351   5.751   2.597
  233DPPC   C3211632   0.237   5.803   1.509
  233DPPC   O3311633   0.251   5.725   1.628
  233DPPC   C3411634   0.142   5.648   1.654
  233DPPC   O3511635   0.051   5.646   1.571
  233DPPC   C3611636   0.137   5.572   1.787
  233DPPC   C3711637   0.069   5.653   1.898
  233DPPC   C3811638   0.138   5.786   1.928
  233DPPC   C3911639   0.064   5.874   2.028
  233DPPC   C4011640   0.149   5.996   2.066
  233DPPC   C4111641   0.284   5.950   2.121
  233DPPC   C4211642   0.375   6.068   2.157
  233DPPC   C4311643   0.507   6.011   2.207
  233DPPC   C4411644   0.605   6.105   2.278
  233DPPC   C4511645   0.703   6.028   2.367
  233DPPC   C4611646   0.754   6.117   2.480
  233DPPC   C4711647   0.878   6.055   2.545
  233DPPC   C4811648   0.934   6.144   2.657
  233DPPC   C4911649   1.025   6.061   2.748
  233DPPC   C5011650   0.930   5.951   2.797
  234DPPC    C111651   8.479   1.891   0.879
  234DPPC    C211652   8.408   1.670   0.928
  234DPPC    C311653   8.618   1.697   0.858
  234DPPC    N411654   8.519   1.765   0.943
  234DPPC    C511655   8.568   1.777   1.081
  234DPPC    C611656   8.677   1.870   1.135
  234DPPC    O711657   8.806   1.854   1.075
  234DPPC    P811658   8.902   1.979   1.106
  234DPPC    O911659   8.805   2.087   1.077
  234DPPC   O1011660   9.020   1.949   1.021
  234DPPC   O1111661   8.923   1.930   1.258
  234DPPC   C1211662   8.877   2.028   1.352
  234DPPC   C1311663   8.848   1.954   1.483
  234DPPC   O1411664   8.824   2.046   1.590
  234DPPC   C1511665   8.724   2.008   1.675
  234DPPC   O1611666   8.615   1.971   1.632
  234DPPC   C1711667   8.735   2.066   1.816
  234DPPC   C1811668   8.882   2.083   1.854
  234DPPC   C1911669   8.910   2.095   2.004
  234DPPC   C2011670   8.866   1.972   2.085
  234DPPC   C2111671   8.896   1.986   2.234
  234DPPC   C2211672   8.838   1.861   2.301
  234DPPC   C2311673   8.830   1.894   2.451
  234DPPC   C2411674   8.718   1.816   2.519
  234DPPC   C2511675   8.715   1.850   2.669
  234DPPC   C2611676   8.592   1.796   2.741
  234DPPC   C2711677   8.587   1.821   2.892
  234DPPC   C2811678   8.460   1.764   2.956
  234DPPC   C2911679   8.465   1.761   3.109
  234DPPC   C3011680   8.329   1.711   3.157
  234DPPC   C3111681   8.326   1.712   3.310
  234DPPC   C3211682   8.979   1.882   1.514
  234DPPC   O3311683   8.984   1.778   1.612
  234DPPC   C3411684   8.926   1.655   1.604
  234DPPC   O3511685   8.905   1.613   1.491
  234DPPC   C3611686   8.932   1.563   1.726
  234DPPC   C3711687   8.821   1.623   1.814
  234DPPC   C3811688   8.821   1.543   1.945
  234DPPC   C3911689   8.697   1.582   2.025
  234DPPC   C4011690   8.679   1.519   2.163
  234DPPC   C4111691   8.533   1.551   2.195
  234DPPC   C4211692   8.489   1.491   2.328
  234DPPC   C4311693   8.356   1.548   2.377
  234DPPC   C4411694   8.327   1.476   2.509
  234DPPC   C4511695   8.223   1.564   2.579
  234DPPC   C4611696   8.197   1.496   2.714
  234DPPC   C4711697   8.319   1.460   2.799
  234DPPC   C4811698   8.286   1.396   2.933
  234DPPC   C4911699   8.409   1.356   3.015
  234DPPC   C5011700   8.369   1.259   3.127
  235DPPC    C111701   2.540   4.058   1.766
  235DPPC    C211702   2.354   4.206   1.744
  235DPPC    C311703   2.444   4.156   1.957
  235DPPC    N411704   2.479   4.182   1.817
  235DPPC    C511705   2.573   4.295   1.822
  235DPPC    C611706   2.621   4.345   1.686
  235DPPC    O711707   2.698   4.464   1.699
  235DPPC    P811708   2.740   4.510   1.550
  235DPPC    O911709   2.716   4.399   1.455
  235DPPC   O1011710   2.873   4.573   1.537
  235DPPC   O1111711   2.621   4.616   1.525
  235DPPC   C1211712   2.644   4.717   1.623
  235DPPC   C1311713   2.527   4.809   1.660
  235DPPC   O1411714   2.572   4.923   1.735
  235DPPC   C1511715   2.485   5.026   1.741
  235DPPC   O1611716   2.392   5.034   1.660
  235DPPC   C1711717   2.501   5.124   1.858
  235DPPC   C1811718   2.533   5.039   1.981
  235DPPC   C1911719   2.419   4.956   2.039
  235DPPC   C2011720   2.483   4.898   2.166
  235DPPC   C2111721   2.392   4.806   2.248
  235DPPC   C2211722   2.452   4.804   2.389
  235DPPC   C2311723   2.415   4.929   2.468
  235DPPC   C2411724   2.489   4.921   2.601
  235DPPC   C2511725   2.474   5.060   2.662
  235DPPC   C2611726   2.326   5.100   2.672
  235DPPC   C2711727   2.299   5.239   2.729
  235DPPC   C2811728   2.328   5.225   2.879
  235DPPC   C2911729   2.301   5.347   2.966
  235DPPC   C3011730   2.313   5.304   3.113
  235DPPC   C3111731   2.253   5.401   3.214
  235DPPC   C3211732   2.414   4.718   1.709
  235DPPC   O3311733   2.417   4.640   1.828
  235DPPC   C3411734   2.303   4.576   1.865
  235DPPC   O3511735   2.226   4.551   1.773
  235DPPC   C3611736   2.309   4.510   2.003
  235DPPC   C3711737   2.177   4.440   2.036
  235DPPC   C3811738   2.185   4.358   2.165
  235DPPC   C3911739   2.233   4.429   2.291
  235DPPC   C4011740   2.219   4.344   2.418
  235DPPC   C4111741   2.266   4.408   2.549
  235DPPC   C4211742   2.172   4.514   2.606
  235DPPC   C4311743   2.252   4.576   2.721
  235DPPC   C4411744   2.146   4.662   2.789
  235DPPC   C4511745   2.196   4.718   2.923
  235DPPC   C4611746   2.130   4.849   2.968
  235DPPC   C4711747   2.192   4.903   3.097
  235DPPC   C4811748   2.177   4.799   3.209
  235DPPC   C4911749   2.239   4.860   3.335
  235DPPC   C5011750   2.385   4.899   3.310
  236DPPC    C111751   0.218   1.140   0.986
  236DPPC    C211752   0.085   1.266   0.828
  236DPPC    C311753  -0.017   1.100   0.967
  236DPPC    N411754   0.088   1.204   0.962
  236DPPC    C511755   0.062   1.296   1.073
  236DPPC    C611756   0.128   1.434   1.080
  236DPPC    O711757   0.271   1.428   1.091
  236DPPC    P811758   0.337   1.575   1.088
  236DPPC    O911759   0.259   1.650   0.987
  236DPPC   O1011760   0.483   1.551   1.083
  236DPPC   O1111761   0.276   1.624   1.229
  236DPPC   C1211762   0.345   1.565   1.339
  236DPPC   C1311763   0.322   1.650   1.464
  236DPPC   O1411764   0.419   1.633   1.569
  236DPPC   C1511765   0.453   1.734   1.654
  236DPPC   O1611766   0.428   1.849   1.620
  236DPPC   C1711767   0.566   1.714   1.755
  236DPPC   C1811768   0.536   1.808   1.872
  236DPPC   C1911769   0.644   1.788   1.978
  236DPPC   C2011770   0.622   1.885   2.094
  236DPPC   C2111771   0.512   1.830   2.185
  236DPPC   C2211772   0.522   1.884   2.327
  236DPPC   C2311773   0.425   1.804   2.415
  236DPPC   C2411774   0.283   1.803   2.359
  236DPPC   C2511775   0.188   1.776   2.476
  236DPPC   C2611776   0.236   1.641   2.530
  236DPPC   C2711777   0.151   1.596   2.649
  236DPPC   C2811778   0.138   1.694   2.767
  236DPPC   C2911779   0.031   1.638   2.860
  236DPPC   C3011780   0.030   1.714   2.993
  236DPPC   C3111781  -0.092   1.688   3.082
  236DPPC   C3211782   0.177   1.615   1.497
  236DPPC   O3311783   0.164   1.474   1.515
  236DPPC   C3411784   0.037   1.425   1.508
  236DPPC   O3511785  -0.054   1.493   1.459
  236DPPC   C3611786   0.008   1.285   1.561
  236DPPC   C3711787  -0.001   1.282   1.714
  236DPPC   C3811788  -0.148   1.305   1.752
  236DPPC   C3911789  -0.184   1.255   1.892
  236DPPC   C4011790  -0.327   1.278   1.941
  236DPPC   C4111791  -0.335   1.235   2.087
  236DPPC   C4211792  -0.315   1.084   2.102
  236DPPC   C4311793  -0.320   1.041   2.249
  236DPPC   C4411794  -0.310   0.890   2.267
  236DPPC   C4511795  -0.309   0.874   2.420
  236DPPC   C4611796  -0.276   0.733   2.468
  236DPPC   C4711797  -0.284   0.722   2.621
  236DPPC   C4811798  -0.157   0.783   2.682
  236DPPC   C4911799  -0.168   0.795   2.834
  236DPPC   C5011800  -0.044   0.865   2.890
  237DPPC    C111801   7.311   7.740   1.504
  237DPPC    C211802   7.523   7.628   1.529
  237DPPC    C311803   7.368   7.557   1.382
  237DPPC    N411804   7.426   7.682   1.432
  237DPPC    C511805   7.496   7.752   1.323
  237DPPC    C611806   7.538   7.898   1.343
  237DPPC    O711807   7.429   7.991   1.346
  237DPPC    P811808   7.485   8.140   1.373
  237DPPC    O911809   7.388   8.241   1.327
  237DPPC   O1011810   7.628   8.139   1.337
  237DPPC   O1111811   7.465   8.124   1.532
  237DPPC   C1211812   7.330   8.128   1.579
  237DPPC   C1311813   7.325   8.144   1.732
  237DPPC   O1411814   7.325   8.278   1.782
  237DPPC   C1511815   7.214   8.356   1.767
  237DPPC   O1611816   7.114   8.304   1.717
  237DPPC   C1711817   7.225   8.502   1.811
  237DPPC   C1811818   7.317   8.503   1.933
  237DPPC   C1911819   7.326   8.642   1.997
  237DPPC   C2011820   7.390   8.631   2.135
  237DPPC   C2111821   7.283   8.601   2.240
  237DPPC   C2211822   7.349   8.617   2.377
  237DPPC   C2311823   7.253   8.602   2.495
  237DPPC   C2411824   7.315   8.661   2.621
  237DPPC   C2511825   7.331   8.812   2.602
  237DPPC   C2611826   7.427   8.860   2.711
  237DPPC   C2711827   7.418   8.799   2.852
  237DPPC   C2811828   7.524   8.851   2.949
  237DPPC   C2911829   7.669   8.835   2.902
  237DPPC   C3011830   7.757   8.900   3.009
  237DPPC   C3111831   7.727   9.049   3.021
  237DPPC   C3211832   7.420   8.037   1.786
  237DPPC   O3311833   7.346   7.918   1.810
  237DPPC   C3411834   7.425   7.822   1.865
  237DPPC   O3511835   7.543   7.805   1.833
  237DPPC   C3611836   7.364   7.710   1.949
  237DPPC   C3711837   7.361   7.746   2.098
  237DPPC   C3811838   7.329   7.629   2.192
  237DPPC   C3911839   7.310   7.672   2.337
  237DPPC   C4011840   7.261   7.556   2.425
  237DPPC   C4111841   7.199   7.620   2.549
  237DPPC   C4211842   7.140   7.509   2.636
  237DPPC   C4311843   7.240   7.400   2.676
  237DPPC   C4411844   7.350   7.468   2.758
  237DPPC   C4511845   7.450   7.364   2.810
  237DPPC   C4611846   7.543   7.433   2.910
  237DPPC   C4711847   7.662   7.339   2.933
  237DPPC   C4811848   7.622   7.199   2.980
  237DPPC   C4911849   7.750   7.125   2.942
  237DPPC   C5011850   7.862   7.171   3.036
  238DPPC    C111851   3.211   2.081   2.216
  238DPPC    C211852   3.288   2.139   2.000
  238DPPC    C311853   3.056   2.092   2.027
  238DPPC    N411854   3.174   2.151   2.092
  238DPPC    C511855   3.119   2.285   2.114
  238DPPC    C611856   3.195   2.379   2.207
  238DPPC    O711857   3.295   2.455   2.137
  238DPPC    P811858   3.368   2.561   2.234
  238DPPC    O911859   3.293   2.582   2.360
  238DPPC   O1011860   3.434   2.672   2.162
  238DPPC   O1111861   3.484   2.452   2.261
  238DPPC   C1211862   3.479   2.431   2.403
  238DPPC   C1311863   3.529   2.301   2.465
  238DPPC   O1411864   3.480   2.287   2.599
  238DPPC   C1511865   3.468   2.163   2.654
  238DPPC   O1611866   3.465   2.062   2.583
  238DPPC   C1711867   3.433   2.151   2.802
  238DPPC   C1811868   3.553   2.127   2.894
  238DPPC   C1911869   3.530   2.131   3.045
  238DPPC   C2011870   3.473   2.261   3.101
  238DPPC   C2111871   3.451   2.240   3.251
  238DPPC   C2211872   3.393   2.370   3.308
  238DPPC   C2311873   3.400   2.363   3.461
  238DPPC   C2411874   3.540   2.335   3.518
  238DPPC   C2511875   3.524   2.319   3.669
  238DPPC   C2611876   3.470   2.193   3.737
  238DPPC   C2711877   3.500   2.195   3.887
  238DPPC   C2811878   3.405   2.286   3.965
  238DPPC   C2911879   3.429   2.267   4.114
  238DPPC   C3011880   3.388   2.126   4.155
  238DPPC   C3111881   3.394   2.086   4.303
  238DPPC   C3211882   3.681   2.306   2.450
  238DPPC   O3311883   3.747   2.432   2.465
  238DPPC   C3411884   3.881   2.438   2.447
  238DPPC   O3511885   3.944   2.335   2.423
  238DPPC   C3611886   3.948   2.576   2.449
  238DPPC   C3711887   4.021   2.610   2.579
  238DPPC   C3811888   4.108   2.736   2.569
  238DPPC   C3911889   4.193   2.751   2.695
  238DPPC   C4011890   4.100   2.744   2.816
  238DPPC   C4111891   4.167   2.749   2.954
  238DPPC   C4211892   4.063   2.719   3.062
  238DPPC   C4311893   4.107   2.715   3.208
  238DPPC   C4411894   4.004   2.706   3.322
  238DPPC   C4511895   3.926   2.575   3.317
  238DPPC   C4611896   3.989   2.457   3.392
  238DPPC   C4711897   3.900   2.333   3.379
  238DPPC   C4811898   3.929   2.214   3.470
  238DPPC   C4911899   4.037   2.126   3.407
  238DPPC   C5011900   3.982   2.092   3.268
  239DPPC    C111901   3.241   2.641   1.879
  239DPPC    C211902   3.421   2.738   1.747
  239DPPC    C311903   3.255   2.594   1.652
  239DPPC    N411904   3.278   2.701   1.750
  239DPPC    C511905   3.210   2.826   1.714
  239DPPC    C611906   3.058   2.810   1.699
  239DPPC    O711907   2.990   2.904   1.616
  239DPPC    P811908   2.841   2.850   1.588
  239DPPC    O911909   2.872   2.711   1.550
  239DPPC   O1011910   2.790   2.948   1.489
  239DPPC   O1111911   2.792   2.873   1.740
  239DPPC   C1211912   2.670   2.948   1.743
  239DPPC   C1311913   2.557   2.846   1.755
  239DPPC   O1411914   2.422   2.886   1.727
  239DPPC   C1511915   2.318   2.799   1.727
  239DPPC   O1611916   2.323   2.677   1.714
  239DPPC   C1711917   2.180   2.863   1.747
  239DPPC   C1811918   2.126   2.832   1.887
  239DPPC   C1911919   2.002   2.918   1.911
  239DPPC   C2011920   1.935   2.904   2.047
  239DPPC   C2111921   2.027   2.964   2.154
  239DPPC   C2211922   1.942   2.958   2.281
  239DPPC   C2311923   2.004   3.052   2.385
  239DPPC   C2411924   1.931   3.051   2.519
  239DPPC   C2511925   1.804   3.136   2.517
  239DPPC   C2611926   1.739   3.160   2.654
  239DPPC   C2711927   1.836   3.220   2.756
  239DPPC   C2811928   1.753   3.231   2.884
  239DPPC   C2911929   1.830   3.331   2.971
  239DPPC   C3011930   1.739   3.369   3.087
  239DPPC   C3111931   1.637   3.472   3.036
  239DPPC   C3211932   2.586   2.812   1.901
  239DPPC   O3311933   2.555   2.910   2.000
  239DPPC   C3411934   2.549   2.863   2.128
  239DPPC   O3511935   2.565   2.745   2.157
  239DPPC   C3611936   2.508   2.968   2.232
  239DPPC   C3711937   2.495   2.898   2.368
  239DPPC   C3811938   2.397   2.976   2.455
  239DPPC   C3911939   2.396   2.916   2.596
  239DPPC   C4011940   2.320   3.005   2.695
  239DPPC   C4111941   2.376   2.974   2.834
  239DPPC   C4211942   2.294   3.048   2.939
  239DPPC   C4311943   2.333   3.027   3.085
  239DPPC   C4411944   2.240   3.083   3.194
  239DPPC   C4511945   2.271   3.226   3.238
  239DPPC   C4611946   2.152   3.298   3.301
  239DPPC   C4711947   2.165   3.340   3.448
  239DPPC   C4811948   2.031   3.377   3.511
  239DPPC   C4911949   2.058   3.432   3.651
  239DPPC   C5011950   2.103   3.318   3.742
  240DPPC    C111951   1.204   4.714   1.088
  240DPPC    C211952   1.406   4.728   0.974
  240DPPC    C311953   1.188   4.767   0.866
  240DPPC    N411954   1.274   4.790   0.984
  240DPPC    C511955   1.285   4.935   1.006
  240DPPC    C611956   1.345   4.971   1.142
  240DPPC    O711957   1.250   5.011   1.241
  240DPPC    P811958   1.340   5.038   1.372
  240DPPC    O911959   1.249   5.115   1.460
  240DPPC   O1011960   1.461   5.103   1.316
  240DPPC   O1111961   1.354   4.881   1.403
  240DPPC   C1211962   1.245   4.838   1.485
  240DPPC   C1311963   1.205   4.691   1.497
  240DPPC   O1411964   1.084   4.667   1.570
  240DPPC   C1511965   0.971   4.635   1.502
  240DPPC   O1611966   0.985   4.623   1.380
  240DPPC   C1711967   0.837   4.611   1.572
  240DPPC   C1811968   0.780   4.730   1.649
  240DPPC   C1911969   0.635   4.696   1.684
  240DPPC   C2011970   0.596   4.816   1.770
  240DPPC   C2111971   0.524   4.758   1.892
  240DPPC   C2211972   0.484   4.874   1.983
  240DPPC   C2311973   0.622   4.929   2.021
  240DPPC   C2411974   0.601   5.034   2.131
  240DPPC   C2511975   0.745   5.069   2.172
  240DPPC   C2611976   0.829   5.150   2.073
  240DPPC   C2711977   0.964   5.158   2.145
  240DPPC   C2811978   0.930   5.209   2.285
  240DPPC   C2911979   1.054   5.261   2.359
  240DPPC   C3011980   1.022   5.297   2.504
  240DPPC   C3111981   1.110   5.409   2.560
  240DPPC   C3211982   1.333   4.626   1.549
  240DPPC   O3311983   1.375   4.667   1.680
  240DPPC   C3411984   1.456   4.577   1.740
  240DPPC   O3511985   1.506   4.485   1.675
  240DPPC   C3611986   1.485   4.594   1.890
  240DPPC   C3711987   1.385   4.691   1.954
  240DPPC   C3811988   1.413   4.672   2.103
  240DPPC   C3911989   1.443   4.527   2.141
  240DPPC   C4011990   1.451   4.497   2.291
  240DPPC   C4111991   1.321   4.512   2.371
  240DPPC   C4211992   1.355   4.501   2.520
  240DPPC   C4311993   1.235   4.554   2.598
  240DPPC   C4411994   1.251   4.563   2.750
  240DPPC   C4511995   1.145   4.655   2.811
  240DPPC   C4611996   1.177   4.660   2.960
  240DPPC   C4711997   1.305   4.737   2.995
  240DPPC   C4811998   1.320   4.745   3.147
  240DPPC   C4911999   1.430   4.844   3.181
  240DPPC   C5012000   1.427   4.894   3.326
  241DPPC    C112001   2.978   3.236   1.616
  241DPPC    C212002   3.182   3.276   1.522
  241DPPC    C312003   2.985   3.295   1.390
  241DPPC    N412004   3.044   3.327   1.521
  241DPPC    C512005   3.042   3.472   1.541
  241DPPC    C612006   2.901   3.522   1.572
  241DPPC    O712007   2.904   3.665   1.575
  241DPPC    P812008   2.752   3.702   1.614
  241DPPC    O912009   2.667   3.601   1.549
  241DPPC   O1012010   2.718   3.845   1.595
  241DPPC   O1112011   2.756   3.667   1.771
  241DPPC   C1212012   2.837   3.775   1.818
  241DPPC   C1312013   2.835   3.783   1.971
  241DPPC   O1412014   2.916   3.893   2.014
  241DPPC   C1512015   2.856   4.012   2.042
  241DPPC   O1612016   2.781   4.059   1.957
  241DPPC   C1712017   2.928   4.097   2.146
  241DPPC   C1812018   3.017   4.032   2.253
  241DPPC   C1912019   3.074   4.146   2.337
  241DPPC   C2012020   3.192   4.104   2.424
  241DPPC   C2112021   3.154   4.009   2.538
  241DPPC   C2212022   3.275   4.000   2.632
  241DPPC   C2312023   3.301   3.854   2.669
  241DPPC   C2412024   3.420   3.860   2.765
  241DPPC   C2512025   3.465   3.726   2.824
  241DPPC   C2612026   3.585   3.746   2.916
  241DPPC   C2712027   3.632   3.608   2.963
  241DPPC   C2812028   3.644   3.507   2.849
  241DPPC   C2912029   3.701   3.379   2.911
  241DPPC   C3012030   3.725   3.276   2.800
  241DPPC   C3112031   3.598   3.269   2.715
  241DPPC   C3212032   2.897   3.650   2.015
  241DPPC   O3312033   2.894   3.617   2.154
  241DPPC   C3412034   2.997   3.658   2.232
  241DPPC   O3512035   3.109   3.696   2.197
  241DPPC   C3612036   2.965   3.621   2.377
  241DPPC   C3712037   3.075   3.539   2.444
  241DPPC   C3812038   3.037   3.501   2.587
  241DPPC   C3912039   3.139   3.411   2.657
  241DPPC   C4012040   3.084   3.385   2.797
  241DPPC   C4112041   3.175   3.305   2.891
  241DPPC   C4212042   3.101   3.277   3.021
  241DPPC   C4312043   3.191   3.195   3.114
  241DPPC   C4412044   3.146   3.235   3.254
  241DPPC   C4512045   3.132   3.387   3.264
  241DPPC   C4612046   3.035   3.408   3.380
  241DPPC   C4712047   2.995   3.548   3.428
  241DPPC   C4812048   2.870   3.543   3.516
  241DPPC   C4912049   2.833   3.684   3.563
  241DPPC   C5012050   2.705   3.685   3.646
  242DPPC    C112051   5.166   5.184   1.710
  242DPPC    C212052   5.161   5.167   1.480
  242DPPC    C312053   4.987   5.286   1.586
  242DPPC    N412054   5.131   5.261   1.589
  242DPPC    C512055   5.213   5.382   1.584
  242DPPC    C612056   5.185   5.489   1.690
  242DPPC    O712057   5.280   5.596   1.699
  242DPPC    P812058   5.208   5.740   1.699
  242DPPC    O912059   5.076   5.703   1.754
  242DPPC   O1012060   5.220   5.810   1.570
  242DPPC   O1112061   5.312   5.815   1.797
  242DPPC   C1212062   5.377   5.728   1.890
  242DPPC   C1312063   5.472   5.813   1.975
  242DPPC   O1412064   5.562   5.752   2.069
  242DPPC   C1512065   5.669   5.682   2.022
  242DPPC   O1612066   5.704   5.687   1.905
  242DPPC   C1712067   5.743   5.595   2.124
  242DPPC   C1812068   5.674   5.585   2.260
  242DPPC   C1912069   5.757   5.650   2.372
  242DPPC   C2012070   5.697   5.629   2.511
  242DPPC   C2112071   5.808   5.653   2.613
  242DPPC   C2212072   5.753   5.682   2.753
  242DPPC   C2312073   5.849   5.703   2.871
  242DPPC   C2412074   5.935   5.577   2.887
  242DPPC   C2512075   5.995   5.576   3.028
  242DPPC   C2612076   6.088   5.457   3.048
  242DPPC   C2712077   6.011   5.325   3.048
  242DPPC   C2812078   6.105   5.210   3.087
  242DPPC   C2912079   6.029   5.077   3.092
  242DPPC   C3012080   6.126   4.964   3.129
  242DPPC   C3112081   6.046   4.833   3.136
  242DPPC   C3212082   5.370   5.915   2.026
  242DPPC   O3312083   5.264   5.860   2.105
  242DPPC   C3412084   5.171   5.952   2.143
  242DPPC   O3512085   5.198   6.067   2.107
  242DPPC   C3612086   5.067   5.918   2.250
  242DPPC   C3712087   4.936   5.868   2.189
  242DPPC   C3812088   4.837   5.799   2.283
  242DPPC   C3912089   4.894   5.672   2.347
  242DPPC   C4012090   4.775   5.598   2.408
  242DPPC   C4112091   4.832   5.465   2.459
  242DPPC   C4212092   4.715   5.367   2.464
  242DPPC   C4312093   4.769   5.233   2.514
  242DPPC   C4412094   4.666   5.121   2.525
  242DPPC   C4512095   4.543   5.169   2.603
  242DPPC   C4612096   4.472   5.046   2.658
  242DPPC   C4712097   4.411   4.967   2.541
  242DPPC   C4812098   4.355   4.828   2.573
  242DPPC   C4912099   4.264   4.791   2.455
  242DPPC   C5012100   4.153   4.895   2.439
  243DPPC    C112101   8.186   6.207   1.396
  243DPPC    C212102   8.341   6.128   1.568
  243DPPC    C312103   8.116   6.033   1.524
  243DPPC    N412104   8.239   6.091   1.468
  243DPPC    C512105   8.288   5.979   1.386
  243DPPC    C612106   8.401   6.010   1.287
  243DPPC    O712107   8.457   5.895   1.223
  243DPPC    P812108   8.595   5.941   1.155
  243DPPC    O912109   8.602   6.077   1.097
  243DPPC   O1012110   8.644   5.821   1.083
  243DPPC   O1112111   8.679   5.967   1.290
  243DPPC   C1212112   8.739   5.844   1.332
  243DPPC   C1312113   8.744   5.813   1.482
  243DPPC   O1412114   8.645   5.720   1.526
  243DPPC   C1512115   8.655   5.585   1.507
  243DPPC   O1612116   8.723   5.542   1.414
  243DPPC   C1712117   8.543   5.513   1.582
  243DPPC   C1812118   8.592   5.496   1.725
  243DPPC   C1912119   8.489   5.445   1.826
  243DPPC   C2012120   8.370   5.541   1.841
  243DPPC   C2112121   8.301   5.472   1.959
  243DPPC   C2212122   8.395   5.451   2.078
  243DPPC   C2312123   8.376   5.316   2.146
  243DPPC   C2412124   8.449   5.292   2.279
  243DPPC   C2512125   8.442   5.140   2.289
  243DPPC   C2612126   8.520   5.093   2.412
  243DPPC   C2712127   8.454   5.156   2.535
  243DPPC   C2812128   8.521   5.121   2.669
  243DPPC   C2912129   8.465   5.186   2.795
  243DPPC   C3012130   8.551   5.138   2.912
  243DPPC   C3112131   8.506   5.204   3.043
  243DPPC   C3212132   8.739   5.951   1.549
  243DPPC   O3312133   8.731   5.953   1.691
  243DPPC   C3412134   8.693   6.074   1.743
  243DPPC   O3512135   8.665   6.168   1.670
  243DPPC   C3612136   8.662   6.066   1.893
  243DPPC   C3712137   8.748   5.962   1.965
  243DPPC   C3812138   8.706   5.943   2.111
  243DPPC   C3912139   8.733   6.073   2.186
  243DPPC   C4012140   8.713   6.043   2.335
  243DPPC   C4112141   8.748   6.164   2.421
  243DPPC   C4212142   8.667   6.284   2.370
  243DPPC   C4312143   8.690   6.389   2.479
  243DPPC   C4412144   8.838   6.427   2.467
  243DPPC   C4512145   8.873   6.539   2.566
  243DPPC   C4612146   9.022   6.559   2.593
  243DPPC   C4712147   9.061   6.414   2.625
  243DPPC   C4812148   9.186   6.406   2.714
  243DPPC   C4912149   9.255   6.271   2.735
  243DPPC   C5012150   9.189   6.185   2.843
  244DPPC    C112151   6.628   3.054   1.424
  244DPPC    C212152   6.752   2.870   1.340
  244DPPC    C312153   6.805   3.089   1.261
  244DPPC    N412154   6.761   3.011   1.378
  244DPPC    C512155   6.856   3.041   1.486
  244DPPC    C612156   6.995   2.978   1.496
  244DPPC    O712157   6.992   2.855   1.569
  244DPPC    P812158   7.130   2.775   1.552
  244DPPC    O912159   7.234   2.859   1.488
  244DPPC   O1012160   7.078   2.657   1.479
  244DPPC   O1112161   7.153   2.737   1.707
  244DPPC   C1212162   7.055   2.642   1.749
  244DPPC   C1312163   7.066   2.612   1.898
  244DPPC   O1412164   7.008   2.720   1.972
  244DPPC   C1512165   6.889   2.691   2.031
  244DPPC   O1612166   6.817   2.604   1.983
  244DPPC   C1712167   6.830   2.796   2.126
  244DPPC   C1812168   6.804   2.751   2.269
  244DPPC   C1912169   6.938   2.731   2.339
  244DPPC   C2012170   6.923   2.690   2.485
  244DPPC   C2112171   7.056   2.682   2.561
  244DPPC   C2212172   7.028   2.643   2.706
  244DPPC   C2312173   7.160   2.611   2.777
  244DPPC   C2412174   7.147   2.624   2.928
  244DPPC   C2512175   7.074   2.754   2.963
  244DPPC   C2612176   7.053   2.775   3.114
  244DPPC   C2712177   7.183   2.777   3.195
  244DPPC   C2812178   7.159   2.786   3.346
  244DPPC   C2912179   7.288   2.778   3.428
  244DPPC   C3012180   7.260   2.767   3.578
  244DPPC   C3112181   7.184   2.887   3.635
  244DPPC   C3212182   7.213   2.586   1.931
  244DPPC   O3312183   7.249   2.534   2.059
  244DPPC   C3412184   7.298   2.630   2.141
  244DPPC   O3512185   7.307   2.749   2.108
  244DPPC   C3612186   7.341   2.576   2.278
  244DPPC   C3712187   7.486   2.530   2.262
  244DPPC   C3812188   7.540   2.447   2.379
  244DPPC   C3912189   7.551   2.511   2.518
  244DPPC   C4012190   7.658   2.438   2.599
  244DPPC   C4112191   7.704   2.517   2.721
  244DPPC   C4212192   7.654   2.457   2.852
  244DPPC   C4312193   7.718   2.536   2.967
  244DPPC   C4412194   7.656   2.489   3.099
  244DPPC   C4512195   7.504   2.509   3.095
  244DPPC   C4612196   7.423   2.463   3.217
  244DPPC   C4712197   7.453   2.322   3.267
  244DPPC   C4812198   7.387   2.293   3.402
  244DPPC   C4912199   7.453   2.383   3.507
  244DPPC   C5012200   7.363   2.357   3.629
  245DPPC    C112201   5.334   3.596   1.388
  245DPPC    C212202   5.399   3.488   1.588
  245DPPC    C312203   5.538   3.657   1.507
  245DPPC    N412204   5.396   3.618   1.520
  245DPPC    C512205   5.333   3.722   1.603
  245DPPC    C612206   5.285   3.851   1.537
  245DPPC    O712207   5.383   3.954   1.528
  245DPPC    P812208   5.295   4.085   1.491
  245DPPC    O912209   5.213   4.046   1.374
  245DPPC   O1012210   5.375   4.208   1.476
  245DPPC   O1112211   5.202   4.093   1.623
  245DPPC   C1212212   5.274   4.139   1.738
  245DPPC   C1312213   5.183   4.179   1.854
  245DPPC   O1412214   5.246   4.248   1.963
  245DPPC   C1512215   5.256   4.384   1.964
  245DPPC   O1612216   5.245   4.449   1.860
  245DPPC   C1712217   5.331   4.429   2.089
  245DPPC   C1812218   5.240   4.417   2.212
  245DPPC   C1912219   5.304   4.495   2.326
  245DPPC   C2012220   5.226   4.491   2.458
  245DPPC   C2112221   5.290   4.576   2.568
  245DPPC   C2212222   5.186   4.575   2.679
  245DPPC   C2312223   5.258   4.636   2.800
  245DPPC   C2412224   5.156   4.627   2.914
  245DPPC   C2512225   5.219   4.672   3.046
  245DPPC   C2612226   5.137   4.616   3.162
  245DPPC   C2712227   5.222   4.605   3.289
  245DPPC   C2812228   5.142   4.567   3.414
  245DPPC   C2912229   5.223   4.568   3.544
  245DPPC   C3012230   5.147   4.515   3.666
  245DPPC   C3112231   5.245   4.510   3.784
  245DPPC   C3212232   5.102   4.054   1.885
  245DPPC   O3312233   5.188   3.953   1.939
  245DPPC   C3412234   5.125   3.832   1.942
  245DPPC   O3512235   5.012   3.825   1.896
  245DPPC   C3612236   5.214   3.714   1.982
  245DPPC   C3712237   5.208   3.664   2.126
  245DPPC   C3812238   5.328   3.575   2.159
  245DPPC   C3912239   5.336   3.539   2.307
  245DPPC   C4012240   5.457   3.452   2.344
  245DPPC   C4112241   5.445   3.394   2.485
  245DPPC   C4212242   5.582   3.353   2.539
  245DPPC   C4312243   5.562   3.340   2.690
  245DPPC   C4412244   5.517   3.479   2.737
  245DPPC   C4512245   5.525   3.482   2.890
  245DPPC   C4612246   5.449   3.369   2.959
  245DPPC   C4712247   5.457   3.378   3.112
  245DPPC   C4812248   5.372   3.275   3.186
  245DPPC   C4912249   5.391   3.300   3.336
  245DPPC   C5012250   5.538   3.304   3.377
  246DPPC    C112251   9.188   7.960   1.233
  246DPPC    C212252   9.358   8.087   1.320
  246DPPC    C312253   9.189   7.999   1.465
  246DPPC    N412254   9.276   7.969   1.350
  246DPPC    C512255   9.366   7.853   1.347
  246DPPC    C612256   9.439   7.798   1.469
  246DPPC    O712257   9.537   7.897   1.502
  246DPPC    P812258   9.630   7.833   1.616
  246DPPC    O912259   9.747   7.923   1.631
  246DPPC   O1012260   9.639   7.686   1.610
  246DPPC   O1112261   9.517   7.871   1.724
  246DPPC   C1212262   9.527   8.008   1.763
  246DPPC   C1312263   9.396   8.086   1.774
  246DPPC   O1412264   9.426   8.223   1.806
  246DPPC   C1512265   9.470   8.315   1.717
  246DPPC   O1612266   9.457   8.282   1.599
  246DPPC   C1712267   9.546   8.439   1.766
  246DPPC   C1812268   9.494   8.516   1.887
  246DPPC   C1912269   9.580   8.638   1.923
  246DPPC   C2012270   9.729   8.611   1.942
  246DPPC   C2112271   9.784   8.569   2.079
  246DPPC   C2212272   9.937   8.566   2.080
  246DPPC   C2312273   9.998   8.555   2.220
  246DPPC   C2412274   9.929   8.436   2.287
  246DPPC   C2512275   9.938   8.439   2.440
  246DPPC   C2612276   9.852   8.330   2.504
  246DPPC   C2712277   9.871   8.325   2.656
  246DPPC   C2812278  10.006   8.273   2.704
  246DPPC   C2912279  10.013   8.134   2.640
  246DPPC   C3012280  10.135   8.063   2.699
  246DPPC   C3112281  10.135   7.928   2.627
  246DPPC   C3212282   9.286   8.037   1.868
  246DPPC   O3312283   9.208   7.931   1.813
  246DPPC   C3412284   9.124   7.879   1.907
  246DPPC   O3512285   9.140   7.906   2.026
  246DPPC   C3612286   9.041   7.766   1.846
  246DPPC   C3712287   8.893   7.766   1.886
  246DPPC   C3812288   8.872   7.693   2.019
  246DPPC   C3912289   8.727   7.695   2.069
  246DPPC   C4012290   8.716   7.630   2.207
  246DPPC   C4112291   8.766   7.731   2.311
  246DPPC   C4212292   8.734   7.682   2.453
  246DPPC   C4312293   8.818   7.757   2.556
  246DPPC   C4412294   8.776   7.714   2.697
  246DPPC   C4512295   8.897   7.686   2.786
  246DPPC   C4612296   8.971   7.817   2.813
  246DPPC   C4712297   9.089   7.809   2.911
  246DPPC   C4812298   9.169   7.938   2.923
  246DPPC   C4912299   9.219   7.989   2.788
  246DPPC   C5012300   9.313   8.110   2.788
  247DPPC    C112301   6.971   1.274   0.853
  247DPPC    C212302   7.213   1.292   0.870
  247DPPC    C312303   7.098   1.156   1.026
  247DPPC    N412304   7.097   1.204   0.887
  247DPPC    C512305   7.086   1.089   0.796
  247DPPC    C612306   7.202   0.990   0.787
  247DPPC    O712307   7.235   0.925   0.910
  247DPPC    P812308   7.395   0.936   0.920
  247DPPC    O912309   7.413   1.041   1.023
  247DPPC   O1012310   7.462   0.947   0.789
  247DPPC   O1112311   7.421   0.792   0.987
  247DPPC   C1212312   7.410   0.816   1.128
  247DPPC   C1312313   7.418   0.693   1.218
  247DPPC   O1412314   7.381   0.724   1.354
  247DPPC   C1512315   7.250   0.715   1.388
  247DPPC   O1612316   7.153   0.709   1.313
  247DPPC   C1712317   7.228   0.745   1.537
  247DPPC   C1812318   7.310   0.868   1.574
  247DPPC   C1912319   7.295   0.896   1.724
  247DPPC   C2012320   7.380   1.008   1.785
  247DPPC   C2112321   7.333   1.052   1.924
  247DPPC   C2212322   7.328   0.934   2.021
  247DPPC   C2312323   7.248   0.966   2.148
  247DPPC   C2412324   7.306   1.096   2.204
  247DPPC   C2512325   7.306   1.093   2.357
  247DPPC   C2612326   7.373   1.204   2.438
  247DPPC   C2712327   7.366   1.173   2.588
  247DPPC   C2812328   7.447   1.274   2.670
  247DPPC   C2912329   7.412   1.275   2.819
  247DPPC   C3012330   7.481   1.167   2.902
  247DPPC   C3112331   7.456   1.182   3.052
  247DPPC   C3212332   7.565   0.662   1.190
  247DPPC   O3312333   7.655   0.624   1.294
  247DPPC   C3412334   7.628   0.501   1.345
  247DPPC   O3512335   7.570   0.415   1.279
  247DPPC   C3612336   7.690   0.470   1.481
  247DPPC   C3712337   7.650   0.581   1.579
  247DPPC   C3812338   7.749   0.605   1.693
  247DPPC   C3912339   7.692   0.715   1.783
  247DPPC   C4012340   7.768   0.731   1.915
  247DPPC   C4112341   7.722   0.836   2.016
  247DPPC   C4212342   7.803   0.851   2.145
  247DPPC   C4312343   7.767   0.985   2.209
  247DPPC   C4412344   7.829   0.999   2.348
  247DPPC   C4512345   7.813   1.143   2.397
  247DPPC   C4612346   7.867   1.145   2.540
  247DPPC   C4712347   7.847   1.274   2.619
  247DPPC   C4812348   7.879   1.255   2.768
  247DPPC   C4912349   7.833   1.368   2.860
  247DPPC   C5012350   7.873   1.342   3.005
  248DPPC    C112351   6.244   1.276   1.548
  248DPPC    C212352   6.382   1.447   1.659
  248DPPC    C312353   6.155   1.458   1.664
  248DPPC    N412354   6.264   1.359   1.668
  248DPPC    C512355   6.272   1.287   1.796
  248DPPC    C612356   6.166   1.180   1.820
  248DPPC    O712357   6.034   1.224   1.850
  248DPPC    P812358   5.922   1.115   1.810
  248DPPC    O912359   5.942   1.073   1.670
  248DPPC   O1012360   5.795   1.180   1.848
  248DPPC   O1112361   5.956   0.997   1.915
  248DPPC   C1212362   5.932   1.044   2.048
  248DPPC   C1312363   5.983   0.945   2.152
  248DPPC   O1412364   5.905   0.939   2.272
  248DPPC   C1512365   5.780   0.886   2.271
  248DPPC   O1612366   5.726   0.847   2.168
  248DPPC   C1712367   5.711   0.870   2.407
  248DPPC   C1812368   5.632   1.000   2.430
  248DPPC   C1912369   5.550   0.996   2.559
  248DPPC   C2012370   5.633   0.973   2.684
  248DPPC   C2112371   5.560   0.986   2.818
  248DPPC   C2212372   5.649   1.031   2.934
  248DPPC   C2312373   5.593   0.977   3.065
  248DPPC   C2412374   5.676   1.001   3.191
  248DPPC   C2512375   5.598   0.945   3.310
  248DPPC   C2612376   5.684   0.970   3.434
  248DPPC   C2712377   5.599   0.955   3.561
  248DPPC   C2812378   5.484   1.055   3.547
  248DPPC   C2912379   5.395   1.070   3.670
  248DPPC   C3012380   5.337   1.208   3.705
  248DPPC   C3112381   5.248   1.265   3.595
  248DPPC   C3212382   6.134   0.949   2.177
  248DPPC   O3312383   6.174   1.085   2.198
  248DPPC   C3412384   6.301   1.117   2.236
  248DPPC   O3512385   6.404   1.053   2.219
  248DPPC   C3612386   6.298   1.265   2.275
  248DPPC   C3712387   6.419   1.303   2.361
  248DPPC   C3812388   6.431   1.226   2.493
  248DPPC   C3912389   6.468   1.319   2.608
  248DPPC   C4012390   6.467   1.217   2.721
  248DPPC   C4112391   6.530   1.293   2.839
  248DPPC   C4212392   6.497   1.211   2.963
  248DPPC   C4312393   6.557   1.263   3.094
  248DPPC   C4412394   6.600   1.155   3.193
  248DPPC   C4512395   6.703   1.212   3.291
  248DPPC   C4612396   6.745   1.130   3.413
  248DPPC   C4712397   6.866   1.196   3.479
  248DPPC   C4812398   6.949   1.117   3.581
  248DPPC   C4912399   7.027   0.995   3.531
  248DPPC   C5012400   7.090   0.909   3.641
  249DPPC    C112401   1.769   5.601   1.444
  249DPPC    C212402   1.941   5.716   1.321
  249DPPC    C312403   1.931   5.481   1.322
  249DPPC    N412404   1.848   5.602   1.320
  249DPPC    C512405   1.772   5.614   1.194
  249DPPC    C612406   1.713   5.748   1.153
  249DPPC    O712407   1.600   5.795   1.228
  249DPPC    P812408   1.585   5.953   1.199
  249DPPC    O912409   1.444   5.991   1.223
  249DPPC   O1012410   1.682   6.000   1.098
  249DPPC   O1112411   1.657   5.976   1.341
  249DPPC   C1212412   1.574   5.933   1.449
  249DPPC   C1312413   1.649   5.912   1.581
  249DPPC   O1412414   1.560   5.903   1.694
  249DPPC   C1512415   1.495   5.785   1.710
  249DPPC   O1612416   1.516   5.694   1.630
  249DPPC   C1712417   1.407   5.759   1.833
  249DPPC   C1812418   1.486   5.754   1.964
  249DPPC   C1912419   1.558   5.619   1.976
  249DPPC   C2012420   1.640   5.630   2.104
  249DPPC   C2112421   1.543   5.655   2.221
  249DPPC   C2212422   1.607   5.663   2.360
  249DPPC   C2312423   1.669   5.532   2.410
  249DPPC   C2412424   1.740   5.567   2.541
  249DPPC   C2512425   1.835   5.457   2.588
  249DPPC   C2612426   1.877   5.491   2.731
  249DPPC   C2712427   1.903   5.367   2.817
  249DPPC   C2812428   1.910   5.412   2.964
  249DPPC   C2912429   1.898   5.285   3.048
  249DPPC   C3012430   1.761   5.218   3.058
  249DPPC   C3112431   1.764   5.072   3.105
  249DPPC   C3212432   1.744   6.032   1.589
  249DPPC   O3312433   1.845   6.039   1.690
  249DPPC   C3412434   1.937   5.939   1.695
  249DPPC   O3512435   1.948   5.851   1.609
  249DPPC   C3612436   2.040   5.948   1.808
  249DPPC   C3712437   2.001   5.848   1.917
  249DPPC   C3812438   2.106   5.813   2.021
  249DPPC   C3912439   2.050   5.740   2.144
  249DPPC   C4012440   2.155   5.751   2.255
  249DPPC   C4112441   2.093   5.679   2.375
  249DPPC   C4212442   2.200   5.665   2.484
  249DPPC   C4312443   2.252   5.802   2.526
  249DPPC   C4412444   2.157   5.875   2.622
  249DPPC   C4512445   2.194   5.839   2.766
  249DPPC   C4612446   2.337   5.855   2.819
  249DPPC   C4712447   2.340   5.872   2.971
  249DPPC   C4812448   2.486   5.881   3.014
  249DPPC   C4912449   2.513   5.913   3.161
  249DPPC   C5012450   2.414   5.828   3.240
  250DPPC    C112451   8.631   8.125   0.940
  250DPPC    C212452   8.819   8.179   1.071
  250DPPC    C312453   8.861   8.150   0.843
  250DPPC    N412454   8.759   8.198   0.938
  250DPPC    C512455   8.750   8.339   0.898
  250DPPC    C612456   8.735   8.455   0.996
  250DPPC    O712457   8.854   8.476   1.073
  250DPPC    P812458   8.823   8.567   1.202
  250DPPC    O912459   8.759   8.688   1.146
  250DPPC   O1012460   8.960   8.573   1.259
  250DPPC   O1112461   8.721   8.451   1.247
  250DPPC   C1212462   8.657   8.485   1.370
  250DPPC   C1312463   8.598   8.371   1.453
  250DPPC   O1412464   8.512   8.414   1.559
  250DPPC   C1512465   8.382   8.373   1.558
  250DPPC   O1612466   8.336   8.303   1.468
  250DPPC   C1712467   8.290   8.427   1.667
  250DPPC   C1812468   8.286   8.339   1.792
  250DPPC   C1912469   8.235   8.428   1.906
  250DPPC   C2012470   8.225   8.348   2.036
  250DPPC   C2112471   8.113   8.246   2.024
  250DPPC   C2212472   8.086   8.198   2.167
  250DPPC   C2312473   7.979   8.090   2.151
  250DPPC   C2412474   7.955   8.007   2.276
  250DPPC   C2512475   7.828   7.921   2.269
  250DPPC   C2612476   7.793   7.860   2.404
  250DPPC   C2712477   7.658   7.787   2.399
  250DPPC   C2812478   7.655   7.716   2.535
  250DPPC   C2912479   7.693   7.808   2.651
  250DPPC   C3012480   7.706   7.716   2.773
  250DPPC   C3112481   7.747   7.814   2.883
  250DPPC   C3212482   8.715   8.276   1.483
  250DPPC   O3312483   8.817   8.348   1.552
  250DPPC   C3412484   8.922   8.270   1.591
  250DPPC   O3512485   8.927   8.151   1.560
  250DPPC   C3612486   9.031   8.327   1.682
  250DPPC   C3712487   8.973   8.345   1.823
  250DPPC   C3812488   9.065   8.434   1.906
  250DPPC   C3912489   9.005   8.451   2.046
  250DPPC   C4012490   9.108   8.519   2.135
  250DPPC   C4112491   9.064   8.521   2.282
  250DPPC   C4212492   9.167   8.589   2.372
  250DPPC   C4312493   9.297   8.509   2.374
  250DPPC   C4412494   9.295   8.368   2.435
  250DPPC   C4512495   9.438   8.313   2.434
  250DPPC   C4612496   9.461   8.247   2.299
  250DPPC   C4712497   9.600   8.184   2.297
  250DPPC   C4812498   9.631   8.122   2.160
  250DPPC   C4912499   9.777   8.076   2.151
  250DPPC   C5012500   9.814   7.979   2.263
  251DPPC    C112501   6.456   5.696   1.315
  251DPPC    C212502   6.675   5.683   1.228
  251DPPC    C312503   6.522   5.838   1.137
  251DPPC    N412504   6.567   5.777   1.262
  251DPPC    C512505   6.610   5.878   1.360
  251DPPC    C612506   6.526   6.001   1.395
  251DPPC    O712507   6.410   5.974   1.475
  251DPPC    P812508   6.331   6.091   1.553
  251DPPC    O912509   6.226   6.009   1.617
  251DPPC   O1012510   6.295   6.200   1.460
  251DPPC   O1112511   6.435   6.150   1.661
  251DPPC   C1212512   6.482   6.031   1.724
  251DPPC   C1312513   6.574   6.061   1.843
  251DPPC   O1412514   6.634   5.940   1.890
  251DPPC   C1512515   6.769   5.929   1.885
  251DPPC   O1612516   6.838   5.978   1.795
  251DPPC   C1712517   6.824   5.825   1.983
  251DPPC   C1812518   6.870   5.896   2.110
  251DPPC   C1912519   6.925   5.796   2.212
  251DPPC   C2012520   7.047   5.722   2.156
  251DPPC   C2112521   7.160   5.820   2.128
  251DPPC   C2212522   7.280   5.744   2.070
  251DPPC   C2312523   7.411   5.818   2.043
  251DPPC   C2412524   7.512   5.718   1.986
  251DPPC   C2512525   7.649   5.786   1.987
  251DPPC   C2612526   7.728   5.717   2.098
  251DPPC   C2712527   7.854   5.804   2.108
  251DPPC   C2812528   7.944   5.810   1.985
  251DPPC   C2912529   8.074   5.881   2.022
  251DPPC   C3012530   8.174   5.890   1.907
  251DPPC   C3112531   8.311   5.927   1.964
  251DPPC   C3212532   6.496   6.152   1.938
  251DPPC   O3312533   6.582   6.242   2.008
  251DPPC   C3412534   6.508   6.327   2.085
  251DPPC   O3512535   6.386   6.330   2.072
  251DPPC   C3612536   6.573   6.423   2.184
  251DPPC   C3712537   6.477   6.430   2.303
  251DPPC   C3812538   6.551   6.504   2.416
  251DPPC   C3912539   6.497   6.469   2.555
  251DPPC   C4012540   6.538   6.565   2.667
  251DPPC   C4112541   6.499   6.498   2.799
  251DPPC   C4212542   6.541   6.591   2.914
  251DPPC   C4312543   6.527   6.532   3.054
  251DPPC   C4412544   6.388   6.473   3.077
  251DPPC   C4512545   6.367   6.423   3.221
  251DPPC   C4612546   6.384   6.553   3.300
  251DPPC   C4712547   6.386   6.526   3.451
  251DPPC   C4812548   6.247   6.512   3.512
  251DPPC   C4912549   6.174   6.647   3.509
  251DPPC   C5012550   6.030   6.643   3.560
  252DPPC    C112551   4.365   2.599   1.555
  252DPPC    C212552   4.562   2.624   1.702
  252DPPC    C312553   4.370   2.738   1.739
  252DPPC    N412554   4.416   2.607   1.692
  252DPPC    C512555   4.366   2.483   1.754
  252DPPC    C612556   4.220   2.444   1.778
  252DPPC    O712557   4.148   2.545   1.848
  252DPPC    P812558   4.014   2.478   1.908
  252DPPC    O912559   4.056   2.362   1.990
  252DPPC   O1012560   3.924   2.460   1.792
  252DPPC   O1112561   3.976   2.604   1.999
  252DPPC   C1212562   4.076   2.622   2.100
  252DPPC   C1312563   4.137   2.762   2.102
  252DPPC   O1412564   4.247   2.781   2.193
  252DPPC   C1512565   4.358   2.856   2.172
  252DPPC   O1612566   4.376   2.924   2.071
  252DPPC   C1712567   4.449   2.860   2.295
  252DPPC   C1812568   4.538   2.736   2.302
  252DPPC   C1912569   4.593   2.725   2.444
  252DPPC   C2012570   4.699   2.616   2.464
  252DPPC   C2112571   4.722   2.579   2.611
  252DPPC   C2212572   4.764   2.434   2.634
  252DPPC   C2312573   4.764   2.406   2.785
  252DPPC   C2412574   4.809   2.262   2.806
  252DPPC   C2512575   4.856   2.225   2.947
  252DPPC   C2612576   4.910   2.083   2.960
  252DPPC   C2712577   4.795   1.991   2.921
  252DPPC   C2812578   4.840   1.853   2.871
  252DPPC   C2912579   4.955   1.864   2.771
  252DPPC   C3012580   5.043   1.739   2.757
  252DPPC   C3112581   5.173   1.771   2.683
  252DPPC   C3212582   4.023   2.862   2.125
  252DPPC   O3312583   3.941   2.842   2.240
  252DPPC   C3412584   3.833   2.924   2.236
  252DPPC   O3512585   3.810   2.987   2.133
  252DPPC   C3612586   3.749   2.934   2.364
  252DPPC   C3712587   3.636   2.832   2.347
  252DPPC   C3812588   3.535   2.827   2.462
  252DPPC   C3912589   3.614   2.785   2.586
  252DPPC   C4012590   3.529   2.779   2.713
  252DPPC   C4112591   3.606   2.713   2.827
  252DPPC   C4212592   3.653   2.569   2.803
  252DPPC   C4312593   3.737   2.518   2.921
  252DPPC   C4412594   3.787   2.378   2.884
  252DPPC   C4512595   3.932   2.365   2.931
  252DPPC   C4612596   3.997   2.228   2.913
  252DPPC   C4712597   4.002   2.193   2.764
  252DPPC   C4812598   4.084   2.064   2.761
  252DPPC   C4912599   4.008   1.967   2.853
  252DPPC   C5012600   4.060   1.823   2.847
  253DPPC    C112601   3.712   7.537   1.601
  253DPPC    C212602   3.683   7.769   1.549
  253DPPC    C312603   3.505   7.607   1.502
  253DPPC    N412604   3.614   7.646   1.592
  253DPPC    C512605   3.555   7.660   1.726
  253DPPC    C612606   3.635   7.675   1.856
  253DPPC    O712607   3.692   7.801   1.894
  253DPPC    P812608   3.849   7.789   1.927
  253DPPC    O912609   3.920   7.918   1.917
  253DPPC   O1012610   3.901   7.685   1.835
  253DPPC   O1112611   3.842   7.742   2.081
  253DPPC   C1212612   3.768   7.837   2.158
  253DPPC   C1312613   3.691   7.768   2.271
  253DPPC   O1412614   3.595   7.845   2.345
  253DPPC   C1512615   3.464   7.846   2.306
  253DPPC   O1612616   3.428   7.786   2.205
  253DPPC   C1712617   3.366   7.921   2.396
  253DPPC   C1812618   3.222   7.881   2.365
  253DPPC   C1912619   3.135   7.965   2.460
  253DPPC   C2012620   2.991   7.917   2.478
  253DPPC   C2112621   2.948   7.979   2.610
  253DPPC   C2212622   2.809   7.924   2.645
  253DPPC   C2312623   2.760   8.006   2.764
  253DPPC   C2412624   2.609   8.008   2.787
  253DPPC   C2512625   2.566   8.063   2.923
  253DPPC   C2612626   2.421   8.028   2.960
  253DPPC   C2712627   2.324   8.098   2.864
  253DPPC   C2812628   2.271   8.237   2.900
  253DPPC   C2912629   2.200   8.299   2.779
  253DPPC   C3012630   2.155   8.435   2.833
  253DPPC   C3112631   2.074   8.529   2.745
  253DPPC   C3212632   3.798   7.706   2.360
  253DPPC   O3312633   3.901   7.781   2.425
  253DPPC   C3412634   4.000   7.715   2.490
  253DPPC   O3512635   3.996   7.592   2.499
  253DPPC   C3612636   4.120   7.795   2.542
  253DPPC   C3712637   4.109   7.857   2.682
  253DPPC   C3812638   4.238   7.935   2.702
  253DPPC   C3912639   4.250   8.072   2.634
  253DPPC   C4012640   4.378   8.144   2.679
  253DPPC   C4112641   4.504   8.058   2.667
  253DPPC   C4212642   4.611   8.114   2.761
  253DPPC   C4312643   4.714   8.002   2.772
  253DPPC   C4412644   4.827   8.053   2.863
  253DPPC   C4512645   4.954   7.973   2.834
  253DPPC   C4612646   5.068   8.019   2.924
  253DPPC   C4712647   5.187   7.928   2.893
  253DPPC   C4812648   5.296   7.956   2.996
  253DPPC   C4912649   5.413   7.858   3.016
  253DPPC   C5012650   5.502   7.885   3.137
  254DPPC    C112651   3.015   1.457   2.246
  254DPPC    C212652   2.922   1.677   2.227
  254DPPC    C312653   3.037   1.574   2.050
  254DPPC    N412654   2.940   1.549   2.157
  254DPPC    C512655   2.817   1.487   2.105
  254DPPC    C612656   2.740   1.543   1.985
  254DPPC    O712657   2.605   1.577   2.016
  254DPPC    P812658   2.555   1.647   1.880
  254DPPC    O912659   2.612   1.568   1.769
  254DPPC   O1012660   2.581   1.790   1.910
  254DPPC   O1112661   2.407   1.613   1.932
  254DPPC   C1212662   2.362   1.707   2.031
  254DPPC   C1312663   2.216   1.705   2.076
  254DPPC   O1412664   2.172   1.789   2.183
  254DPPC   C1512665   2.192   1.923   2.174
  254DPPC   O1612666   2.241   1.988   2.082
  254DPPC   C1712667   2.132   2.000   2.292
  254DPPC   C1812668   2.238   2.064   2.382
  254DPPC   C1912669   2.174   2.107   2.514
  254DPPC   C2012670   2.289   2.140   2.608
  254DPPC   C2112671   2.234   2.220   2.726
  254DPPC   C2212672   2.313   2.186   2.852
  254DPPC   C2312673   2.322   2.042   2.902
  254DPPC   C2412674   2.212   2.002   3.001
  254DPPC   C2512675   2.237   1.860   3.053
  254DPPC   C2612676   2.129   1.832   3.157
  254DPPC   C2712677   2.136   1.701   3.235
  254DPPC   C2812678   2.273   1.711   3.304
  254DPPC   C2912679   2.306   1.587   3.388
  254DPPC   C3012680   2.192   1.550   3.484
  254DPPC   C3112681   2.248   1.441   3.575
  254DPPC   C3212682   2.200   1.554   2.100
  254DPPC   O3312683   2.270   1.503   2.214
  254DPPC   C3412684   2.296   1.370   2.206
  254DPPC   O3512685   2.258   1.303   2.110
  254DPPC   C3612686   2.381   1.315   2.321
  254DPPC   C3712687   2.300   1.218   2.407
  254DPPC   C3812688   2.394   1.159   2.512
  254DPPC   C3912689   2.327   1.057   2.603
  254DPPC   C4012690   2.430   1.006   2.704
  254DPPC   C4112691   2.377   0.892   2.791
  254DPPC   C4212692   2.502   0.822   2.843
  254DPPC   C4312693   2.586   0.888   2.952
  254DPPC   C4412694   2.689   0.784   2.996
  254DPPC   C4512695   2.763   0.817   3.126
  254DPPC   C4612696   2.676   0.826   3.252
  254DPPC   C4712697   2.769   0.816   3.374
  254DPPC   C4812698   2.698   0.803   3.509
  254DPPC   C4912699   2.800   0.792   3.622
  254DPPC   C5012700   2.752   0.853   3.754
  255DPPC    C112701   1.443   7.691   1.565
  255DPPC    C212702   1.451   7.462   1.490
  255DPPC    C312703   1.287   7.599   1.409
  255DPPC    N412704   1.428   7.601   1.450
  255DPPC    C512705   1.510   7.651   1.339
  255DPPC    C612706   1.662   7.665   1.342
  255DPPC    O712707   1.752   7.554   1.339
  255DPPC    P812708   1.907   7.592   1.319
  255DPPC    O912709   1.911   7.713   1.235
  255DPPC   O1012710   1.976   7.465   1.286
  255DPPC   O1112711   1.916   7.619   1.478
  255DPPC   C1212712   1.900   7.492   1.543
  255DPPC   C1312713   1.919   7.494   1.694
  255DPPC   O1412714   1.927   7.364   1.753
  255DPPC   C1512715   2.052   7.311   1.767
  255DPPC   O1612716   2.152   7.355   1.712
  255DPPC   C1712717   2.061   7.178   1.843
  255DPPC   C1812718   1.946   7.137   1.934
  255DPPC   C1912719   1.986   7.023   2.028
  255DPPC   C2012720   1.863   6.959   2.093
  255DPPC   C2112721   1.792   6.865   1.995
  255DPPC   C2212722   1.663   6.808   2.053
  255DPPC   C2312723   1.684   6.706   2.166
  255DPPC   C2412724   1.554   6.682   2.244
  255DPPC   C2512725   1.585   6.558   2.328
  255DPPC   C2612726   1.476   6.530   2.431
  255DPPC   C2712727   1.485   6.382   2.470
  255DPPC   C2812728   1.367   6.342   2.559
  255DPPC   C2912729   1.373   6.425   2.687
  255DPPC   C3012730   1.298   6.333   2.783
  255DPPC   C3112731   1.363   6.199   2.817
  255DPPC   C3212732   1.813   7.594   1.742
  255DPPC   O3312733   1.821   7.660   1.869
  255DPPC   C3412734   1.699   7.709   1.904
  255DPPC   O3512735   1.604   7.692   1.828
  255DPPC   C3612736   1.666   7.760   2.044
  255DPPC   C3712737   1.738   7.892   2.069
  255DPPC   C3812738   1.694   7.950   2.203
  255DPPC   C3912739   1.764   8.083   2.232
  255DPPC   C4012740   1.728   8.117   2.377
  255DPPC   C4112741   1.785   8.257   2.400
  255DPPC   C4212742   1.762   8.309   2.542
  255DPPC   C4312743   1.853   8.227   2.634
  255DPPC   C4412744   1.778   8.161   2.750
  255DPPC   C4512745   1.887   8.080   2.821
  255DPPC   C4612746   1.837   8.018   2.951
  255DPPC   C4712747   1.938   7.925   3.018
  255DPPC   C4812748   1.904   7.778   2.993
  255DPPC   C4912749   2.013   7.693   3.058
  255DPPC   C5012750   2.008   7.722   3.208
  256DPPC    C112751   2.639   6.733   1.597
  256DPPC    C212752   2.601   6.507   1.647
  256DPPC    C312753   2.490   6.621   1.459
  256DPPC    N412754   2.614   6.602   1.536
  256DPPC    C512755   2.725   6.575   1.444
  256DPPC    C612756   2.766   6.428   1.434
  256DPPC    O712757   2.666   6.356   1.361
  256DPPC    P812758   2.712   6.203   1.346
  256DPPC    O912759   2.859   6.210   1.331
  256DPPC   O1012760   2.614   6.160   1.244
  256DPPC   O1112761   2.659   6.167   1.494
  256DPPC   C1212762   2.519   6.160   1.468
  256DPPC   C1312763   2.441   6.107   1.589
  256DPPC   O1412764   2.395   6.210   1.678
  256DPPC   C1512765   2.270   6.261   1.666
  256DPPC   O1612766   2.203   6.254   1.563
  256DPPC   C1712767   2.237   6.365   1.773
  256DPPC   C1812768   2.162   6.292   1.885
  256DPPC   C1912769   2.116   6.407   1.975
  256DPPC   C2012770   2.032   6.341   2.085
  256DPPC   C2112771   2.009   6.446   2.193
  256DPPC   C2212772   2.127   6.506   2.270
  256DPPC   C2312773   2.076   6.590   2.387
  256DPPC   C2412774   2.037   6.727   2.330
  256DPPC   C2512775   1.991   6.805   2.454
  256DPPC   C2612776   1.883   6.737   2.538
  256DPPC   C2712777   1.853   6.795   2.676
  256DPPC   C2812778   1.725   6.737   2.735
  256DPPC   C2912779   1.752   6.592   2.777
  256DPPC   C3012780   1.653   6.551   2.886
  256DPPC   C3112781   1.708   6.422   2.948
  256DPPC   C3212782   2.525   5.991   1.642
  256DPPC   O3312783   2.468   5.907   1.742
  256DPPC   C3412784   2.542   5.802   1.788
  256DPPC   O3512785   2.661   5.790   1.761
  256DPPC   C3612786   2.453   5.698   1.857
  256DPPC   C3712787   2.524   5.635   1.978
  256DPPC   C3812788   2.430   5.572   2.080
  256DPPC   C3912789   2.383   5.436   2.027
  256DPPC   C4012790   2.276   5.382   2.122
  256DPPC   C4112791   2.344   5.364   2.258
  256DPPC   C4212792   2.230   5.333   2.356
  256DPPC   C4312793   2.161   5.204   2.312
  256DPPC   C4412794   2.057   5.149   2.409
  256DPPC   C4512795   2.007   5.011   2.363
  256DPPC   C4612796   1.893   4.971   2.456
  256DPPC   C4712797   1.941   4.961   2.601
  256DPPC   C4812798   1.819   4.957   2.694
  256DPPC   C4912799   1.808   4.811   2.739
  256DPPC   C5012800   1.684   4.803   2.828
  257SOL     OW12801   9.481   0.737   5.718
  257SOL    HW112802   9.412   0.694   5.659
  257SOL    HW212803   9.442   0.753   5.808
  258SOL     OW12804   6.120   8.199   1.023
  258SOL    HW112805   6.219   8.191   1.038
  258SOL    HW212806   6.090   8.291   1.048
  259SOL     OW12807   7.454   3.077   6.563
  259SOL    HW112808   7.398   3.009   6.516
  259SOL    HW212809   7.551   3.052   6.554
  260SOL     OW12810   3.665   2.445   0.537
  260SOL    HW112811   3.635   2.509   0.608
  260SOL    HW212812   3.763   2.431   0.545
  261SOL     OW12813   6.241   1.368   0.488
  261SOL    HW112814   6.267   1.418   0.571
  261SOL    HW212815   6.168   1.417   0.442
  262SOL     OW12816   2.810   0.421   6.258
  262SOL    HW112817   2.887   0.485   6.247
  262SOL    HW212818   2.732   0.470   6.297
  263SOL     OW12819   0.902   5.560   4.303
  263SOL    HW112820   0.836   5.491   4.275
  263SOL    HW212821   0.994   5.520   4.307
  264SOL     OW12822   0.618   4.012   6.441
  264SOL    HW112823   0.621   3.913   6.452
  264SOL    HW212824   0.675   4.039   6.362
  265SOL     OW12825   3.984   1.965   0.729
  265SOL    HW112826   4.009   1.957   0.633
  265SOL    HW212827   4.013   2.055   0.763
  266SOL     OW12828   4.203   5.193   1.840
  266SOL    HW112829   4.240   5.154   1.925
  266SOL    HW212830   4.104   5.182   1.838
  267SOL     OW12831   3.390   1.502   1.739
  267SOL    HW112832   3.335   1.480   1.819
  267SOL    HW212833   3.472   1.446   1.737
  268SOL     OW12834   4.039   7.445   1.790
  268SOL    HW112835   3.998   7.537   1.787
  268SOL    HW212836   3.967   7.377   1.803
  269SOL     OW12837   8.277   3.162   5.355
  269SOL    HW112838   8.278   3.223   5.276
  269SOL    HW212839   8.195   3.106   5.353
  270SOL     OW12840   3.412   1.529   0.284
  270SOL    HW112841   3.396   1.608   0.224
  270SOL    HW212842   3.363   1.541   0.370
  271SOL     OW12843   6.489   0.439   0.936
  271SOL    HW112844   6.496   0.349   0.893
  271SOL    HW212845   6.417   0.492   0.892
  272SOL     OW12846   4.436   2.669   1.178
  272SOL    HW112847   4.390   2.742   1.229
  272SOL    HW212848   4.521   2.645   1.225
  273SOL     OW12849   9.163   1.117   6.155
  273SOL    HW112850   9.149   1.216   6.144
  273SOL    HW212851   9.260   1.099   6.168
  274SOL     OW12852   7.478   7.665   4.782
  274SOL    HW112853   7.536   7.718   4.844
  274SOL    HW212854   7.484   7.704   4.690
  275SOL     OW12855   2.414   6.643   6.699
  275SOL    HW112856   2.476   6.688   6.634
  275SOL    HW212857   2.360   6.712   6.747
  276SOL     OW12858   8.892   6.769   0.029
  276SOL    HW112859   8.941   6.853   0.006
  276SOL    HW212860   8.879   6.714  -0.053
  277SOL     OW12861   9.265   0.725   6.276
  277SOL    HW112862   9.199   0.769   6.215
  277SOL    HW212863   9.223   0.713   6.366
  278SOL     OW12864   1.240   4.429   6.380
  278SOL    HW112865   1.307   4.354   6.373
  278SOL    HW212866   1.225   4.451   6.476
  279SOL     OW12867   5.792   3.082   1.174
  279SOL    HW112868   5.795   3.181   1.192
  279SOL    HW212869   5.852   3.061   1.097
  280SOL     OW12870   9.338   7.151   6.626
  280SOL    HW112871   9.346   7.215   6.703
  280SOL    HW212872   9.271   7.187   6.560
  281SOL     OW12873   1.017   6.769   6.137
  281SOL    HW112874   0.936   6.817   6.101
  281SOL    HW212875   1.075   6.834   6.186
  282SOL     OW12876   9.185   3.412   0.454
  282SOL    HW112877   9.179   3.507   0.486
  282SOL    HW212878   9.224   3.356   0.527
  283SOL     OW12879   5.659   5.773   5.730
  283SOL    HW112880   5.733   5.813   5.784
  283SOL    HW212881   5.595   5.845   5.703
  284SOL     OW12882   5.554   7.365   6.087
  284SOL    HW112883   5.599   7.286   6.128
  284SOL    HW212884   5.561   7.360   5.987
  285SOL     OW12885   6.197   4.521   0.238
  285SOL    HW112886   6.236   4.576   0.164
  285SOL    HW212887   6.249   4.536   0.322
  286SOL     OW12888   5.946   0.545   1.586
  286SOL    HW112889   5.958   0.644   1.587
  286SOL    HW212890   5.932   0.512   1.679
  287SOL     OW12891   3.777   2.835   5.213
  287SOL    HW112892   3.813   2.884   5.292
  287SOL    HW212893   3.838   2.847   5.135
  288SOL     OW12894   2.987   6.595   4.793
  288SOL    HW112895   3.066   6.653   4.815
  288SOL    HW212896   2.904   6.651   4.792
  289SOL     OW12897   1.665   3.741   6.567
  289SOL    HW112898   1.568   3.725   6.582
  289SOL    HW212899   1.687   3.723   6.471
  290SOL     OW12900   8.143   8.088   5.713
  290SOL    HW112901   8.193   8.148   5.777
  290SOL    HW212902   8.098   8.144   5.643
  291SOL     OW12903   2.388   1.471   6.701
  291SOL    HW112904   2.429   1.504   6.787
  291SOL    HW212905   2.367   1.549   6.642
  292SOL     OW12906   4.033   1.040   0.958
  292SOL    HW112907   3.987   0.987   0.887
  292SOL    HW212908   4.070   1.124   0.918
  293SOL     OW12909   6.863   7.159   1.429
  293SOL    HW112910   6.938   7.094   1.420
  293SOL    HW212911   6.830   7.159   1.523
  294SOL     OW12912   2.990   6.954   0.289
  294SOL    HW112913   2.957   6.960   0.194
  294SOL    HW212914   3.087   6.930   0.289
  295SOL     OW12915   8.795   6.506   0.588
  295SOL    HW112916   8.724   6.552   0.641
  295SOL    HW212917   8.817   6.418   0.631
  296SOL     OW12918   6.531   6.448   6.259
  296SOL    HW112919   6.495   6.439   6.166
  296SOL    HW212920   6.620   6.494   6.256
  297SOL     OW12921   0.712   2.562   0.741
  297SOL    HW112922   0.739   2.630   0.673
  297SOL    HW212923   0.734   2.595   0.833
  298SOL     OW12924   2.946   1.274   1.242
  298SOL    HW112925   2.874   1.230   1.189
  298SOL    HW212926   3.034   1.258   1.198
  299SOL     OW12927   7.191   6.473   6.025
  299SOL    HW112928   7.104   6.428   6.004
  299SOL    HW212929   7.262   6.404   6.040
  300SOL     OW12930   7.621   2.457   6.502
  300SOL    HW112931   7.675   2.410   6.572
  300SOL    HW212932   7.582   2.540   6.540
  301SOL     OW12933   6.566   6.905   5.459
  301SOL    HW112934   6.626   6.898   5.540
  301SOL    HW212935   6.622   6.897   5.376
  302SOL     OW12936   5.521   0.948   0.138
  302SOL    HW112937   5.609   0.904   0.121
  302SOL    HW212938   5.449   0.896   0.092
  303SOL     OW12939   1.045   0.911   6.119
  303SOL    HW112940   1.003   0.956   6.197
  303SOL    HW212941   1.121   0.968   6.085
  304SOL     OW12942   4.495   4.312   1.865
  304SOL    HW112943   4.483   4.367   1.782
  304SOL    HW212944   4.592   4.308   1.888
  305SOL     OW12945   8.610   6.072   6.232
  305SOL    HW112946   8.653   6.096   6.145
  305SOL    HW212947   8.518   6.037   6.214
  306SOL     OW12948   6.802   1.095   6.674
  306SOL    HW112949   6.823   1.048   6.589
  306SOL    HW212950   6.877   1.083   6.739
  307SOL     OW12951   4.219   0.396   5.622
  307SOL    HW112952   4.313   0.373   5.646
  307SOL    HW212953   4.211   0.494   5.605
  308SOL     OW12954   6.013   4.577   0.454
  308SOL    HW112955   6.049   4.551   0.364
  308SOL    HW212956   5.947   4.508   0.485
  309SOL     OW12957   0.905   8.308   6.688
  309SOL    HW112958   0.869   8.218   6.711
  309SOL    HW212959   0.878   8.374   6.758
  310SOL     OW12960   3.406   6.051   6.015
  310SOL    HW112961   3.307   6.055   6.018
  310SOL    HW212962   3.443   6.071   6.106
  311SOL     OW12963   3.114   0.420   5.029
  311SOL    HW112964   3.022   0.431   4.992
  311SOL    HW212965   3.110   0.370   5.115
  312SOL     OW12966   4.186   6.999   5.569
  312SOL    HW112967   4.154   6.911   5.603
  312SOL    HW212968   4.122   7.034   5.501
  313SOL     OW12969   2.480   3.584   0.895
  313SOL    HW112970   2.573   3.567   0.925
  313SOL    HW212971   2.451   3.675   0.926
  314SOL     OW12972   4.625   1.450   1.350
  314SOL    HW112973   4.675   1.366   1.330
  314SOL    HW212974   4.612   1.458   1.448
  315SOL     OW12975   6.871   4.760   5.994
  315SOL    HW112976   6.870   4.731   5.899
  315SOL    HW212977   6.816   4.843   6.004
  316SOL     OW12978   6.369   3.361   0.210
  316SOL    HW112979   6.457   3.372   0.163
  316SOL    HW212980   6.379   3.392   0.305
  317SOL     OW12981   7.940   4.602   5.221
  317SOL    HW112982   7.841   4.591   5.230
  317SOL    HW212983   7.978   4.524   5.170
  318SOL     OW12984   1.443   0.937   5.386
  318SOL    HW112985   1.348   0.911   5.401
  318SOL    HW212986   1.501   0.856   5.388
  319SOL     OW12987   2.964   6.259   6.192
  319SOL    HW112988   2.998   6.339   6.241
  319SOL    HW212989   2.903   6.287   6.118
  320SOL     OW12990   1.640   4.267   0.588
  320SOL    HW112991   1.561   4.278   0.528
  320SOL    HW212992   1.610   4.231   0.677
  321SOL     OW12993   4.309   0.114   6.508
  321SOL    HW112994   4.364   0.197   6.497
  321SOL    HW212995   4.245   0.106   6.432
  322SOL     OW12996   6.878   1.339   6.297
  322SOL    HW112997   6.864   1.422   6.242
  322SOL    HW212998   6.838   1.261   6.251
  323SOL     OW12999   6.778   2.787   1.707
  323SOL    HW113000   6.753   2.862   1.767
  323SOL    HW213001   6.858   2.813   1.652
  324SOL     OW13002   7.524   7.627   1.000
  324SOL    HW113003   7.599   7.626   0.934
  324SOL    HW213004   7.437   7.610   0.952
  325SOL     OW13005   7.883   8.119   0.484
  325SOL    HW113006   7.972   8.164   0.479
  325SOL    HW213007   7.870   8.063   0.402
  326SOL     OW13008   0.931   0.040   1.006
  326SOL    HW113009   0.927  -0.043   1.062
  326SOL    HW213010   0.909   0.017   0.911
  327SOL     OW13011   3.080   8.466   1.932
  327SOL    HW113012   3.119   8.553   1.960
  327SOL    HW213013   2.982   8.465   1.950
  328SOL     OW13014   0.273   3.710   1.024
  328SOL    HW113015   0.301   3.752   1.111
  328SOL    HW213016   0.350   3.710   0.960
  329SOL     OW13017   7.040   3.218   0.321
  329SOL    HW113018   7.047   3.135   0.376
  329SOL    HW213019   6.995   3.290   0.374
  330SOL     OW13020   1.777   0.573   0.900
  330SOL    HW113021   1.828   0.650   0.861
  330SOL    HW213022   1.772   0.498   0.834
  331SOL     OW13023   0.137   3.116   0.291
  331SOL    HW113024   0.152   3.017   0.297
  331SOL    HW213025   0.039   3.136   0.291
  332SOL     OW13026   3.929   6.146   5.925
  332SOL    HW113027   3.892   6.069   5.978
  332SOL    HW213028   3.853   6.199   5.887
  333SOL     OW13029   2.356   6.070   6.158
  333SOL    HW113030   2.340   6.046   6.254
  333SOL    HW213031   2.269   6.096   6.116
  334SOL     OW13032   1.461   4.167   0.192
  334SOL    HW113033   1.503   4.246   0.147
  334SOL    HW213034   1.530   4.095   0.204
  335SOL     OW13035   7.708   3.318   6.074
  335SOL    HW113036   7.660   3.375   6.008
  335SOL    HW213037   7.729   3.373   6.156
  336SOL     OW13038   7.730   6.057   6.227
  336SOL    HW113039   7.660   6.059   6.298
  336SOL    HW213040   7.796   5.985   6.248
  337SOL     OW13041   7.178   1.534   1.203
  337SOL    HW113042   7.184   1.436   1.186
  337SOL    HW213043   7.222   1.556   1.290
  338SOL     OW13044   6.428   3.420   1.207
  338SOL    HW113045   6.507   3.374   1.246
  338SOL    HW213046   6.372   3.354   1.157
  339SOL     OW13047   7.300   2.973   6.089
  339SOL    HW113048   7.328   2.889   6.135
  339SOL    HW213049   7.362   3.047   6.115
  340SOL     OW13050   3.368   1.022   0.938
  340SOL    HW113051   3.274   1.033   0.905
  340SOL    HW213052   3.422   1.102   0.913
  341SOL     OW13053   4.121   8.384   6.119
  341SOL    HW113054   4.183   8.308   6.100
  341SOL    HW213055   4.031   8.365   6.080
  342SOL     OW13056   2.931   6.266   6.625
  342SOL    HW113057   2.876   6.247   6.544
  342SOL    HW213058   3.023   6.291   6.597
  343SOL     OW13059   0.507   4.595   6.631
  343SOL    HW113060   0.487   4.501   6.661
  343SOL    HW213061   0.595   4.597   6.584
  344SOL     OW13062   2.522   3.269   5.512
  344SOL    HW113063   2.581   3.199   5.553
  344SOL    HW213064   2.527   3.264   5.413
  345SOL     OW13065   6.009   6.503   5.259
  345SOL    HW113066   6.094   6.504   5.206
  345SOL    HW213067   5.934   6.538   5.202
  346SOL     OW13068   5.327   2.570   1.348
  346SOL    HW113069   5.368   2.480   1.334
  346SOL    HW213070   5.250   2.581   1.285
  347SOL     OW13071   9.012   3.966   0.923
  347SOL    HW113072   9.107   3.938   0.909
  347SOL    HW213073   9.009   4.057   0.965
  348SOL     OW13074   0.273   3.208   5.450
  348SOL    HW113075   0.328   3.208   5.366
  348SOL    HW213076   0.190   3.263   5.435
  349SOL     OW13077   7.043   4.470   6.301
  349SOL    HW113078   6.957   4.422   6.315
  349SOL    HW213079   7.111   4.407   6.263
  350SOL     OW13080   0.964   8.037   1.416
  350SOL    HW113081   1.007   8.126   1.429
  350SOL    HW213082   0.870   8.040   1.450
  351SOL     OW13083   0.526   1.299   4.657
  351SOL    HW113084   0.467   1.380   4.652
  351SOL    HW213085   0.471   1.218   4.676
  352SOL     OW13086   4.553   5.883   6.628
  352SOL    HW113087   4.640   5.932   6.621
  352SOL    HW213088   4.570   5.791   6.663
  353SOL     OW13089   0.178   4.170   6.522
  353SOL    HW113090   0.150   4.077   6.546
  353SOL    HW213091   0.104   4.216   6.473
  354SOL     OW13092   7.506   6.324   6.696
  354SOL    HW113093   7.462   6.414   6.695
  354SOL    HW213094   7.585   6.325   6.634
  355SOL     OW13095   3.367   6.347   6.384
  355SOL    HW113096   3.423   6.289   6.324
  355SOL    HW213097   3.313   6.410   6.328
  356SOL     OW13098   6.423   3.738   6.578
  356SOL    HW113099   6.359   3.814   6.569
  356SOL    HW213100   6.516   3.770   6.558
  357SOL     OW13101   7.670   0.678   5.759
  357SOL    HW113102   7.744   0.637   5.706
  357SOL    HW213103   7.604   0.720   5.696
  358SOL     OW13104   7.819   7.464   4.894
  358SOL    HW113105   7.858   7.477   4.985
  358SOL    HW213106   7.719   7.471   4.899
  359SOL     OW13107   3.921   5.973   0.740
  359SOL    HW113108   3.854   6.014   0.678
  359SOL    HW213109   4.007   5.958   0.692
  360SOL     OW13110   2.400   1.437   0.352
  360SOL    HW113111   2.396   1.533   0.379
  360SOL    HW213112   2.329   1.385   0.400
  361SOL     OW13113   6.420   1.873   5.715
  361SOL    HW113114   6.425   1.958   5.662
  361SOL    HW213115   6.347   1.816   5.677
  362SOL     OW13116   5.615   3.688   0.589
  362SOL    HW113117   5.579   3.652   0.675
  362SOL    HW213118   5.573   3.777   0.570
  363SOL     OW13119   5.115   0.416   6.265
  363SOL    HW113120   5.208   0.440   6.238
  363SOL    HW213121   5.090   0.467   6.348
  364SOL     OW13122   7.421   3.585   0.774
  364SOL    HW113123   7.415   3.683   0.787
  364SOL    HW213124   7.455   3.541   0.857
  365SOL     OW13125   0.281   3.268   6.181
  365SOL    HW113126   0.224   3.186   6.173
  365SOL    HW213127   0.230   3.346   6.145
  366SOL     OW13128   2.401   0.014   5.871
  366SOL    HW113129   2.336   0.090   5.861
  366SOL    HW213130   2.386  -0.052   5.798
  367SOL     OW13131   3.278   3.540   0.128
  367SOL    HW113132   3.254   3.606   0.058
  367SOL    HW213133   3.378   3.531   0.133
  368SOL     OW13134   2.204   5.072   6.704
  368SOL    HW113135   2.263   5.149   6.683
  368SOL    HW213136   2.113   5.088   6.664
  369SOL     OW13137   2.642   3.323   6.587
  369SOL    HW113138   2.566   3.286   6.642
  369SOL    HW213139   2.648   3.422   6.602
  370SOL     OW13140   7.229   5.953   5.478
  370SOL    HW113141   7.235   5.875   5.416
  370SOL    HW213142   7.148   6.008   5.455
  371SOL     OW13143   7.502   3.793   6.330
  371SOL    HW113144   7.575   3.771   6.395
  371SOL    HW213145   7.519   3.747   6.243
  372SOL     OW13146   1.087   7.209   5.572
  372SOL    HW113147   1.108   7.148   5.648
  372SOL    HW213148   1.050   7.295   5.608
  373SOL     OW13149   8.005   6.209   0.021
  373SOL    HW113150   8.050   6.120   0.013
  373SOL    HW213151   8.013   6.259  -0.065
  374SOL     OW13152   4.697   7.455   6.325
  374SOL    HW113153   4.754   7.400   6.386
  374SOL    HW213154   4.618   7.490   6.375
  375SOL     OW13155   4.745   0.558   0.368
  375SOL    HW113156   4.680   0.579   0.441
  375SOL    HW213157   4.723   0.470   0.327
  376SOL     OW13158   2.133   0.475   0.760
  376SOL    HW113159   2.126   0.423   0.846
  376SOL    HW213160   2.079   0.431   0.689
  377SOL     OW13161   0.367   0.317   5.608
  377SOL    HW113162   0.465   0.298   5.614
  377SOL    HW213163   0.348   0.409   5.643
  378SOL     OW13164   8.735   1.895   0.142
  378SOL    HW113165   8.694   1.859   0.058
  378SOL    HW213166   8.784   1.980   0.122
  379SOL     OW13167   3.818   4.320   0.579
  379SOL    HW113168   3.841   4.383   0.505
  379SOL    HW213169   3.901   4.300   0.632
  380SOL     OW13170   2.541   2.254   0.385
  380SOL    HW113171   2.611   2.214   0.444
  380SOL    HW213172   2.464   2.286   0.441
  381SOL     OW13173   8.764   4.287   6.357
  381SOL    HW113174   8.737   4.356   6.423
  381SOL    HW213175   8.761   4.326   6.265
  382SOL     OW13176   7.994   1.135   5.902
  382SOL    HW113177   8.020   1.179   5.816
  382SOL    HW213178   7.985   1.036   5.887
  383SOL     OW13179   0.724   4.924   0.176
  383SOL    HW113180   0.661   4.982   0.123
  383SOL    HW213181   0.785   4.876   0.113
  384SOL     OW13182   6.942   5.509   5.752
  384SOL    HW113183   6.931   5.606   5.732
  384SOL    HW213184   7.013   5.471   5.693
  385SOL     OW13185   5.644   1.536   0.352
  385SOL    HW113186   5.669   1.464   0.417
  385SOL    HW213187   5.696   1.524   0.267
  386SOL     OW13188   5.025   7.466   6.263
  386SOL    HW113189   5.017   7.485   6.165
  386SOL    HW213190   5.016   7.368   6.279
  387SOL     OW13191   0.340   3.397   0.932
  387SOL    HW113192   0.424   3.449   0.915
  387SOL    HW213193   0.359   3.325   0.998
  388SOL     OW13194   6.417   4.966   0.847
  388SOL    HW113195   6.437   5.055   0.806
  388SOL    HW213196   6.492   4.902   0.828
  389SOL     OW13197   3.727   0.103   0.274
  389SOL    HW113198   3.708   0.009   0.300
  389SOL    HW213199   3.825   0.114   0.256
  390SOL     OW13200   2.325   5.669   6.462
  390SOL    HW113201   2.420   5.675   6.493
  390SOL    HW213202   2.264   5.676   6.541
  391SOL     OW13203   8.365   3.978   5.243
  391SOL    HW113204   8.291   3.916   5.218
  391SOL    HW213205   8.387   4.037   5.165
  392SOL     OW13206   3.420   2.385   5.171
  392SOL    HW113207   3.357   2.462   5.185
  392SOL    HW213208   3.435   2.372   5.073
  393SOL     OW13209   8.348   1.871   0.401
  393SOL    HW113210   8.446   1.866   0.383
  393SOL    HW213211   8.306   1.936   0.339
  394SOL     OW13212   3.890   5.237   1.704
  394SOL    HW113213   3.826   5.312   1.720
  394SOL    HW213214   3.849   5.172   1.640
  395SOL     OW13215   6.065   1.013   1.316
  395SOL    HW113216   6.019   1.083   1.371
  395SOL    HW213217   6.000   0.975   1.250
  396SOL     OW13218   6.433   7.856   1.149
  396SOL    HW113219   6.498   7.863   1.226
  396SOL    HW213220   6.482   7.828   1.067
  397SOL     OW13221   5.782   0.497   5.222
  397SOL    HW113222   5.735   0.584   5.232
  397SOL    HW213223   5.831   0.476   5.307
  398SOL     OW13224   8.272   0.094   6.175
  398SOL    HW113225   8.251  -0.000   6.148
  398SOL    HW213226   8.195   0.132   6.226
  399SOL     OW13227   0.246   8.350   1.443
  399SOL    HW113228   0.318   8.377   1.507
  399SOL    HW213229   0.162   8.329   1.494
  400SOL     OW13230   6.529   1.126   0.580
  400SOL    HW113231   6.487   1.036   0.588
  400SOL    HW213232   6.459   1.196   0.580
  401SOL     OW13233   6.478   7.575   0.395
  401SOL    HW113234   6.518   7.660   0.429
  401SOL    HW213235   6.381   7.589   0.376
  402SOL     OW13236   6.432   2.764   0.986
  402SOL    HW113237   6.532   2.763   0.978
  402SOL    HW213238   6.405   2.833   1.053
  403SOL     OW13239   5.970   6.764   6.287
  403SOL    HW113240   5.928   6.767   6.196
  403SOL    HW213241   5.951   6.675   6.329
  404SOL     OW13242   5.601   7.298   5.819
  404SOL    HW113243   5.692   7.340   5.815
  404SOL    HW213244   5.560   7.299   5.728
  405SOL     OW13245   4.992   4.061   1.171
  405SOL    HW113246   4.945   4.149   1.159
  405SOL    HW213247   5.078   4.076   1.219
  406SOL     OW13248   6.377   3.431   0.478
  406SOL    HW113249   6.313   3.381   0.536
  406SOL    HW213250   6.459   3.454   0.531
  407SOL     OW13251   0.550   5.157   5.384
  407SOL    HW113252   0.555   5.095   5.306
  407SOL    HW213253   0.489   5.233   5.363
  408SOL     OW13254   3.500   0.048   1.043
  408SOL    HW113255   3.598   0.048   1.022
  408SOL    HW213256   3.449   0.078   0.963
  409SOL     OW13257   4.475   2.048   1.092
  409SOL    HW113258   4.548   2.052   1.024
  409SOL    HW213259   4.394   2.006   1.052
  410SOL     OW13260   8.252   5.029   6.215
  410SOL    HW113261   8.252   5.080   6.301
  410SOL    HW213262   8.283   5.088   6.140
  411SOL     OW13263   8.426   2.924   6.190
  411SOL    HW113264   8.471   2.929   6.280
  411SOL    HW213265   8.408   2.829   6.167
  412SOL     OW13266   6.752   5.918   5.356
  412SOL    HW113267   6.764   5.869   5.270
  412SOL    HW213268   6.802   5.871   5.429
  413SOL     OW13269   8.499   7.806   5.769
  413SOL    HW113270   8.509   7.707   5.777
  413SOL    HW213271   8.432   7.827   5.697
  414SOL     OW13272   3.048   3.213   6.442
  414SOL    HW113273   3.042   3.217   6.343
  414SOL    HW213274   3.116   3.145   6.469
  415SOL     OW13275   1.524   5.763   5.406
  415SOL    HW113276   1.600   5.699   5.392
  415SOL    HW213277   1.440   5.723   5.371
  416SOL     OW13278   8.641   4.795   0.246
  416SOL    HW113279   8.548   4.813   0.280
  416SOL    HW213280   8.643   4.707   0.199
  417SOL     OW13281   5.589   4.061   5.607
  417SOL    HW113282   5.551   4.018   5.689
  417SOL    HW213283   5.572   4.002   5.528
  418SOL     OW13284   6.356   2.487   0.589
  418SOL    HW113285   6.312   2.409   0.544
  418SOL    HW213286   6.378   2.556   0.520
  419SOL     OW13287   3.392   1.787   6.240
  419SOL    HW113288   3.382   1.762   6.337
  419SOL    HW213289   3.308   1.761   6.191
  420SOL     OW13290   0.127   1.367   6.150
  420SOL    HW113291   0.069   1.448   6.143
  420SOL    HW213292   0.109   1.306   6.073
  421SOL     OW13293   0.233   4.703   1.259
  421SOL    HW113294   0.290   4.746   1.188
  421SOL    HW213295   0.176   4.773   1.302
  422SOL     OW13296   8.519   6.956   0.432
  422SOL    HW113297   8.545   6.873   0.382
  422SOL    HW213298   8.514   7.033   0.368
  423SOL     OW13299   2.573   8.015   6.538
  423SOL    HW113300   2.523   8.101   6.544
  423SOL    HW213301   2.509   7.939   6.551
  424SOL     OW13302   1.472   7.264   0.210
  424SOL    HW113303   1.497   7.323   0.133
  424SOL    HW213304   1.541   7.273   0.282
  425SOL     OW13305   9.475   0.136   1.087
  425SOL    HW113306   9.376   0.129   1.103
  425SOL    HW213307   9.501   0.074   1.013
  426SOL     OW13308   8.534   2.097   0.501
  426SOL    HW113309   8.581   2.013   0.475
  426SOL    HW213310   8.595   2.175   0.483
  427SOL     OW13311   6.795   7.964   0.731
  427SOL    HW113312   6.857   7.889   0.708
  427SOL    HW213313   6.810   7.992   0.826
  428SOL     OW13314   1.149   0.066   5.085
  428SOL    HW113315   1.084   0.141   5.100
  428SOL    HW213316   1.112  -0.018   5.125
  429SOL     OW13317   3.038   1.031   6.509
  429SOL    HW113318   3.048   0.960   6.578
  429SOL    HW213319   2.964   1.093   6.534
  430SOL     OW13320   5.698   4.434   6.109
  430SOL    HW113321   5.734   4.503   6.172
  430SOL    HW213322   5.754   4.432   6.026
  431SOL     OW13323   1.947   0.706   4.973
  431SOL    HW113324   2.003   0.669   4.899
  431SOL    HW213325   1.942   0.639   5.047
  432SOL     OW13326   0.431   6.972   1.014
  432SOL    HW113327   0.358   6.905   0.997
  432SOL    HW213328   0.462   6.963   1.109
  433SOL     OW13329   1.820   7.942   4.091
  433SOL    HW113330   1.733   7.980   4.120
  433SOL    HW213331   1.866   8.006   4.030
  434SOL     OW13332   7.562   6.527   6.392
  434SOL    HW113333   7.524   6.548   6.482
  434SOL    HW213334   7.630   6.596   6.368
  435SOL     OW13335   6.480   3.176   0.693
  435SOL    HW113336   6.466   3.098   0.631
  435SOL    HW213337   6.539   3.147   0.769
  436SOL     OW13338   0.603   3.423   5.112
  436SOL    HW113339   0.508   3.444   5.132
  436SOL    HW213340   0.635   3.480   5.036
  437SOL     OW13341   2.999   0.450   5.984
  437SOL    HW113342   3.062   0.379   5.951
  437SOL    HW213343   3.021   0.473   6.079
  438SOL     OW13344   1.168   2.830   1.028
  438SOL    HW113345   1.080   2.806   1.069
  438SOL    HW213346   1.177   2.929   1.025
  439SOL     OW13347   5.528   0.015   1.129
  439SOL    HW113348   5.573  -0.028   1.050
  439SOL    HW213349   5.594   0.071   1.178
  440SOL     OW13350   3.100   6.424   5.635
  440SOL    HW113351   3.114   6.347   5.573
  440SOL    HW213352   3.011   6.466   5.618
  441SOL     OW13353   0.240   0.532   5.744
  441SOL    HW113354   0.163   0.589   5.714
  441SOL    HW213355   0.222   0.498   5.836
  442SOL     OW13356   2.751   7.881   0.770
  442SOL    HW113357   2.793   7.801   0.727
  442SOL    HW213358   2.653   7.866   0.780
  443SOL     OW13359   7.613   6.532   5.840
  443SOL    HW113360   7.611   6.631   5.851
  443SOL    HW213361   7.583   6.508   5.748
  444SOL     OW13362   1.244   5.137   5.674
  444SOL    HW113363   1.210   5.150   5.581
  444SOL    HW213364   1.174   5.163   5.739
  445SOL     OW13365   7.066   3.039   1.040
  445SOL    HW113366   7.108   3.015   1.128
  445SOL    HW213367   7.049   3.137   1.038
  446SOL     OW13368   2.061   6.536   5.387
  446SOL    HW113369   2.079   6.545   5.289
  446SOL    HW213370   1.981   6.589   5.412
  447SOL     OW13371   1.041   4.048   6.129
  447SOL    HW113372   1.101   3.970   6.111
  447SOL    HW213373   1.068   4.091   6.215
  448SOL     OW13374   9.295   3.062   0.981
  448SOL    HW113375   9.274   3.099   1.072
  448SOL    HW213376   9.382   3.013   0.985
  449SOL     OW13377   0.395   1.813   0.659
  449SOL    HW113378   0.487   1.813   0.698
  449SOL    HW213379   0.341   1.886   0.702
  450SOL     OW13380   4.078   6.533   0.967
  450SOL    HW113381   4.167   6.541   1.012
  450SOL    HW213382   4.011   6.496   1.031
  451SOL     OW13383   4.539   4.713   5.417
  451SOL    HW113384   4.594   4.752   5.343
  451SOL    HW213385   4.564   4.617   5.431
  452SOL     OW13386   0.344   7.315   6.245
  452SOL    HW113387   0.328   7.412   6.262
  452SOL    HW213388   0.377   7.302   6.151
  453SOL     OW13389   9.260   2.758   5.951
  453SOL    HW113390   9.224   2.784   6.041
  453SOL    HW213391   9.201   2.687   5.912
  454SOL     OW13392   4.376   6.507   0.091
  454SOL    HW113393   4.460   6.472   0.132
  454SOL    HW213394   4.398   6.588   0.036
  455SOL     OW13395   3.826   1.900   0.392
  455SOL    HW113396   3.801   1.859   0.305
  455SOL    HW213397   3.754   1.963   0.421
  456SOL     OW13398   4.742   7.206   6.522
  456SOL    HW113399   4.654   7.194   6.568
  456SOL    HW213400   4.803   7.130   6.547
  457SOL     OW13401   7.800   0.340   0.758
  457SOL    HW113402   7.751   0.406   0.815
  457SOL    HW213403   7.869   0.292   0.813
  458SOL     OW13404   3.484   6.169   0.140
  458SOL    HW113405   3.531   6.177   0.227
  458SOL    HW213406   3.416   6.243   0.132
  459SOL     OW13407   7.360   5.295   5.204
  459SOL    HW113408   7.317   5.363   5.145
  459SOL    HW213409   7.429   5.244   5.152
  460SOL     OW13410   4.167   6.444   0.355
  460SOL    HW113411   4.098   6.424   0.285
  460SOL    HW213412   4.182   6.363   0.412
  461SOL     OW13413   9.468   5.425   0.264
  461SOL    HW113414   9.412   5.356   0.218
  461SOL    HW213415   9.451   5.421   0.363
  462SOL     OW13416   6.706   3.246   5.544
  462SOL    HW113417   6.763   3.328   5.544
  462SOL    HW213418   6.615   3.270   5.510
  463SOL     OW13419   3.538   4.974   5.480
  463SOL    HW113420   3.547   4.995   5.577
  463SOL    HW213421   3.508   4.880   5.468
  464SOL     OW13422   0.034   4.379   0.037
  464SOL    HW113423   0.061   4.475   0.026
  464SOL    HW213424   0.108   4.329   0.082
  465SOL     OW13425   0.107   1.940   5.595
  465SOL    HW113426   0.062   1.915   5.510
  465SOL    HW213427   0.057   1.900   5.672
  466SOL     OW13428   3.544   3.665   0.624
  466SOL    HW113429   3.539   3.714   0.711
  466SOL    HW213430   3.550   3.730   0.549
  467SOL     OW13431   1.808   7.302   6.367
  467SOL    HW113432   1.785   7.338   6.457
  467SOL    HW213433   1.862   7.370   6.317
  468SOL     OW13434   9.111   2.931   5.732
  468SOL    HW113435   9.085   3.020   5.767
  468SOL    HW213436   9.175   2.888   5.796
  469SOL     OW13437   1.925   1.495   6.490
  469SOL    HW113438   1.836   1.540   6.503
  469SOL    HW213439   1.991   1.536   6.553
  470SOL     OW13440   6.511   3.021   0.472
  470SOL    HW113441   6.445   3.026   0.397
  470SOL    HW213442   6.601   3.053   0.440
  471SOL     OW13443   2.314   5.762   1.129
  471SOL    HW113444   2.311   5.820   1.210
  471SOL    HW213445   2.408   5.757   1.095
  472SOL     OW13446   9.155   2.897   6.200
  472SOL    HW113447   9.097   2.965   6.155
  472SOL    HW213448   9.116   2.873   6.289
  473SOL     OW13449   6.262   7.673   0.068
  473SOL    HW113450   6.265   7.620   0.152
  473SOL    HW213451   6.234   7.614  -0.008
  474SOL     OW13452   5.171   5.349   0.287
  474SOL    HW113453   5.096   5.294   0.325
  474SOL    HW213454   5.163   5.351   0.187
  475SOL     OW13455   9.172   5.403   6.082
  475SOL    HW113456   9.216   5.320   6.050
  475SOL    HW213457   9.142   5.391   6.177
  476SOL     OW13458   9.027   3.131   6.212
  476SOL    HW113459   9.062   3.216   6.173
  476SOL    HW213460   8.937   3.148   6.254
  477SOL     OW13461   1.029   0.425   6.355
  477SOL    HW113462   1.063   0.400   6.446
  477SOL    HW213463   1.024   0.525   6.349
  478SOL     OW13464   2.958   6.509   6.292
  478SOL    HW113465   2.885   6.547   6.235
  478SOL    HW213466   2.957   6.553   6.382
  479SOL     OW13467   4.305   0.586   5.301
  479SOL    HW113468   4.255   0.505   5.269
  479SOL    HW213469   4.353   0.628   5.224
  480SOL     OW13470   7.362   3.647   6.665
  480SOL    HW113471   7.319   3.570   6.618
  480SOL    HW213472   7.371   3.625   6.762
  481SOL     OW13473   2.042   8.405   0.953
  481SOL    HW113474   1.996   8.340   0.893
  481SOL    HW213475   2.138   8.379   0.964
  482SOL     OW13476   9.315   4.881   0.545
  482SOL    HW113477   9.365   4.822   0.609
  482SOL    HW213478   9.297   4.830   0.461
  483SOL     OW13479   6.286   6.701   0.121
  483SOL    HW113480   6.341   6.617   0.123
  483SOL    HW213481   6.344   6.778   0.097
  484SOL     OW13482   8.857   4.789   6.670
  484SOL    HW113483   8.933   4.731   6.699
  484SOL    HW213484   8.847   4.866   6.734
  485SOL     OW13485   7.352   7.427   6.055
  485SOL    HW113486   7.287   7.352   6.069
  485SOL    HW213487   7.420   7.426   6.128
  486SOL     OW13488   3.030   7.662   6.152
  486SOL    HW113489   2.953   7.695   6.207
  486SOL    HW213490   3.038   7.717   6.069
  487SOL     OW13491   0.860   6.593   4.799
  487SOL    HW113492   0.951   6.553   4.798
  487SOL    HW213493   0.834   6.614   4.894
  488SOL     OW13494   0.247   6.953   0.446
  488SOL    HW113495   0.307   7.001   0.383
  488SOL    HW213496   0.289   6.866   0.472
  489SOL     OW13497   5.310   5.521   0.426
  489SOL    HW113498   5.255   5.455   0.375
  489SOL    HW213499   5.254   5.600   0.451
  490SOL     OW13500   0.155   7.650   6.676
  490SOL    HW113501   0.191   7.643   6.769
  490SOL    HW213502   0.104   7.567   6.654
  491SOL     OW13503   4.896   7.969   5.444
  491SOL    HW113504   4.916   7.895   5.508
  491SOL    HW213505   4.922   7.941   5.352
  492SOL     OW13506   6.762   3.532   0.067
  492SOL    HW113507   6.836   3.519   0.001
  492SOL    HW213508   6.674   3.524   0.020
  493SOL     OW13509   1.870   4.545   4.621
  493SOL    HW113510   1.850   4.448   4.631
  493SOL    HW213511   1.786   4.595   4.603
  494SOL     OW13512   8.125   2.509   5.709
  494SOL    HW113513   8.125   2.557   5.621
  494SOL    HW213514   8.127   2.410   5.693
  495SOL     OW13515   4.319   5.790   0.114
  495SOL    HW113516   4.318   5.695   0.146
  495SOL    HW213517   4.413   5.822   0.107
  496SOL     OW13518   8.760   7.462   6.334
  496SOL    HW113519   8.672   7.452   6.380
  496SOL    HW213520   8.775   7.385   6.272
  497SOL     OW13521   0.556   4.738   5.376
  497SOL    HW113522   0.627   4.688   5.327
  497SOL    HW213523   0.599   4.796   5.446
  498SOL     OW13524   2.038   4.485   0.838
  498SOL    HW113525   2.097   4.460   0.915
  498SOL    HW213526   1.948   4.510   0.872
  499SOL     OW13527   5.871   7.858   2.055
  499SOL    HW113528   5.942   7.883   2.121
  499SOL    HW213529   5.891   7.768   2.017
  500SOL     OW13530   2.497   1.235   5.761
  500SOL    HW113531   2.457   1.315   5.716
  500SOL    HW213532   2.547   1.266   5.843
  501SOL     OW13533   5.742   1.987   1.542
  501SOL    HW113534   5.738   1.908   1.602
  501SOL    HW213535   5.837   2.003   1.514
  502SOL     OW13536   1.147   5.541   4.550
  502SOL    HW113537   1.072   5.478   4.570
  502SOL    HW213538   1.177   5.529   4.456
  503SOL     OW13539   8.016   6.204   5.547
  503SOL    HW113540   7.919   6.225   5.557
  503SOL    HW213541   8.071   6.274   5.592
  504SOL     OW13542   0.842   6.847   5.648
  504SOL    HW113543   0.910   6.857   5.575
  504SOL    HW213544   0.751   6.838   5.606
  505SOL     OW13545   1.787   3.792   0.311
  505SOL    HW113546   1.706   3.825   0.359
  505SOL    HW213547   1.806   3.698   0.339
  506SOL     OW13548   0.049   7.548   6.426
  506SOL    HW113549   0.013   7.641   6.429
  506SOL    HW213550  -0.017   7.487   6.382
  507SOL     OW13551   1.340   7.136   0.762
  507SOL    HW113552   1.272   7.202   0.793
  507SOL    HW213553   1.335   7.053   0.819
  508SOL     OW13554   5.534   1.964   0.021
  508SOL    HW113555   5.512   1.893   0.088
  508SOL    HW213556   5.491   1.943  -0.066
  509SOL     OW13557   4.897   5.649   4.952
  509SOL    HW113558   4.857   5.711   4.884
  509SOL    HW213559   4.980   5.609   4.915
  510SOL     OW13560   8.998   4.711   5.042
  510SOL    HW113561   8.935   4.772   5.090
  510SOL    HW213562   8.972   4.616   5.058
  511SOL     OW13563   5.839   5.502   0.290
  511SOL    HW113564   5.754   5.531   0.335
  511SOL    HW213565   5.917   5.551   0.331
  512SOL     OW13566   1.617   1.236   0.892
  512SOL    HW113567   1.638   1.283   0.978
  512SOL    HW213568   1.522   1.207   0.891
  513SOL     OW13569   7.827   0.528   6.447
  513SOL    HW113570   7.754   0.478   6.494
  513SOL    HW213571   7.843   0.487   6.357
  514SOL     OW13572   4.603   7.857   6.088
  514SOL    HW113573   4.695   7.883   6.057
  514SOL    HW213574   4.593   7.757   6.082
  515SOL     OW13575   1.743   1.501   1.593
  515SOL    HW113576   1.838   1.480   1.618
  515SOL    HW213577   1.680   1.451   1.652
  516SOL     OW13578   8.358   7.277   0.605
  516SOL    HW113579   8.377   7.200   0.666
  516SOL    HW213580   8.440   7.334   0.597
  517SOL     OW13581   1.191   4.305   1.146
  517SOL    HW113582   1.272   4.313   1.205
  517SOL    HW213583   1.114   4.353   1.189
  518SOL     OW13584   6.586   7.168   0.886
  518SOL    HW113585   6.577   7.241   0.954
  518SOL    HW213586   6.626   7.087   0.929
  519SOL     OW13587   1.934   7.601   6.647
  519SOL    HW113588   2.024   7.623   6.608
  519SOL    HW213589   1.920   7.653   6.730
  520SOL     OW13590   1.215   4.199   0.040
  520SOL    HW113591   1.203   4.106   0.004
  520SOL    HW213592   1.287   4.198   0.110
  521SOL     OW13593   4.434   3.641   1.241
  521SOL    HW113594   4.423   3.607   1.335
  521SOL    HW213595   4.364   3.600   1.182
  522SOL     OW13596   3.583   2.034   0.052
  522SOL    HW113597   3.655   2.043  -0.018
  522SOL    HW213598   3.495   2.022   0.007
  523SOL     OW13599   0.951   6.640   5.124
  523SOL    HW113600   0.900   6.685   5.197
  523SOL    HW213601   1.006   6.566   5.163
  524SOL     OW13602   2.147   1.849   6.394
  524SOL    HW113603   2.162   1.805   6.305
  524SOL    HW213604   2.231   1.845   6.448
  525SOL     OW13605   5.950   3.644   0.614
  525SOL    HW113606   5.862   3.659   0.570
  525SOL    HW213607   5.951   3.690   0.703
  526SOL     OW13608   2.802   4.232   6.061
  526SOL    HW113609   2.842   4.322   6.043
  526SOL    HW213610   2.731   4.212   5.993
  527SOL     OW13611   8.692   2.649   0.783
  527SOL    HW113612   8.764   2.626   0.848
  527SOL    HW213613   8.663   2.744   0.796
  528SOL     OW13614   8.525   0.568   5.637
  528SOL    HW113615   8.548   0.666   5.637
  528SOL    HW213616   8.584   0.520   5.702
  529SOL     OW13617   2.892   7.017   0.762
  529SOL    HW113618   2.950   6.982   0.836
  529SOL    HW213619   2.796   7.013   0.791
  530SOL     OW13620   4.437   4.041   0.042
  530SOL    HW113621   4.490   3.978  -0.015
  530SOL    HW213622   4.408   4.119  -0.014
  531SOL     OW13623   3.224   8.007   0.109
  531SOL    HW113624   3.311   8.026   0.156
  531SOL    HW213625   3.216   8.069   0.031
  532SOL     OW13626   0.936   1.031   6.369
  532SOL    HW113627   0.961   1.022   6.465
  532SOL    HW213628   0.887   1.117   6.355
  533SOL     OW13629   1.520   1.779   0.228
  533SOL    HW113630   1.506   1.800   0.325
  533SOL    HW213631   1.617   1.769   0.210
  534SOL     OW13632   0.485   2.400   1.297
  534SOL    HW113633   0.462   2.477   1.237
  534SOL    HW213634   0.554   2.430   1.363
  535SOL     OW13635   5.570   7.647   0.897
  535SOL    HW113636   5.635   7.715   0.863
  535SOL    HW213637   5.529   7.680   0.982
  536SOL     OW13638   3.545   5.508   5.594
  536SOL    HW113639   3.540   5.515   5.693
  536SOL    HW213640   3.456   5.478   5.559
  537SOL     OW13641   4.074   3.371   6.384
  537SOL    HW113642   3.985   3.332   6.409
  537SOL    HW213643   4.136   3.297   6.358
  538SOL     OW13644   2.447   0.076   5.377
  538SOL    HW113645   2.544   0.087   5.397
  538SOL    HW213646   2.412   0.158   5.332
  539SOL     OW13647   5.544   3.266   0.494
  539SOL    HW113648   5.597   3.240   0.575
  539SOL    HW213649   5.519   3.183   0.443
  540SOL     OW13650   7.148   1.941   6.031
  540SOL    HW113651   7.181   1.931   5.937
  540SOL    HW213652   7.192   1.872   6.088
  541SOL     OW13653   2.594   1.519   6.039
  541SOL    HW113654   2.649   1.436   6.039
  541SOL    HW213655   2.534   1.519   5.958
  542SOL     OW13656   4.584   7.411   0.074
  542SOL    HW113657   4.675   7.419   0.114
  542SOL    HW213658   4.552   7.502   0.047
  543SOL     OW13659   7.759   4.261   0.546
  543SOL    HW113660   7.779   4.342   0.601
  543SOL    HW213661   7.845   4.221   0.513
  544SOL     OW13662   0.081   3.261   5.663
  544SOL    HW113663   0.125   3.253   5.752
  544SOL    HW213664   0.151   3.270   5.592
  545SOL     OW13665   2.822   7.981   1.491
  545SOL    HW113666   2.862   8.063   1.532
  545SOL    HW213667   2.893   7.912   1.478
  546SOL     OW13668   0.931   5.445   1.354
  546SOL    HW113669   0.884   5.532   1.371
  546SOL    HW213670   1.023   5.449   1.391
  547SOL     OW13671   1.479   4.247   6.563
  547SOL    HW113672   1.512   4.154   6.575
  547SOL    HW213673   1.435   4.279   6.647
  548SOL     OW13674   1.035   2.105   0.763
  548SOL    HW113675   0.971   2.028   0.763
  548SOL    HW213676   1.118   2.079   0.714
  549SOL     OW13677   3.554   6.154   6.220
  549SOL    HW113678   3.635   6.175   6.274
  549SOL    HW213679   3.559   6.202   6.132
  550SOL     OW13680   1.021   7.774   5.922
  550SOL    HW113681   1.065   7.858   5.892
  550SOL    HW213682   1.020   7.770   6.022
  551SOL     OW13683   7.211   7.166   1.098
  551SOL    HW113684   7.208   7.161   1.198
  551SOL    HW213685   7.228   7.261   1.070
  552SOL     OW13686   3.368   2.789   6.371
  552SOL    HW113687   3.457   2.789   6.325
  552SOL    HW213688   3.378   2.752   6.464
  553SOL     OW13689   2.684   7.060   1.516
  553SOL    HW113690   2.728   7.136   1.563
  553SOL    HW213691   2.587   7.057   1.540
  554SOL     OW13692   8.082   7.713   6.364
  554SOL    HW113693   8.069   7.664   6.278
  554SOL    HW213694   8.013   7.785   6.373
  555SOL     OW13695   6.834   3.574   6.340
  555SOL    HW113696   6.801   3.667   6.324
  555SOL    HW213697   6.755   3.515   6.359
  556SOL     OW13698   8.198   6.830   5.947
  556SOL    HW113699   8.237   6.857   5.859
  556SOL    HW213700   8.246   6.878   6.021
  557SOL     OW13701   0.676   6.064   0.927
  557SOL    HW113702   0.725   6.065   0.840
  557SOL    HW213703   0.592   6.117   0.918
  558SOL     OW13704   5.343   1.278   0.913
  558SOL    HW113705   5.423   1.223   0.887
  558SOL    HW213706   5.263   1.219   0.918
  559SOL     OW13707   8.415   8.049   5.416
  559SOL    HW113708   8.402   8.144   5.445
  559SOL    HW213709   8.389   8.040   5.319
  560SOL     OW13710   5.337   0.267   0.618
  560SOL    HW113711   5.374   0.348   0.664
  560SOL    HW213712   5.305   0.201   0.687
  561SOL     OW13713   9.089   7.718   6.194
  561SOL    HW113714   9.120   7.803   6.151
  561SOL    HW213715   8.992   7.725   6.214
  562SOL     OW13716   5.333   1.056   1.609
  562SOL    HW113717   5.373   0.973   1.569
  562SOL    HW213718   5.399   1.098   1.671
  563SOL     OW13719   0.651   3.007   5.316
  563SOL    HW113720   0.567   2.959   5.290
  563SOL    HW213721   0.693   3.046   5.234
  564SOL     OW13722   1.684   2.021   5.029
  564SOL    HW113723   1.659   1.969   4.947
  564SOL    HW213724   1.706   2.115   5.003
  565SOL     OW13725   9.124   1.384   6.070
  565SOL    HW113726   9.049   1.420   6.015
  565SOL    HW213727   9.187   1.458   6.093
  566SOL     OW13728   6.067   0.964   5.593
  566SOL    HW113729   6.141   1.013   5.547
  566SOL    HW213730   6.001   0.933   5.526
  567SOL     OW13731   5.946   3.309   1.005
  567SOL    HW113732   5.905   3.365   0.933
  567SOL    HW213733   5.951   3.363   1.089
  568SOL     OW13734   3.399   4.562   6.104
  568SOL    HW113735   3.494   4.590   6.092
  568SOL    HW213736   3.355   4.557   6.014
  569SOL     OW13737   6.083   2.463   6.242
  569SOL    HW113738   6.157   2.517   6.282
  569SOL    HW213739   5.995   2.498   6.274
  570SOL     OW13740   0.139   7.352   0.260
  570SOL    HW113741   0.135   7.442   0.304
  570SOL    HW213742   0.205   7.355   0.184
  571SOL     OW13743   2.515   1.549   0.747
  571SOL    HW113744   2.556   1.548   0.656
  571SOL    HW213745   2.586   1.531   0.816
  572SOL     OW13746   3.292   6.589   0.766
  572SOL    HW113747   3.286   6.684   0.796
  572SOL    HW213748   3.327   6.532   0.840
  573SOL     OW13749   5.423   0.667   6.384
  573SOL    HW113750   5.381   0.752   6.352
  573SOL    HW213751   5.405   0.594   6.318
  574SOL     OW13752   7.691   2.060   0.332
  574SOL    HW113753   7.612   2.122   0.322
  574SOL    HW213754   7.664   1.980   0.387
  575SOL     OW13755   0.697   4.933   5.522
  575SOL    HW113756   0.788   4.893   5.526
  575SOL    HW213757   0.700   5.017   5.466
  576SOL     OW13758   9.350   7.610   5.405
  576SOL    HW113759   9.443   7.575   5.391
  576SOL    HW213760   9.338   7.632   5.502
  577SOL     OW13761   8.561   3.623   0.590
  577SOL    HW113762   8.480   3.573   0.560
  577SOL    HW213763   8.629   3.622   0.516
  578SOL     OW13764   8.576   6.881   5.755
  578SOL    HW113765   8.497   6.851   5.703
  578SOL    HW213766   8.659   6.871   5.699
  579SOL     OW13767   5.560   5.118   0.915
  579SOL    HW113768   5.656   5.135   0.936
  579SOL    HW213769   5.509   5.204   0.923
  580SOL     OW13770   0.113   5.875   0.741
  580SOL    HW113771   0.212   5.865   0.754
  580SOL    HW213772   0.089   5.972   0.742
  581SOL     OW13773   0.926   8.254   0.570
  581SOL    HW113774   0.994   8.181   0.561
  581SOL    HW213775   0.910   8.273   0.667
  582SOL     OW13776   6.701   7.163   5.352
  582SOL    HW113777   6.758   7.118   5.421
  582SOL    HW213778   6.604   7.143   5.371
  583SOL     OW13779   9.415   1.034   6.245
  583SOL    HW113780   9.420   1.095   6.324
  583SOL    HW213781   9.493   0.972   6.245
  584SOL     OW13782   0.626   0.481   0.786
  584SOL    HW113783   0.628   0.548   0.859
  584SOL    HW213784   0.715   0.434   0.781
  585SOL     OW13785   4.411   7.821   0.570
  585SOL    HW113786   4.464   7.792   0.650
  585SOL    HW213787   4.467   7.811   0.488
  586SOL     OW13788   7.100   0.958   5.974
  586SOL    HW113789   7.110   1.053   6.001
  586SOL    HW213790   7.173   0.934   5.909
  587SOL     OW13791   8.697   5.583   5.442
  587SOL    HW113792   8.736   5.601   5.352
  587SOL    HW213793   8.767   5.599   5.512
  588SOL     OW13794   2.902   2.038   2.392
  588SOL    HW113795   2.936   1.966   2.453
  588SOL    HW213796   2.941   2.126   2.420
  589SOL     OW13797   5.591   5.184   5.178
  589SOL    HW113798   5.568   5.092   5.147
  589SOL    HW213799   5.551   5.200   5.268
  590SOL     OW13800   1.038   3.786   0.004
  590SOL    HW113801   1.074   3.795   0.097
  590SOL    HW213802   1.051   3.872  -0.046
  591SOL     OW13803   6.264   8.021   5.336
  591SOL    HW113804   6.357   8.036   5.369
  591SOL    HW213805   6.255   8.056   5.243
  592SOL     OW13806   3.943   8.140   6.271
  592SOL    HW113807   3.934   8.098   6.181
  592SOL    HW213808   3.909   8.077   6.341
  593SOL     OW13809   6.442   6.763   0.582
  593SOL    HW113810   6.405   6.674   0.608
  593SOL    HW213811   6.491   6.755   0.496
  594SOL     OW13812   5.877   6.143   1.310
  594SOL    HW113813   5.922   6.229   1.288
  594SOL    HW213814   5.884   6.126   1.409
  595SOL     OW13815   3.205   6.064   5.257
  595SOL    HW113816   3.226   5.966   5.247
  595SOL    HW213817   3.279   6.118   5.218
  596SOL     OW13818   8.154   2.060   5.851
  596SOL    HW113819   8.121   2.117   5.775
  596SOL    HW213820   8.109   1.971   5.848
  597SOL     OW13821   4.932   5.341   5.987
  597SOL    HW113822   4.972   5.352   5.897
  597SOL    HW213823   4.919   5.244   6.006
  598SOL     OW13824   0.700   8.440   5.768
  598SOL    HW113825   0.611   8.408   5.736
  598SOL    HW213826   0.702   8.441   5.868
  599SOL     OW13827   0.421   8.242   6.215
  599SOL    HW113828   0.501   8.223   6.158
  599SOL    HW213829   0.417   8.174   6.289
  600SOL     OW13830   4.439   7.956   0.891
  600SOL    HW113831   4.365   7.888   0.894
  600SOL    HW213832   4.490   7.945   0.806
  601SOL     OW13833   5.109   5.682   0.773
  601SOL    HW113834   5.181   5.708   0.838
  601SOL    HW213835   5.088   5.760   0.714
  602SOL     OW13836   0.159   1.175   5.584
  602SOL    HW113837   0.117   1.148   5.670
  602SOL    HW213838   0.235   1.114   5.562
  603SOL     OW13839   7.325   2.501   0.867
  603SOL    HW113840   7.398   2.537   0.925
  603SOL    HW213841   7.259   2.574   0.847
  604SOL     OW13842   0.574   0.645   1.064
  604SOL    HW113843   0.626   0.713   1.116
  604SOL    HW213844   0.479   0.645   1.095
  605SOL     OW13845   7.901   5.929   0.562
  605SOL    HW113846   7.846   6.012   0.566
  605SOL    HW213847   7.969   5.931   0.636
  606SOL     OW13848   3.636   6.812   0.320
  606SOL    HW113849   3.668   6.766   0.403
  606SOL    HW213850   3.631   6.910   0.336
  607SOL     OW13851   4.007   2.951   0.700
  607SOL    HW113852   4.026   3.010   0.621
  607SOL    HW213853   3.908   2.936   0.707
  608SOL     OW13854   8.368   6.326   5.612
  608SOL    HW113855   8.387   6.260   5.685
  608SOL    HW213856   8.454   6.360   5.574
  609SOL     OW13857   4.947   7.307   0.703
  609SOL    HW113858   4.998   7.388   0.733
  609SOL    HW213859   4.885   7.278   0.775
  610SOL     OW13860   8.508   2.199   6.114
  610SOL    HW113861   8.462   2.219   6.028
  610SOL    HW213862   8.527   2.101   6.120
  611SOL     OW13863   3.578   0.815   0.696
  611SOL    HW113864   3.505   0.764   0.743
  611SOL    HW213865   3.542   0.855   0.612
  612SOL     OW13866   4.433   3.969   0.675
  612SOL    HW113867   4.383   3.943   0.758
  612SOL    HW213868   4.432   3.892   0.611
  613SOL     OW13869   0.478   1.099   0.212
  613SOL    HW113870   0.555   1.035   0.212
  613SOL    HW213871   0.429   1.093   0.125
  614SOL     OW13872   7.086   5.111   5.522
  614SOL    HW113873   7.131   5.083   5.438
  614SOL    HW213874   7.032   5.035   5.558
  615SOL     OW13875   2.126   7.331   0.389
  615SOL    HW113876   2.178   7.290   0.314
  615SOL    HW213877   2.064   7.262   0.428
  616SOL     OW13878   5.186   7.003   1.725
  616SOL    HW113879   5.243   7.085   1.720
  616SOL    HW213880   5.138   7.001   1.813
  617SOL     OW13881   5.116   8.412   5.452
  617SOL    HW113882   5.103   8.468   5.370
  617SOL    HW213883   5.046   8.436   5.520
  618SOL     OW13884   3.626   6.532   6.348
  618SOL    HW113885   3.702   6.468   6.340
  618SOL    HW213886   3.627   6.575   6.439
  619SOL     OW13887   3.080   6.747   5.935
  619SOL    HW113888   3.150   6.783   5.997
  619SOL    HW213889   3.085   6.648   5.933
  620SOL     OW13890   7.924   0.345   6.249
  620SOL    HW113891   8.010   0.396   6.256
  620SOL    HW213892   7.891   0.349   6.155
  621SOL     OW13893   9.113   3.767   0.149
  621SOL    HW113894   9.117   3.706   0.070
  621SOL    HW213895   9.205   3.802   0.169
  622SOL     OW13896   7.360   6.274   5.406
  622SOL    HW113897   7.266   6.309   5.405
  622SOL    HW213898   7.394   6.267   5.313
  623SOL     OW13899   8.768   6.119   6.033
  623SOL    HW113900   8.804   6.207   6.063
  623SOL    HW213901   8.829   6.080   5.963
  624SOL     OW13902   2.306   7.725   1.435
  624SOL    HW113903   2.299   7.629   1.462
  624SOL    HW213904   2.300   7.783   1.516
  625SOL     OW13905   4.441   7.634   6.711
  625SOL    HW113906   4.345   7.636   6.736
  625SOL    HW213907   4.450   7.632   6.611
  626SOL     OW13908   8.513   5.424   0.688
  626SOL    HW113909   8.547   5.331   0.673
  626SOL    HW213910   8.588   5.489   0.673
  627SOL     OW13911   6.166   0.719   5.696
  627SOL    HW113912   6.159   0.819   5.690
  627SOL    HW213913   6.222   0.685   5.621
  628SOL     OW13914   8.924   6.321   4.940
  628SOL    HW113915   8.910   6.290   4.845
  628SOL    HW213916   8.888   6.252   5.003
  629SOL     OW13917   0.547   7.475   5.469
  629SOL    HW113918   0.541   7.390   5.522
  629SOL    HW213919   0.456   7.500   5.436
  630SOL     OW13920   6.048   5.941   6.339
  630SOL    HW113921   5.950   5.953   6.352
  630SOL    HW213922   6.091   6.029   6.319
  631SOL     OW13923   5.769   2.733   6.165
  631SOL    HW113924   5.759   2.681   6.251
  631SOL    HW213925   5.859   2.714   6.126
  632SOL     OW13926   9.254   5.806   6.160
  632SOL    HW113927   9.256   5.879   6.228
  632SOL    HW213928   9.162   5.769   6.152
  633SOL     OW13929   7.099   3.288   6.662
  633SOL    HW113930   7.164   3.216   6.635
  633SOL    HW213931   7.020   3.246   6.707
  634SOL     OW13932   3.318   2.209   6.461
  634SOL    HW113933   3.275   2.173   6.544
  634SOL    HW213934   3.414   2.230   6.479
  635SOL     OW13935   1.816   3.692   0.799
  635SOL    HW113936   1.800   3.610   0.854
  635SOL    HW213937   1.851   3.665   0.709
  636SOL     OW13938   1.943   4.827   4.833
  636SOL    HW113939   2.033   4.796   4.803
  636SOL    HW213940   1.881   4.831   4.755
  637SOL     OW13941   4.594   4.850   0.121
  637SOL    HW113942   4.596   4.857   0.221
  637SOL    HW213943   4.548   4.765   0.095
  638SOL     OW13944   2.638   3.976   6.538
  638SOL    HW113945   2.607   3.969   6.443
  638SOL    HW213946   2.582   4.043   6.586
  639SOL     OW13947   4.834   5.785   6.528
  639SOL    HW113948   4.820   5.693   6.566
  639SOL    HW213949   4.834   5.852   6.603
  640SOL     OW13950   7.890   3.699   0.801
  640SOL    HW113951   7.849   3.629   0.741
  640SOL    HW213952   7.880   3.671   0.896
  641SOL     OW13953   1.725   0.763   0.073
  641SOL    HW113954   1.655   0.832   0.092
  641SOL    HW213955   1.687   0.693   0.013
  642SOL     OW13956   2.493   3.587   6.695
  642SOL    HW113957   2.404   3.580   6.651
  642SOL    HW213958   2.493   3.535   6.780
  643SOL     OW13959   6.933   5.028   0.697
  643SOL    HW113960   6.848   5.077   0.719
  643SOL    HW213961   6.919   4.930   0.709
  644SOL     OW13962   4.464   1.967   6.576
  644SOL    HW113963   4.371   1.932   6.584
  644SOL    HW213964   4.462   2.063   6.548
  645SOL     OW13965   4.988   5.024   0.099
  645SOL    HW113966   5.066   5.074   0.061
  645SOL    HW213967   4.934   4.985   0.025
  646SOL     OW13968   6.346   6.835   6.338
  646SOL    HW113969   6.254   6.870   6.355
  646SOL    HW213970   6.348   6.737   6.357
  647SOL     OW13971   7.648   2.464   0.235
  647SOL    HW113972   7.684   2.422   0.152
  647SOL    HW213973   7.624   2.559   0.216
  648SOL     OW13974   0.961   6.394   6.627
  648SOL    HW113975   0.941   6.337   6.706
  648SOL    HW213976   0.969   6.490   6.656
  649SOL     OW13977   4.246   4.974   0.182
  649SOL    HW113978   4.205   4.892   0.144
  649SOL    HW213979   4.346   4.962   0.189
  650SOL     OW13980   1.374   0.457   1.249
  650SOL    HW113981   1.427   0.540   1.266
  650SOL    HW213982   1.427   0.395   1.191
  651SOL     OW13983   5.833   5.041   5.843
  651SOL    HW113984   5.764   4.969   5.844
  651SOL    HW213985   5.923   5.001   5.829
  652SOL     OW13986   3.450   4.903   1.013
  652SOL    HW113987   3.443   4.965   1.091
  652SOL    HW213988   3.533   4.925   0.961
  653SOL     OW13989   3.336   3.433   0.994
  653SOL    HW113990   3.382   3.372   1.058
  653SOL    HW213991   3.239   3.438   1.017
  654SOL     OW13992   0.268   5.796   5.871
  654SOL    HW113993   0.243   5.832   5.781
  654SOL    HW213994   0.361   5.760   5.867
  655SOL     OW13995   6.118   5.742   6.164
  655SOL    HW113996   6.102   5.787   6.252
  655SOL    HW213997   6.087   5.647   6.168
  656SOL     OW13998   6.723   2.043   1.063
  656SOL    HW113999   6.782   2.118   1.093
  656SOL    HW214000   6.686   2.064   0.973
  657SOL     OW14001   5.760   6.440   0.968
  657SOL    HW114002   5.741   6.377   0.892
  657SOL    HW214003   5.673   6.470   1.008
  658SOL     OW14004   3.934   7.575   4.863
  658SOL    HW114005   4.028   7.551   4.888
  658SOL    HW214006   3.933   7.665   4.820
  659SOL     OW14007   9.140   3.591   6.658
  659SOL    HW114008   9.179   3.518   6.714
  659SOL    HW214009   9.192   3.600   6.574
  660SOL     OW14010   5.934   0.597   5.650
  660SOL    HW114011   5.895   0.669   5.593
  660SOL    HW214012   6.025   0.624   5.681
  661SOL     OW14013   0.360   0.099   4.672
  661SOL    HW114014   0.268   0.073   4.643
  661SOL    HW214015   0.384   0.187   4.632
  662SOL     OW14016   6.259   1.049   0.903
  662SOL    HW114017   6.219   1.087   0.987
  662SOL    HW214018   6.354   1.078   0.896
  663SOL     OW14019   2.867   1.536   1.264
  663SOL    HW114020   2.802   1.543   1.340
  663SOL    HW214021   2.901   1.442   1.258
  664SOL     OW14022   6.529   5.711   5.371
  664SOL    HW114023   6.437   5.723   5.334
  664SOL    HW214024   6.573   5.800   5.379
  665SOL     OW14025   4.823   5.183   1.009
  665SOL    HW114026   4.806   5.226   0.921
  665SOL    HW214027   4.896   5.115   1.000
  666SOL     OW14028   2.451   1.914   6.534
  666SOL    HW114029   2.459   2.009   6.502
  666SOL    HW214030   2.405   1.912   6.622
  667SOL     OW14031   3.542   2.589   1.406
  667SOL    HW114032   3.487   2.516   1.365
  667SOL    HW214033   3.598   2.552   1.480
  668SOL     OW14034   5.237   6.404   0.169
  668SOL    HW114035   5.147   6.376   0.204
  668SOL    HW214036   5.243   6.504   0.168
  669SOL     OW14037   3.547   1.202   1.112
  669SOL    HW114038   3.587   1.191   1.203
  669SOL    HW214039   3.618   1.223   1.046
  670SOL     OW14040   1.605   6.588   4.560
  670SOL    HW114041   1.677   6.520   4.547
  670SOL    HW214042   1.577   6.626   4.472
  671SOL     OW14043   1.818   5.051   5.298
  671SOL    HW114044   1.812   5.003   5.211
  671SOL    HW214045   1.879   5.129   5.290
  672SOL     OW14046   6.556   7.682   1.689
  672SOL    HW114047   6.630   7.615   1.682
  672SOL    HW214048   6.581   7.753   1.756
  673SOL     OW14049   5.567   0.280   5.852
  673SOL    HW114050   5.480   0.282   5.802
  673SOL    HW214051   5.643   0.280   5.787
  674SOL     OW14052   3.880   6.821   0.177
  674SOL    HW114053   3.797   6.806   0.232
  674SOL    HW214054   3.904   6.736   0.130
  675SOL     OW14055   3.745   5.396   0.437
  675SOL    HW114056   3.811   5.467   0.459
  675SOL    HW214057   3.775   5.347   0.354
  676SOL     OW14058   5.092   2.482   1.215
  676SOL    HW114059   5.043   2.455   1.132
  676SOL    HW214060   5.043   2.556   1.260
  677SOL     OW14061   7.963   4.189   0.895
  677SOL    HW114062   8.018   4.107   0.876
  677SOL    HW214063   8.024   4.263   0.922
  678SOL     OW14064   7.043   7.721   6.051
  678SOL    HW114065   7.111   7.678   5.991
  678SOL    HW214066   7.021   7.812   6.015
  679SOL     OW14067   6.456   4.271   0.470
  679SOL    HW114068   6.546   4.229   0.480
  679SOL    HW214069   6.394   4.206   0.425
  680SOL     OW14070   5.614   6.326   0.382
  680SOL    HW114071   5.707   6.296   0.404
  680SOL    HW214072   5.582   6.279   0.300
  681SOL     OW14073   3.422   7.336   1.665
  681SOL    HW114074   3.490   7.318   1.736
  681SOL    HW214075   3.355   7.402   1.700
  682SOL     OW14076   1.872   1.770   6.168
  682SOL    HW114077   1.782   1.756   6.126
  682SOL    HW214078   1.865   1.757   6.267
  683SOL     OW14079   1.469   8.279   6.013
  683SOL    HW114080   1.547   8.241   5.965
  683SOL    HW214081   1.428   8.351   5.956
  684SOL     OW14082   1.716   1.707   5.603
  684SOL    HW114083   1.623   1.735   5.627
  684SOL    HW214084   1.781   1.745   5.668
  685SOL     OW14085   4.730   5.401   1.352
  685SOL    HW114086   4.804   5.350   1.311
  685SOL    HW214087   4.744   5.408   1.451
  686SOL     OW14088   3.605   8.349   5.642
  686SOL    HW114089   3.622   8.252   5.626
  686SOL    HW214090   3.532   8.360   5.709
  687SOL     OW14091   0.629   5.381   5.767
  687SOL    HW114092   0.539   5.339   5.754
  687SOL    HW214093   0.622   5.454   5.835
  688SOL     OW14094   8.236   7.282   0.848
  688SOL    HW114095   8.265   7.279   0.752
  688SOL    HW214096   8.291   7.350   0.897
  689SOL     OW14097   3.555   7.065   0.797
  689SOL    HW114098   3.621   7.050   0.724
  689SOL    HW214099   3.601   7.102   0.878
  690SOL     OW14100   9.204   1.374   6.401
  690SOL    HW114101   9.108   1.368   6.373
  690SOL    HW214102   9.216   1.327   6.488
  691SOL     OW14103   0.808   6.889   4.822
  691SOL    HW114104   0.722   6.895   4.772
  691SOL    HW214105   0.856   6.806   4.796
  692SOL     OW14106   6.577   8.181   6.044
  692SOL    HW114107   6.504   8.139   5.991
  692SOL    HW214108   6.599   8.271   6.006
  693SOL     OW14109   5.840   5.770   0.891
  693SOL    HW114110   5.784   5.813   0.821
  693SOL    HW214111   5.937   5.786   0.871
  694SOL     OW14112   8.258   3.415   0.876
  694SOL    HW114113   8.191   3.394   0.947
  694SOL    HW214114   8.224   3.492   0.821
  695SOL     OW14115   3.995   0.272   0.104
  695SOL    HW114116   3.984   0.176   0.075
  695SOL    HW214117   4.091   0.290   0.123
  696SOL     OW14118   6.890   7.430   1.044
  696SOL    HW114119   6.950   7.458   1.119
  696SOL    HW214120   6.872   7.332   1.051
  697SOL     OW14121   8.485   6.120   5.800
  697SOL    HW114122   8.440   6.052   5.858
  697SOL    HW214123   8.572   6.083   5.767
  698SOL     OW14124   5.767   6.747   6.064
  698SOL    HW114125   5.720   6.685   6.001
  698SOL    HW214126   5.841   6.794   6.016
  699SOL     OW14127   4.099   2.990   1.424
  699SOL    HW114128   4.072   2.965   1.516
  699SOL    HW214129   4.021   3.029   1.375
  700SOL     OW14130   1.737   0.138   6.024
  700SOL    HW114131   1.785   0.104   6.105
  700SOL    HW214132   1.739   0.238   6.023
  701SOL     OW14133   7.988   1.602   6.421
  701SOL    HW114134   7.941   1.519   6.450
  701SOL    HW214135   8.028   1.588   6.330
  702SOL     OW14136   0.142   6.003   0.434
  702SOL    HW114137   0.173   5.987   0.341
  702SOL    HW214138   0.152   5.920   0.488
  703SOL     OW14139   7.340   2.742   6.253
  703SOL    HW114140   7.285   2.779   6.327
  703SOL    HW214141   7.313   2.647   6.234
  704SOL     OW14142   4.905   7.604   0.949
  704SOL    HW114143   4.851   7.668   0.894
  704SOL    HW214144   4.859   7.516   0.951
  705SOL     OW14145   8.650   1.682   6.193
  705SOL    HW114146   8.635   1.584   6.178
  705SOL    HW214147   8.716   1.716   6.125
  706SOL     OW14148   8.022   5.051   0.170
  706SOL    HW114149   8.072   5.109   0.106
  706SOL    HW214150   8.035   5.085   0.263
  707SOL     OW14151   4.582   6.423   0.943
  707SOL    HW114152   4.508   6.368   0.904
  707SOL    HW214153   4.621   6.481   0.871
  708SOL     OW14154   6.865   6.767   0.322
  708SOL    HW114155   6.804   6.769   0.243
  708SOL    HW214156   6.958   6.744   0.291
  709SOL     OW14157   3.630   6.659   5.741
  709SOL    HW114158   3.680   6.648   5.826
  709SOL    HW214159   3.570   6.580   5.727
  710SOL     OW14160   4.385   3.154   1.640
  710SOL    HW114161   4.446   3.222   1.601
  710SOL    HW214162   4.401   3.065   1.597
  711SOL     OW14163   0.036   3.772   0.918
  711SOL    HW114164   0.119   3.741   0.965
  711SOL    HW214165   0.051   3.864   0.882
  712SOL     OW14166   8.041   3.839   0.551
  712SOL    HW114167   8.062   3.926   0.595
  712SOL    HW214168   7.947   3.841   0.517
  713SOL     OW14169   4.240   3.565   6.485
  713SOL    HW114170   4.157   3.511   6.468
  713SOL    HW214171   4.314   3.530   6.429
  714SOL     OW14172   2.979   2.453   0.069
  714SOL    HW114173   2.972   2.356   0.091
  714SOL    HW214174   2.887   2.491   0.058
  715SOL     OW14175   1.800   3.214   5.275
  715SOL    HW114176   1.822   3.164   5.191
  715SOL    HW214177   1.700   3.219   5.285
  716SOL     OW14178   3.985   2.617   0.149
  716SOL    HW114179   3.891   2.583   0.152
  716SOL    HW214180   3.995   2.679   0.071
  717SOL     OW14181   0.065   4.975   5.933
  717SOL    HW114182   0.081   5.064   5.890
  717SOL    HW214183   0.083   4.982   6.032
  718SOL     OW14184   1.664   7.405   5.600
  718SOL    HW114185   1.586   7.439   5.651
  718SOL    HW214186   1.681   7.464   5.521
  719SOL     OW14187   4.587   5.169   6.168
  719SOL    HW114188   4.558   5.252   6.120
  719SOL    HW214189   4.507   5.115   6.192
  720SOL     OW14190   0.761   1.662   6.334
  720SOL    HW114191   0.733   1.710   6.251
  720SOL    HW214192   0.683   1.611   6.371
  721SOL     OW14193   4.538   3.354   1.529
  721SOL    HW114194   4.473   3.426   1.506
  721SOL    HW214195   4.629   3.381   1.499
  722SOL     OW14196   8.316   5.152   5.868
  722SOL    HW114197   8.408   5.165   5.905
  722SOL    HW214198   8.313   5.186   5.774
  723SOL     OW14199   0.085   0.525   0.374
  723SOL    HW114200   0.105   0.428   0.387
  723SOL    HW214201   0.077   0.545   0.277
  724SOL     OW14202   0.173   1.393   6.429
  724SOL    HW114203   0.164   1.487   6.462
  724SOL    HW214204   0.142   1.388   6.334
  725SOL     OW14205   0.636   1.555   5.048
  725SOL    HW114206   0.553   1.606   5.071
  725SOL    HW214207   0.667   1.582   4.957
  726SOL     OW14208   8.753   7.881   0.682
  726SOL    HW114209   8.657   7.910   0.673
  726SOL    HW214210   8.757   7.797   0.736
  727SOL     OW14211   9.023   8.264   5.294
  727SOL    HW114212   8.927   8.267   5.321
  727SOL    HW214213   9.049   8.351   5.251
  728SOL     OW14214   5.558   5.393   6.700
  728SOL    HW114215   5.516   5.472   6.745
  728SOL    HW214216   5.540   5.311   6.755
  729SOL     OW14217   8.611   2.678   5.885
  729SOL    HW114218   8.612   2.752   5.819
  729SOL    HW214219   8.595   2.715   5.977
  730SOL     OW14220   1.463   0.807   0.384
  730SOL    HW114221   1.421   0.858   0.309
  730SOL    HW214222   1.550   0.767   0.353
  731SOL     OW14223   7.003   0.716   0.188
  731SOL    HW114224   6.909   0.732   0.158
  731SOL    HW214225   7.064   0.782   0.143
  732SOL     OW14226   2.563   6.776   1.057
  732SOL    HW114227   2.491   6.804   1.120
  732SOL    HW214228   2.617   6.703   1.098
  733SOL     OW14229   2.219   3.636   6.579
  733SOL    HW114230   2.221   3.579   6.497
  733SOL    HW214231   2.198   3.731   6.554
  734SOL     OW14232   6.172   4.218   5.298
  734SOL    HW114233   6.193   4.261   5.386
  734SOL    HW214234   6.194   4.121   5.302
  735SOL     OW14235   3.822   5.634   6.162
  735SOL    HW114236   3.767   5.558   6.196
  735SOL    HW214237   3.763   5.702   6.118
  736SOL     OW14238   7.674   6.815   5.981
  736SOL    HW114239   7.600   6.835   5.917
  736SOL    HW214240   7.727   6.899   5.998
  737SOL     OW14241   1.735   4.655   5.540
  737SOL    HW114242   1.833   4.661   5.524
  737SOL    HW214243   1.685   4.693   5.462
  738SOL     OW14244   4.590   1.587   4.968
  738SOL    HW114245   4.585   1.503   5.021
  738SOL    HW214246   4.501   1.632   4.966
  739SOL     OW14247   3.553   0.563   0.418
  739SOL    HW114248   3.471   0.533   0.468
  739SOL    HW214249   3.622   0.491   0.420
  740SOL     OW14250   4.084   3.401   5.189
  740SOL    HW114251   4.059   3.305   5.200
  740SOL    HW214252   4.025   3.444   5.121
  741SOL     OW14253   5.200   2.215   1.256
  741SOL    HW114254   5.174   2.172   1.170
  741SOL    HW214255   5.167   2.310   1.258
  742SOL     OW14256   4.100   2.686   0.523
  742SOL    HW114257   4.106   2.703   0.621
  742SOL    HW214258   4.045   2.758   0.480
  743SOL     OW14259   5.337   8.183   1.848
  743SOL    HW114260   5.436   8.193   1.854
  743SOL    HW214261   5.298   8.177   1.939
  744SOL     OW14262   5.661   2.250   1.152
  744SOL    HW114263   5.573   2.277   1.190
  744SOL    HW214264   5.651   2.230   1.054
  745SOL     OW14265   2.602   0.582   6.433
  745SOL    HW114266   2.580   0.552   6.526
  745SOL    HW214267   2.517   0.601   6.383
  746SOL     OW14268   8.197   4.371   5.998
  746SOL    HW114269   8.227   4.457   5.957
  746SOL    HW214270   8.257   4.348   6.075
  747SOL     OW14271   1.841   0.149   5.389
  747SOL    HW114272   1.806   0.063   5.352
  747SOL    HW214273   1.853   0.215   5.315
  748SOL     OW14274   5.593   5.563   0.949
  748SOL    HW114275   5.539   5.643   0.973
  748SOL    HW214276   5.532   5.487   0.923
  749SOL     OW14277   6.333   1.071   1.235
  749SOL    HW114278   6.389   0.998   1.196
  749SOL    HW214279   6.239   1.041   1.244
  750SOL     OW14280   1.436   6.167   5.412
  750SOL    HW114281   1.402   6.105   5.341
  750SOL    HW214282   1.442   6.117   5.499
  751SOL     OW14283   6.782   3.766   0.959
  751SOL    HW114284   6.718   3.690   0.958
  751SOL    HW214285   6.858   3.747   0.897
  752SOL     OW14286   3.811   5.356   6.411
  752SOL    HW114287   3.740   5.379   6.343
  752SOL    HW214288   3.899   5.350   6.365
  753SOL     OW14289   5.804   1.476   1.373
  753SOL    HW114290   5.737   1.517   1.436
  753SOL    HW214291   5.834   1.388   1.409
  754SOL     OW14292   2.320   1.017   0.287
  754SOL    HW114293   2.319   1.069   0.373
  754SOL    HW214294   2.414   1.007   0.256
  755SOL     OW14295   5.768   0.149   5.478
  755SOL    HW114296   5.758   0.086   5.555
  755SOL    HW214297   5.681   0.198   5.463
  756SOL     OW14298   0.902   0.208   5.025
  756SOL    HW114299   0.978   0.270   5.003
  756SOL    HW214300   0.830   0.259   5.071
  757SOL     OW14301   6.352   3.260   1.505
  757SOL    HW114302   6.284   3.332   1.521
  757SOL    HW214303   6.422   3.294   1.442
  758SOL     OW14304   7.080   0.242   1.010
  758SOL    HW114305   7.157   0.245   1.074
  758SOL    HW214306   7.114   0.249   0.917
  759SOL     OW14307   2.935   4.487   6.167
  759SOL    HW114308   2.960   4.553   6.096
  759SOL    HW214309   3.018   4.453   6.211
  760SOL     OW14310   8.889   2.583   6.231
  760SOL    HW114311   8.984   2.555   6.242
  760SOL    HW214312   8.839   2.515   6.178
  761SOL     OW14313   7.181   4.406   6.713
  761SOL    HW114314   7.214   4.454   6.794
  761SOL    HW214315   7.088   4.373   6.729
  762SOL     OW14316   4.559   6.104   0.910
  762SOL    HW114317   4.484   6.123   0.847
  762SOL    HW214318   4.526   6.114   1.005
  763SOL     OW14319   4.692   6.990   0.053
  763SOL    HW114320   4.604   6.983   0.005
  763SOL    HW214321   4.676   6.997   0.151
  764SOL     OW14322   4.953   7.516   6.564
  764SOL    HW114323   4.986   7.458   6.489
  764SOL    HW214324   4.890   7.584   6.527
  765SOL     OW14325   5.122   2.325   6.259
  765SOL    HW114326   5.152   2.401   6.316
  765SOL    HW214327   5.064   2.359   6.185
  766SOL     OW14328   2.615   4.141   5.901
  766SOL    HW114329   2.555   4.061   5.917
  766SOL    HW214330   2.680   4.120   5.828
  767SOL     OW14331   4.344   7.133   1.851
  767SOL    HW114332   4.422   7.174   1.899
  767SOL    HW214333   4.281   7.094   1.918
  768SOL     OW14334   2.800   7.600   6.321
  768SOL    HW114335   2.798   7.623   6.418
  768SOL    HW214336   2.727   7.648   6.273
  769SOL     OW14337   5.451   4.443   0.426
  769SOL    HW114338   5.539   4.410   0.390
  769SOL    HW214339   5.387   4.366   0.429
  770SOL     OW14340   2.414   7.034   1.542
  770SOL    HW114341   2.342   7.101   1.527
  770SOL    HW214342   2.374   6.949   1.576
  771SOL     OW14343   3.081   6.838   1.320
  771SOL    HW114344   3.052   6.776   1.393
  771SOL    HW214345   3.163   6.887   1.349
  772SOL     OW14346   3.112   3.882   6.240
  772SOL    HW114347   3.042   3.917   6.177
  772SOL    HW214348   3.125   3.784   6.225
  773SOL     OW14349   5.073   8.213   0.048
  773SOL    HW114350   5.125   8.185  -0.033
  773SOL    HW214351   5.095   8.308   0.070
  774SOL     OW14352   8.265   2.974   0.779
  774SOL    HW114353   8.230   2.898   0.834
  774SOL    HW214354   8.306   3.042   0.840
  775SOL     OW14355   5.008   5.415   6.405
  775SOL    HW114356   5.098   5.455   6.416
  775SOL    HW214357   4.942   5.461   6.465
  776SOL     OW14358   3.918   8.152   2.020
  776SOL    HW114359   3.852   8.155   2.095
  776SOL    HW214360   3.915   8.062   1.977
  777SOL     OW14361   3.867   0.966   6.056
  777SOL    HW114362   3.827   0.950   6.146
  777SOL    HW214363   3.964   0.988   6.066
  778SOL     OW14364   8.126   6.375   5.734
  778SOL    HW114365   8.213   6.348   5.691
  778SOL    HW214366   8.124   6.343   5.828
  779SOL     OW14367   8.935   7.361   0.280
  779SOL    HW114368   9.027   7.352   0.318
  779SOL    HW214369   8.889   7.272   0.283
  780SOL     OW14370   2.199   6.817   0.823
  780SOL    HW114371   2.208   6.864   0.910
  780SOL    HW214372   2.277   6.756   0.809
  781SOL     OW14373   6.244   7.382   6.716
  781SOL    HW114374   6.204   7.347   6.631
  781SOL    HW214375   6.238   7.312   6.787
  782SOL     OW14376   1.607   2.464   0.760
  782SOL    HW114377   1.639   2.559   0.750
  782SOL    HW214378   1.685   2.404   0.777
  783SOL     OW14379   2.730   5.914   0.960
  783SOL    HW114380   2.732   5.826   1.008
  783SOL    HW214381   2.670   5.977   1.009
  784SOL     OW14382   3.129   5.157   0.125
  784SOL    HW114383   3.056   5.203   0.175
  784SOL    HW214384   3.102   5.064   0.102
  785SOL     OW14385   3.406   1.857   0.888
  785SOL    HW114386   3.336   1.850   0.816
  785SOL    HW214387   3.446   1.948   0.887
  786SOL     OW14388   9.422   6.690   6.444
  786SOL    HW114389   9.364   6.769   6.424
  786SOL    HW214390   9.489   6.677   6.370
  787SOL     OW14391   1.602   4.366   0.088
  787SOL    HW114392   1.678   4.324   0.038
  787SOL    HW214393   1.618   4.464   0.098
  788SOL     OW14394   2.652   8.462   6.119
  788SOL    HW114395   2.598   8.400   6.175
  788SOL    HW214396   2.591   8.523   6.068
  789SOL     OW14397   3.785   5.037   6.321
  789SOL    HW114398   3.686   5.030   6.309
  789SOL    HW214399   3.808   5.129   6.354
  790SOL     OW14400   2.680   3.276   6.300
  790SOL    HW114401   2.758   3.329   6.266
  790SOL    HW214402   2.665   3.296   6.397
  791SOL     OW14403   3.443   7.885   5.581
  791SOL    HW114404   3.453   7.826   5.501
  791SOL    HW214405   3.530   7.928   5.602
  792SOL     OW14406   9.074   0.021   5.233
  792SOL    HW114407   8.976   0.042   5.227
  792SOL    HW214408   9.125   0.107   5.240
  793SOL     OW14409   7.033   7.638   5.099
  793SOL    HW114410   7.106   7.608   5.036
  793SOL    HW214411   6.953   7.664   5.046
  794SOL     OW14412   6.266   5.791   0.296
  794SOL    HW114413   6.365   5.796   0.310
  794SOL    HW214414   6.243   5.829   0.206
  795SOL     OW14415   8.462   4.137   5.012
  795SOL    HW114416   8.440   4.234   5.013
  795SOL    HW214417   8.516   4.115   4.931
  796SOL     OW14418   7.177   5.822   0.389
  796SOL    HW114419   7.241   5.761   0.436
  796SOL    HW214420   7.085   5.808   0.427
  797SOL     OW14421   4.355   6.565   1.964
  797SOL    HW114422   4.310   6.648   1.932
  797SOL    HW214423   4.454   6.576   1.956
  798SOL     OW14424   4.071   3.482   5.906
  798SOL    HW114425   4.163   3.468   5.870
  798SOL    HW214426   4.014   3.403   5.884
  799SOL     OW14427   3.658   2.190   5.546
  799SOL    HW114428   3.702   2.104   5.522
  799SOL    HW214429   3.579   2.205   5.487
  800SOL     OW14430   0.388   5.251   0.137
  800SOL    HW114431   0.358   5.208   0.222
  800SOL    HW214432   0.449   5.328   0.158
  801SOL     OW14433   2.036   3.479   5.674
  801SOL    HW114434   2.087   3.563   5.659
  801SOL    HW214435   1.969   3.467   5.601
  802SOL     OW14436   0.429   4.843   5.667
  802SOL    HW114437   0.342   4.815   5.709
  802SOL    HW214438   0.426   4.825   5.569
  803SOL     OW14439   4.322   8.189   6.076
  803SOL    HW114440   4.315   8.092   6.051
  803SOL    HW214441   4.417   8.211   6.096
  804SOL     OW14442   1.450   8.335   6.321
  804SOL    HW114443   1.524   8.282   6.278
  804SOL    HW214444   1.362   8.305   6.284
  805SOL     OW14445   6.463   0.326   0.246
  805SOL    HW114446   6.513   0.394   0.300
  805SOL    HW214447   6.527   0.271   0.193
  806SOL     OW14448   5.568   1.108   6.102
  806SOL    HW114449   5.594   1.120   6.006
  806SOL    HW214450   5.626   1.038   6.144
  807SOL     OW14451   7.845   4.805   6.131
  807SOL    HW114452   7.797   4.791   6.044
  807SOL    HW214453   7.943   4.792   6.117
  808SOL     OW14454   4.047   8.248   0.513
  808SOL    HW114455   4.131   8.202   0.542
  808SOL    HW214456   4.021   8.216   0.422
  809SOL     OW14457   3.725   4.301   1.424
  809SOL    HW114458   3.782   4.248   1.487
  809SOL    HW214459   3.656   4.352   1.476
  810SOL     OW14460   0.244   6.787   0.949
  810SOL    HW114461   0.221   6.710   1.009
  810SOL    HW214462   0.285   6.753   0.864
  811SOL     OW14463   6.231   1.731   0.501
  811SOL    HW114464   6.153   1.674   0.476
  811SOL    HW214465   6.278   1.691   0.579
  812SOL     OW14466   7.772   8.489   5.158
  812SOL    HW114467   7.801   8.494   5.063
  812SOL    HW214468   7.684   8.536   5.168
  813SOL     OW14469   3.706   4.270   1.156
  813SOL    HW114470   3.724   4.283   1.254
  813SOL    HW214471   3.652   4.186   1.143
  814SOL     OW14472   4.249   6.845   5.252
  814SOL    HW114473   4.161   6.802   5.271
  814SOL    HW214474   4.239   6.909   5.176
  815SOL     OW14475   8.974   4.578   5.788
  815SOL    HW114476   8.956   4.494   5.840
  815SOL    HW214477   9.022   4.555   5.704
  816SOL     OW14478   4.178   1.492   0.420
  816SOL    HW114479   4.202   1.576   0.469
  816SOL    HW214480   4.099   1.509   0.362
  817SOL     OW14481   3.694   2.138   1.528
  817SOL    HW114482   3.646   2.223   1.506
  817SOL    HW214483   3.788   2.158   1.553
  818SOL     OW14484   6.281   3.949   6.673
  818SOL    HW114485   6.195   3.990   6.705
  818SOL    HW214486   6.320   4.006   6.601
  819SOL     OW14487   5.429   0.861   1.362
  819SOL    HW114488   5.419   0.916   1.279
  819SOL    HW214489   5.505   0.797   1.351
  820SOL     OW14490   8.373   5.380   6.126
  820SOL    HW114491   8.424   5.444   6.184
  820SOL    HW214492   8.436   5.336   6.062
  821SOL     OW14493   4.645   7.003   6.363
  821SOL    HW114494   4.695   7.076   6.410
  821SOL    HW214495   4.611   7.038   6.275
  822SOL     OW14496   4.418   5.151   5.746
  822SOL    HW114497   4.452   5.089   5.675
  822SOL    HW214498   4.494   5.186   5.800
  823SOL     OW14499   7.781   3.793   5.649
  823SOL    HW114500   7.818   3.702   5.669
  823SOL    HW214501   7.709   3.786   5.580
  824SOL     OW14502   1.471   2.365   5.461
  824SOL    HW114503   1.519   2.415   5.389
  824SOL    HW214504   1.378   2.345   5.431
  825SOL     OW14505   7.567   6.078   6.441
  825SOL    HW114506   7.478   6.087   6.395
  825SOL    HW214507   7.606   6.169   6.454
  826SOL     OW14508   7.072   6.550   5.785
  826SOL    HW114509   7.071   6.644   5.750
  826SOL    HW214510   7.127   6.546   5.868
  827SOL     OW14511   2.065   1.158   0.651
  827SOL    HW114512   2.085   1.176   0.747
  827SOL    HW214513   1.966   1.158   0.637
  828SOL     OW14514   1.571   4.900   0.760
  828SOL    HW114515   1.651   4.867   0.710
  828SOL    HW214516   1.511   4.950   0.698
  829SOL     OW14517   3.473   6.005   1.445
  829SOL    HW114518   3.533   6.029   1.521
  829SOL    HW214519   3.528   5.978   1.366
  830SOL     OW14520   3.407   5.257   0.970
  830SOL    HW114521   3.410   5.233   0.872
  830SOL    HW214522   3.367   5.349   0.980
  831SOL     OW14523   4.523   7.700   4.835
  831SOL    HW114524   4.442   7.683   4.780
  831SOL    HW214525   4.605   7.687   4.779
  832SOL     OW14526   6.268   1.159   5.506
  832SOL    HW114527   6.273   1.234   5.440
  832SOL    HW214528   6.331   1.086   5.479
  833SOL     OW14529   7.201   8.360   0.354
  833SOL    HW114530   7.143   8.280   0.342
  833SOL    HW214531   7.145   8.437   0.386
  834SOL     OW14532   7.546   4.060   0.555
  834SOL    HW114533   7.609   4.127   0.517
  834SOL    HW214534   7.452   4.092   0.543
  835SOL     OW14535   3.606   6.257   5.959
  835SOL    HW114536   3.537   6.197   5.919
  835SOL    HW214537   3.669   6.287   5.887
  836SOL     OW14538   5.754   0.442   6.708
  836SOL    HW114539   5.698   0.493   6.643
  836SOL    HW214540   5.702   0.362   6.740
  837SOL     OW14541   0.011   5.448   6.347
  837SOL    HW114542   0.019   5.391   6.266
  837SOL    HW214543   0.021   5.392   6.429
  838SOL     OW14544   8.629   6.838   0.035
  838SOL    HW114545   8.726   6.820   0.050
  838SOL    HW214546   8.580   6.751   0.026
  839SOL     OW14547   6.718   7.949   6.127
  839SOL    HW114548   6.670   8.036   6.118
  839SOL    HW214549   6.655   7.875   6.103
  840SOL     OW14550   6.777   7.480   1.669
  840SOL    HW114551   6.868   7.519   1.657
  840SOL    HW214552   6.785   7.383   1.691
  841SOL     OW14553   8.004   3.377   0.529
  841SOL    HW114554   7.936   3.445   0.556
  841SOL    HW214555   8.032   3.393   0.435
  842SOL     OW14556   1.107   3.057   6.581
  842SOL    HW114557   1.076   3.097   6.667
  842SOL    HW214558   1.028   3.026   6.528
  843SOL     OW14559   1.079   8.165   0.297
  843SOL    HW114560   1.131   8.233   0.348
  843SOL    HW214561   1.141   8.114   0.237
  844SOL     OW14562   7.110   5.008   1.170
  844SOL    HW114563   7.193   5.036   1.219
  844SOL    HW214564   7.129   4.925   1.118
  845SOL     OW14565   2.091   8.435   6.001
  845SOL    HW114566   2.113   8.338   6.004
  845SOL    HW214567   2.157   8.486   6.055
  846SOL     OW14568   0.762   2.498   6.052
  846SOL    HW114569   0.806   2.519   6.140
  846SOL    HW214570   0.666   2.475   6.068
  847SOL     OW14571   7.925   2.463   5.324
  847SOL    HW114572   8.012   2.462   5.373
  847SOL    HW214573   7.942   2.459   5.226
  848SOL     OW14574   6.975   0.776   6.170
  848SOL    HW114575   6.887   0.818   6.189
  848SOL    HW214576   7.033   0.839   6.119
  849SOL     OW14577   4.394   2.718   6.642
  849SOL    HW114578   4.375   2.659   6.563
  849SOL    HW214579   4.489   2.704   6.672
  850SOL     OW14580   2.275   8.452   5.014
  850SOL    HW114581   2.308   8.532   4.964
  850SOL    HW214582   2.321   8.370   4.979
  851SOL     OW14583   4.816   1.648   0.130
  851SOL    HW114584   4.907   1.690   0.135
  851SOL    HW214585   4.749   1.718   0.107
  852SOL     OW14586   0.045   5.627   1.113
  852SOL    HW114587  -0.041   5.669   1.083
  852SOL    HW214588   0.115   5.697   1.121
  853SOL     OW14589   4.179   0.190   5.918
  853SOL    HW114590   4.222   0.251   5.851
  853SOL    HW214591   4.104   0.141   5.875
  854SOL     OW14592   2.922   1.920   1.451
  854SOL    HW114593   3.021   1.906   1.443
  854SOL    HW214594   2.886   1.954   1.364
  855SOL     OW14595   6.608   3.190   6.177
  855SOL    HW114596   6.639   3.180   6.082
  855SOL    HW214597   6.621   3.103   6.225
  856SOL     OW14598   8.747   3.898   0.413
  856SOL    HW114599   8.757   3.799   0.408
  856SOL    HW214600   8.669   3.926   0.357
  857SOL     OW14601   1.817   0.060   6.640
  857SOL    HW114602   1.783   0.033   6.731
  857SOL    HW214603   1.917   0.065   6.641
  858SOL     OW14604   4.455   0.856   1.695
  858SOL    HW114605   4.415   0.777   1.648
  858SOL    HW214606   4.499   0.826   1.780
  859SOL     OW14607   3.501   5.450   6.480
  859SOL    HW114608   3.476   5.492   6.393
  859SOL    HW214609   3.581   5.497   6.518
  860SOL     OW14610   7.286   3.508   6.215
  860SOL    HW114611   7.371   3.547   6.179
  860SOL    HW214612   7.208   3.548   6.167
  861SOL     OW14613   0.050   2.093   0.449
  861SOL    HW114614   0.020   2.104   0.544
  861SOL    HW214615   0.117   2.164   0.426
  862SOL     OW14616   3.184   1.962   1.457
  862SOL    HW114617   3.182   1.947   1.556
  862SOL    HW214618   3.191   2.059   1.438
  863SOL     OW14619   7.681   6.589   0.832
  863SOL    HW114620   7.672   6.500   0.876
  863SOL    HW214621   7.599   6.644   0.849
  864SOL     OW14622   3.347   1.701   1.086
  864SOL    HW114623   3.357   1.732   1.181
  864SOL    HW214624   3.380   1.772   1.024
  865SOL     OW14625   0.327   7.687   1.388
  865SOL    HW114626   0.288   7.655   1.475
  865SOL    HW214627   0.427   7.681   1.392
  866SOL     OW14628   6.294   4.709   6.460
  866SOL    HW114629   6.251   4.658   6.385
  866SOL    HW214630   6.389   4.728   6.437
  867SOL     OW14631   8.264   1.393   0.549
  867SOL    HW114632   8.362   1.384   0.531
  867SOL    HW214633   8.228   1.471   0.500
  868SOL     OW14634   1.564   1.779   0.508
  868SOL    HW114635   1.559   1.840   0.588
  868SOL    HW214636   1.513   1.695   0.528
  869SOL     OW14637   8.464   1.578   0.288
  869SOL    HW114638   8.517   1.624   0.360
  869SOL    HW214639   8.426   1.647   0.226
  870SOL     OW14640   8.960   3.150   0.712
  870SOL    HW114641   8.980   3.054   0.733
  870SOL    HW214642   8.990   3.170   0.618
  871SOL     OW14643   1.656   3.611   1.096
  871SOL    HW114644   1.649   3.627   1.194
  871SOL    HW214645   1.710   3.529   1.079
  872SOL     OW14646   5.290   0.765   6.715
  872SOL    HW114647   5.300   0.723   6.805
  872SOL    HW214648   5.337   0.708   6.647
  873SOL     OW14649   0.720   6.786   1.598
  873SOL    HW114650   0.767   6.720   1.656
  873SOL    HW214651   0.774   6.871   1.595
  874SOL     OW14652   0.784   7.492   6.685
  874SOL    HW114653   0.843   7.428   6.638
  874SOL    HW214654   0.768   7.461   6.779
  875SOL     OW14655   6.010   8.300   6.369
  875SOL    HW114656   5.984   8.383   6.418
  875SOL    HW214657   6.035   8.229   6.434
  876SOL     OW14658   3.881   2.153   6.243
  876SOL    HW114659   3.846   2.065   6.213
  876SOL    HW214660   3.910   2.147   6.338
  877SOL     OW14661   1.073   1.504   5.615
  877SOL    HW114662   1.116   1.431   5.667
  877SOL    HW214663   0.975   1.483   5.603
  878SOL     OW14664   1.723   1.857   0.024
  878SOL    HW114665   1.767   1.946   0.029
  878SOL    HW214666   1.625   1.869   0.010
  879SOL     OW14667   4.446   1.418   0.729
  879SOL    HW114668   4.467   1.435   0.825
  879SOL    HW214669   4.415   1.324   0.718
  880SOL     OW14670   5.631   7.093   6.086
  880SOL    HW114671   5.592   7.091   5.994
  880SOL    HW214672   5.724   7.055   6.084
  881SOL     OW14673   7.900   1.167   0.631
  881SOL    HW114674   7.839   1.098   0.670
  881SOL    HW214675   7.896   1.163   0.532
  882SOL     OW14676   3.398   0.569   6.337
  882SOL    HW114677   3.442   0.657   6.352
  882SOL    HW214678   3.318   0.560   6.397
  883SOL     OW14679   0.205   5.714   0.459
  883SOL    HW114680   0.114   5.703   0.499
  883SOL    HW214681   0.208   5.666   0.371
  884SOL     OW14682   4.903   1.614   0.897
  884SOL    HW114683   4.841   1.682   0.935
  884SOL    HW214684   4.920   1.634   0.801
  885SOL     OW14685   3.464   2.296   0.400
  885SOL    HW114686   3.370   2.318   0.425
  885SOL    HW214687   3.527   2.354   0.452
  886SOL     OW14688   5.202   1.273   1.635
  886SOL    HW114689   5.233   1.180   1.619
  886SOL    HW214690   5.149   1.278   1.720
  887SOL     OW14691   1.594   2.476   1.075
  887SOL    HW114692   1.511   2.450   1.124
  887SOL    HW214693   1.579   2.466   0.976
  888SOL     OW14694   5.888   6.479   0.676
  888SOL    HW114695   5.835   6.429   0.745
  888SOL    HW214696   5.831   6.548   0.632
  889SOL     OW14697   7.546   6.430   5.560
  889SOL    HW114698   7.514   6.345   5.518
  889SOL    HW214699   7.473   6.497   5.560
  890SOL     OW14700   1.065   0.371   6.615
  890SOL    HW114701   1.130   0.338   6.683
  890SOL    HW214702   0.973   0.370   6.653
  891SOL     OW14703   3.765   3.572   5.760
  891SOL    HW114704   3.829   3.550   5.833
  891SOL    HW214705   3.753   3.493   5.700
  892SOL     OW14706   0.278   8.491   1.205
  892SOL    HW114707   0.230   8.578   1.202
  892SOL    HW214708   0.250   8.440   1.286
  893SOL     OW14709   9.212   6.624   5.681
  893SOL    HW114710   9.280   6.619   5.609
  893SOL    HW214711   9.251   6.669   5.761
  894SOL     OW14712   5.832   6.361   5.933
  894SOL    HW114713   5.898   6.346   6.006
  894SOL    HW214714   5.805   6.274   5.892
  895SOL     OW14715   0.889   7.797   6.395
  895SOL    HW114716   0.867   7.815   6.491
  895SOL    HW214717   0.858   7.705   6.370
  896SOL     OW14718   2.574   1.860   5.480
  896SOL    HW114719   2.641   1.899   5.417
  896SOL    HW214720   2.503   1.812   5.429
  897SOL     OW14721   4.787   3.592   1.283
  897SOL    HW114722   4.723   3.657   1.323
  897SOL    HW214723   4.840   3.637   1.211
  898SOL     OW14724   5.981   6.521   6.464
  898SOL    HW114725   5.925   6.572   6.530
  898SOL    HW214726   6.073   6.510   6.500
  899SOL     OW14727   2.068   0.974   5.685
  899SOL    HW114728   2.043   0.971   5.782
  899SOL    HW214729   2.167   0.964   5.676
  900SOL     OW14730   1.340   1.183   5.505
  900SOL    HW114731   1.373   1.097   5.465
  900SOL    HW214732   1.251   1.206   5.465
  901SOL     OW14733   3.984   3.955   0.884
  901SOL    HW114734   3.979   3.974   0.786
  901SOL    HW214735   3.978   4.041   0.935
  902SOL     OW14736   7.809   8.453   6.453
  902SOL    HW114737   7.771   8.519   6.518
  902SOL    HW214738   7.815   8.363   6.496
  903SOL     OW14739   1.514   0.703   1.024
  903SOL    HW114740   1.608   0.691   0.991
  903SOL    HW214741   1.453   0.639   0.978
  904SOL     OW14742   7.462   5.567   6.191
  904SOL    HW114743   7.489   5.488   6.246
  904SOL    HW214744   7.489   5.651   6.237
  905SOL     OW14745   6.450   6.130   0.788
  905SOL    HW114746   6.378   6.109   0.854
  905SOL    HW214747   6.539   6.117   0.831
  906SOL     OW14748   5.078   1.885   1.556
  906SOL    HW114749   5.041   1.821   1.623
  906SOL    HW214750   5.100   1.971   1.601
  907SOL     OW14751   1.627   5.328   5.354
  907SOL    HW114752   1.630   5.291   5.261
  907SOL    HW214753   1.536   5.315   5.393
  908SOL     OW14754   2.812   2.338   0.807
  908SOL    HW114755   2.879   2.412   0.803
  908SOL    HW214756   2.720   2.376   0.799
  909SOL     OW14757   4.104   0.700   2.056
  909SOL    HW114758   4.021   0.679   2.005
  909SOL    HW214759   4.085   0.696   2.154
  910SOL     OW14760   7.797   0.400   0.203
  910SOL    HW114761   7.857   0.452   0.263
  910SOL    HW214762   7.843   0.316   0.174
  911SOL     OW14763   9.419   6.976   4.700
  911SOL    HW114764   9.509   6.982   4.657
  911SOL    HW214765   9.352   7.022   4.643
  912SOL     OW14766   2.682   3.169   1.328
  912SOL    HW114767   2.625   3.229   1.383
  912SOL    HW214768   2.704   3.087   1.380
  913SOL     OW14769   8.911   4.573   0.323
  913SOL    HW114770   8.836   4.515   0.352
  913SOL    HW214771   8.898   4.666   0.358
  914SOL     OW14772   4.049   4.115   5.790
  914SOL    HW114773   3.954   4.099   5.763
  914SOL    HW214774   4.105   4.126   5.708
  915SOL     OW14775   2.825   5.716   0.516
  915SOL    HW114776   2.760   5.642   0.496
  915SOL    HW214777   2.915   5.677   0.534
  916SOL     OW14778   5.413   4.506   1.424
  916SOL    HW114779   5.383   4.421   1.466
  916SOL    HW214780   5.335   4.567   1.412
  917SOL     OW14781   0.606   6.145   0.261
  917SOL    HW114782   0.693   6.195   0.267
  917SOL    HW214783   0.610   6.083   0.183
  918SOL     OW14784   5.507   6.039   6.065
  918SOL    HW114785   5.453   6.003   6.142
  918SOL    HW214786   5.490   6.137   6.056
  919SOL     OW14787   1.284   7.595   6.206
  919SOL    HW114788   1.262   7.509   6.252
  919SOL    HW214789   1.199   7.641   6.181
  920SOL     OW14790   8.702   5.886   6.610
  920SOL    HW114791   8.645   5.856   6.534
  920SOL    HW214792   8.691   5.984   6.624
  921SOL     OW14793   9.120   5.027   0.661
  921SOL    HW114794   9.145   5.067   0.749
  921SOL    HW214795   9.201   4.987   0.617
  922SOL     OW14796   4.205   0.715   0.033
  922SOL    HW114797   4.128   0.776   0.013
  922SOL    HW214798   4.208   0.641  -0.034
  923SOL     OW14799   6.009   5.507   0.664
  923SOL    HW114800   6.056   5.581   0.713
  923SOL    HW214801   5.913   5.505   0.690
  924SOL     OW14802   1.126   1.968   4.924
  924SOL    HW114803   1.222   1.961   4.896
  924SOL    HW214804   1.101   2.064   4.935
  925SOL     OW14805   2.675   0.256   1.148
  925SOL    HW114806   2.579   0.283   1.153
  925SOL    HW214807   2.712   0.278   1.058
  926SOL     OW14808   8.614   6.433   5.590
  926SOL    HW114809   8.664   6.439   5.504
  926SOL    HW214810   8.678   6.439   5.667
  927SOL     OW14811   0.644   6.474   6.192
  927SOL    HW114812   0.570   6.418   6.153
  927SOL    HW214813   0.605   6.550   6.243
  928SOL     OW14814   5.863   6.922   0.446
  928SOL    HW114815   5.941   6.871   0.410
  928SOL    HW214816   5.789   6.921   0.378
  929SOL     OW14817   3.406   5.067   5.259
  929SOL    HW114818   3.458   5.019   5.330
  929SOL    HW214819   3.317   5.022   5.246
  930SOL     OW14820   8.316   0.062   6.682
  930SOL    HW114821   8.391   0.071   6.747
  930SOL    HW214822   8.265  -0.022   6.702
  931SOL     OW14823   1.119   0.903   1.063
  931SOL    HW114824   1.074   0.847   1.132
  931SOL    HW214825   1.076   0.887   0.974
  932SOL     OW14826   1.032   2.384   0.754
  932SOL    HW114827   1.091   2.417   0.680
  932SOL    HW214828   1.030   2.284   0.754
  933SOL     OW14829   8.287   4.067   0.744
  933SOL    HW114830   8.351   3.993   0.728
  933SOL    HW214831   8.225   4.042   0.819
  934SOL     OW14832   2.142   8.174   6.110
  934SOL    HW114833   2.107   8.205   6.198
  934SOL    HW214834   2.242   8.177   6.111
  935SOL     OW14835   6.406   8.196   1.018
  935SOL    HW114836   6.429   8.217   0.923
  935SOL    HW214837   6.426   8.099   1.037
  936SOL     OW14838   0.307   2.644   6.222
  936SOL    HW114839   0.235   2.574   6.227
  936SOL    HW214840   0.282   2.713   6.154
  937SOL     OW14841   5.108   8.208   1.431
  937SOL    HW114842   5.096   8.148   1.352
  937SOL    HW214843   5.187   8.177   1.485
  938SOL     OW14844   4.800   1.397   0.241
  938SOL    HW114845   4.792   1.486   0.197
  938SOL    HW214846   4.822   1.328   0.172
  939SOL     OW14847   8.284   5.101   6.486
  939SOL    HW114848   8.349   5.119   6.560
  939SOL    HW214849   8.247   5.188   6.453
  940SOL     OW14850   1.885   2.417   0.826
  940SOL    HW114851   1.876   2.324   0.790
  940SOL    HW214852   1.969   2.458   0.792
  941SOL     OW14853   1.832   1.719   0.763
  941SOL    HW114854   1.740   1.709   0.800
  941SOL    HW214855   1.895   1.660   0.814
  942SOL     OW14856   0.793   8.051   0.753
  942SOL    HW114857   0.754   7.970   0.708
  942SOL    HW214858   0.874   8.024   0.806
  943SOL     OW14859   6.193   4.777   0.502
  943SOL    HW114860   6.253   4.698   0.487
  943SOL    HW214861   6.098   4.751   0.486
  944SOL     OW14862   2.208   5.714   0.054
  944SOL    HW114863   2.168   5.700   0.144
  944SOL    HW214864   2.291   5.770   0.062
  945SOL     OW14865   8.724   0.935   5.757
  945SOL    HW114866   8.782   1.016   5.750
  945SOL    HW214867   8.661   0.932   5.679
  946SOL     OW14868   4.595   4.868   0.381
  946SOL    HW114869   4.630   4.913   0.463
  946SOL    HW214870   4.538   4.790   0.406
  947SOL     OW14871   1.144   6.252   5.081
  947SOL    HW114872   1.105   6.291   5.164
  947SOL    HW214873   1.147   6.323   5.010
  948SOL     OW14874   4.165   5.188   6.028
  948SOL    HW114875   4.147   5.168   5.931
  948SOL    HW214876   4.257   5.224   6.038
  949SOL     OW14877   5.112   7.630   0.432
  949SOL    HW114878   5.103   7.533   0.457
  949SOL    HW214879   5.179   7.638   0.358
  950SOL     OW14880   9.347   4.864   5.787
  950SOL    HW114881   9.334   4.933   5.716
  950SOL    HW214882   9.429   4.884   5.840
  951SOL     OW14883   6.843   1.014   0.282
  951SOL    HW114884   6.799   0.933   0.243
  951SOL    HW214885   6.921   1.040   0.225
  952SOL     OW14886   3.532   0.259   5.744
  952SOL    HW114887   3.568   0.275   5.836
  952SOL    HW214888   3.433   0.275   5.743
  953SOL     OW14889   8.198   7.755   5.953
  953SOL    HW114890   8.234   7.685   5.891
  953SOL    HW214891   8.251   7.754   6.038
  954SOL     OW14892   2.341   3.368   5.716
  954SOL    HW114893   2.408   3.320   5.660
  954SOL    HW214894   2.360   3.466   5.715
  955SOL     OW14895   0.909   6.383   5.782
  955SOL    HW114896   0.838   6.426   5.837
  955SOL    HW214897   0.927   6.439   5.701
  956SOL     OW14898   1.847   5.478   0.903
  956SOL    HW114899   1.901   5.407   0.948
  956SOL    HW214900   1.752   5.448   0.894
  957SOL     OW14901   9.284   6.507   0.499
  957SOL    HW114902   9.208   6.562   0.535
  957SOL    HW214903   9.332   6.462   0.574
  958SOL     OW14904   8.634   4.895   5.089
  958SOL    HW114905   8.558   4.936   5.038
  958SOL    HW214906   8.630   4.795   5.080
  959SOL     OW14907   0.290   5.102   0.332
  959SOL    HW114908   0.242   5.100   0.420
  959SOL    HW214909   0.244   5.042   0.268
  960SOL     OW14910   9.166   7.537   5.970
  960SOL    HW114911   9.243   7.480   5.999
  960SOL    HW214912   9.114   7.567   6.050
  961SOL     OW14913   6.820   7.650   0.897
  961SOL    HW114914   6.822   7.561   0.944
  961SOL    HW214915   6.795   7.636   0.801
  962SOL     OW14916   9.279   6.778   4.503
  962SOL    HW114917   9.281   6.875   4.527
  962SOL    HW214918   9.305   6.767   4.407
  963SOL     OW14919   1.674   2.441   0.452
  963SOL    HW114920   1.772   2.457   0.463
  963SOL    HW214921   1.629   2.448   0.541
  964SOL     OW14922   5.985   1.190   0.806
  964SOL    HW114923   6.061   1.165   0.746
  964SOL    HW214924   6.022   1.230   0.890
  965SOL     OW14925   8.713   1.233   6.283
  965SOL    HW114926   8.659   1.171   6.340
  965SOL    HW214927   8.809   1.229   6.311
  966SOL     OW14928   6.087   4.661   6.273
  966SOL    HW114929   6.150   4.672   6.196
  966SOL    HW214930   6.068   4.750   6.313
  967SOL     OW14931   4.313   7.685   5.104
  967SOL    HW114932   4.230   7.740   5.091
  967SOL    HW214933   4.288   7.589   5.112
  968SOL     OW14934   4.189   4.807   1.639
  968SOL    HW114935   4.109   4.864   1.618
  968SOL    HW214936   4.223   4.830   1.730
  969SOL     OW14937   8.963   6.443   5.604
  969SOL    HW114938   9.037   6.505   5.626
  969SOL    HW214939   8.920   6.410   5.689
  970SOL     OW14940   0.523   8.014   5.493
  970SOL    HW114941   0.485   7.943   5.553
  970SOL    HW214942   0.452   8.044   5.429
  971SOL     OW14943   2.814   3.174   1.101
  971SOL    HW114944   2.779   3.188   1.193
  971SOL    HW214945   2.757   3.107   1.053
  972SOL     OW14946   8.825   5.014   0.610
  972SOL    HW114947   8.819   5.067   0.694
  972SOL    HW214948   8.918   4.979   0.600
  973SOL     OW14949   4.767   0.065   5.822
  973SOL    HW114950   4.763  -0.008   5.890
  973SOL    HW214951   4.784   0.152   5.867
  974SOL     OW14952   0.995   1.957   1.564
  974SOL    HW114953   0.983   2.034   1.627
  974SOL    HW214954   0.906   1.932   1.525
  975SOL     OW14955   5.109   7.360   0.495
  975SOL    HW114956   5.046   7.325   0.563
  975SOL    HW214957   5.171   7.287   0.465
  976SOL     OW14958   4.402   7.441   0.297
  976SOL    HW114959   4.453   7.401   0.221
  976SOL    HW214960   4.437   7.532   0.317
  977SOL     OW14961   8.020   5.746   0.058
  977SOL    HW114962   8.089   5.814   0.083
  977SOL    HW214963   7.939   5.793   0.022
  978SOL     OW14964   7.184   5.084   5.276
  978SOL    HW114965   7.137   5.024   5.211
  978SOL    HW214966   7.232   5.156   5.226
  979SOL     OW14967   6.121   4.294   6.694
  979SOL    HW114968   6.071   4.367   6.648
  979SOL    HW214969   6.135   4.319   6.790
  980SOL     OW14970   5.382   0.037   1.511
  980SOL    HW114971   5.291   0.057   1.549
  980SOL    HW214972   5.428   0.123   1.490
  981SOL     OW14973   2.477   3.866   5.569
  981SOL    HW114974   2.560   3.914   5.540
  981SOL    HW214975   2.425   3.837   5.488
  982SOL     OW14976   0.302   0.861   0.871
  982SOL    HW114977   0.322   0.812   0.956
  982SOL    HW214978   0.377   0.848   0.806
  983SOL     OW14979   1.560   1.407   6.211
  983SOL    HW114980   1.655   1.380   6.195
  983SOL    HW214981   1.551   1.506   6.201
  984SOL     OW14982   3.776   1.039   5.268
  984SOL    HW114983   3.715   1.089   5.207
  984SOL    HW214984   3.787   1.090   5.354
  985SOL     OW14985   4.673   1.538   6.605
  985SOL    HW114986   4.627   1.453   6.630
  985SOL    HW214987   4.724   1.572   6.684
  986SOL     OW14988   7.138   1.980   0.962
  986SOL    HW114989   7.115   2.023   1.049
  986SOL    HW214990   7.131   2.047   0.888
  987SOL     OW14991   2.048   0.998   5.941
  987SOL    HW114992   2.113   1.074   5.931
  987SOL    HW214993   2.032   0.980   6.038
  988SOL     OW14994   5.679   1.105   5.547
  988SOL    HW114995   5.599   1.045   5.552
  988SOL    HW214996   5.654   1.190   5.501
  989SOL     OW14997   8.405   1.667   0.597
  989SOL    HW114998   8.389   1.734   0.524
  989SOL    HW214999   8.493   1.623   0.581
  990SOL     OW15000   4.340   2.555   6.438
  990SOL    HW115001   4.250   2.546   6.396
  990SOL    HW215002   4.399   2.611   6.379
  991SOL     OW15003   5.497   0.261   0.348
  991SOL    HW115004   5.437   0.341   0.360
  991SOL    HW215005   5.447   0.178   0.374
  992SOL     OW15006   1.398   7.476   5.623
  992SOL    HW115007   1.343   7.477   5.706
  992SOL    HW215008   1.368   7.551   5.562
  993SOL     OW15009   0.069   2.259   1.009
  993SOL    HW115010   0.114   2.181   1.052
  993SOL    HW215011   0.117   2.284   0.925
  994SOL     OW15012   2.059   5.731   5.268
  994SOL    HW115013   2.029   5.662   5.201
  994SOL    HW215014   2.093   5.811   5.219
  995SOL     OW15015   6.694   1.722   0.667
  995SOL    HW115016   6.705   1.704   0.765
  995SOL    HW215017   6.717   1.639   0.616
  996SOL     OW15018   0.144   8.482   4.505
  996SOL    HW115019   0.188   8.393   4.494
  996SOL    HW215020   0.110   8.513   4.417
  997SOL     OW15021   6.581   5.889   5.937
  997SOL    HW115022   6.483   5.899   5.954
  997SOL    HW215023   6.595   5.849   5.846
  998SOL     OW15024   2.916   2.711   0.587
  998SOL    HW115025   2.994   2.701   0.524
  998SOL    HW215026   2.854   2.781   0.551
  999SOL     OW15027   4.195   1.520   1.107
  999SOL    HW115028   4.263   1.490   1.174
  999SOL    HW215029   4.212   1.474   1.020
 1000SOL     OW15030   4.514   7.953   1.518
 1000SOL    HW115031   4.540   8.035   1.570
 1000SOL    HW215032   4.586   7.931   1.453
 1001SOL     OW15033   1.348   6.388   5.939
 1001SOL    HW115034   1.271   6.452   5.944
 1001SOL    HW215035   1.383   6.371   6.031
 1002SOL     OW15036   0.941   0.320   5.363
 1002SOL    HW115037   0.953   0.325   5.462
 1002SOL    HW215038   0.867   0.381   5.335
 1003SOL     OW15039   6.423   5.490   5.640
 1003SOL    HW115040   6.520   5.472   5.620
 1003SOL    HW215041   6.372   5.494   5.554
 1004SOL     OW15042   4.339   7.253   1.590
 1004SOL    HW115043   4.275   7.200   1.535
 1004SOL    HW215044   4.340   7.218   1.684
 1005SOL     OW15045   0.360   4.860   1.013
 1005SOL    HW115046   0.435   4.860   0.946
 1005SOL    HW215047   0.389   4.908   1.095
 1006SOL     OW15048   0.977   7.340   6.554
 1006SOL    HW115049   0.982   7.270   6.625
 1006SOL    HW215050   0.979   7.296   6.464
 1007SOL     OW15051   4.652   7.806   5.630
 1007SOL    HW115052   4.733   7.864   5.640
 1007SOL    HW215053   4.652   7.766   5.538
 1008SOL     OW15054   5.504   6.569   1.041
 1008SOL    HW115055   5.522   6.644   0.978
 1008SOL    HW215056   5.423   6.591   1.097
 1009SOL     OW15057   7.008   6.333   1.532
 1009SOL    HW115058   7.064   6.299   1.608
 1009SOL    HW215059   6.942   6.263   1.505
 1010SOL     OW15060   0.726   7.968   4.811
 1010SOL    HW115061   0.779   8.052   4.802
 1010SOL    HW215062   0.631   7.992   4.832
 1011SOL     OW15063   7.228   1.616   0.959
 1011SOL    HW115064   7.176   1.601   1.043
 1011SOL    HW215065   7.169   1.660   0.891
 1012SOL     OW15066   5.909   2.154   1.174
 1012SOL    HW115067   5.812   2.173   1.154
 1012SOL    HW215068   5.942   2.221   1.241
 1013SOL     OW15069   0.327   3.586   5.462
 1013SOL    HW115070   0.251   3.555   5.405
 1013SOL    HW215071   0.308   3.678   5.497
 1014SOL     OW15072   0.965   5.602   5.380
 1014SOL    HW115073   0.961   5.610   5.479
 1014SOL    HW215074   0.983   5.507   5.355
 1015SOL     OW15075   3.928   6.535   0.733
 1015SOL    HW115076   3.849   6.479   0.757
 1015SOL    HW215077   3.995   6.532   0.806
 1016SOL     OW15078   4.318   6.080   1.442
 1016SOL    HW115079   4.355   6.004   1.388
 1016SOL    HW215080   4.388   6.114   1.504
 1017SOL     OW15081   0.838   4.729   6.336
 1017SOL    HW115082   0.752   4.777   6.353
 1017SOL    HW215083   0.898   4.786   6.280
 1018SOL     OW15084   3.645   1.909   5.439
 1018SOL    HW115085   3.569   1.881   5.381
 1018SOL    HW215086   3.731   1.872   5.404
 1019SOL     OW15087   1.371   3.856   0.255
 1019SOL    HW115088   1.415   3.884   0.340
 1019SOL    HW215089   1.423   3.782   0.213
 1020SOL     OW15090   5.132   0.897   1.007
 1020SOL    HW115091   5.150   0.851   0.921
 1020SOL    HW215092   5.049   0.858   1.049
 1021SOL     OW15093   0.388   1.590   6.163
 1021SOL    HW115094   0.419   1.603   6.069
 1021SOL    HW215095   0.386   1.492   6.184
 1022SOL     OW15096   5.307   3.416   0.977
 1022SOL    HW115097   5.287   3.351   1.051
 1022SOL    HW215098   5.385   3.472   1.003
 1023SOL     OW15099   7.484   3.860   0.750
 1023SOL    HW115100   7.572   3.865   0.797
 1023SOL    HW215101   7.484   3.924   0.673
 1024SOL     OW15102   0.842   0.113   0.717
 1024SOL    HW115103   0.871   0.068   0.633
 1024SOL    HW215104   0.745   0.096   0.733
 1025SOL     OW15105   1.236   8.355   6.707
 1025SOL    HW115106   1.171   8.335   6.780
 1025SOL    HW215107   1.210   8.305   6.624
 1026SOL     OW15108   3.324   4.877   0.427
 1026SOL    HW115109   3.351   4.970   0.452
 1026SOL    HW215110   3.344   4.815   0.502
 1027SOL     OW15111   2.548   5.257   0.056
 1027SOL    HW115112   2.556   5.350   0.092
 1027SOL    HW215113   2.581   5.255  -0.038
 1028SOL     OW15114   5.621   4.291   6.510
 1028SOL    HW115115   5.654   4.374   6.556
 1028SOL    HW215116   5.606   4.311   6.413
 1029SOL     OW15117   5.877   6.025   4.743
 1029SOL    HW115118   5.939   5.951   4.769
 1029SOL    HW215119   5.912   6.071   4.662
 1030SOL     OW15120   1.460   8.018   0.564
 1030SOL    HW115121   1.425   8.019   0.658
 1030SOL    HW215122   1.560   8.019   0.566
 1031SOL     OW15123   4.975   8.315   1.003
 1031SOL    HW115124   4.951   8.282   1.095
 1031SOL    HW215125   4.978   8.238   0.940
 1032SOL     OW15126   4.001   7.809   0.755
 1032SOL    HW115127   3.988   7.900   0.715
 1032SOL    HW215128   3.921   7.753   0.738
 1033SOL     OW15129   4.289   2.864   1.022
 1033SOL    HW115130   4.326   2.794   1.083
 1033SOL    HW215131   4.231   2.821   0.953
 1034SOL     OW15132   8.986   6.986   6.391
 1034SOL    HW115133   8.903   7.010   6.442
 1034SOL    HW215134   9.005   7.058   6.324
 1035SOL     OW15135   6.883   8.487   6.249
 1035SOL    HW115136   6.969   8.468   6.296
 1035SOL    HW215137   6.853   8.580   6.270
 1036SOL     OW15138   3.905   4.124   0.320
 1036SOL    HW115139   3.816   4.137   0.278
 1036SOL    HW215140   3.971   4.189   0.281
 1037SOL     OW15141   1.343   5.400   6.556
 1037SOL    HW115142   1.394   5.486   6.566
 1037SOL    HW215143   1.321   5.363   6.646
 1038SOL     OW15144   6.260   2.545   5.602
 1038SOL    HW115145   6.299   2.485   5.533
 1038SOL    HW215146   6.197   2.492   5.659
 1039SOL     OW15147   1.014   7.614   1.140
 1039SOL    HW115148   1.005   7.666   1.225
 1039SOL    HW215149   1.023   7.516   1.161
 1040SOL     OW15150   2.662   0.208   0.689
 1040SOL    HW115151   2.571   0.217   0.730
 1040SOL    HW215152   2.731   0.218   0.761
 1041SOL     OW15153   5.274   8.213   1.131
 1041SOL    HW115154   5.187   8.167   1.150
 1041SOL    HW215155   5.268   8.259   1.043
 1042SOL     OW15156   5.718   8.009   1.697
 1042SOL    HW115157   5.697   8.076   1.626
 1042SOL    HW215158   5.658   8.023   1.775
 1043SOL     OW15159   6.468   6.318   0.578
 1043SOL    HW115160   6.443   6.249   0.646
 1043SOL    HW215161   6.546   6.371   0.612
 1044SOL     OW15162   8.058   5.165   0.425
 1044SOL    HW115163   7.991   5.125   0.488
 1044SOL    HW215164   8.141   5.188   0.475
 1045SOL     OW15165   0.176   5.290   1.433
 1045SOL    HW115166   0.120   5.369   1.408
 1045SOL    HW215167   0.184   5.286   1.533
 1046SOL     OW15168   5.630   4.343   0.748
 1046SOL    HW115169   5.560   4.339   0.676
 1046SOL    HW215170   5.695   4.268   0.735
 1047SOL     OW15171   2.543   0.139   0.054
 1047SOL    HW115172   2.524   0.221   0.107
 1047SOL    HW215173   2.477   0.067   0.077
 1048SOL     OW15174   5.997   6.452   0.084
 1048SOL    HW115175   6.033   6.438   0.177
 1048SOL    HW215176   6.057   6.407   0.018
 1049SOL     OW15177   4.155   3.649   0.746
 1049SOL    HW115178   4.060   3.678   0.755
 1049SOL    HW215179   4.211   3.697   0.814
 1050SOL     OW15180   0.252   8.202   1.099
 1050SOL    HW115181   0.227   8.153   1.183
 1050SOL    HW215182   0.249   8.301   1.117
 1051SOL     OW15183   8.577   5.040   6.228
 1051SOL    HW115184   8.523   4.956   6.226
 1051SOL    HW215185   8.586   5.072   6.323
 1052SOL     OW15186   6.148   0.094   5.765
 1052SOL    HW115187   6.090   0.055   5.693
 1052SOL    HW215188   6.200   0.020   5.809
 1053SOL     OW15189   9.089   2.871   6.472
 1053SOL    HW115190   9.065   2.963   6.504
 1053SOL    HW215191   9.009   2.812   6.478
 1054SOL     OW15192   4.383   4.299   0.731
 1054SOL    HW115193   4.475   4.271   0.703
 1054SOL    HW215194   4.317   4.274   0.660
 1055SOL     OW15195   1.392   0.250   6.204
 1055SOL    HW115196   1.376   0.185   6.130
 1055SOL    HW215197   1.451   0.208   6.273
 1056SOL     OW15198   7.119   3.985   6.336
 1056SOL    HW115199   7.135   3.923   6.413
 1056SOL    HW215200   7.200   4.042   6.323
 1057SOL     OW15201   6.997   0.187   5.594
 1057SOL    HW115202   6.949   0.153   5.512
 1057SOL    HW215203   6.978   0.284   5.605
 1058SOL     OW15204   1.257   7.812   1.065
 1058SOL    HW115205   1.258   7.712   1.055
 1058SOL    HW215206   1.350   7.845   1.079
 1059SOL     OW15207   9.267   1.632   6.087
 1059SOL    HW115208   9.202   1.664   6.018
 1059SOL    HW215209   9.313   1.711   6.129
 1060SOL     OW15210   7.461   2.421   5.893
 1060SOL    HW115211   7.493   2.420   5.798
 1060SOL    HW215212   7.540   2.432   5.955
 1061SOL     OW15213   0.736   4.805   4.880
 1061SOL    HW115214   0.747   4.710   4.909
 1061SOL    HW215215   0.818   4.835   4.830
 1062SOL     OW15216   3.387   7.552   2.116
 1062SOL    HW115217   3.468   7.496   2.137
 1062SOL    HW215218   3.406   7.647   2.139
 1063SOL     OW15219   6.243   1.006   6.275
 1063SOL    HW115220   6.280   1.081   6.220
 1063SOL    HW215221   6.182   0.951   6.219
 1064SOL     OW15222   5.209   3.844   1.173
 1064SOL    HW115223   5.217   3.911   1.247
 1064SOL    HW215224   5.179   3.889   1.089
 1065SOL     OW15225   8.600   3.166   6.428
 1065SOL    HW115226   8.521   3.209   6.385
 1065SOL    HW215227   8.578   3.071   6.451
 1066SOL     OW15228   3.967   8.015   6.002
 1066SOL    HW115229   4.001   7.941   6.060
 1066SOL    HW215230   3.868   8.007   5.990
 1067SOL     OW15231   0.727   7.568   5.277
 1067SOL    HW115232   0.818   7.549   5.315
 1067SOL    HW215233   0.657   7.540   5.342
 1068SOL     OW15234   0.877   5.764   0.214
 1068SOL    HW115235   0.895   5.845   0.270
 1068SOL    HW215236   0.863   5.684   0.274
 1069SOL     OW15237   3.750   0.428   0.318
 1069SOL    HW115238   3.817   0.394   0.384
 1069SOL    HW215239   3.787   0.509   0.271
 1070SOL     OW15240   0.775   8.229   1.183
 1070SOL    HW115241   0.737   8.275   1.103
 1070SOL    HW215242   0.825   8.295   1.239
 1071SOL     OW15243   0.229   3.533   0.708
 1071SOL    HW115244   0.132   3.508   0.708
 1071SOL    HW215245   0.274   3.492   0.787
 1072SOL     OW15246   1.462   6.141   6.576
 1072SOL    HW115247   1.406   6.224   6.575
 1072SOL    HW215248   1.512   6.133   6.490
 1073SOL     OW15249   6.753   6.613   6.576
 1073SOL    HW115250   6.791   6.630   6.485
 1073SOL    HW215251   6.656   6.639   6.578
 1074SOL     OW15252   7.413   6.796   0.788
 1074SOL    HW115253   7.349   6.863   0.825
 1074SOL    HW215254   7.450   6.828   0.701
 1075SOL     OW15255   5.321   0.168   1.111
 1075SOL    HW115256   5.305   0.195   1.205
 1075SOL    HW215257   5.394   0.100   1.107
 1076SOL     OW15258   4.884   7.345   5.683
 1076SOL    HW115259   4.911   7.386   5.596
 1076SOL    HW215260   4.804   7.287   5.669
 1077SOL     OW15261   6.364   3.079   0.220
 1077SOL    HW115262   6.318   3.161   0.254
 1077SOL    HW215263   6.403   3.097   0.130
 1078SOL     OW15264   3.208   2.424   0.725
 1078SOL    HW115265   3.124   2.470   0.754
 1078SOL    HW215266   3.193   2.380   0.636
 1079SOL     OW15267   5.296   8.128   0.598
 1079SOL    HW115268   5.276   8.051   0.658
 1079SOL    HW215269   5.212   8.179   0.580
 1080SOL     OW15270   3.858   5.679   1.189
 1080SOL    HW115271   3.912   5.605   1.229
 1080SOL    HW215272   3.864   5.674   1.089
 1081SOL     OW15273   4.375   0.846   6.509
 1081SOL    HW115274   4.385   0.842   6.608
 1081SOL    HW215275   4.323   0.928   6.484
 1082SOL     OW15276   1.188   6.019   4.973
 1082SOL    HW115277   1.146   6.002   4.884
 1082SOL    HW215278   1.174   6.114   5.000
 1083SOL     OW15279   6.884   1.814   1.556
 1083SOL    HW115280   6.784   1.821   1.552
 1083SOL    HW215281   6.923   1.856   1.475
 1084SOL     OW15282   1.079   5.421   6.414
 1084SOL    HW115283   1.079   5.468   6.326
 1084SOL    HW215284   1.167   5.437   6.460
 1085SOL     OW15285   0.447   3.421   5.676
 1085SOL    HW115286   0.419   3.457   5.587
 1085SOL    HW215287   0.545   3.400   5.673
 1086SOL     OW15288   3.642   1.499   0.692
 1086SOL    HW115289   3.709   1.560   0.649
 1086SOL    HW215290   3.584   1.552   0.754
 1087SOL     OW15291   8.554   7.927   1.296
 1087SOL    HW115292   8.457   7.952   1.291
 1087SOL    HW215293   8.566   7.836   1.255
 1088SOL     OW15294   2.546   7.788   0.134
 1088SOL    HW115295   2.551   7.760   0.038
 1088SOL    HW215296   2.629   7.758   0.182
 1089SOL     OW15297   2.844   6.735   5.827
 1089SOL    HW115298   2.810   6.826   5.806
 1089SOL    HW215299   2.941   6.741   5.852
 1090SOL     OW15300   8.165   2.872   1.256
 1090SOL    HW115301   8.070   2.892   1.277
 1090SOL    HW215302   8.192   2.786   1.300
 1091SOL     OW15303   4.296   8.492   5.134
 1091SOL    HW115304   4.200   8.484   5.160
 1091SOL    HW215305   4.306   8.466   5.038
 1092SOL     OW15306   4.984   4.738   1.513
 1092SOL    HW115307   4.977   4.643   1.544
 1092SOL    HW215308   4.933   4.797   1.575
 1093SOL     OW15309   3.661   4.623   0.734
 1093SOL    HW115310   3.621   4.533   0.751
 1093SOL    HW215311   3.721   4.648   0.810
 1094SOL     OW15312   1.854   1.152   5.845
 1094SOL    HW115313   1.807   1.112   5.766
 1094SOL    HW215314   1.919   1.086   5.882
 1095SOL     OW15315   8.803   7.506   0.469
 1095SOL    HW115316   8.841   7.438   0.406
 1095SOL    HW215317   8.735   7.462   0.528
 1096SOL     OW15318   5.612   1.432   1.014
 1096SOL    HW115319   5.650   1.340   1.012
 1096SOL    HW215320   5.534   1.434   1.076
 1097SOL     OW15321   7.075   6.213   5.896
 1097SOL    HW115322   7.143   6.194   5.825
 1097SOL    HW215323   7.085   6.146   5.970
 1098SOL     OW15324   4.975   7.224   5.933
 1098SOL    HW115325   4.975   7.261   5.840
 1098SOL    HW215326   5.038   7.147   5.938
 1099SOL     OW15327   2.505   0.656   5.415
 1099SOL    HW115328   2.411   0.679   5.437
 1099SOL    HW215329   2.511   0.561   5.385
 1100SOL     OW15330   0.786   7.086   1.025
 1100SOL    HW115331   0.844   7.085   1.107
 1100SOL    HW215332   0.753   7.180   1.010
 1101SOL     OW15333   8.499   0.802   0.979
 1101SOL    HW115334   8.553   0.740   1.036
 1101SOL    HW215335   8.558   0.844   0.910
 1102SOL     OW15336   6.269   2.036   6.404
 1102SOL    HW115337   6.319   2.103   6.349
 1102SOL    HW215338   6.253   2.073   6.496
 1103SOL     OW15339   7.940   3.946   5.408
 1103SOL    HW115340   7.860   3.895   5.440
 1103SOL    HW215341   7.961   3.920   5.314
 1104SOL     OW15342   7.788   3.511   1.365
 1104SOL    HW115343   7.829   3.423   1.387
 1104SOL    HW215344   7.855   3.584   1.382
 1105SOL     OW15345   6.053   3.931   6.284
 1105SOL    HW115346   6.019   3.934   6.378
 1105SOL    HW215347   6.117   3.854   6.274
 1106SOL     OW15348   4.398   2.280   1.183
 1106SOL    HW115349   4.466   2.317   1.247
 1106SOL    HW215350   4.435   2.197   1.141
 1107SOL     OW15351   3.591   5.178   1.848
 1107SOL    HW115352   3.541   5.239   1.909
 1107SOL    HW215353   3.653   5.121   1.902
 1108SOL     OW15354   1.948   4.901   5.091
 1108SOL    HW115355   1.957   4.813   5.138
 1108SOL    HW215356   1.945   4.886   4.992
 1109SOL     OW15357   0.517   5.502   5.466
 1109SOL    HW115358   0.465   5.491   5.381
 1109SOL    HW215359   0.597   5.442   5.464
 1110SOL     OW15360   2.492   4.439   0.525
 1110SOL    HW115361   2.564   4.378   0.558
 1110SOL    HW215362   2.504   4.530   0.564
 1111SOL     OW15363   4.922   0.074   6.094
 1111SOL    HW115364   4.852   0.015   6.135
 1111SOL    HW215365   4.889   0.168   6.092
 1112SOL     OW15366   6.760   5.516   6.006
 1112SOL    HW115367   6.800   5.489   5.918
 1112SOL    HW215368   6.680   5.573   5.990
 1113SOL     OW15369   4.195   4.356   0.916
 1113SOL    HW115370   4.214   4.427   0.984
 1113SOL    HW215371   4.278   4.338   0.864
 1114SOL     OW15372   6.357   4.546   0.453
 1114SOL    HW115373   6.429   4.609   0.426
 1114SOL    HW215374   6.396   4.456   0.470
 1115SOL     OW15375   0.108   5.514   0.823
 1115SOL    HW115376   0.088   5.535   0.919
 1115SOL    HW215377   0.110   5.598   0.770
 1116SOL     OW15378   0.894   3.329   0.891
 1116SOL    HW115379   0.839   3.336   0.808
 1116SOL    HW215380   0.835   3.344   0.971
 1117SOL     OW15381   4.682   3.001   6.734
 1117SOL    HW115382   4.701   3.028   6.639
 1117SOL    HW215383   4.673   3.083   6.791
 1118SOL     OW15384   7.912   2.799   0.169
 1118SOL    HW115385   7.921   2.794   0.268
 1118SOL    HW215386   7.891   2.893   0.141
 1119SOL     OW15387   8.173   8.073   6.084
 1119SOL    HW115388   8.087   8.073   6.136
 1119SOL    HW215389   8.167   8.005   6.010
 1120SOL     OW15390   0.382   8.031   6.681
 1120SOL    HW115391   0.298   8.002   6.727
 1120SOL    HW215392   0.368   8.031   6.582
 1121SOL     OW15393   3.112   0.803   6.692
 1121SOL    HW115394   3.193   0.825   6.746
 1121SOL    HW215395   3.036   0.862   6.720
 1122SOL     OW15396   6.841   0.037   5.776
 1122SOL    HW115397   6.919   0.098   5.761
 1122SOL    HW215398   6.873  -0.057   5.784
 1123SOL     OW15399   9.423   5.741   0.222
 1123SOL    HW115400   9.369   5.760   0.304
 1123SOL    HW215401   9.431   5.643   0.209
 1124SOL     OW15402   0.651   1.365   0.600
 1124SOL    HW115403   0.626   1.414   0.683
 1124SOL    HW215404   0.630   1.422   0.520
 1125SOL     OW15405   8.233   4.855   5.567
 1125SOL    HW115406   8.213   4.806   5.482
 1125SOL    HW215407   8.279   4.794   5.631
 1126SOL     OW15408   6.652   0.578   0.039
 1126SOL    HW115409   6.691   0.524   0.114
 1126SOL    HW215410   6.676   0.536  -0.048
 1127SOL     OW15411   0.077   6.530   4.828
 1127SOL    HW115412  -0.010   6.514   4.781
 1127SOL    HW215413   0.152   6.528   4.761
 1128SOL     OW15414   3.588   6.892   5.573
 1128SOL    HW115415   3.558   6.834   5.649
 1128SOL    HW215416   3.509   6.919   5.519
 1129SOL     OW15417   1.902   5.004   5.554
 1129SOL    HW115418   1.887   5.030   5.459
 1129SOL    HW215419   1.936   4.910   5.558
 1130SOL     OW15420   5.901   1.854   0.865
 1130SOL    HW115421   5.866   1.762   0.882
 1130SOL    HW215422   5.947   1.888   0.947
 1131SOL     OW15423   5.084   3.609   1.101
 1131SOL    HW115424   5.109   3.689   1.156
 1131SOL    HW215425   5.134   3.611   1.014
 1132SOL     OW15426   9.133   4.344   0.452
 1132SOL    HW115427   9.162   4.410   0.383
 1132SOL    HW215428   9.154   4.252   0.421
 1133SOL     OW15429   1.998   4.828   0.181
 1133SOL    HW115430   1.989   4.789   0.090
 1133SOL    HW215431   2.083   4.795   0.223
 1134SOL     OW15432   3.233   2.482   2.597
 1134SOL    HW115433   3.256   2.540   2.519
 1134SOL    HW215434   3.286   2.512   2.677
 1135SOL     OW15435   6.304   5.961   6.051
 1135SOL    HW115436   6.265   5.882   6.100
 1135SOL    HW215437   6.242   5.987   5.977
 1136SOL     OW15438   2.258   3.969   6.449
 1136SOL    HW115439   2.207   3.935   6.528
 1136SOL    HW215440   2.286   4.064   6.465
 1137SOL     OW15441   8.692   3.453   6.201
 1137SOL    HW115442   8.663   3.537   6.156
 1137SOL    HW215443   8.664   3.455   6.297
 1138SOL     OW15444   9.112   6.081   6.075
 1138SOL    HW115445   9.102   5.988   6.039
 1138SOL    HW215446   9.176   6.080   6.152
 1139SOL     OW15447   6.079   6.094   5.906
 1139SOL    HW115448   6.006   6.046   5.858
 1139SOL    HW215449   6.057   6.100   6.003
 1140SOL     OW15450   9.376   8.001   0.931
 1140SOL    HW115451   9.339   7.986   0.840
 1140SOL    HW215452   9.375   8.099   0.952
 1141SOL     OW15453   8.586   6.301   0.821
 1141SOL    HW115454   8.553   6.217   0.778
 1141SOL    HW215455   8.646   6.277   0.898
 1142SOL     OW15456   9.387   2.502   0.718
 1142SOL    HW115457   9.487   2.494   0.718
 1142SOL    HW215458   9.361   2.597   0.702
 1143SOL     OW15459   4.670   4.872   5.252
 1143SOL    HW115460   4.753   4.915   5.288
 1143SOL    HW215461   4.620   4.939   5.198
 1144SOL     OW15462   1.190   7.549   5.888
 1144SOL    HW115463   1.109   7.605   5.871
 1144SOL    HW215464   1.198   7.529   5.985
 1145SOL     OW15465   4.225   1.562   5.846
 1145SOL    HW115466   4.171   1.480   5.827
 1145SOL    HW215467   4.288   1.579   5.770
 1146SOL     OW15468   1.547   8.466   4.872
 1146SOL    HW115469   1.637   8.478   4.832
 1146SOL    HW215470   1.495   8.400   4.817
 1147SOL     OW15471   2.958   1.987   1.721
 1147SOL    HW115472   2.936   1.963   1.626
 1147SOL    HW215473   3.027   2.060   1.722
 1148SOL     OW15474   6.834   0.908   0.568
 1148SOL    HW115475   6.804   0.817   0.541
 1148SOL    HW215476   6.847   0.964   0.486
 1149SOL     OW15477   9.315   5.292   5.748
 1149SOL    HW115478   9.323   5.390   5.767
 1149SOL    HW215479   9.302   5.243   5.834
 1150SOL     OW15480   7.716   3.629   6.393
 1150SOL    HW115481   7.676   3.549   6.438
 1150SOL    HW215482   7.780   3.600   6.323
 1151SOL     OW15483   4.726   5.831   0.231
 1151SOL    HW115484   4.656   5.885   0.184
 1151SOL    HW215485   4.795   5.892   0.270
 1152SOL     OW15486   6.619   1.528   0.153
 1152SOL    HW115487   6.560   1.486   0.223
 1152SOL    HW215488   6.661   1.457   0.097
 1153SOL     OW15489   4.405   7.828   5.743
 1153SOL    HW115490   4.490   7.818   5.692
 1153SOL    HW215491   4.356   7.741   5.742
 1154SOL     OW15492   2.484   5.395   5.866
 1154SOL    HW115493   2.454   5.480   5.910
 1154SOL    HW215494   2.580   5.404   5.840
 1155SOL     OW15495   2.729   3.569   6.540
 1155SOL    HW115496   2.648   3.608   6.585
 1155SOL    HW215497   2.734   3.602   6.446
 1156SOL     OW15498   0.756   5.687   6.214
 1156SOL    HW115499   0.854   5.700   6.202
 1156SOL    HW215500   0.740   5.618   6.285
 1157SOL     OW15501   3.039   1.720   1.768
 1157SOL    HW115502   3.013   1.816   1.759
 1157SOL    HW215503   3.126   1.704   1.721
 1158SOL     OW15504   7.074   1.089   0.136
 1158SOL    HW115505   7.129   1.169   0.160
 1158SOL    HW215506   7.133   1.021   0.091
 1159SOL     OW15507   9.416   5.695   0.503
 1159SOL    HW115508   9.403   5.597   0.519
 1159SOL    HW215509   9.342   5.746   0.545
 1160SOL     OW15510   0.643   6.276   5.024
 1160SOL    HW115511   0.700   6.260   5.104
 1160SOL    HW215512   0.695   6.257   4.941
 1161SOL     OW15513   2.413   4.388   1.211
 1161SOL    HW115514   2.497   4.414   1.162
 1161SOL    HW215515   2.434   4.318   1.279
 1162SOL     OW15516   8.918   5.257   6.684
 1162SOL    HW115517   8.895   5.297   6.595
 1162SOL    HW215518   8.849   5.282   6.751
 1163SOL     OW15519   4.740   6.095   6.151
 1163SOL    HW115520   4.774   6.081   6.058
 1163SOL    HW215521   4.713   6.008   6.191
 1164SOL     OW15522   5.642   7.541   0.115
 1164SOL    HW115523   5.589   7.525   0.031
 1164SOL    HW215524   5.580   7.538   0.194
 1165SOL     OW15525   0.522   0.008   0.409
 1165SOL    HW115526   0.616  -0.002   0.442
 1165SOL    HW215527   0.467  -0.068   0.442
 1166SOL     OW15528   1.189   2.996   5.777
 1166SOL    HW115529   1.248   3.023   5.701
 1166SOL    HW215530   1.124   3.070   5.796
 1167SOL     OW15531   8.745   7.513   6.051
 1167SOL    HW115532   8.735   7.507   6.151
 1167SOL    HW215533   8.798   7.594   6.028
 1168SOL     OW15534   1.532   6.648   5.551
 1168SOL    HW115535   1.495   6.730   5.507
 1168SOL    HW215536   1.525   6.658   5.650
 1169SOL     OW15537   0.946   7.174   6.351
 1169SOL    HW115538   0.856   7.150   6.387
 1169SOL    HW215539   0.955   7.138   6.258
 1170SOL     OW15540   4.563   5.509   0.461
 1170SOL    HW115541   4.582   5.600   0.499
 1170SOL    HW215542   4.626   5.443   0.502
 1171SOL     OW15543   1.999   6.040   6.079
 1171SOL    HW115544   1.914   6.045   6.027
 1171SOL    HW215545   2.020   6.130   6.118
 1172SOL     OW15546   6.039   1.881   5.843
 1172SOL    HW115547   6.040   1.890   5.743
 1172SOL    HW215548   6.120   1.926   5.880
 1173SOL     OW15549   0.729   1.059   5.757
 1173SOL    HW115550   0.737   1.139   5.697
 1173SOL    HW215551   0.801   1.063   5.826
 1174SOL     OW15552   0.364   0.361   6.543
 1174SOL    HW115553   0.432   0.400   6.481
 1174SOL    HW215554   0.407   0.338   6.630
 1175SOL     OW15555   4.371   2.927   6.420
 1175SOL    HW115556   4.353   2.872   6.501
 1175SOL    HW215557   4.401   2.867   6.345
 1176SOL     OW15558   7.292   7.105   6.440
 1176SOL    HW115559   7.307   7.007   6.457
 1176SOL    HW215560   7.193   7.123   6.438
 1177SOL     OW15561   1.442   7.779   6.322
 1177SOL    HW115562   1.389   7.700   6.291
 1177SOL    HW215563   1.488   7.822   6.244
 1178SOL     OW15564   5.415   8.374   6.583
 1178SOL    HW115565   5.440   8.428   6.664
 1178SOL    HW215566   5.414   8.434   6.503
 1179SOL     OW15567   7.078   7.242   0.607
 1179SOL    HW115568   7.059   7.158   0.557
 1179SOL    HW215569   7.020   7.316   0.572
 1180SOL     OW15570   6.560   4.468   5.882
 1180SOL    HW115571   6.645   4.423   5.910
 1180SOL    HW215572   6.573   4.567   5.880
 1181SOL     OW15573   0.510   6.970   5.731
 1181SOL    HW115574   0.519   6.909   5.652
 1181SOL    HW215575   0.571   6.937   5.804
 1182SOL     OW15576   0.532   7.715   0.261
 1182SOL    HW115577   0.631   7.706   0.249
 1182SOL    HW215578   0.505   7.810   0.246
 1183SOL     OW15579   8.625   7.823   0.301
 1183SOL    HW115580   8.587   7.732   0.321
 1183SOL    HW215581   8.724   7.820   0.307
 1184SOL     OW15582   8.319   7.054   1.663
 1184SOL    HW115583   8.231   7.099   1.645
 1184SOL    HW215584   8.351   7.080   1.754
 1185SOL     OW15585   4.623   6.152   1.355
 1185SOL    HW115586   4.587   6.094   1.281
 1185SOL    HW215587   4.608   6.248   1.331
 1186SOL     OW15588   2.473   0.835   6.135
 1186SOL    HW115589   2.471   0.735   6.136
 1186SOL    HW215590   2.541   0.868   6.200
 1187SOL     OW15591   3.948   0.473   6.676
 1187SOL    HW115592   3.964   0.397   6.739
 1187SOL    HW215593   4.030   0.487   6.620
 1188SOL     OW15594   5.246   6.679   0.881
 1188SOL    HW115595   5.215   6.692   0.975
 1188SOL    HW215596   5.210   6.753   0.824
 1189SOL     OW15597   7.606   8.190   0.459
 1189SOL    HW115598   7.696   8.147   0.446
 1189SOL    HW215599   7.619   8.286   0.486
 1190SOL     OW15600   2.201   4.392   1.040
 1190SOL    HW115601   2.125   4.383   1.104
 1190SOL    HW215602   2.287   4.395   1.090
 1191SOL     OW15603   3.895   7.868   0.419
 1191SOL    HW115604   3.930   7.793   0.474
 1191SOL    HW215605   3.814   7.907   0.463
 1192SOL     OW15606   6.095   1.994   0.491
 1192SOL    HW115607   6.037   1.986   0.410
 1192SOL    HW215608   6.162   1.920   0.491
 1193SOL     OW15609   1.121   2.230   6.048
 1193SOL    HW115610   1.179   2.299   6.005
 1193SOL    HW215611   1.026   2.263   6.051
 1194SOL     OW15612   6.324   6.160   6.347
 1194SOL    HW115613   6.367   6.090   6.404
 1194SOL    HW215614   6.354   6.251   6.377
 1195SOL     OW15615   4.178   4.012   1.928
 1195SOL    HW115616   4.185   3.933   1.988
 1195SOL    HW215617   4.267   4.057   1.922
 1196SOL     OW15618   0.038   0.584   0.098
 1196SOL    HW115619   0.017   0.678   0.069
 1196SOL    HW215620   0.069   0.531   0.020
 1197SOL     OW15621   7.751   5.871   5.110
 1197SOL    HW115622   7.821   5.915   5.054
 1197SOL    HW215623   7.680   5.938   5.132
 1198SOL     OW15624   8.658   7.439   1.270
 1198SOL    HW115625   8.711   7.414   1.351
 1198SOL    HW215626   8.565   7.403   1.280
 1199SOL     OW15627   9.065   6.597   0.604
 1199SOL    HW115628   8.976   6.551   0.603
 1199SOL    HW215629   9.052   6.696   0.614
 1200SOL     OW15630   5.042   7.710   1.164
 1200SOL    HW115631   4.983   7.673   1.093
 1200SOL    HW215632   5.103   7.638   1.198
 1201SOL     OW15633   8.510   6.294   4.762
 1201SOL    HW115634   8.447   6.317   4.687
 1201SOL    HW215635   8.594   6.256   4.724
 1202SOL     OW15636   4.632   4.344   0.038
 1202SOL    HW115637   4.730   4.334   0.024
 1202SOL    HW215638   4.606   4.298   0.123
 1203SOL     OW15639   7.534   4.917   1.220
 1203SOL    HW115640   7.589   4.866   1.286
 1203SOL    HW215641   7.595   4.970   1.160
 1204SOL     OW15642   5.728   5.478   0.694
 1204SOL    HW115643   5.642   5.501   0.739
 1204SOL    HW215644   5.763   5.392   0.732
 1205SOL     OW15645   3.414   3.189   0.547
 1205SOL    HW115646   3.341   3.242   0.504
 1205SOL    HW215647   3.443   3.234   0.631
 1206SOL     OW15648   2.585   5.290   5.580
 1206SOL    HW115649   2.681   5.265   5.568
 1206SOL    HW215650   2.553   5.257   5.669
 1207SOL     OW15651   0.079   6.860   3.959
 1207SOL    HW115652   0.040   6.812   3.880
 1207SOL    HW215653   0.009   6.916   4.003
 1208SOL     OW15654   2.325   8.383   1.020
 1208SOL    HW115655   2.286   8.306   1.070
 1208SOL    HW215656   2.404   8.351   0.966
 1209SOL     OW15657   6.705   1.112   1.201
 1209SOL    HW115658   6.728   1.020   1.232
 1209SOL    HW215659   6.779   1.175   1.223
 1210SOL     OW15660   7.711   3.177   1.117
 1210SOL    HW115661   7.785   3.141   1.062
 1210SOL    HW215662   7.714   3.136   1.209
 1211SOL     OW15663   4.526   1.259   6.165
 1211SOL    HW115664   4.548   1.263   6.262
 1211SOL    HW215665   4.610   1.240   6.113
 1212SOL     OW15666   6.772   7.003   6.215
 1212SOL    HW115667   6.756   6.917   6.166
 1212SOL    HW215668   6.813   7.070   6.152
 1213SOL     OW15669   6.818   2.785   6.477
 1213SOL    HW115670   6.884   2.830   6.537
 1213SOL    HW215671   6.811   2.689   6.502
 1214SOL     OW15672   9.000   6.636   0.261
 1214SOL    HW115673   8.953   6.682   0.186
 1214SOL    HW215674   9.097   6.628   0.241
 1215SOL     OW15675   4.173   7.053   1.452
 1215SOL    HW115676   4.229   6.970   1.449
 1215SOL    HW215677   4.117   7.059   1.369
 1216SOL     OW15678   2.851   1.004   0.954
 1216SOL    HW115679   2.812   0.965   0.871
 1216SOL    HW215680   2.786   1.068   0.995
 1217SOL     OW15681   3.751   3.224   5.964
 1217SOL    HW115682   3.668   3.170   5.949
 1217SOL    HW215683   3.826   3.187   5.910
 1218SOL     OW15684   5.416   4.432   5.837
 1218SOL    HW115685   5.376   4.341   5.825
 1218SOL    HW215686   5.432   4.473   5.748
 1219SOL     OW15687   5.178   7.707   0.694
 1219SOL    HW115688   5.140   7.703   0.601
 1219SOL    HW215689   5.254   7.772   0.695
 1220SOL     OW15690   5.592   6.233   1.333
 1220SOL    HW115691   5.529   6.248   1.258
 1220SOL    HW215692   5.678   6.196   1.297
 1221SOL     OW15693   4.791   0.935   1.223
 1221SOL    HW115694   4.709   0.878   1.231
 1221SOL    HW215695   4.868   0.877   1.195
 1222SOL     OW15696   0.089   8.201   6.710
 1222SOL    HW115697   0.011   8.170   6.764
 1222SOL    HW215698   0.162   8.231   6.771
 1223SOL     OW15699   4.508   0.252   5.989
 1223SOL    HW115700   4.522   0.274   5.892
 1223SOL    HW215701   4.464   0.162   5.996
 1224SOL     OW15702   9.182   4.714   5.470
 1224SOL    HW115703   9.187   4.676   5.377
 1224SOL    HW215704   9.274   4.736   5.501
 1225SOL     OW15705   4.668   1.597   1.933
 1225SOL    HW115706   4.708   1.686   1.954
 1225SOL    HW215707   4.740   1.529   1.925
 1226SOL     OW15708   0.583   7.710   5.587
 1226SOL    HW115709   0.593   7.627   5.533
 1226SOL    HW215710   0.498   7.705   5.640
 1227SOL     OW15711   0.114   0.294   0.687
 1227SOL    HW115712   0.175   0.303   0.766
 1227SOL    HW215713   0.169   0.291   0.604
 1228SOL     OW15714   8.488   1.044   5.255
 1228SOL    HW115715   8.540   0.959   5.264
 1228SOL    HW215716   8.445   1.047   5.165
 1229SOL     OW15717   6.770   5.031   5.650
 1229SOL    HW115718   6.792   4.959   5.584
 1229SOL    HW215719   6.810   5.117   5.620
 1230SOL     OW15720   1.161   1.312   5.803
 1230SOL    HW115721   1.093   1.296   5.875
 1230SOL    HW215722   1.247   1.267   5.828
 1231SOL     OW15723   2.918   0.683   1.622
 1231SOL    HW115724   2.908   0.706   1.719
 1231SOL    HW215725   3.008   0.642   1.607
 1232SOL     OW15726   7.274   2.522   6.716
 1232SOL    HW115727   7.299   2.504   6.811
 1232SOL    HW215728   7.316   2.453   6.657
 1233SOL     OW15729   5.156   5.073   5.893
 1233SOL    HW115730   5.130   5.134   5.819
 1233SOL    HW215731   5.256   5.066   5.898
 1234SOL     OW15732   1.228   3.273   0.316
 1234SOL    HW115733   1.261   3.191   0.268
 1234SOL    HW215734   1.304   3.316   0.365
 1235SOL     OW15735   2.381   1.652   6.488
 1235SOL    HW115736   2.307   1.645   6.421
 1235SOL    HW215737   2.418   1.745   6.489
 1236SOL     OW15738   8.905   5.226   5.386
 1236SOL    HW115739   8.841   5.235   5.309
 1236SOL    HW215740   8.854   5.235   5.472
 1237SOL     OW15741   9.129   6.926   5.306
 1237SOL    HW115742   9.221   6.914   5.269
 1237SOL    HW215743   9.111   6.855   5.375
 1238SOL     OW15744   1.757   6.312   0.397
 1238SOL    HW115745   1.828   6.350   0.457
 1238SOL    HW215746   1.800   6.265   0.321
 1239SOL     OW15747   5.602   0.492   4.864
 1239SOL    HW115748   5.664   0.542   4.803
 1239SOL    HW215749   5.536   0.441   4.809
 1240SOL     OW15750   8.649   7.703   0.957
 1240SOL    HW115751   8.627   7.695   1.054
 1240SOL    HW215752   8.566   7.723   0.905
 1241SOL     OW15753   2.877   0.739   6.213
 1241SOL    HW115754   2.832   0.676   6.151
 1241SOL    HW215755   2.809   0.800   6.255
 1242SOL     OW15756   9.195   8.365   5.504
 1242SOL    HW115757   9.164   8.291   5.443
 1242SOL    HW215758   9.123   8.384   5.572
 1243SOL     OW15759   9.181   0.589   6.047
 1243SOL    HW115760   9.229   0.571   5.962
 1243SOL    HW215761   9.246   0.624   6.115
 1244SOL     OW15762   0.623   1.366   1.234
 1244SOL    HW115763   0.560   1.316   1.292
 1244SOL    HW215764   0.572   1.421   1.168
 1245SOL     OW15765   6.078   5.840   0.792
 1245SOL    HW115766   6.165   5.794   0.808
 1245SOL    HW215767   6.096   5.931   0.754
 1246SOL     OW15768   6.248   0.139   0.252
 1246SOL    HW115769   6.171   0.176   0.304
 1246SOL    HW215770   6.330   0.193   0.271
 1247SOL     OW15771   7.579   0.923   6.070
 1247SOL    HW115772   7.595   0.968   5.981
 1247SOL    HW215773   7.492   0.874   6.067
 1248SOL     OW15774   0.016   1.659   0.862
 1248SOL    HW115775   0.108   1.669   0.902
 1248SOL    HW215776   0.012   1.708   0.775
 1249SOL     OW15777   3.846   2.683   0.898
 1249SOL    HW115778   3.819   2.609   0.960
 1249SOL    HW215779   3.781   2.689   0.822
 1250SOL     OW15780   7.845   3.604   0.382
 1250SOL    HW115781   7.773   3.642   0.324
 1250SOL    HW215782   7.916   3.673   0.396
 1251SOL     OW15783   4.710   5.835   6.298
 1251SOL    HW115784   4.777   5.829   6.372
 1251SOL    HW215785   4.625   5.793   6.328
 1252SOL     OW15786   4.056   8.294   1.311
 1252SOL    HW115787   4.087   8.316   1.403
 1252SOL    HW215788   3.985   8.358   1.283
 1253SOL     OW15789   8.442   1.824   5.692
 1253SOL    HW115790   8.452   1.760   5.615
 1253SOL    HW215791   8.351   1.866   5.689
 1254SOL     OW15792   8.297   0.469   5.526
 1254SOL    HW115793   8.370   0.519   5.572
 1254SOL    HW215794   8.305   0.482   5.427
 1255SOL     OW15795   8.070   4.606   5.766
 1255SOL    HW115796   8.085   4.529   5.705
 1255SOL    HW215797   8.145   4.613   5.831
 1256SOL     OW15798   1.820   5.570   5.609
 1256SOL    HW115799   1.787   5.479   5.634
 1256SOL    HW215800   1.811   5.584   5.511
 1257SOL     OW15801   7.384   6.140   0.893
 1257SOL    HW115802   7.372   6.227   0.941
 1257SOL    HW215803   7.295   6.097   0.880
 1258SOL     OW15804   4.364   2.157   1.720
 1258SOL    HW115805   4.408   2.085   1.774
 1258SOL    HW215806   4.433   2.208   1.670
 1259SOL     OW15807   3.602   2.032   2.234
 1259SOL    HW115808   3.563   1.948   2.195
 1259SOL    HW215809   3.640   2.012   2.325
 1260SOL     OW15810   1.298   0.247   5.382
 1260SOL    HW115811   1.253   0.158   5.375
 1260SOL    HW215812   1.237   0.310   5.430
 1261SOL     OW15813   3.291   7.633   1.044
 1261SOL    HW115814   3.383   7.595   1.039
 1261SOL    HW215815   3.241   7.611   0.961
 1262SOL     OW15816   1.984   7.624   0.483
 1262SOL    HW115817   2.015   7.535   0.449
 1262SOL    HW215818   1.993   7.692   0.411
 1263SOL     OW15819   4.773   1.355   0.998
 1263SOL    HW115820   4.849   1.415   0.976
 1263SOL    HW215821   4.777   1.329   1.095
 1264SOL     OW15822   7.774   0.761   6.215
 1264SOL    HW115823   7.700   0.807   6.166
 1264SOL    HW215824   7.802   0.679   6.164
 1265SOL     OW15825   1.767   5.028   1.195
 1265SOL    HW115826   1.749   5.069   1.106
 1265SOL    HW215827   1.755   4.929   1.189
 1266SOL     OW15828   5.967   2.303   1.404
 1266SOL    HW115829   6.030   2.364   1.452
 1266SOL    HW215830   5.878   2.347   1.394
 1267SOL     OW15831   9.123   0.619   0.130
 1267SOL    HW115832   9.172   0.694   0.174
 1267SOL    HW215833   9.187   0.547   0.104
 1268SOL     OW15834   0.601   5.952   5.903
 1268SOL    HW115835   0.547   6.034   5.923
 1268SOL    HW215836   0.541   5.873   5.893
 1269SOL     OW15837   6.223   2.058   0.795
 1269SOL    HW115838   6.123   2.063   0.788
 1269SOL    HW215839   6.263   2.081   0.706
 1270SOL     OW15840   2.438   1.832   0.095
 1270SOL    HW115841   2.515   1.894   0.108
 1270SOL    HW215842   2.469   1.737   0.103
 1271SOL     OW15843   4.395   3.334   5.996
 1271SOL    HW115844   4.403   3.378   5.907
 1271SOL    HW215845   4.330   3.385   6.053
 1272SOL     OW15846   5.875   6.265   6.447
 1272SOL    HW115847   5.925   6.351   6.446
 1272SOL    HW215848   5.853   6.237   6.354
 1273SOL     OW15849   6.195   7.475   0.963
 1273SOL    HW115850   6.103   7.435   0.961
 1273SOL    HW215851   6.235   7.470   0.872
 1274SOL     OW15852   1.198   5.864   0.478
 1274SOL    HW115853   1.211   5.949   0.427
 1274SOL    HW215854   1.145   5.883   0.561
 1275SOL     OW15855   8.309   4.570   5.869
 1275SOL    HW115856   8.354   4.642   5.923
 1275SOL    HW215857   8.379   4.518   5.820
 1276SOL     OW15858   1.520   3.603   5.970
 1276SOL    HW115859   1.477   3.651   5.893
 1276SOL    HW215860   1.618   3.619   5.968
 1277SOL     OW15861   2.475   0.297   1.612
 1277SOL    HW115862   2.528   0.219   1.579
 1277SOL    HW215863   2.411   0.267   1.683
 1278SOL     OW15864   4.058   7.346   6.463
 1278SOL    HW115865   4.001   7.411   6.414
 1278SOL    HW215866   4.085   7.271   6.402
 1279SOL     OW15867   1.292   6.335   6.571
 1279SOL    HW115868   1.223   6.392   6.526
 1279SOL    HW215869   1.288   6.349   6.670
 1280SOL     OW15870   6.980   6.069   5.382
 1280SOL    HW115871   7.044   6.069   5.304
 1280SOL    HW215872   6.899   6.015   5.359
 1281SOL     OW15873   7.368   7.847   6.055
 1281SOL    HW115874   7.410   7.936   6.036
 1281SOL    HW215875   7.326   7.811   5.972
 1282SOL     OW15876   4.554   1.273   5.580
 1282SOL    HW115877   4.534   1.352   5.523
 1282SOL    HW215878   4.472   1.217   5.591
 1283SOL     OW15879   2.209   0.375   2.015
 1283SOL    HW115880   2.141   0.389   2.087
 1283SOL    HW215881   2.212   0.456   1.956
 1284SOL     OW15882   9.238   7.977   0.367
 1284SOL    HW115883   9.296   8.014   0.440
 1284SOL    HW215884   9.269   7.886   0.343
 1285SOL     OW15885   6.356   2.049   1.049
 1285SOL    HW115886   6.300   2.047   0.967
 1285SOL    HW215887   6.389   2.143   1.065
 1286SOL     OW15888   8.300   6.482   1.631
 1286SOL    HW115889   8.217   6.435   1.663
 1286SOL    HW215890   8.365   6.487   1.706
 1287SOL     OW15891   5.886   3.536   6.262
 1287SOL    HW115892   5.977   3.497   6.255
 1287SOL    HW215893   5.830   3.503   6.186
 1288SOL     OW15894   2.902   3.985   6.104
 1288SOL    HW115895   2.981   3.991   6.043
 1288SOL    HW215896   2.856   4.074   6.108
 1289SOL     OW15897   6.292   4.405   1.343
 1289SOL    HW115898   6.208   4.361   1.373
 1289SOL    HW215899   6.350   4.423   1.423
 1290SOL     OW15900   5.357   0.073   6.395
 1290SOL    HW115901   5.373   0.165   6.430
 1290SOL    HW215902   5.309   0.077   6.308
 1291SOL     OW15903   8.455   5.737   6.428
 1291SOL    HW115904   8.433   5.805   6.358
 1291SOL    HW215905   8.422   5.769   6.517
 1292SOL     OW15906   5.737   0.193   1.343
 1292SOL    HW115907   5.770   0.101   1.363
 1292SOL    HW215908   5.804   0.241   1.287
 1293SOL     OW15909   0.281   7.339   0.044
 1293SOL    HW115910   0.328   7.250   0.040
 1293SOL    HW215911   0.267   7.373  -0.049
 1294SOL     OW15912   9.255   7.714   0.321
 1294SOL    HW115913   9.310   7.646   0.369
 1294SOL    HW215914   9.212   7.672   0.241
 1295SOL     OW15915   3.845   6.596   5.883
 1295SOL    HW115916   3.823   6.635   5.973
 1295SOL    HW215917   3.938   6.621   5.858
 1296SOL     OW15918   2.470   7.306   5.758
 1296SOL    HW115919   2.398   7.324   5.825
 1296SOL    HW215920   2.480   7.385   5.697
 1297SOL     OW15921   8.075   3.991   6.354
 1297SOL    HW115922   8.127   3.954   6.431
 1297SOL    HW215923   7.980   3.958   6.360
 1298SOL     OW15924   0.742   8.221   4.985
 1298SOL    HW115925   0.697   8.305   4.954
 1298SOL    HW215926   0.674   8.161   5.027
 1299SOL     OW15927   3.324   1.596   5.924
 1299SOL    HW115928   3.381   1.523   5.885
 1299SOL    HW215929   3.304   1.664   5.853
 1300SOL     OW15930   7.815   7.721   0.192
 1300SOL    HW115931   7.910   7.741   0.214
 1300SOL    HW215932   7.780   7.652   0.255
 1301SOL     OW15933   4.643   1.550   0.595
 1301SOL    HW115934   4.573   1.507   0.653
 1301SOL    HW215935   4.724   1.492   0.591
 1302SOL     OW15936   1.878   3.024   0.838
 1302SOL    HW115937   1.907   3.012   0.933
 1302SOL    HW215938   1.805   2.960   0.817
 1303SOL     OW15939   0.193   0.326   0.974
 1303SOL    HW115940   0.152   0.405   1.019
 1303SOL    HW215941   0.143   0.244   0.999
 1304SOL     OW15942   7.199   6.754   6.141
 1304SOL    HW115943   7.131   6.815   6.100
 1304SOL    HW215944   7.181   6.660   6.112
 1305SOL     OW15945   7.548   0.199   1.072
 1305SOL    HW115946   7.553   0.262   1.149
 1305SOL    HW215947   7.632   0.145   1.068
 1306SOL     OW15948   7.176   3.763   1.116
 1306SOL    HW115949   7.079   3.743   1.117
 1306SOL    HW215950   7.203   3.806   1.202
 1307SOL     OW15951   1.020   3.111   6.007
 1307SOL    HW115952   0.951   3.052   6.049
 1307SOL    HW215953   1.036   3.191   6.066
 1308SOL     OW15954   8.589   3.094   5.420
 1308SOL    HW115955   8.520   3.070   5.489
 1308SOL    HW215956   8.566   3.051   5.333
 1309SOL     OW15957   2.286   6.131   5.703
 1309SOL    HW115958   2.221   6.057   5.720
 1309SOL    HW215959   2.335   6.113   5.618
 1310SOL     OW15960   4.081   8.427   0.935
 1310SOL    HW115961   4.012   8.396   0.999
 1310SOL    HW215962   4.037   8.466   0.854
 1311SOL     OW15963   5.144   0.740   0.762
 1311SOL    HW115964   5.082   0.734   0.684
 1311SOL    HW215965   5.234   0.706   0.736
 1312SOL     OW15966   4.921   7.002   6.656
 1312SOL    HW115967   4.987   7.037   6.723
 1312SOL    HW215968   4.830   6.996   6.699
 1313SOL     OW15969   2.761   6.210   5.898
 1313SOL    HW115970   2.682   6.149   5.908
 1313SOL    HW215971   2.733   6.303   5.921
 1314SOL     OW15972   6.331   5.029   6.637
 1314SOL    HW115973   6.247   4.983   6.608
 1314SOL    HW215974   6.343   5.114   6.585
 1315SOL     OW15975   9.199   5.679   6.620
 1315SOL    HW115976   9.110   5.723   6.632
 1315SOL    HW215977   9.272   5.745   6.637
 1316SOL     OW15978   5.025   7.914   6.482
 1316SOL    HW115979   5.081   7.832   6.467
 1316SOL    HW215980   5.080   7.995   6.463
 1317SOL     OW15981   7.907   3.864   0.070
 1317SOL    HW115982   7.847   3.929   0.024
 1317SOL    HW215983   7.956   3.911   0.143
 1318SOL     OW15984   5.088   3.057   0.384
 1318SOL    HW115985   5.006   3.022   0.340
 1318SOL    HW215986   5.161   3.068   0.316
 1319SOL     OW15987   9.152   3.289   1.547
 1319SOL    HW115988   9.214   3.237   1.607
 1319SOL    HW215989   9.109   3.228   1.481
 1320SOL     OW15990   4.852   1.027   6.253
 1320SOL    HW115991   4.868   0.952   6.316
 1320SOL    HW215992   4.926   1.031   6.186
 1321SOL     OW15993   5.750   0.097   2.065
 1321SOL    HW115994   5.800   0.163   2.120
 1321SOL    HW215995   5.755   0.007   2.108
 1322SOL     OW15996   7.959   4.142   0.411
 1322SOL    HW115997   7.995   4.233   0.394
 1322SOL    HW215998   8.014   4.074   0.363
 1323SOL     OW15999   4.544   1.371   0.279
 1323SOL    HW116000   4.509   1.464   0.290
 1323SOL    HW216001   4.644   1.374   0.270
 1324SOL     OW16002   1.700   8.240   0.799
 1324SOL    HW116003   1.653   8.304   0.738
 1324SOL    HW216004   1.777   8.286   0.842
 1325SOL     OW16005   2.921   5.243   6.257
 1325SOL    HW116006   2.852   5.313   6.243
 1325SOL    HW216007   2.923   5.217   6.354
 1326SOL     OW16008   9.064   1.560   1.257
 1326SOL    HW116009   9.000   1.570   1.180
 1326SOL    HW216010   9.018   1.583   1.342
 1327SOL     OW16011   6.595   2.822   5.708
 1327SOL    HW116012   6.654   2.753   5.751
 1327SOL    HW216013   6.648   2.905   5.693
 1328SOL     OW16014   4.660   6.917   1.876
 1328SOL    HW116015   4.647   6.821   1.899
 1328SOL    HW216016   4.641   6.974   1.956
 1329SOL     OW16017   1.407   3.654   6.584
 1329SOL    HW116018   1.364   3.615   6.665
 1329SOL    HW216019   1.427   3.582   6.518
 1330SOL     OW16020   7.951   1.168   6.717
 1330SOL    HW116021   8.042   1.126   6.707
 1330SOL    HW216022   7.930   1.180   6.814
 1331SOL     OW16023   9.127   1.987   5.996
 1331SOL    HW116024   9.181   2.000   6.079
 1331SOL    HW216025   9.033   2.019   6.012
 1332SOL     OW16026   4.113   6.491   6.218
 1332SOL    HW116027   4.097   6.586   6.242
 1332SOL    HW216028   4.049   6.463   6.146
 1333SOL     OW16029   4.927   4.954   5.421
 1333SOL    HW116030   4.962   4.860   5.418
 1333SOL    HW216031   4.953   5.003   5.338
 1334SOL     OW16032   5.290   7.486   5.731
 1334SOL    HW116033   5.295   7.456   5.636
 1334SOL    HW216034   5.318   7.411   5.791
 1335SOL     OW16035   3.781   1.576   0.054
 1335SOL    HW116036   3.871   1.595   0.015
 1335SOL    HW216037   3.772   1.477   0.069
 1336SOL     OW16038   7.289   6.598   1.509
 1336SOL    HW116039   7.286   6.614   1.608
 1336SOL    HW216040   7.308   6.684   1.462
 1337SOL     OW16041   5.981   3.927   6.547
 1337SOL    HW116042   5.890   3.908   6.509
 1337SOL    HW216043   6.011   3.849   6.601
 1338SOL     OW16044   1.189   6.085   6.473
 1338SOL    HW116045   1.230   6.171   6.503
 1338SOL    HW216046   1.091   6.087   6.491
 1339SOL     OW16047   7.195   5.454   6.201
 1339SOL    HW116048   7.273   5.510   6.173
 1339SOL    HW216049   7.111   5.509   6.196
 1340SOL     OW16050   3.518   3.356   1.490
 1340SOL    HW116051   3.519   3.430   1.556
 1340SOL    HW216052   3.526   3.268   1.538
 1341SOL     OW16053   5.397   0.452   1.215
 1341SOL    HW116054   5.304   0.415   1.223
 1341SOL    HW216055   5.394   0.536   1.160
 1342SOL     OW16056   2.116   1.679   0.593
 1342SOL    HW116057   2.129   1.602   0.655
 1342SOL    HW216058   2.019   1.692   0.574
 1343SOL     OW16059   6.004   5.402   5.296
 1343SOL    HW116060   6.023   5.347   5.378
 1343SOL    HW216061   5.962   5.344   5.227
 1344SOL     OW16062   3.750   3.878   0.624
 1344SOL    HW116063   3.791   3.855   0.535
 1344SOL    HW216064   3.677   3.944   0.610
 1345SOL     OW16065   3.983   7.638   0.185
 1345SOL    HW116066   4.000   7.575   0.261
 1345SOL    HW216067   4.045   7.716   0.193
 1346SOL     OW16068   0.466   1.988   5.886
 1346SOL    HW116069   0.488   2.085   5.898
 1346SOL    HW216070   0.433   1.973   5.792
 1347SOL     OW16071   9.352   2.105   5.806
 1347SOL    HW116072   9.284   2.040   5.840
 1347SOL    HW216073   9.342   2.116   5.707
 1348SOL     OW16074   2.281   6.628   0.404
 1348SOL    HW116075   2.223   6.691   0.352
 1348SOL    HW216076   2.326   6.678   0.478
 1349SOL     OW16077   5.846   6.237   6.700
 1349SOL    HW116078   5.856   6.241   6.601
 1349SOL    HW216079   5.825   6.328   6.735
 1350SOL     OW16080   2.162   4.286   0.185
 1350SOL    HW116081   2.250   4.275   0.139
 1350SOL    HW216082   2.161   4.227   0.266
 1351SOL     OW16083   9.268   1.630   6.431
 1351SOL    HW116084   9.305   1.639   6.523
 1351SOL    HW216085   9.235   1.536   6.417
 1352SOL     OW16086   3.256   4.821   0.041
 1352SOL    HW116087   3.209   4.801   0.127
 1352SOL    HW216088   3.329   4.887   0.058
 1353SOL     OW16089   5.673   6.981   0.204
 1353SOL    HW116090   5.619   6.920   0.263
 1353SOL    HW216091   5.640   6.974   0.110
 1354SOL     OW16092   2.919   5.518   0.749
 1354SOL    HW116093   2.985   5.567   0.804
 1354SOL    HW216094   2.831   5.516   0.797
 1355SOL     OW16095   8.518   1.917   6.141
 1355SOL    HW116096   8.551   1.839   6.194
 1355SOL    HW216097   8.498   1.888   6.047
 1356SOL     OW16098   6.623   2.447   0.327
 1356SOL    HW116099   6.600   2.517   0.394
 1356SOL    HW216100   6.615   2.356   0.369
 1357SOL     OW16101   1.573   3.994   6.661
 1357SOL    HW116102   1.622   3.909   6.641
 1357SOL    HW216103   1.509   3.979   6.736
 1358SOL     OW16104   5.377   0.811   0.650
 1358SOL    HW116105   5.305   0.866   0.607
 1358SOL    HW216106   5.418   0.862   0.725
 1359SOL     OW16107   4.602   6.293   6.657
 1359SOL    HW116108   4.654   6.322   6.737
 1359SOL    HW216109   4.638   6.338   6.576
 1360SOL     OW16110   2.127   1.682   1.153
 1360SOL    HW116111   2.112   1.705   1.249
 1360SOL    HW216112   2.149   1.765   1.102
 1361SOL     OW16113   8.110   5.691   6.282
 1361SOL    HW116114   8.133   5.676   6.186
 1361SOL    HW216115   8.026   5.745   6.289
 1362SOL     OW16116   1.047   5.488   5.687
 1362SOL    HW116117   0.948   5.498   5.675
 1362SOL    HW216118   1.086   5.577   5.712
 1363SOL     OW16119   6.508   4.746   0.367
 1363SOL    HW116120   6.487   4.838   0.402
 1363SOL    HW216121   6.555   4.753   0.279
 1364SOL     OW16122   0.124   2.834   0.272
 1364SOL    HW116123   0.158   2.797   0.185
 1364SOL    HW216124   0.152   2.775   0.347
 1365SOL     OW16125   3.684   1.224   0.837
 1365SOL    HW116126   3.656   1.303   0.783
 1365SOL    HW216127   3.732   1.158   0.778
 1366SOL     OW16128   6.258   6.179   5.726
 1366SOL    HW116129   6.337   6.228   5.762
 1366SOL    HW216130   6.201   6.147   5.801
 1367SOL     OW16131   3.640   2.627   1.997
 1367SOL    HW116132   3.568   2.671   2.050
 1367SOL    HW216133   3.725   2.626   2.050
 1368SOL     OW16134   5.598   6.347   5.138
 1368SOL    HW116135   5.574   6.257   5.175
 1368SOL    HW216136   5.647   6.334   5.051
 1369SOL     OW16137   4.037   1.218   0.270
 1369SOL    HW116138   3.959   1.186   0.216
 1369SOL    HW216139   4.039   1.168   0.357
 1370SOL     OW16140   8.675   1.616   6.466
 1370SOL    HW116141   8.659   1.642   6.371
 1370SOL    HW216142   8.606   1.550   6.495
 1371SOL     OW16143   0.464   7.919   5.842
 1371SOL    HW116144   0.543   7.980   5.835
 1371SOL    HW216145   0.391   7.965   5.894
 1372SOL     OW16146   8.437   1.812   0.116
 1372SOL    HW116147   8.348   1.825   0.074
 1372SOL    HW216148   8.476   1.901   0.140
 1373SOL     OW16149   1.745   3.366   0.579
 1373SOL    HW116150   1.803   3.284   0.585
 1373SOL    HW216151   1.752   3.405   0.487
 1374SOL     OW16152   4.350   0.737   5.713
 1374SOL    HW116153   4.254   0.722   5.691
 1374SOL    HW216154   4.358   0.770   5.808
 1375SOL     OW16155   9.331   2.617   0.165
 1375SOL    HW116156   9.249   2.613   0.222
 1375SOL    HW216157   9.328   2.542   0.098
 1376SOL     OW16158   1.591   3.977   6.184
 1376SOL    HW116159   1.637   3.996   6.097
 1376SOL    HW216160   1.631   3.895   6.226
 1377SOL     OW16161   5.967   0.418   0.329
 1377SOL    HW116162   5.954   0.434   0.231
 1377SOL    HW216163   6.027   0.488   0.367
 1378SOL     OW16164   2.227   5.129   1.482
 1378SOL    HW116165   2.154   5.062   1.496
 1378SOL    HW216166   2.300   5.113   1.548
 1379SOL     OW16167   3.081   6.566   5.125
 1379SOL    HW116168   3.035   6.555   5.037
 1379SOL    HW216169   3.162   6.623   5.114
 1380SOL     OW16170   0.073   0.936   0.676
 1380SOL    HW116171   0.150   0.937   0.739
 1380SOL    HW216172  -0.010   0.908   0.725
 1381SOL     OW16173   0.500   7.800   4.946
 1381SOL    HW116174   0.492   7.885   4.895
 1381SOL    HW216175   0.436   7.732   4.909
 1382SOL     OW16176   4.334   5.258   0.226
 1382SOL    HW116177   4.271   5.319   0.179
 1382SOL    HW216178   4.284   5.179   0.262
 1383SOL     OW16179   1.797   5.352   5.087
 1383SOL    HW116180   1.852   5.329   5.167
 1383SOL    HW216181   1.717   5.292   5.082
 1384SOL     OW16182   2.589   6.787   6.516
 1384SOL    HW116183   2.600   6.883   6.540
 1384SOL    HW216184   2.636   6.730   6.583
 1385SOL     OW16185   9.446   8.378   1.226
 1385SOL    HW116186   9.485   8.464   1.192
 1385SOL    HW216187   9.406   8.394   1.316
 1386SOL     OW16188   6.687   5.447   5.617
 1386SOL    HW116189   6.690   5.361   5.566
 1386SOL    HW216190   6.778   5.468   5.652
 1387SOL     OW16191   4.662   5.358   5.416
 1387SOL    HW116192   4.622   5.268   5.435
 1387SOL    HW216193   4.601   5.410   5.356
 1388SOL     OW16194   1.095   5.741   5.995
 1388SOL    HW116195   1.134   5.710   5.908
 1388SOL    HW216196   1.015   5.798   5.977
 1389SOL     OW16197   8.847   5.698   0.987
 1389SOL    HW116198   8.934   5.741   1.012
 1389SOL    HW216199   8.771   5.753   1.022
 1390SOL     OW16200   9.276   1.293   0.101
 1390SOL    HW116201   9.193   1.327   0.144
 1390SOL    HW216202   9.252   1.231   0.027
 1391SOL     OW16203   6.832   3.661   5.910
 1391SOL    HW116204   6.864   3.704   5.825
 1391SOL    HW216205   6.808   3.566   5.891
 1392SOL     OW16206   0.749   3.754   0.315
 1392SOL    HW116207   0.826   3.690   0.316
 1392SOL    HW216208   0.769   3.829   0.253
 1393SOL     OW16209   3.895   1.705   2.290
 1393SOL    HW116210   3.811   1.732   2.338
 1393SOL    HW216211   3.905   1.605   2.294
 1394SOL     OW16212   8.606   4.367   1.619
 1394SOL    HW116213   8.609   4.445   1.556
 1394SOL    HW216214   8.698   4.342   1.645
 1395SOL     OW16215   1.824   0.068   1.641
 1395SOL    HW116216   1.856  -0.026   1.632
 1395SOL    HW216217   1.902   0.129   1.656
 1396SOL     OW16218   2.379   1.753   6.187
 1396SOL    HW116219   2.289   1.732   6.149
 1396SOL    HW216220   2.435   1.797   6.116
 1397SOL     OW16221   1.110   1.069   0.670
 1397SOL    HW116222   1.183   1.130   0.701
 1397SOL    HW216223   1.127   1.041   0.575
 1398SOL     OW16224   5.238   4.084   6.425
 1398SOL    HW116225   5.278   4.111   6.512
 1398SOL    HW216226   5.207   4.165   6.375
 1399SOL     OW16227   4.103   1.233   5.405
 1399SOL    HW116228   4.191   1.188   5.424
 1399SOL    HW216229   4.103   1.324   5.445
 1400SOL     OW16230   1.881   0.418   5.915
 1400SOL    HW116231   1.793   0.413   5.868
 1400SOL    HW216232   1.955   0.414   5.849
 1401SOL     OW16233   8.723   2.967   0.055
 1401SOL    HW116234   8.639   3.005   0.015
 1401SOL    HW216235   8.802   2.999   0.002
 1402SOL     OW16236   0.225   3.511   6.092
 1402SOL    HW116237   0.211   3.565   6.175
 1402SOL    HW216238   0.290   3.557   6.032
 1403SOL     OW16239   5.991   0.466   4.773
 1403SOL    HW116240   6.014   0.558   4.805
 1403SOL    HW216241   5.896   0.464   4.743
 1404SOL     OW16242   7.495   3.417   0.969
 1404SOL    HW116243   7.567   3.457   1.027
 1404SOL    HW216244   7.496   3.317   0.979
 1405SOL     OW16245   3.642   6.773   0.852
 1405SOL    HW116246   3.559   6.751   0.902
 1405SOL    HW216247   3.720   6.728   0.895
 1406SOL     OW16248   7.781   8.112   5.796
 1406SOL    HW116249   7.811   8.063   5.878
 1406SOL    HW216250   7.834   8.196   5.785
 1407SOL     OW16251   3.150   5.219   1.958
 1407SOL    HW116252   3.232   5.169   1.931
 1407SOL    HW216253   3.168   5.317   1.958
 1408SOL     OW16254   2.394   0.579   0.763
 1408SOL    HW116255   2.301   0.546   0.747
 1408SOL    HW216256   2.394   0.679   0.765
 1409SOL     OW16257   3.416   7.720   0.547
 1409SOL    HW116258   3.445   7.805   0.589
 1409SOL    HW216259   3.463   7.643   0.590
 1410SOL     OW16260   5.351   3.154   0.809
 1410SOL    HW116261   5.338   3.239   0.860
 1410SOL    HW216262   5.443   3.118   0.827
 1411SOL     OW16263   7.570   7.377   5.588
 1411SOL    HW116264   7.632   7.394   5.664
 1411SOL    HW216265   7.605   7.301   5.533
 1412SOL     OW16266   1.497   5.629   6.521
 1412SOL    HW116267   1.573   5.599   6.463
 1412SOL    HW216268   1.514   5.723   6.551
 1413SOL     OW16269   2.779   4.007   0.492
 1413SOL    HW116270   2.775   3.990   0.394
 1413SOL    HW216271   2.875   4.005   0.522
 1414SOL     OW16272   6.764   3.949   1.179
 1414SOL    HW116273   6.715   4.036   1.173
 1414SOL    HW216274   6.751   3.898   1.094
 1415SOL     OW16275   5.897   1.557   0.196
 1415SOL    HW116276   5.872   1.476   0.143
 1415SOL    HW216277   5.843   1.635   0.164
 1416SOL     OW16278   8.359   3.740   0.996
 1416SOL    HW116279   8.407   3.803   0.935
 1416SOL    HW216280   8.274   3.710   0.952
 1417SOL     OW16281   0.474   6.654   4.970
 1417SOL    HW116282   0.515   6.619   5.054
 1417SOL    HW216283   0.480   6.584   4.898
 1418SOL     OW16284   8.494   7.874   0.616
 1418SOL    HW116285   8.518   7.845   0.523
 1418SOL    HW216286   8.418   7.938   0.611
 1419SOL     OW16287   0.876   5.233   0.148
 1419SOL    HW116288   0.958   5.284   0.121
 1419SOL    HW216289   0.799   5.261   0.092
 1420SOL     OW16290   4.392   7.442   6.370
 1420SOL    HW116291   4.321   7.408   6.308
 1420SOL    HW216292   4.378   7.540   6.386
 1421SOL     OW16293   7.470   2.784   1.442
 1421SOL    HW116294   7.520   2.860   1.482
 1421SOL    HW216295   7.374   2.789   1.470
 1422SOL     OW16296   5.035   7.487   6.000
 1422SOL    HW116297   5.133   7.498   6.016
 1422SOL    HW216298   5.018   7.397   5.959
 1423SOL     OW16299   0.222   2.649   0.462
 1423SOL    HW116300   0.162   2.573   0.490
 1423SOL    HW216301   0.317   2.618   0.461
 1424SOL     OW16302   4.391   5.527   1.557
 1424SOL    HW116303   4.462   5.562   1.495
 1424SOL    HW216304   4.420   5.540   1.651
 1425SOL     OW16305   6.597   8.160   0.701
 1425SOL    HW116306   6.575   8.165   0.603
 1425SOL    HW216307   6.646   8.075   0.720
 1426SOL     OW16308   8.404   0.913   6.640
 1426SOL    HW116309   8.481   0.922   6.703
 1426SOL    HW216310   8.387   0.816   6.623
 1427SOL     OW16311   0.049   7.128   5.947
 1427SOL    HW116312   0.073   7.058   6.015
 1427SOL    HW216313   0.123   7.138   5.881
 1428SOL     OW16314   1.522   1.296   5.688
 1428SOL    HW116315   1.457   1.282   5.613
 1428SOL    HW216316   1.572   1.211   5.704
 1429SOL     OW16317   4.066   1.758   5.913
 1429SOL    HW116318   4.014   1.779   5.830
 1429SOL    HW216319   4.136   1.690   5.892
 1430SOL     OW16320   3.125   1.851   6.559
 1430SOL    HW116321   3.068   1.813   6.486
 1430SOL    HW216322   3.066   1.888   6.631
 1431SOL     OW16323   3.747   1.294   0.530
 1431SOL    HW116324   3.708   1.371   0.581
 1431SOL    HW216325   3.844   1.284   0.553
 1432SOL     OW16326   3.405   6.199   5.133
 1432SOL    HW116327   3.481   6.242   5.182
 1432SOL    HW216328   3.430   6.189   5.037
 1433SOL     OW16329   9.337   2.232   5.546
 1433SOL    HW116330   9.363   2.241   5.450
 1433SOL    HW216331   9.412   2.264   5.604
 1434SOL     OW16332   5.448   1.698   0.657
 1434SOL    HW116333   5.367   1.650   0.624
 1434SOL    HW216334   5.526   1.675   0.598
 1435SOL     OW16335   0.756   7.844   6.140
 1435SOL    HW116336   0.734   7.816   6.234
 1435SOL    HW216337   0.818   7.922   6.142
 1436SOL     OW16338   2.857   6.617   0.862
 1436SOL    HW116339   2.940   6.673   0.867
 1436SOL    HW216340   2.803   6.646   0.783
 1437SOL     OW16341   5.747   1.409   1.681
 1437SOL    HW116342   5.740   1.341   1.755
 1437SOL    HW216343   5.663   1.410   1.628
 1438SOL     OW16344   0.430   6.307   6.136
 1438SOL    HW116345   0.375   6.323   6.218
 1438SOL    HW216346   0.410   6.216   6.099
 1439SOL     OW16347   3.310   8.175   6.164
 1439SOL    HW116348   3.346   8.140   6.078
 1439SOL    HW216349   3.253   8.105   6.207
 1440SOL     OW16350   5.092   3.520   5.827
 1440SOL    HW116351   5.110   3.581   5.749
 1440SOL    HW216352   5.176   3.472   5.852
 1441SOL     OW16353   1.274   0.853   4.497
 1441SOL    HW116354   1.200   0.915   4.526
 1441SOL    HW216355   1.361   0.902   4.498
 1442SOL     OW16356   3.901   2.851   1.093
 1442SOL    HW116357   3.976   2.915   1.080
 1442SOL    HW216358   3.877   2.809   1.006
 1443SOL     OW16359   7.338   5.463   5.440
 1443SOL    HW116360   7.325   5.396   5.367
 1443SOL    HW216361   7.406   5.531   5.413
 1444SOL     OW16362   5.023   5.815   5.139
 1444SOL    HW116363   4.992   5.772   5.054
 1444SOL    HW216364   5.025   5.914   5.127
 1445SOL     OW16365   6.469   4.933   1.509
 1445SOL    HW116366   6.375   4.911   1.484
 1445SOL    HW216367   6.474   4.956   1.606
 1446SOL     OW16368   8.046   5.651   0.521
 1446SOL    HW116369   8.053   5.614   0.429
 1446SOL    HW216370   7.997   5.738   0.519
 1447SOL     OW16371   2.633   5.167   1.336
 1447SOL    HW116372   2.661   5.139   1.244
 1447SOL    HW216373   2.568   5.101   1.373
 1448SOL     OW16374   2.569   3.926   6.275
 1448SOL    HW116375   2.471   3.922   6.254
 1448SOL    HW216376   2.599   4.021   6.274
 1449SOL     OW16377   5.807   4.938   0.306
 1449SOL    HW116378   5.837   4.914   0.398
 1449SOL    HW216379   5.769   5.030   0.306
 1450SOL     OW16380   0.442   5.515   6.458
 1450SOL    HW116381   0.541   5.497   6.461
 1450SOL    HW216382   0.426   5.608   6.425
 1451SOL     OW16383   3.977   2.717   1.358
 1451SOL    HW116384   4.019   2.773   1.430
 1451SOL    HW216385   3.924   2.776   1.297
 1452SOL     OW16386   4.517   7.411   0.732
 1452SOL    HW116387   4.612   7.400   0.761
 1452SOL    HW216388   4.487   7.328   0.685
 1453SOL     OW16389   4.594   1.881   0.319
 1453SOL    HW116390   4.536   1.953   0.357
 1453SOL    HW216391   4.658   1.849   0.390
 1454SOL     OW16392   3.817   4.485   0.265
 1454SOL    HW116393   3.890   4.470   0.198
 1454SOL    HW216394   3.855   4.530   0.346
 1455SOL     OW16395   4.243   5.843   0.916
 1455SOL    HW116396   4.236   5.924   0.857
 1455SOL    HW216397   4.247   5.761   0.859
 1456SOL     OW16398   5.351   6.702   6.513
 1456SOL    HW116399   5.445   6.689   6.480
 1456SOL    HW216400   5.348   6.686   6.612
 1457SOL     OW16401   4.107   8.390   1.588
 1457SOL    HW116402   4.039   8.436   1.645
 1457SOL    HW216403   4.189   8.371   1.642
 1458SOL     OW16404   3.369   2.682   6.632
 1458SOL    HW116405   3.312   2.600   6.643
 1458SOL    HW216406   3.424   2.695   6.714
 1459SOL     OW16407   9.120   7.137   5.536
 1459SOL    HW116408   9.155   7.101   5.449
 1459SOL    HW216409   9.144   7.234   5.543
 1460SOL     OW16410   3.999   1.648   0.277
 1460SOL    HW116411   4.057   1.632   0.197
 1460SOL    HW216412   3.907   1.672   0.248
 1461SOL     OW16413   3.865   6.496   5.539
 1461SOL    HW116414   3.947   6.502   5.482
 1461SOL    HW216415   3.806   6.422   5.506
 1462SOL     OW16416   4.976   0.661   6.168
 1462SOL    HW116417   5.069   0.694   6.187
 1462SOL    HW216418   4.972   0.624   6.075
 1463SOL     OW16419   1.585   0.394   6.547
 1463SOL    HW116420   1.547   0.482   6.577
 1463SOL    HW216421   1.677   0.384   6.586
 1464SOL     OW16422   5.162   7.727   5.791
 1464SOL    HW116423   5.159   7.723   5.891
 1464SOL    HW216424   5.220   7.653   5.756
 1465SOL     OW16425   6.682   4.567   0.942
 1465SOL    HW116426   6.631   4.482   0.953
 1465SOL    HW216427   6.779   4.551   0.958
 1466SOL     OW16428   6.657   0.784   6.177
 1466SOL    HW116429   6.596   0.738   6.241
 1466SOL    HW216430   6.603   0.832   6.108
 1467SOL     OW16431   1.375   6.891   4.109
 1467SOL    HW116432   1.342   6.824   4.042
 1467SOL    HW216433   1.452   6.942   4.070
 1468SOL     OW16434   7.501   1.193   5.344
 1468SOL    HW116435   7.507   1.259   5.418
 1468SOL    HW216436   7.435   1.225   5.276
 1469SOL     OW16437   0.237   0.870   5.683
 1469SOL    HW116438   0.152   0.818   5.687
 1469SOL    HW216439   0.287   0.858   5.769
 1470SOL     OW16440   8.342   5.102   5.175
 1470SOL    HW116441   8.251   5.135   5.152
 1470SOL    HW216442   8.397   5.096   5.091
 1471SOL     OW16443   0.255   5.784   1.164
 1471SOL    HW116444   0.349   5.785   1.199
 1471SOL    HW216445   0.205   5.862   1.200
 1472SOL     OW16446   5.418   4.619   6.071
 1472SOL    HW116447   5.492   4.656   6.127
 1472SOL    HW216448   5.457   4.564   5.997
 1473SOL     OW16449   3.777   0.318   6.406
 1473SOL    HW116450   3.777   0.218   6.403
 1473SOL    HW216451   3.743   0.349   6.495
 1474SOL     OW16452   4.056   7.096   5.932
 1474SOL    HW116453   4.077   7.081   5.835
 1474SOL    HW216454   4.124   7.158   5.971
 1475SOL     OW16455   5.099   5.779   6.676
 1475SOL    HW116456   5.192   5.769   6.638
 1475SOL    HW216457   5.054   5.690   6.676
 1476SOL     OW16458   2.625   5.425   6.170
 1476SOL    HW116459   2.575   5.461   6.249
 1476SOL    HW216460   2.662   5.500   6.117
 1477SOL     OW16461   4.571   8.418   6.503
 1477SOL    HW116462   4.669   8.428   6.488
 1477SOL    HW216463   4.523   8.494   6.458
 1478SOL     OW16464   3.676   8.102   6.048
 1478SOL    HW116465   3.717   8.192   6.033
 1478SOL    HW216466   3.653   8.091   6.144
 1479SOL     OW16467   6.682   7.167   5.771
 1479SOL    HW116468   6.677   7.077   5.729
 1479SOL    HW216469   6.725   7.231   5.708
 1480SOL     OW16470   6.730   5.392   0.541
 1480SOL    HW116471   6.769   5.302   0.563
 1480SOL    HW216472   6.670   5.384   0.462
 1481SOL     OW16473   4.023   2.463   1.393
 1481SOL    HW116474   4.098   2.458   1.327
 1481SOL    HW216475   3.989   2.557   1.397
 1482SOL     OW16476   0.483   6.611   0.268
 1482SOL    HW116477   0.484   6.541   0.197
 1482SOL    HW216478   0.561   6.672   0.256
 1483SOL     OW16479   6.973   5.524   1.404
 1483SOL    HW116480   6.987   5.577   1.487
 1483SOL    HW216481   7.054   5.469   1.385
 1484SOL     OW16482   1.849   4.322   6.692
 1484SOL    HW116483   1.932   4.278   6.659
 1484SOL    HW216484   1.845   4.416   6.659
 1485SOL     OW16485   0.454   0.679   0.531
 1485SOL    HW116486   0.416   0.665   0.440
 1485SOL    HW216487   0.401   0.629   0.599
 1486SOL     OW16488   4.479   4.622   0.666
 1486SOL    HW116489   4.507   4.529   0.643
 1486SOL    HW216490   4.400   4.648   0.612
 1487SOL     OW16491   5.501   3.893   5.824
 1487SOL    HW116492   5.563   3.836   5.877
 1487SOL    HW216493   5.409   3.890   5.865
 1488SOL     OW16494   4.210   1.192   0.054
 1488SOL    HW116495   4.181   1.228  -0.034
 1488SOL    HW216496   4.147   1.223   0.125
 1489SOL     OW16497   3.183   1.562   1.517
 1489SOL    HW116498   3.280   1.537   1.519
 1489SOL    HW216499   3.148   1.552   1.423
 1490SOL     OW16500   0.720   1.884   5.801
 1490SOL    HW116501   0.627   1.914   5.820
 1490SOL    HW216502   0.769   1.956   5.752
 1491SOL     OW16503   8.632   0.649   1.139
 1491SOL    HW116504   8.567   0.593   1.191
 1491SOL    HW216505   8.695   0.694   1.203
 1492SOL     OW16506   6.516   0.273   1.196
 1492SOL    HW116507   6.517   0.336   1.118
 1492SOL    HW216508   6.604   0.276   1.243
 1493SOL     OW16509   8.580   6.565   0.758
 1493SOL    HW116510   8.568   6.608   0.847
 1493SOL    HW216511   8.581   6.466   0.769
 1494SOL     OW16512   1.826   7.809   5.218
 1494SOL    HW116513   1.833   7.886   5.154
 1494SOL    HW216514   1.842   7.724   5.169
 1495SOL     OW16515   8.726   2.383   0.601
 1495SOL    HW116516   8.667   2.382   0.681
 1495SOL    HW216517   8.674   2.355   0.520
 1496SOL     OW16518   8.303   4.789   6.485
 1496SOL    HW116519   8.230   4.729   6.452
 1496SOL    HW216520   8.278   4.884   6.470
 1497SOL     OW16521   1.947   5.371   6.157
 1497SOL    HW116522   1.947   5.410   6.065
 1497SOL    HW216523   1.986   5.436   6.221
 1498SOL     OW16524   1.480   3.397   0.352
 1498SOL    HW116525   1.467   3.482   0.301
 1498SOL    HW216526   1.565   3.353   0.324
 1499SOL     OW16527   0.180   3.756   6.213
 1499SOL    HW116528   0.276   3.775   6.190
 1499SOL    HW216529   0.136   3.841   6.242
 1500SOL     OW16530   4.938   3.336   6.335
 1500SOL    HW116531   4.976   3.391   6.261
 1500SOL    HW216532   4.949   3.386   6.421
 1501SOL     OW16533   5.931   2.385   5.312
 1501SOL    HW116534   5.852   2.441   5.289
 1501SOL    HW216535   6.008   2.444   5.336
 1502SOL     OW16536   3.511   7.469   0.919
 1502SOL    HW116537   3.530   7.463   0.821
 1502SOL    HW216538   3.447   7.396   0.945
 1503SOL     OW16539   6.079   7.401   6.292
 1503SOL    HW116540   6.096   7.478   6.229
 1503SOL    HW216541   5.989   7.411   6.333
 1504SOL     OW16542   7.776   7.673   5.062
 1504SOL    HW116543   7.701   7.725   5.023
 1504SOL    HW216544   7.858   7.731   5.068
 1505SOL     OW16545   2.457   1.277   6.543
 1505SOL    HW116546   2.485   1.301   6.449
 1505SOL    HW216547   2.433   1.360   6.592
 1506SOL     OW16548   1.148   4.157   6.334
 1506SOL    HW116549   1.114   4.246   6.363
 1506SOL    HW216550   1.242   4.165   6.302
 1507SOL     OW16551   9.157   3.910   6.346
 1507SOL    HW116552   9.171   3.996   6.298
 1507SOL    HW216553   9.079   3.918   6.408
 1508SOL     OW16554   7.532   3.319   0.503
 1508SOL    HW116555   7.449   3.373   0.491
 1508SOL    HW216556   7.535   3.282   0.596
 1509SOL     OW16557   4.560   4.203   0.248
 1509SOL    HW116558   4.587   4.183   0.342
 1509SOL    HW216559   4.479   4.150   0.225
 1510SOL     OW16560   1.980   5.262   5.248
 1510SOL    HW116561   2.061   5.213   5.217
 1510SOL    HW216562   2.007   5.340   5.304
 1511SOL     OW16563   2.755   3.837   5.554
 1511SOL    HW116564   2.819   3.910   5.531
 1511SOL    HW216565   2.789   3.750   5.518
 1512SOL     OW16566   2.854   0.410   4.929
 1512SOL    HW116567   2.851   0.344   4.853
 1512SOL    HW216568   2.765   0.455   4.937
 1513SOL     OW16569   1.050   4.976   0.521
 1513SOL    HW116570   1.125   4.938   0.467
 1513SOL    HW216571   1.009   5.053   0.472
 1514SOL     OW16572   6.608   0.155   0.058
 1514SOL    HW116573   6.587   0.057   0.060
 1514SOL    HW216574   6.618   0.185  -0.037
 1515SOL     OW16575   1.043   6.298   1.014
 1515SOL    HW116576   1.089   6.228   0.959
 1515SOL    HW216577   0.986   6.355   0.955
 1516SOL     OW16578   7.369   8.064   0.577
 1516SOL    HW116579   7.460   8.105   0.565
 1516SOL    HW216580   7.351   8.000   0.502
 1517SOL     OW16581   0.059   2.858   0.562
 1517SOL    HW116582   0.128   2.791   0.536
 1517SOL    HW216583   0.101   2.948   0.573
 1518SOL     OW16584   1.132   0.729   0.653
 1518SOL    HW116585   1.065   0.758   0.721
 1518SOL    HW216586   1.115   0.776   0.566
 1519SOL     OW16587   8.926   7.696   5.580
 1519SOL    HW116588   8.865   7.619   5.563
 1519SOL    HW216589   8.963   7.691   5.672
 1520SOL     OW16590   0.558   6.584   5.225
 1520SOL    HW116591   0.465   6.590   5.262
 1520SOL    HW216592   0.612   6.519   5.279
 1521SOL     OW16593   1.018   5.376   6.695
 1521SOL    HW116594   1.042   5.294   6.643
 1521SOL    HW216595   1.003   5.452   6.632
 1522SOL     OW16596   4.449   7.202   5.833
 1522SOL    HW116597   4.422   7.297   5.815
 1522SOL    HW216598   4.480   7.194   5.928
 1523SOL     OW16599   4.429   4.063   1.677
 1523SOL    HW116600   4.452   4.014   1.593
 1523SOL    HW216601   4.510   4.069   1.736
 1524SOL     OW16602   1.326   6.077   5.890
 1524SOL    HW116603   1.356   6.171   5.907
 1524SOL    HW216604   1.241   6.059   5.940
 1525SOL     OW16605   0.696   5.651   0.047
 1525SOL    HW116606   0.757   5.708   0.101
 1525SOL    HW216607   0.602   5.663   0.079
 1526SOL     OW16608   1.127   4.777   5.135
 1526SOL    HW116609   1.168   4.687   5.146
 1526SOL    HW216610   1.108   4.794   5.038
 1527SOL     OW16611   0.546   8.479   4.829
 1527SOL    HW116612   0.478   8.523   4.770
 1527SOL    HW216613   0.504   8.401   4.875
 1528SOL     OW16614   0.897   3.873   5.142
 1528SOL    HW116615   0.818   3.850   5.085
 1528SOL    HW216616   0.981   3.845   5.095
 1529SOL     OW16617   6.065   5.313   1.669
 1529SOL    HW116618   6.157   5.289   1.639
 1529SOL    HW216619   6.069   5.390   1.732
 1530SOL     OW16620   4.831   7.574   0.199
 1530SOL    HW116621   4.883   7.638   0.143
 1530SOL    HW216622   4.814   7.614   0.289
 1531SOL     OW16623   1.960   3.567   0.599
 1531SOL    HW116624   1.978   3.558   0.501
 1531SOL    HW216625   1.918   3.482   0.632
 1532SOL     OW16626   2.433   6.775   6.140
 1532SOL    HW116627   2.401   6.738   6.227
 1532SOL    HW216628   2.530   6.754   6.129
 1533SOL     OW16629   1.372   0.246   6.596
 1533SOL    HW116630   1.438   0.321   6.600
 1533SOL    HW216631   1.393   0.186   6.520
 1534SOL     OW16632   8.240   7.783   1.046
 1534SOL    HW116633   8.141   7.786   1.037
 1534SOL    HW216634   8.266   7.724   1.122
 1535SOL     OW16635   3.321   5.243   0.316
 1535SOL    HW116636   3.255   5.203   0.252
 1535SOL    HW216637   3.273   5.278   0.396
 1536SOL     OW16638   7.356   5.149   4.641
 1536SOL    HW116639   7.419   5.105   4.705
 1536SOL    HW216640   7.349   5.094   4.558
 1537SOL     OW16641   8.599   7.460   0.692
 1537SOL    HW116642   8.544   7.536   0.728
 1537SOL    HW216643   8.683   7.451   0.745
 1538SOL     OW16644   8.856   3.608   6.599
 1538SOL    HW116645   8.940   3.611   6.652
 1538SOL    HW216646   8.858   3.678   6.528
 1539SOL     OW16647   7.379   5.611   5.096
 1539SOL    HW116648   7.435   5.602   5.014
 1539SOL    HW216649   7.315   5.535   5.101
 1540SOL     OW16650   4.459   0.203   0.210
 1540SOL    HW116651   4.413   0.126   0.164
 1540SOL    HW216652   4.416   0.289   0.183
 1541SOL     OW16653   1.379   5.857   4.383
 1541SOL    HW116654   1.310   5.813   4.325
 1541SOL    HW216655   1.376   5.956   4.368
 1542SOL     OW16656   6.278   0.617   0.222
 1542SOL    HW116657   6.274   0.556   0.301
 1542SOL    HW216658   6.351   0.588   0.160
 1543SOL     OW16659   5.321   2.132   1.485
 1543SOL    HW116660   5.267   2.134   1.401
 1543SOL    HW216661   5.260   2.130   1.564
 1544SOL     OW16662   8.878   4.944   5.137
 1544SOL    HW116663   8.916   5.021   5.086
 1544SOL    HW216664   8.779   4.941   5.123
 1545SOL     OW16665   5.657   8.170   1.485
 1545SOL    HW116666   5.593   8.172   1.409
 1545SOL    HW216667   5.696   8.261   1.498
 1546SOL     OW16668   7.121   0.709   6.414
 1546SOL    HW116669   7.054   0.679   6.482
 1546SOL    HW216670   7.075   0.729   6.328
 1547SOL     OW16671   2.075   2.098   6.279
 1547SOL    HW116672   1.991   2.128   6.324
 1547SOL    HW216673   2.115   2.021   6.328
 1548SOL     OW16674   7.608   1.855   0.136
 1548SOL    HW116675   7.611   1.912   0.054
 1548SOL    HW216676   7.684   1.879   0.196
 1549SOL     OW16677   1.521   3.614   0.153
 1549SOL    HW116678   1.454   3.558   0.103
 1549SOL    HW216679   1.610   3.607   0.107
 1550SOL     OW16680   3.234   4.972   6.085
 1550SOL    HW116681   3.190   4.975   6.174
 1550SOL    HW216682   3.165   4.955   6.014
 1551SOL     OW16683   0.457   6.401   5.899
 1551SOL    HW116684   0.457   6.371   5.994
 1551SOL    HW216685   0.376   6.456   5.880
 1552SOL     OW16686   0.527   6.409   0.101
 1552SOL    HW116687   0.580   6.421   0.017
 1552SOL    HW216688   0.549   6.321   0.142
 1553SOL     OW16689   6.508   0.650   1.590
 1553SOL    HW116690   6.526   0.559   1.627
 1553SOL    HW216691   6.584   0.710   1.610
 1554SOL     OW16692   5.908   1.222   1.461
 1554SOL    HW116693   5.813   1.222   1.428
 1554SOL    HW216694   5.911   1.185   1.554
 1555SOL     OW16695   7.297   7.601   0.136
 1555SOL    HW116696   7.294   7.585   0.038
 1555SOL    HW216697   7.392   7.608   0.166
 1556SOL     OW16698   8.507   0.110   0.162
 1556SOL    HW116699   8.571   0.183   0.140
 1556SOL    HW216700   8.558   0.027   0.184
 1557SOL     OW16701   6.258   8.483   0.683
 1557SOL    HW116702   6.168   8.442   0.674
 1557SOL    HW216703   6.259   8.572   0.638
 1558SOL     OW16704   6.098   1.660   1.988
 1558SOL    HW116705   6.099   1.719   1.907
 1558SOL    HW216706   6.192   1.634   2.011
 1559SOL     OW16707   4.663   3.697   6.716
 1559SOL    HW116708   4.747   3.749   6.733
 1559SOL    HW216709   4.613   3.738   6.640
 1560SOL     OW16710   1.932   1.342   4.906
 1560SOL    HW116711   1.954   1.438   4.919
 1560SOL    HW216712   2.017   1.289   4.902
 1561SOL     OW16713   5.148   1.200   5.682
 1561SOL    HW116714   5.083   1.270   5.650
 1561SOL    HW216715   5.239   1.221   5.647
 1562SOL     OW16716   7.941   7.948   0.870
 1562SOL    HW116717   7.935   7.872   0.935
 1562SOL    HW216718   7.879   7.931   0.793
 1563SOL     OW16719   6.209   7.245   6.468
 1563SOL    HW116720   6.160   7.290   6.393
 1563SOL    HW216721   6.198   7.146   6.460
 1564SOL     OW16722   0.486   2.547   0.438
 1564SOL    HW116723   0.576   2.577   0.407
 1564SOL    HW216724   0.496   2.486   0.516
 1565SOL     OW16725   5.713   1.300   2.063
 1565SOL    HW116726   5.732   1.256   1.975
 1565SOL    HW216727   5.798   1.339   2.099
 1566SOL     OW16728   7.939   0.858   5.915
 1566SOL    HW116729   7.860   0.884   5.860
 1566SOL    HW216730   7.921   0.773   5.963
 1567SOL     OW16731   0.759   7.291   4.694
 1567SOL    HW116732   0.741   7.220   4.761
 1567SOL    HW216733   0.858   7.303   4.683
 1568SOL     OW16734   1.147   3.589   5.080
 1568SOL    HW116735   1.107   3.498   5.068
 1568SOL    HW216736   1.111   3.650   5.009
 1569SOL     OW16737   7.852   3.975   5.819
 1569SOL    HW116738   7.805   3.926   5.746
 1569SOL    HW216739   7.811   3.951   5.907
 1570SOL     OW16740   3.220   7.237   1.196
 1570SOL    HW116741   3.277   7.178   1.139
 1570SOL    HW216742   3.265   7.253   1.284
 1571SOL     OW16743   6.584   5.193   6.256
 1571SOL    HW116744   6.672   5.205   6.210
 1571SOL    HW216745   6.577   5.259   6.331
 1572SOL     OW16746   3.927   6.591   0.035
 1572SOL    HW116747   3.899   6.513   0.090
 1572SOL    HW216748   4.005   6.565  -0.022
 1573SOL     OW16749   3.703   7.843   4.789
 1573SOL    HW116750   3.695   7.746   4.810
 1573SOL    HW216751   3.799   7.866   4.772
 1574SOL     OW16752   4.854   1.232   0.026
 1574SOL    HW116753   4.835   1.141  -0.011
 1574SOL    HW216754   4.942   1.265  -0.009
 1575SOL     OW16755   8.729   0.184   6.161
 1575SOL    HW116756   8.638   0.213   6.130
 1575SOL    HW216757   8.764   0.113   6.101
 1576SOL     OW16758   0.560   7.207   5.601
 1576SOL    HW116759   0.546   7.117   5.642
 1576SOL    HW216760   0.620   7.261   5.660
 1577SOL     OW16761   1.568   5.344   0.102
 1577SOL    HW116762   1.535   5.413   0.167
 1577SOL    HW216763   1.537   5.254   0.130
 1578SOL     OW16764   9.479   6.144   6.393
 1578SOL    HW116765   9.492   6.207   6.316
 1578SOL    HW216766   9.558   6.083   6.400
 1579SOL     OW16767   7.937   1.999   0.949
 1579SOL    HW116768   7.996   1.924   0.920
 1579SOL    HW216769   7.986   2.086   0.936
 1580SOL     OW16770   1.107   6.824   4.757
 1580SOL    HW116771   1.131   6.729   4.734
 1580SOL    HW216772   1.102   6.834   4.856
 1581SOL     OW16773   9.057   0.470   5.745
 1581SOL    HW116774   9.001   0.538   5.794
 1581SOL    HW216775   9.152   0.501   5.743
 1582SOL     OW16776   5.175   0.822   0.402
 1582SOL    HW116777   5.193   0.905   0.454
 1582SOL    HW216778   5.114   0.762   0.454
 1583SOL     OW16779   7.120   3.322   0.722
 1583SOL    HW116780   7.164   3.234   0.737
 1583SOL    HW216781   7.149   3.386   0.793
 1584SOL     OW16782   3.995   2.076   5.361
 1584SOL    HW116783   3.919   2.137   5.338
 1584SOL    HW216784   4.080   2.115   5.329
 1585SOL     OW16785   5.632   6.605   0.397
 1585SOL    HW116786   5.598   6.513   0.420
 1585SOL    HW216787   5.675   6.645   0.478
 1586SOL     OW16788   9.085   7.753   5.798
 1586SOL    HW116789   9.045   7.827   5.853
 1586SOL    HW216790   9.125   7.685   5.859
 1587SOL     OW16791   7.140   5.816   1.740
 1587SOL    HW116792   7.201   5.838   1.664
 1587SOL    HW216793   7.158   5.877   1.817
 1588SOL     OW16794   2.031   1.081   6.217
 1588SOL    HW116795   1.960   1.133   6.264
 1588SOL    HW216796   2.075   1.018   6.281
 1589SOL     OW16797   2.302   4.975   0.730
 1589SOL    HW116798   2.285   5.011   0.821
 1589SOL    HW216799   2.304   4.875   0.733
 1590SOL     OW16800   2.802   7.989   0.240
 1590SOL    HW116801   2.861   8.057   0.283
 1590SOL    HW216802   2.760   8.028   0.158
 1591SOL     OW16803   1.888   1.836   5.775
 1591SOL    HW116804   1.930   1.747   5.795
 1591SOL    HW216805   1.956   1.896   5.734
 1592SOL     OW16806   1.840   0.467   1.161
 1592SOL    HW116807   1.756   0.458   1.215
 1592SOL    HW216808   1.822   0.520   1.078
 1593SOL     OW16809   0.252   7.076   6.366
 1593SOL    HW116810   0.239   7.099   6.463
 1593SOL    HW216811   0.283   7.157   6.317
 1594SOL     OW16812   4.149   6.644   0.568
 1594SOL    HW116813   4.148   6.606   0.475
 1594SOL    HW216814   4.080   6.596   0.623
 1595SOL     OW16815   0.047   6.904   0.618
 1595SOL    HW116816   0.105   6.939   0.544
 1595SOL    HW216817   0.086   6.820   0.654
 1596SOL     OW16818   6.530   5.642   6.708
 1596SOL    HW116819   6.601   5.574   6.726
 1596SOL    HW216820   6.516   5.652   6.610
 1597SOL     OW16821   7.261   2.484   6.162
 1597SOL    HW116822   7.328   2.413   6.143
 1597SOL    HW216823   7.174   2.443   6.189
 1598SOL     OW16824   3.387   8.363   5.352
 1598SOL    HW116825   3.371   8.462   5.353
 1598SOL    HW216826   3.299   8.315   5.349
 1599SOL     OW16827   1.187   0.138   1.032
 1599SOL    HW116828   1.222   0.220   0.987
 1599SOL    HW216829   1.087   0.137   1.027
 1600SOL     OW16830   6.283   5.596   0.085
 1600SOL    HW116831   6.297   5.548   0.172
 1600SOL    HW216832   6.354   5.666   0.075
 1601SOL     OW16833   5.891   2.206   6.345
 1601SOL    HW116834   5.972   2.218   6.287
 1601SOL    HW216835   5.920   2.186   6.439
 1602SOL     OW16836   7.035   4.101   0.080
 1602SOL    HW116837   7.017   4.052  -0.006
 1602SOL    HW216838   6.948   4.118   0.127
 1603SOL     OW16839   3.958   2.922   0.172
 1603SOL    HW116840   4.011   2.977   0.236
 1603SOL    HW216841   4.016   2.890   0.098
 1604SOL     OW16842   7.206   3.441   0.947
 1604SOL    HW116843   7.236   3.536   0.937
 1604SOL    HW216844   7.276   3.389   0.996
 1605SOL     OW16845   3.806   2.660   5.931
 1605SOL    HW116846   3.747   2.586   5.962
 1605SOL    HW216847   3.763   2.748   5.950
 1606SOL     OW16848   3.412   0.864   5.137
 1606SOL    HW116849   3.370   0.784   5.095
 1606SOL    HW216850   3.485   0.899   5.078
 1607SOL     OW16851   5.374   2.213   6.669
 1607SOL    HW116852   5.460   2.167   6.691
 1607SOL    HW216853   5.384   2.311   6.682
 1608SOL     OW16854   8.001   5.257   5.724
 1608SOL    HW116855   8.058   5.339   5.731
 1608SOL    HW216856   8.006   5.205   5.809
 1609SOL     OW16857   0.309   3.013   0.540
 1609SOL    HW116858   0.340   3.096   0.587
 1609SOL    HW216859   0.355   3.006   0.452
 1610SOL     OW16860   4.289   2.678   6.045
 1610SOL    HW116861   4.345   2.618   5.987
 1610SOL    HW216862   4.192   2.667   6.021
 1611SOL     OW16863   5.951   7.302   1.555
 1611SOL    HW116864   6.012   7.222   1.552
 1611SOL    HW216865   6.003   7.382   1.583
 1612SOL     OW16866   0.964   1.277   0.131
 1612SOL    HW116867   0.943   1.353   0.192
 1612SOL    HW216868   0.892   1.269   0.062
 1613SOL     OW16869   3.099   5.487   1.186
 1613SOL    HW116870   3.067   5.414   1.245
 1613SOL    HW216871   3.196   5.474   1.165
 1614SOL     OW16872   3.549   4.048   1.145
 1614SOL    HW116873   3.450   4.046   1.132
 1614SOL    HW216874   3.592   3.980   1.085
 1615SOL     OW16875   1.436   2.073   0.262
 1615SOL    HW116876   1.482   2.162   0.264
 1615SOL    HW216877   1.462   2.024   0.178
 1616SOL     OW16878   4.091   8.186   5.814
 1616SOL    HW116879   4.182   8.205   5.851
 1616SOL    HW216880   4.049   8.110   5.865
 1617SOL     OW16881   6.201   7.133   5.600
 1617SOL    HW116882   6.241   7.060   5.545
 1617SOL    HW216883   6.256   7.146   5.683
 1618SOL     OW16884   1.697   2.732   0.788
 1618SOL    HW116885   1.745   2.710   0.873
 1618SOL    HW216886   1.623   2.796   0.808
 1619SOL     OW16887   5.946   6.371   1.206
 1619SOL    HW116888   5.966   6.456   1.255
 1619SOL    HW216889   5.889   6.391   1.126
 1620SOL     OW16890   5.777   7.907   0.207
 1620SOL    HW116891   5.845   7.833   0.204
 1620SOL    HW216892   5.820   7.989   0.245
 1621SOL     OW16893   6.088   0.045   5.513
 1621SOL    HW116894   6.105   0.117   5.446
 1621SOL    HW216895   6.088  -0.044   5.467
 1622SOL     OW16896   4.200   5.251   1.108
 1622SOL    HW116897   4.187   5.179   1.039
 1622SOL    HW216898   4.120   5.254   1.168
 1623SOL     OW16899   6.789   1.759   5.441
 1623SOL    HW116900   6.844   1.835   5.406
 1623SOL    HW216901   6.836   1.673   5.423
 1624SOL     OW16902   9.329   6.417   4.670
 1624SOL    HW116903   9.238   6.443   4.637
 1624SOL    HW216904   9.387   6.392   4.592
 1625SOL     OW16905   7.867   7.997   0.264
 1625SOL    HW116906   7.811   7.917   0.244
 1625SOL    HW216907   7.952   7.992   0.211
 1626SOL     OW16908   4.435   3.908   1.439
 1626SOL    HW116909   4.438   3.898   1.339
 1626SOL    HW216910   4.366   3.846   1.477
 1627SOL     OW16911   3.431   3.056   5.693
 1627SOL    HW116912   3.484   3.110   5.626
 1627SOL    HW216913   3.336   3.049   5.662
 1628SOL     OW16914   0.879   4.848   0.923
 1628SOL    HW116915   0.810   4.779   0.901
 1628SOL    HW216916   0.898   4.845   1.021
 1629SOL     OW16917   9.143   5.914   5.705
 1629SOL    HW116918   9.221   5.862   5.737
 1629SOL    HW216919   9.163   6.012   5.709
 1630SOL     OW16920   6.699   7.156   6.434
 1630SOL    HW116921   6.722   7.082   6.371
 1630SOL    HW216922   6.777   7.217   6.443
 1631SOL     OW16923   3.238   7.373   6.317
 1631SOL    HW116924   3.157   7.340   6.269
 1631SOL    HW216925   3.311   7.392   6.252
 1632SOL     OW16926   5.059   5.983   0.126
 1632SOL    HW116927   5.038   5.913   0.057
 1632SOL    HW216928   5.134   6.041   0.093
 1633SOL     OW16929   0.410   1.309   0.385
 1633SOL    HW116930   0.440   1.220   0.348
 1633SOL    HW216931   0.450   1.383   0.330
 1634SOL     OW16932   7.567   1.027   6.324
 1634SOL    HW116933   7.494   1.081   6.367
 1634SOL    HW216934   7.539   1.001   6.232
 1635SOL     OW16935   9.034   5.753   0.293
 1635SOL    HW116936   9.056   5.732   0.388
 1635SOL    HW216937   9.025   5.668   0.241
 1636SOL     OW16938   7.233   0.865   0.108
 1636SOL    HW116939   7.264   0.895   0.198
 1636SOL    HW216940   7.279   0.780   0.084
 1637SOL     OW16941   2.975   0.006   0.935
 1637SOL    HW116942   3.017  -0.079   0.967
 1637SOL    HW216943   2.897   0.029   0.994
 1638SOL     OW16944   3.851   5.939   1.174
 1638SOL    HW116945   3.890   5.847   1.179
 1638SOL    HW216946   3.752   5.932   1.161
 1639SOL     OW16947   0.248   2.067   1.135
 1639SOL    HW116948   0.319   2.134   1.115
 1639SOL    HW216949   0.284   1.997   1.196
 1640SOL     OW16950   6.839   6.072   5.622
 1640SOL    HW116951   6.784   6.151   5.649
 1640SOL    HW216952   6.885   6.090   5.535
 1641SOL     OW16953   4.209   1.139   1.359
 1641SOL    HW116954   4.292   1.142   1.414
 1641SOL    HW216955   4.220   1.196   1.278
 1642SOL     OW16956   8.087   3.831   5.891
 1642SOL    HW116957   7.997   3.874   5.891
 1642SOL    HW216958   8.158   3.901   5.880
 1643SOL     OW16959   6.970   2.364   6.105
 1643SOL    HW116960   6.934   2.280   6.145
 1643SOL    HW216961   6.920   2.385   6.021
 1644SOL     OW16962   4.475   1.140   0.135
 1644SOL    HW116963   4.378   1.146   0.116
 1644SOL    HW216964   4.501   1.212   0.201
 1645SOL     OW16965   1.219   5.009   5.380
 1645SOL    HW116966   1.258   4.934   5.434
 1645SOL    HW216967   1.266   5.014   5.291
 1646SOL     OW16968   5.169   0.147   0.284
 1646SOL    HW116969   5.152   0.089   0.205
 1646SOL    HW216970   5.119   0.112   0.363
 1647SOL     OW16971   6.427   1.842   0.817
 1647SOL    HW116972   6.350   1.904   0.832
 1647SOL    HW216973   6.512   1.895   0.825
 1648SOL     OW16974   6.609   6.985   0.232
 1648SOL    HW116975   6.638   7.007   0.325
 1648SOL    HW216976   6.682   7.005   0.168
 1649SOL     OW16977   7.662   5.252   6.534
 1649SOL    HW116978   7.699   5.167   6.573
 1649SOL    HW216979   7.700   5.330   6.583
 1650SOL     OW16980   8.644   7.577   5.218
 1650SOL    HW116981   8.676   7.578   5.312
 1650SOL    HW216982   8.642   7.483   5.184
 1651SOL     OW16983   3.665   2.494   1.618
 1651SOL    HW116984   3.753   2.488   1.667
 1651SOL    HW216985   3.593   2.453   1.674
 1652SOL     OW16986   8.615   6.135   0.165
 1652SOL    HW116987   8.538   6.129   0.229
 1652SOL    HW216988   8.697   6.162   0.214
 1653SOL     OW16989   8.990   8.069   0.503
 1653SOL    HW116990   8.983   7.988   0.560
 1653SOL    HW216991   9.065   8.059   0.438
 1654SOL     OW16992   4.168   2.358   6.638
 1654SOL    HW116993   4.173   2.403   6.727
 1654SOL    HW216994   4.173   2.427   6.566
 1655SOL     OW16995   2.572   3.498   0.574
 1655SOL    HW116996   2.640   3.498   0.648
 1655SOL    HW216997   2.558   3.591   0.541
 1656SOL     OW16998   3.972   6.375   6.021
 1656SOL    HW116999   3.974   6.277   6.004
 1656SOL    HW217000   3.894   6.416   5.973
 1657SOL     OW17001   3.228   0.266   6.283
 1657SOL    HW117002   3.303   0.245   6.220
 1657SOL    HW217003   3.260   0.255   6.377
 1658SOL     OW17004   7.801   5.893   0.007
 1658SOL    HW117005   7.718   5.838  -0.005
 1658SOL    HW217006   7.775   5.984   0.040
 1659SOL     OW17007   5.796   7.523   0.734
 1659SOL    HW117008   5.728   7.595   0.752
 1659SOL    HW217009   5.879   7.565   0.698
 1660SOL     OW17010   9.274   2.682   6.375
 1660SOL    HW117011   9.307   2.742   6.303
 1660SOL    HW217012   9.198   2.725   6.423
 1661SOL     OW17013   0.794   1.174   5.272
 1661SOL    HW117014   0.748   1.233   5.337
 1661SOL    HW217015   0.763   1.195   5.179
 1662SOL     OW17016   0.998   7.751   1.357
 1662SOL    HW117017   0.955   7.696   1.430
 1662SOL    HW217018   0.999   7.847   1.385
 1663SOL     OW17019   4.255   0.066   0.030
 1663SOL    HW117020   4.257   0.130  -0.047
 1663SOL    HW217021   4.317  -0.011   0.011
 1664SOL     OW17022   2.524   5.233   0.850
 1664SOL    HW117023   2.442   5.288   0.871
 1664SOL    HW217024   2.511   5.187   0.763
 1665SOL     OW17025   8.527   5.833   6.051
 1665SOL    HW117026   8.579   5.817   6.135
 1665SOL    HW217027   8.433   5.860   6.074
 1666SOL     OW17028   7.026   7.579   1.500
 1666SOL    HW117029   7.054   7.537   1.586
 1666SOL    HW217030   6.947   7.638   1.515
 1667SOL     OW17031   3.386   7.053   1.054
 1667SOL    HW117032   3.365   7.116   0.979
 1667SOL    HW217033   3.485   7.042   1.062
 1668SOL     OW17034   1.600   0.198   1.302
 1668SOL    HW117035   1.626   0.102   1.308
 1668SOL    HW217036   1.631   0.247   1.383
 1669SOL     OW17037   6.365   0.270   0.611
 1669SOL    HW117038   6.332   0.346   0.555
 1669SOL    HW217039   6.463   0.283   0.628
 1670SOL     OW17040   2.208   0.223   6.148
 1670SOL    HW117041   2.162   0.257   6.067
 1670SOL    HW217042   2.214   0.297   6.216
 1671SOL     OW17043   3.949   1.342   6.697
 1671SOL    HW117044   3.983   1.418   6.751
 1671SOL    HW217045   3.910   1.272   6.757
 1672SOL     OW17046   8.365   2.256   5.867
 1672SOL    HW117047   8.279   2.209   5.889
 1672SOL    HW217048   8.347   2.354   5.858
 1673SOL     OW17049   7.225   1.900   6.602
 1673SOL    HW117050   7.250   1.938   6.513
 1673SOL    HW217051   7.177   1.813   6.588
 1674SOL     OW17052   5.317   4.677   0.240
 1674SOL    HW117053   5.345   4.667   0.145
 1674SOL    HW217054   5.382   4.628   0.299
 1675SOL     OW17055   7.478   1.118   5.759
 1675SOL    HW117056   7.450   1.191   5.696
 1675SOL    HW217057   7.426   1.126   5.844
 1676SOL     OW17058   8.167   4.506   0.179
 1676SOL    HW117059   8.132   4.574   0.116
 1676SOL    HW217060   8.217   4.435   0.129
 1677SOL     OW17061   7.488   7.239   0.431
 1677SOL    HW117062   7.553   7.244   0.355
 1677SOL    HW217063   7.512   7.163   0.491
 1678SOL     OW17064   0.242   1.479   0.563
 1678SOL    HW117065   0.256   1.571   0.527
 1678SOL    HW217066   0.304   1.415   0.517
 1679SOL     OW17067   1.832   3.480   0.337
 1679SOL    HW117068   1.818   3.402   0.276
 1679SOL    HW217069   1.928   3.509   0.332
 1680SOL     OW17070   2.839   5.490   1.074
 1680SOL    HW117071   2.938   5.493   1.082
 1680SOL    HW217072   2.800   5.570   1.119
 1681SOL     OW17073   6.197   3.396   0.904
 1681SOL    HW117074   6.244   3.477   0.936
 1681SOL    HW217075   6.098   3.412   0.904
 1682SOL     OW17076   3.917   1.445   0.987
 1682SOL    HW117077   3.951   1.453   1.081
 1682SOL    HW217078   3.818   1.432   0.989
 1683SOL     OW17079   7.975   2.944   6.593
 1683SOL    HW117080   8.010   3.023   6.643
 1683SOL    HW217081   7.974   2.964   6.495
 1684SOL     OW17082   5.542   7.705   0.532
 1684SOL    HW117083   5.484   7.749   0.601
 1684SOL    HW217084   5.525   7.607   0.533
 1685SOL     OW17085   8.213   2.569   0.580
 1685SOL    HW117086   8.285   2.633   0.608
 1685SOL    HW217087   8.227   2.544   0.484
 1686SOL     OW17088   3.920   5.078   0.587
 1686SOL    HW117089   3.940   5.122   0.499
 1686SOL    HW217090   3.935   5.143   0.661
 1687SOL     OW17091   2.324   4.025   6.189
 1687SOL    HW117092   2.306   4.020   6.288
 1687SOL    HW217093   2.250   4.077   6.145
 1688SOL     OW17094   5.726   6.102   4.946
 1688SOL    HW117095   5.671   6.179   4.916
 1688SOL    HW217096   5.781   6.068   4.869
 1689SOL     OW17097   7.077   7.791   0.969
 1689SOL    HW117098   7.087   7.840   1.056
 1689SOL    HW217099   7.002   7.725   0.977
 1690SOL     OW17100   4.779   7.798   0.808
 1690SOL    HW117101   4.779   7.882   0.754
 1690SOL    HW217102   4.690   7.753   0.800
 1691SOL     OW17103   5.558   7.983   0.877
 1691SOL    HW117104   5.613   8.063   0.852
 1691SOL    HW217105   5.539   7.984   0.975
 1692SOL     OW17106   7.485   6.215   0.424
 1692SOL    HW117107   7.454   6.138   0.478
 1692SOL    HW217108   7.484   6.190   0.327
 1693SOL     OW17109   6.666   6.216   6.391
 1693SOL    HW117110   6.631   6.132   6.349
 1693SOL    HW217111   6.609   6.294   6.363
 1694SOL     OW17112   7.243   1.153   0.529
 1694SOL    HW117113   7.190   1.238   0.530
 1694SOL    HW217114   7.341   1.176   0.527
 1695SOL     OW17115   1.014   7.345   5.818
 1695SOL    HW117116   1.048   7.284   5.889
 1695SOL    HW217117   1.077   7.423   5.808
 1696SOL     OW17118   0.708   7.699   0.760
 1696SOL    HW117119   0.791   7.707   0.815
 1696SOL    HW217120   0.670   7.607   0.770
 1697SOL     OW17121   1.453   2.441   5.722
 1697SOL    HW117122   1.481   2.381   5.648
 1697SOL    HW217123   1.410   2.523   5.685
 1698SOL     OW17124   4.142   6.255   1.065
 1698SOL    HW117125   4.131   6.234   1.163
 1698SOL    HW217126   4.076   6.202   1.012
 1699SOL     OW17127   7.913   2.132   6.717
 1699SOL    HW117128   7.977   2.209   6.716
 1699SOL    HW217129   7.958   2.052   6.676
 1700SOL     OW17130   3.137   6.097   6.046
 1700SOL    HW117131   3.098   6.117   5.956
 1700SOL    HW217132   3.089   6.149   6.116
 1701SOL     OW17133   9.220   1.583   5.333
 1701SOL    HW117134   9.225   1.484   5.344
 1701SOL    HW217135   9.156   1.605   5.259
 1702SOL     OW17136   0.148   7.127   5.116
 1702SOL    HW117137   0.141   7.052   5.182
 1702SOL    HW217138   0.186   7.092   5.031
 1703SOL     OW17139   1.098   0.387   6.096
 1703SOL    HW117140   1.040   0.378   6.176
 1703SOL    HW217141   1.095   0.303   6.041
 1704SOL     OW17142   4.603   0.497   1.718
 1704SOL    HW117143   4.703   0.504   1.708
 1704SOL    HW217144   4.580   0.500   1.815
 1705SOL     OW17145   3.257   8.458   5.739
 1705SOL    HW117146   3.344   8.463   5.787
 1705SOL    HW217147   3.224   8.363   5.740
 1706SOL     OW17148   1.822   0.607   5.281
 1706SOL    HW117149   1.760   0.565   5.348
 1706SOL    HW217150   1.895   0.655   5.328
 1707SOL     OW17151   0.906   0.482   4.711
 1707SOL    HW117152   0.816   0.468   4.671
 1707SOL    HW217153   0.975   0.487   4.638
 1708SOL     OW17154   0.607   0.900   6.520
 1708SOL    HW117155   0.630   0.876   6.426
 1708SOL    HW217156   0.691   0.920   6.571
 1709SOL     OW17157   8.090   1.187   5.648
 1709SOL    HW117158   8.013   1.130   5.618
 1709SOL    HW217159   8.143   1.216   5.568
 1710SOL     OW17160   5.665   3.003   0.337
 1710SOL    HW117161   5.641   2.922   0.390
 1710SOL    HW217162   5.761   2.997   0.308
 1711SOL     OW17163   5.460   0.437   5.123
 1711SOL    HW117164   5.496   0.464   5.034
 1711SOL    HW217165   5.510   0.486   5.195
 1712SOL     OW17166   3.769   5.464   5.889
 1712SOL    HW117167   3.806   5.422   5.972
 1712SOL    HW217168   3.839   5.518   5.844
 1713SOL     OW17169   2.192   1.875   0.990
 1713SOL    HW117170   2.107   1.865   0.937
 1713SOL    HW217171   2.236   1.961   0.965
 1714SOL     OW17172   7.228   2.792   0.020
 1714SOL    HW117173   7.309   2.844   0.048
 1714SOL    HW217174   7.250   2.695   0.015
 1715SOL     OW17175   4.988   2.265   1.002
 1715SOL    HW117176   4.890   2.265   1.022
 1715SOL    HW217177   5.026   2.175   1.023
 1716SOL     OW17178   9.308   4.382   6.481
 1716SOL    HW117179   9.379   4.391   6.411
 1716SOL    HW217180   9.328   4.302   6.538
 1717SOL     OW17181   6.009   2.030   1.427
 1717SOL    HW117182   6.106   2.014   1.442
 1717SOL    HW217183   5.993   2.127   1.410
 1718SOL     OW17184   7.239   1.260   5.958
 1718SOL    HW117185   7.218   1.319   6.036
 1718SOL    HW217186   7.174   1.279   5.884
 1719SOL     OW17187   1.482   1.476   6.472
 1719SOL    HW117188   1.520   1.423   6.548
 1719SOL    HW217189   1.524   1.446   6.387
 1720SOL     OW17190   3.481   1.285   6.335
 1720SOL    HW117191   3.470   1.383   6.318
 1720SOL    HW217192   3.420   1.234   6.274
 1721SOL     OW17193   6.936   1.585   5.734
 1721SOL    HW117194   6.858   1.581   5.796
 1721SOL    HW217195   6.904   1.597   5.640
 1722SOL     OW17196   6.528   3.484   1.626
 1722SOL    HW117197   6.565   3.540   1.699
 1722SOL    HW217198   6.525   3.388   1.655
 1723SOL     OW17199   0.974   4.342   0.705
 1723SOL    HW117200   0.944   4.428   0.745
 1723SOL    HW217201   1.037   4.296   0.768
 1724SOL     OW17202   6.081   6.414   0.349
 1724SOL    HW117203   6.119   6.503   0.372
 1724SOL    HW217204   6.147   6.342   0.371
 1725SOL     OW17205   1.707   0.301   5.607
 1725SOL    HW117206   1.688   0.268   5.515
 1725SOL    HW217207   1.804   0.291   5.627
 1726SOL     OW17208   9.350   0.423   6.465
 1726SOL    HW117209   9.324   0.517   6.489
 1726SOL    HW217210   9.398   0.382   6.543
 1727SOL     OW17211   4.537   3.350   0.723
 1727SOL    HW117212   4.521   3.437   0.677
 1727SOL    HW217213   4.452   3.297   0.723
 1728SOL     OW17214   8.382   4.271   6.164
 1728SOL    HW117215   8.409   4.176   6.179
 1728SOL    HW217216   8.456   4.320   6.117
 1729SOL     OW17217   8.881   2.390   1.586
 1729SOL    HW117218   8.798   2.349   1.549
 1729SOL    HW217219   8.961   2.355   1.536
 1730SOL     OW17220   0.107   6.836   5.796
 1730SOL    HW117221   0.024   6.826   5.851
 1730SOL    HW217222   0.134   6.932   5.792
 1731SOL     OW17223   7.659   2.760   5.838
 1731SOL    HW117224   7.638   2.663   5.846
 1731SOL    HW217225   7.729   2.773   5.768
 1732SOL     OW17226   3.943   5.202   1.220
 1732SOL    HW117227   3.909   5.294   1.234
 1732SOL    HW217228   3.866   5.138   1.215
 1733SOL     OW17229   4.076   5.162   6.698
 1733SOL    HW117230   4.099   5.166   6.601
 1733SOL    HW217231   4.152   5.120   6.749
 1734SOL     OW17232   7.076   7.363   5.851
 1734SOL    HW117233   7.168   7.395   5.830
 1734SOL    HW217234   7.031   7.427   5.913
 1735SOL     OW17235   7.082   2.097   0.685
 1735SOL    HW117236   7.015   2.026   0.662
 1735SOL    HW217237   7.154   2.098   0.616
 1736SOL     OW17238   7.633   8.138   6.272
 1736SOL    HW117239   7.594   8.124   6.363
 1736SOL    HW217240   7.617   8.056   6.216
 1737SOL     OW17241   0.824   2.419   0.500
 1737SOL    HW117242   0.769   2.455   0.575
 1737SOL    HW217243   0.921   2.432   0.520
 1738SOL     OW17244   3.427   5.235   4.962
 1738SOL    HW117245   3.347   5.217   4.905
 1738SOL    HW217246   3.488   5.299   4.914
 1739SOL     OW17247   0.177   5.507   5.367
 1739SOL    HW117248   0.227   5.450   5.302
 1739SOL    HW217249   0.219   5.500   5.458
 1740SOL     OW17250   6.747   3.145   0.397
 1740SOL    HW117251   6.763   3.142   0.496
 1740SOL    HW217252   6.760   3.238   0.364
 1741SOL     OW17253   5.633   5.800   6.610
 1741SOL    HW117254   5.664   5.799   6.705
 1741SOL    HW217255   5.568   5.725   6.595
 1742SOL     OW17256   6.470   4.541   6.677
 1742SOL    HW117257   6.400   4.549   6.607
 1742SOL    HW217258   6.453   4.607   6.750
 1743SOL     OW17259   3.166   5.302   6.634
 1743SOL    HW117260   3.141   5.253   6.717
 1743SOL    HW217261   3.173   5.238   6.558
 1744SOL     OW17262   3.967   4.139   5.445
 1744SOL    HW117263   4.040   4.109   5.507
 1744SOL    HW217264   3.972   4.085   5.360
 1745SOL     OW17265   5.104   2.015   1.076
 1745SOL    HW117266   5.158   1.939   1.041
 1745SOL    HW217267   5.060   1.989   1.161
 1746SOL     OW17268   0.455   7.109   0.312
 1746SOL    HW117269   0.554   7.098   0.326
 1746SOL    HW217270   0.437   7.124   0.215
 1747SOL     OW17271   5.993   0.265   6.700
 1747SOL    HW117272   5.973   0.168   6.715
 1747SOL    HW217273   5.910   0.311   6.668
 1748SOL     OW17274   6.803   8.434   0.543
 1748SOL    HW117275   6.798   8.335   0.562
 1748SOL    HW217276   6.713   8.466   0.513
 1749SOL     OW17277   3.136   1.109   2.318
 1749SOL    HW117278   3.094   1.104   2.227
 1749SOL    HW217279   3.202   1.184   2.320
 1750SOL     OW17280   2.744   5.036   0.291
 1750SOL    HW117281   2.722   5.096   0.368
 1750SOL    HW217282   2.661   5.020   0.237
 1751SOL     OW17283   6.284   4.078   0.741
 1751SOL    HW117284   6.272   4.176   0.724
 1751SOL    HW217285   6.195   4.033   0.745
 1752SOL     OW17286   2.106   2.442   6.464
 1752SOL    HW117287   2.172   2.517   6.467
 1752SOL    HW217288   2.101   2.405   6.372
 1753SOL     OW17289   2.573   4.647   0.706
 1753SOL    HW117290   2.593   4.730   0.653
 1753SOL    HW217291   2.658   4.598   0.723
 1754SOL     OW17292   4.934   4.391   0.023
 1754SOL    HW117293   4.990   4.329  -0.031
 1754SOL    HW217294   4.992   4.455   0.072
 1755SOL     OW17295   9.059   4.448   5.555
 1755SOL    HW117296   9.101   4.497   5.478
 1755SOL    HW217297   8.960   4.442   5.540
 1756SOL     OW17298   0.668   0.876   0.244
 1756SOL    HW117299   0.620   0.788   0.246
 1756SOL    HW217300   0.736   0.878   0.317
 1757SOL     OW17301   4.172   0.738   6.004
 1757SOL    HW117302   4.129   0.746   6.094
 1757SOL    HW217303   4.103   0.745   5.932
 1758SOL     OW17304   0.570   1.794   1.024
 1758SOL    HW117305   0.564   1.848   1.108
 1758SOL    HW217306   0.554   1.697   1.046
 1759SOL     OW17307   3.744   5.017   1.156
 1759SOL    HW117308   3.730   4.976   1.066
 1759SOL    HW217309   3.673   4.986   1.219
 1760SOL     OW17310   1.074   0.685   4.441
 1760SOL    HW117311   0.988   0.736   4.445
 1760SOL    HW217312   1.151   0.750   4.438
 1761SOL     OW17313   3.044   5.693   6.719
 1761SOL    HW117314   2.982   5.752   6.667
 1761SOL    HW217315   3.095   5.634   6.656
 1762SOL     OW17316   3.841   4.628   1.142
 1762SOL    HW117317   3.755   4.581   1.120
 1762SOL    HW217318   3.828   4.685   1.222
 1763SOL     OW17319   2.943   7.698   0.644
 1763SOL    HW117320   3.021   7.754   0.613
 1763SOL    HW217321   2.956   7.604   0.613
 1764SOL     OW17322   3.493   4.033   0.800
 1764SOL    HW117323   3.556   3.961   0.827
 1764SOL    HW217324   3.399   4.002   0.813
 1765SOL     OW17325   0.457   1.207   1.365
 1765SOL    HW117326   0.495   1.131   1.313
 1765SOL    HW217327   0.379   1.174   1.419
 1766SOL     OW17328   3.408   3.540   6.559
 1766SOL    HW117329   3.317   3.574   6.581
 1766SOL    HW217330   3.475   3.612   6.576
 1767SOL     OW17331   5.471   2.374   0.781
 1767SOL    HW117332   5.468   2.439   0.705
 1767SOL    HW217333   5.378   2.348   0.807
 1768SOL     OW17334   3.672   7.872   5.903
 1768SOL    HW117335   3.590   7.815   5.898
 1768SOL    HW217336   3.657   7.945   5.970
 1769SOL     OW17337   6.497   7.319   6.552
 1769SOL    HW117338   6.418   7.267   6.522
 1769SOL    HW217339   6.581   7.276   6.518
 1770SOL     OW17340   3.245   4.975   5.793
 1770SOL    HW117341   3.319   4.911   5.774
 1770SOL    HW217342   3.167   4.927   5.833
 1771SOL     OW17343   0.335   2.886   5.471
 1771SOL    HW117344   0.342   2.894   5.372
 1771SOL    HW217345   0.389   2.958   5.514
 1772SOL     OW17346   5.234   8.274   6.036
 1772SOL    HW117347   5.250   8.190   6.087
 1772SOL    HW217348   5.314   8.296   5.981
 1773SOL     OW17349   4.048   4.022   0.613
 1773SOL    HW117350   4.094   3.935   0.592
 1773SOL    HW217351   3.986   4.045   0.539
 1774SOL     OW17352   9.458   6.760   4.973
 1774SOL    HW117353   9.448   6.697   5.050
 1774SOL    HW217354   9.503   6.712   4.897
 1775SOL     OW17355   0.721   8.328   6.438
 1775SOL    HW117356   0.672   8.242   6.420
 1775SOL    HW217357   0.771   8.319   6.524
 1776SOL     OW17358   3.567   0.030   0.676
 1776SOL    HW117359   3.636   0.097   0.703
 1776SOL    HW217360   3.611  -0.047   0.631
 1777SOL     OW17361   1.932   0.233   0.312
 1777SOL    HW117362   1.915   0.321   0.267
 1777SOL    HW217363   2.009   0.187   0.268
 1778SOL     OW17364   5.562   2.878   1.038
 1778SOL    HW117365   5.534   2.886   1.133
 1778SOL    HW217366   5.630   2.948   1.017
 1779SOL     OW17367   4.653   6.469   0.142
 1779SOL    HW117368   4.670   6.426   0.231
 1779SOL    HW217369   4.712   6.550   0.133
 1780SOL     OW17370   5.743   0.827   1.456
 1780SOL    HW117371   5.835   0.864   1.444
 1780SOL    HW217372   5.746   0.727   1.457
 1781SOL     OW17373   6.735   2.339   6.361
 1781SOL    HW117374   6.726   2.423   6.414
 1781SOL    HW217375   6.762   2.362   6.267
 1782SOL     OW17376   8.829   3.280   6.058
 1782SOL    HW117377   8.771   3.205   6.027
 1782SOL    HW217378   8.779   3.338   6.123
 1783SOL     OW17379   2.164   3.173   6.523
 1783SOL    HW117380   2.166   3.073   6.513
 1783SOL    HW217381   2.241   3.213   6.475
 1784SOL     OW17382   4.120   0.067   6.321
 1784SOL    HW117383   4.029   0.069   6.362
 1784SOL    HW217384   4.128  -0.013   6.262
 1785SOL     OW17385   7.293   3.781   0.405
 1785SOL    HW117386   7.375   3.834   0.382
 1785SOL    HW217387   7.226   3.841   0.450
 1786SOL     OW17388   4.239   6.808   1.274
 1786SOL    HW117389   4.321   6.799   1.217
 1786SOL    HW217390   4.182   6.881   1.238
 1787SOL     OW17391   1.845   2.637   6.421
 1787SOL    HW117392   1.907   2.590   6.483
 1787SOL    HW217393   1.789   2.703   6.472
 1788SOL     OW17394   0.498   7.725   6.036
 1788SOL    HW117395   0.567   7.788   6.073
 1788SOL    HW217396   0.482   7.745   5.940
 1789SOL     OW17397   3.126   8.003   6.259
 1789SOL    HW117398   3.166   7.916   6.287
 1789SOL    HW217399   3.044   7.986   6.205
 1790SOL     OW17400   6.161   8.348   5.327
 1790SOL    HW117401   6.258   8.371   5.342
 1790SOL    HW217402   6.146   8.333   5.229
 1791SOL     OW17403   2.488   2.662   0.413
 1791SOL    HW117404   2.538   2.747   0.396
 1791SOL    HW217405   2.552   2.590   0.438
 1792SOL     OW17406   3.655   0.934   5.600
 1792SOL    HW117407   3.574   0.949   5.544
 1792SOL    HW217408   3.627   0.904   5.691
 1793SOL     OW17409   1.467   5.097   5.872
 1793SOL    HW117410   1.382   5.086   5.820
 1793SOL    HW217411   1.545   5.069   5.816
 1794SOL     OW17412   6.619   2.115   0.807
 1794SOL    HW117413   6.674   2.197   0.795
 1794SOL    HW217414   6.562   2.100   0.726
 1795SOL     OW17415   2.617   1.885   5.737
 1795SOL    HW117416   2.686   1.823   5.773
 1795SOL    HW217417   2.614   1.877   5.638
 1796SOL     OW17418   6.991   7.045   6.376
 1796SOL    HW117419   6.987   7.135   6.421
 1796SOL    HW217420   6.915   7.037   6.312
 1797SOL     OW17421   7.508   0.428   5.737
 1797SOL    HW117422   7.578   0.500   5.745
 1797SOL    HW217423   7.426   0.456   5.787
 1798SOL     OW17424   9.347   7.984   6.604
 1798SOL    HW117425   9.352   8.018   6.698
 1798SOL    HW217426   9.347   8.062   6.541
 1799SOL     OW17427   0.233   0.758   5.995
 1799SOL    HW117428   0.184   0.786   6.077
 1799SOL    HW217429   0.317   0.812   5.986
 1800SOL     OW17430   1.507   3.021   5.976
 1800SOL    HW117431   1.543   3.103   5.932
 1800SOL    HW217432   1.577   2.949   5.973
 1801SOL     OW17433   3.915   8.081   0.688
 1801SOL    HW117434   3.972   8.127   0.619
 1801SOL    HW217435   3.819   8.083   0.658
 1802SOL     OW17436   0.374   6.037   6.087
 1802SOL    HW117437   0.309   5.963   6.072
 1802SOL    HW217438   0.453   6.002   6.138
 1803SOL     OW17439   3.298   5.437   5.956
 1803SOL    HW117440   3.374   5.498   5.937
 1803SOL    HW217441   3.299   5.360   5.892
 1804SOL     OW17442   5.518   4.878   1.647
 1804SOL    HW117443   5.535   4.890   1.745
 1804SOL    HW217444   5.421   4.893   1.627
 1805SOL     OW17445   5.698   8.489   0.522
 1805SOL    HW117446   5.610   8.522   0.487
 1805SOL    HW217447   5.755   8.461   0.445
 1806SOL     OW17448   0.690   6.829   6.175
 1806SOL    HW117449   0.705   6.810   6.078
 1806SOL    HW217450   0.593   6.840   6.193
 1807SOL     OW17451   6.408   5.121   4.718
 1807SOL    HW117452   6.500   5.083   4.721
 1807SOL    HW217453   6.341   5.047   4.714
 1808SOL     OW17454   3.968   1.522   1.976
 1808SOL    HW117455   3.953   1.438   1.924
 1808SOL    HW217456   3.958   1.503   2.073
 1809SOL     OW17457   5.572   8.180   0.544
 1809SOL    HW117458   5.475   8.163   0.562
 1809SOL    HW217459   5.605   8.251   0.607
 1810SOL     OW17460   4.220   6.992   5.007
 1810SOL    HW117461   4.225   7.088   4.980
 1810SOL    HW217462   4.128   6.957   4.989
 1811SOL     OW17463   0.856   7.823   5.649
 1811SOL    HW117464   0.854   7.820   5.749
 1811SOL    HW217465   0.763   7.822   5.613
 1812SOL     OW17466   0.484   3.303   6.640
 1812SOL    HW117467   0.428   3.386   6.649
 1812SOL    HW217468   0.474   3.248   6.723
 1813SOL     OW17469   7.998   7.497   6.165
 1813SOL    HW117470   7.968   7.530   6.075
 1813SOL    HW217471   7.944   7.417   6.190
 1814SOL     OW17472   4.866   2.747   0.838
 1814SOL    HW117473   4.892   2.794   0.754
 1814SOL    HW217474   4.772   2.712   0.829
 1815SOL     OW17475   3.615   7.052   0.030
 1815SOL    HW117476   3.592   7.049   0.127
 1815SOL    HW217477   3.709   7.083   0.018
 1816SOL     OW17478   9.486   4.079   0.877
 1816SOL    HW117479   9.472   4.092   0.975
 1816SOL    HW217480   9.397   4.065   0.833
 1817SOL     OW17481   5.871   1.104   6.280
 1817SOL    HW117482   5.910   1.071   6.366
 1817SOL    HW217483   5.844   1.200   6.290
 1818SOL     OW17484   3.373   0.825   0.049
 1818SOL    HW117485   3.420   0.740   0.069
 1818SOL    HW217486   3.405   0.861  -0.039
 1819SOL     OW17487   4.655   8.418   0.606
 1819SOL    HW117488   4.693   8.376   0.689
 1819SOL    HW217489   4.704   8.383   0.526
 1820SOL     OW17490   7.121   8.113   5.219
 1820SOL    HW117491   7.206   8.159   5.193
 1820SOL    HW217492   7.059   8.178   5.261
 1821SOL     OW17493   6.238   6.435   5.431
 1821SOL    HW117494   6.181   6.353   5.436
 1821SOL    HW217495   6.238   6.471   5.338
 1822SOL     OW17496   5.841   1.690   1.613
 1822SOL    HW117497   5.836   1.593   1.636
 1822SOL    HW217498   5.774   1.740   1.668
 1823SOL     OW17499   5.804   0.213   0.255
 1823SOL    HW117500   5.712   0.227   0.292
 1823SOL    HW217501   5.860   0.293   0.277
 1824SOL     OW17502   2.353   3.806   0.989
 1824SOL    HW117503   2.380   3.876   1.054
 1824SOL    HW217504   2.303   3.848   0.913
 1825SOL     OW17505   7.452   6.151   0.158
 1825SOL    HW117506   7.527   6.086   0.162
 1825SOL    HW217507   7.463   6.210   0.078
 1826SOL     OW17508   6.505   1.113   1.969
 1826SOL    HW117509   6.505   1.045   2.043
 1826SOL    HW217510   6.519   1.067   1.881
 1827SOL     OW17511   7.707   6.382   0.254
 1827SOL    HW117512   7.660   6.415   0.336
 1827SOL    HW217513   7.751   6.459   0.207
 1828SOL     OW17514   9.109   0.954   0.119
 1828SOL    HW117515   9.180   0.898   0.161
 1828SOL    HW217516   9.096   0.927   0.024
 1829SOL     OW17517   5.996   0.205   4.844
 1829SOL    HW117518   6.039   0.186   4.932
 1829SOL    HW217519   6.044   0.281   4.800
 1830SOL     OW17520   1.000   7.564   5.616
 1830SOL    HW117521   0.927   7.625   5.649
 1830SOL    HW217522   1.015   7.580   5.519
 1831SOL     OW17523   9.000   5.057   0.154
 1831SOL    HW117524   8.990   5.150   0.119
 1831SOL    HW217525   8.921   5.034   0.211
 1832SOL     OW17526   5.340   3.842   6.369
 1832SOL    HW117527   5.315   3.926   6.419
 1832SOL    HW217528   5.401   3.787   6.426
 1833SOL     OW17529   9.087   4.590   6.439
 1833SOL    HW117530   9.155   4.521   6.462
 1833SOL    HW217531   9.120   4.680   6.467
 1834SOL     OW17532   9.187   4.811   6.575
 1834SOL    HW117533   9.118   4.877   6.549
 1834SOL    HW217534   9.270   4.858   6.604
 1835SOL     OW17535   5.304   2.718   0.461
 1835SOL    HW117536   5.247   2.727   0.380
 1835SOL    HW217537   5.323   2.809   0.499
 1836SOL     OW17538   5.941   1.409   2.012
 1836SOL    HW117539   5.979   1.340   1.950
 1836SOL    HW217540   5.980   1.498   1.988
 1837SOL     OW17541   0.120   7.040   1.285
 1837SOL    HW117542   0.069   6.971   1.337
 1837SOL    HW217543   0.103   7.027   1.188
 1838SOL     OW17544   5.360   3.061   0.241
 1838SOL    HW117545   5.395   3.155   0.239
 1838SOL    HW217546   5.437   2.998   0.244
 1839SOL     OW17547   9.091   4.465   6.141
 1839SOL    HW117548   9.117   4.415   6.059
 1839SOL    HW217549   9.143   4.550   6.146
 1840SOL     OW17550   3.846   6.365   2.299
 1840SOL    HW117551   3.830   6.463   2.311
 1840SOL    HW217552   3.766   6.314   2.330
 1841SOL     OW17553   8.520   2.888   6.473
 1841SOL    HW117554   8.481   2.909   6.562
 1841SOL    HW217555   8.511   2.791   6.454
 1842SOL     OW17556   5.719   2.894   5.915
 1842SOL    HW117557   5.738   2.831   5.990
 1842SOL    HW217558   5.669   2.973   5.951
 1843SOL     OW17559   8.546   1.096   6.476
 1843SOL    HW117560   8.510   1.032   6.543
 1843SOL    HW217561   8.519   1.067   6.384
 1844SOL     OW17562   0.250   0.148   5.781
 1844SOL    HW117563   0.314   0.132   5.857
 1844SOL    HW217564   0.290   0.214   5.718
 1845SOL     OW17565   6.061   2.725   6.054
 1845SOL    HW117566   6.035   2.665   5.978
 1845SOL    HW217567   6.124   2.676   6.115
 1846SOL     OW17568   4.835   5.312   0.774
 1846SOL    HW117569   4.817   5.251   0.697
 1846SOL    HW217570   4.830   5.407   0.742
 1847SOL     OW17571   0.390   5.812   5.371
 1847SOL    HW117572   0.417   5.737   5.311
 1847SOL    HW217573   0.441   5.895   5.347
 1848SOL     OW17574   6.166   1.110   0.549
 1848SOL    HW117575   6.108   1.081   0.473
 1848SOL    HW217576   6.188   1.208   0.539
 1849SOL     OW17577   1.029   5.661   6.234
 1849SOL    HW117578   1.097   5.696   6.299
 1849SOL    HW217579   1.052   5.692   6.142
 1850SOL     OW17580   7.560   1.305   0.849
 1850SOL    HW117581   7.500   1.315   0.929
 1850SOL    HW217582   7.647   1.265   0.877
 1851SOL     OW17583   6.531   4.916   6.426
 1851SOL    HW117584   6.510   5.009   6.396
 1851SOL    HW217585   6.486   4.898   6.513
 1852SOL     OW17586   5.325   1.502   0.278
 1852SOL    HW117587   5.329   1.565   0.201
 1852SOL    HW217588   5.383   1.423   0.260
 1853SOL     OW17589   3.717   7.184   6.152
 1853SOL    HW117590   3.639   7.134   6.116
 1853SOL    HW217591   3.686   7.250   6.221
 1854SOL     OW17592   8.027   6.619   6.391
 1854SOL    HW117593   8.078   6.577   6.316
 1854SOL    HW217594   7.946   6.665   6.354
 1855SOL     OW17595   3.652   7.871   0.928
 1855SOL    HW117596   3.591   7.928   0.982
 1855SOL    HW217597   3.739   7.860   0.976
 1856SOL     OW17598   0.440   3.812   6.108
 1856SOL    HW117599   0.468   3.782   6.017
 1856SOL    HW217600   0.492   3.762   6.177
 1857SOL     OW17601   0.964   6.577   5.603
 1857SOL    HW117602   0.927   6.669   5.618
 1857SOL    HW217603   1.057   6.584   5.566
 1858SOL     OW17604   2.994   6.144   1.087
 1858SOL    HW117605   2.936   6.169   1.165
 1858SOL    HW217606   2.955   6.180   1.003
 1859SOL     OW17607   0.657   2.842   6.416
 1859SOL    HW117608   0.585   2.847   6.486
 1859SOL    HW217609   0.699   2.752   6.418
 1860SOL     OW17610   3.000   7.532   0.043
 1860SOL    HW117611   2.954   7.518   0.130
 1860SOL    HW217612   3.060   7.612   0.048
 1861SOL     OW17613   2.532   6.824   0.491
 1861SOL    HW117614   2.611   6.792   0.545
 1861SOL    HW217615   2.507   6.916   0.520
 1862SOL     OW17616   2.676   0.374   5.785
 1862SOL    HW117617   2.714   0.354   5.875
 1862SOL    HW217618   2.645   0.469   5.781
 1863SOL     OW17619   5.435   1.871   6.496
 1863SOL    HW117620   5.529   1.877   6.462
 1863SOL    HW217621   5.376   1.834   6.424
 1864SOL     OW17622   0.450   5.925   0.213
 1864SOL    HW117623   0.451   5.830   0.180
 1864SOL    HW217624   0.468   5.926   0.311
 1865SOL     OW17625   3.782   1.651   1.345
 1865SOL    HW117626   3.864   1.683   1.298
 1865SOL    HW217627   3.807   1.586   1.417
 1866SOL     OW17628   9.082   8.420   6.611
 1866SOL    HW117629   9.084   8.414   6.710
 1866SOL    HW217630   9.096   8.515   6.582
 1867SOL     OW17631   0.126   7.912   0.011
 1867SOL    HW117632   0.072   7.963  -0.056
 1867SOL    HW217633   0.139   7.818  -0.020
 1868SOL     OW17634   0.011   1.950   6.484
 1868SOL    HW117635   0.100   1.904   6.478
 1868SOL    HW217636  -0.045   1.906   6.555
 1869SOL     OW17637   4.802   1.241   1.252
 1869SOL    HW117638   4.791   1.143   1.234
 1869SOL    HW217639   4.872   1.254   1.322
 1870SOL     OW17640   2.662   3.250   0.472
 1870SOL    HW117641   2.753   3.267   0.435
 1870SOL    HW217642   2.622   3.336   0.504
 1871SOL     OW17643   1.962   1.528   0.921
 1871SOL    HW117644   1.949   1.437   0.883
 1871SOL    HW217645   2.059   1.546   0.934
 1872SOL     OW17646   6.605   8.328   6.294
 1872SOL    HW117647   6.691   8.291   6.328
 1872SOL    HW217648   6.570   8.268   6.221
 1873SOL     OW17649   3.410   3.600   6.294
 1873SOL    HW117650   3.406   3.582   6.392
 1873SOL    HW217651   3.503   3.587   6.262
 1874SOL     OW17652   7.897   5.087   5.285
 1874SOL    HW117653   7.886   5.150   5.362
 1874SOL    HW217654   7.867   4.995   5.312
 1875SOL     OW17655   0.012   6.796   0.211
 1875SOL    HW117656   0.030   6.884   0.256
 1875SOL    HW217657   0.001   6.810   0.113
 1876SOL     OW17658   4.524   4.664   5.922
 1876SOL    HW117659   4.493   4.710   6.006
 1876SOL    HW217660   4.465   4.586   5.904
 1877SOL     OW17661   3.057   0.944   6.248
 1877SOL    HW117662   3.033   0.985   6.336
 1877SOL    HW217663   2.999   0.864   6.231
 1878SOL     OW17664   3.655   1.398   0.278
 1878SOL    HW117665   3.672   1.381   0.375
 1878SOL    HW217666   3.574   1.455   0.267
 1879SOL     OW17667   3.835   7.485   6.728
 1879SOL    HW117668   3.898   7.545   6.778
 1879SOL    HW217669   3.869   7.391   6.732
 1880SOL     OW17670   1.975   0.838   1.003
 1880SOL    HW117671   1.937   0.830   0.911
 1880SOL    HW217672   1.974   0.934   1.031
 1881SOL     OW17673   0.278   6.143   5.590
 1881SOL    HW117674   0.193   6.104   5.626
 1881SOL    HW217675   0.342   6.158   5.665
 1882SOL     OW17676   1.935   5.474   6.575
 1882SOL    HW117677   1.849   5.471   6.524
 1882SOL    HW217678   1.920   5.519   6.663
 1883SOL     OW17679   1.747   5.066   6.655
 1883SOL    HW117680   1.702   5.137   6.602
 1883SOL    HW217681   1.840   5.096   6.678
 1884SOL     OW17682   0.849   6.164   0.023
 1884SOL    HW117683   0.897   6.143  -0.062
 1884SOL    HW217684   0.751   6.165   0.006
 1885SOL     OW17685   7.218   0.018   5.543
 1885SOL    HW117686   7.190   0.019   5.447
 1885SOL    HW217687   7.164   0.086   5.594
 1886SOL     OW17688   2.585   2.182   1.020
 1886SOL    HW117689   2.658   2.239   1.056
 1886SOL    HW217690   2.614   2.086   1.022
 1887SOL     OW17691   3.442   1.672   0.028
 1887SOL    HW117692   3.441   1.581  -0.015
 1887SOL    HW217693   3.477   1.739  -0.038
 1888SOL     OW17694   0.764   6.046   0.653
 1888SOL    HW117695   0.821   6.112   0.603
 1888SOL    HW217696   0.801   5.954   0.639
 1889SOL     OW17697   3.580   5.935   1.121
 1889SOL    HW117698   3.498   5.965   1.072
 1889SOL    HW217699   3.592   5.837   1.108
 1890SOL     OW17700   5.333   2.065   5.763
 1890SOL    HW117701   5.421   2.097   5.798
 1890SOL    HW217702   5.301   2.128   5.692
 1891SOL     OW17703   4.157   7.621   6.314
 1891SOL    HW117704   4.170   7.646   6.409
 1891SOL    HW217705   4.078   7.560   6.306
 1892SOL     OW17706   4.182   5.578   5.231
 1892SOL    HW117707   4.114   5.645   5.202
 1892SOL    HW217708   4.227   5.540   5.150
 1893SOL     OW17709   6.406   1.604   0.674
 1893SOL    HW117710   6.425   1.688   0.725
 1893SOL    HW217711   6.422   1.525   0.733
 1894SOL     OW17712   1.284   2.088   0.602
 1894SOL    HW117713   1.325   2.018   0.660
 1894SOL    HW217714   1.250   2.046   0.518
 1895SOL     OW17715   7.422   6.299   1.125
 1895SOL    HW117716   7.446   6.293   1.222
 1895SOL    HW217717   7.331   6.339   1.115
 1896SOL     OW17718   1.376   7.075   6.344
 1896SOL    HW117719   1.476   7.069   6.338
 1896SOL    HW217720   1.351   7.136   6.419
 1897SOL     OW17721   9.432   8.420   0.100
 1897SOL    HW117722   9.358   8.463   0.048
 1897SOL    HW217723   9.518   8.433   0.051
 1898SOL     OW17724   6.247   5.212   0.284
 1898SOL    HW117725   6.325   5.205   0.223
 1898SOL    HW217726   6.167   5.244   0.233
 1899SOL     OW17727   7.895   7.434   5.252
 1899SOL    HW117728   7.969   7.493   5.220
 1899SOL    HW217729   7.821   7.491   5.288
 1900SOL     OW17730   2.509   3.032   0.492
 1900SOL    HW117731   2.539   2.979   0.413
 1900SOL    HW217732   2.572   3.109   0.506
 1901SOL     OW17733   3.458   1.153   0.636
 1901SOL    HW117734   3.529   1.170   0.567
 1901SOL    HW217735   3.501   1.135   0.724
 1902SOL     OW17736   7.765   0.610   4.857
 1902SOL    HW117737   7.700   0.669   4.809
 1902SOL    HW217738   7.858   0.638   4.836
 1903SOL     OW17739   7.029   0.728   5.618
 1903SOL    HW117740   7.028   0.828   5.607
 1903SOL    HW217741   7.123   0.696   5.622
 1904SOL     OW17742   0.168   2.259   5.922
 1904SOL    HW117743   0.138   2.215   6.007
 1904SOL    HW217744   0.165   2.358   5.933
 1905SOL     OW17745   4.127   5.907   6.275
 1905SOL    HW117746   4.158   5.834   6.214
 1905SOL    HW217747   4.194   5.918   6.349
 1906SOL     OW17748   0.931   1.329   0.687
 1906SOL    HW117749   0.843   1.347   0.642
 1906SOL    HW217750   0.937   1.232   0.711
 1907SOL     OW17751   4.096   7.972   2.174
 1907SOL    HW117752   4.054   7.964   2.264
 1907SOL    HW217753   4.045   8.037   2.118
 1908SOL     OW17754   5.434   6.289   1.549
 1908SOL    HW117755   5.465   6.359   1.614
 1908SOL    HW217756   5.495   6.289   1.469
 1909SOL     OW17757   6.980   8.359   5.162
 1909SOL    HW117758   6.904   8.421   5.145
 1909SOL    HW217759   7.002   8.310   5.077
 1910SOL     OW17760   4.553   0.579   0.547
 1910SOL    HW117761   4.520   0.506   0.607
 1910SOL    HW217762   4.560   0.664   0.600
 1911SOL     OW17763   0.597   7.418   0.775
 1911SOL    HW117764   0.632   7.342   0.721
 1911SOL    HW217765   0.498   7.408   0.786
 1912SOL     OW17766   4.590   4.160   5.911
 1912SOL    HW117767   4.587   4.089   5.981
 1912SOL    HW217768   4.505   4.157   5.857
 1913SOL     OW17769   5.962   5.504   0.981
 1913SOL    HW117770   5.893   5.546   0.921
 1913SOL    HW217771   5.934   5.515   1.076
 1914SOL     OW17772   9.312   7.879   4.983
 1914SOL    HW117773   9.262   7.871   4.897
 1914SOL    HW217774   9.372   7.959   4.979
 1915SOL     OW17775   1.122   6.191   5.539
 1915SOL    HW117776   1.082   6.170   5.628
 1915SOL    HW217777   1.195   6.259   5.550
 1916SOL     OW17778   5.799   8.431   0.258
 1916SOL    HW117779   5.800   8.530   0.242
 1916SOL    HW217780   5.824   8.383   0.174
 1917SOL     OW17781   4.826   4.332   6.120
 1917SOL    HW117782   4.872   4.249   6.153
 1917SOL    HW217783   4.736   4.308   6.085
 1918SOL     OW17784   7.066   7.749   0.234
 1918SOL    HW117785   6.974   7.723   0.204
 1918SOL    HW217786   7.132   7.725   0.163
 1919SOL     OW17787   0.456   8.249   0.432
 1919SOL    HW117788   0.501   8.203   0.355
 1919SOL    HW217789   0.499   8.219   0.517
 1920SOL     OW17790   7.839   4.426   6.295
 1920SOL    HW117791   7.894   4.484   6.236
 1920SOL    HW217792   7.743   4.454   6.289
 1921SOL     OW17793   3.713   6.302   0.746
 1921SOL    HW117794   3.633   6.323   0.802
 1921SOL    HW217795   3.770   6.235   0.793
 1922SOL     OW17796   2.207   4.743   0.305
 1922SOL    HW117797   2.162   4.684   0.372
 1922SOL    HW217798   2.299   4.708   0.286
 1923SOL     OW17799   5.236   8.290   0.861
 1923SOL    HW117800   5.169   8.286   0.787
 1923SOL    HW217801   5.319   8.240   0.835
 1924SOL     OW17802   6.707   3.157   6.557
 1924SOL    HW117803   6.627   3.144   6.615
 1924SOL    HW217804   6.790   3.145   6.613
 1925SOL     OW17805   0.545   6.757   4.463
 1925SOL    HW117806   0.626   6.699   4.476
 1925SOL    HW217807   0.467   6.700   4.439
 1926SOL     OW17808   0.837   6.546   0.400
 1926SOL    HW117809   0.779   6.620   0.365
 1926SOL    HW217810   0.917   6.585   0.445
 1927SOL     OW17811   2.866   4.225   0.016
 1927SOL    HW117812   2.797   4.297   0.021
 1927SOL    HW217813   2.872   4.190  -0.078
 1928SOL     OW17814   1.253   2.456   5.892
 1928SOL    HW117815   1.232   2.539   5.943
 1928SOL    HW217816   1.338   2.469   5.840
 1929SOL     OW17817   5.564   5.583   6.336
 1929SOL    HW117818   5.575   5.576   6.237
 1929SOL    HW217819   5.550   5.492   6.375
 1930SOL     OW17820   3.282   3.208   0.261
 1930SOL    HW117821   3.379   3.196   0.237
 1930SOL    HW217822   3.227   3.198   0.178
 1931SOL     OW17823   0.182   8.204   0.383
 1931SOL    HW117824   0.203   8.217   0.286
 1931SOL    HW217825   0.117   8.128   0.394
 1932SOL     OW17826   4.791   6.105   5.885
 1932SOL    HW117827   4.778   6.127   5.788
 1932SOL    HW217828   4.864   6.163   5.922
 1933SOL     OW17829   1.367   6.225   1.337
 1933SOL    HW117830   1.291   6.283   1.306
 1933SOL    HW217831   1.365   6.138   1.287
 1934SOL     OW17832   2.670   4.260   0.621
 1934SOL    HW117833   2.664   4.249   0.720
 1934SOL    HW217834   2.682   4.171   0.578
 1935SOL     OW17835   9.016   2.252   5.330
 1935SOL    HW117836   9.011   2.352   5.326
 1935SOL    HW217837   9.038   2.223   5.423
 1936SOL     OW17838   1.481   5.859   0.436
 1936SOL    HW117839   1.510   5.825   0.347
 1936SOL    HW217840   1.387   5.832   0.454
 1937SOL     OW17841   9.327   3.539   0.934
 1937SOL    HW117842   9.255   3.489   0.983
 1937SOL    HW217843   9.305   3.636   0.933
 1938SOL     OW17844   3.642   2.478   6.342
 1938SOL    HW117845   3.660   2.571   6.375
 1938SOL    HW217846   3.718   2.447   6.285
 1939SOL     OW17847   3.159   5.059   0.668
 1939SOL    HW117848   3.179   4.961   0.674
 1939SOL    HW217849   3.076   5.079   0.720
 1940SOL     OW17850   2.777   7.990   6.269
 1940SOL    HW117851   2.702   7.926   6.255
 1940SOL    HW217852   2.772   8.026   6.362
 1941SOL     OW17853   7.791   3.902   0.446
 1941SOL    HW117854   7.805   3.982   0.389
 1941SOL    HW217855   7.693   3.883   0.455
 1942SOL     OW17856   0.283   0.749   6.336
 1942SOL    HW117857   0.324   0.713   6.420
 1942SOL    HW217858   0.351   0.747   6.263
 1943SOL     OW17859   3.500   1.437   6.637
 1943SOL    HW117860   3.586   1.465   6.594
 1943SOL    HW217861   3.508   1.342   6.667
 1944SOL     OW17862   7.562   8.060   6.533
 1944SOL    HW117863   7.535   7.964   6.542
 1944SOL    HW217864   7.501   8.118   6.587
 1945SOL     OW17865   2.549   0.647   0.136
 1945SOL    HW117866   2.595   0.703   0.206
 1945SOL    HW217867   2.617   0.606   0.076
 1946SOL     OW17868   5.138   5.874   6.368
 1946SOL    HW117869   5.104   5.954   6.417
 1946SOL    HW217870   5.084   5.794   6.393
 1947SOL     OW17871   8.562   6.529   4.910
 1947SOL    HW117872   8.557   6.441   4.863
 1947SOL    HW217873   8.506   6.596   4.861
 1948SOL     OW17874   9.324   0.580   5.562
 1948SOL    HW117875   9.396   0.580   5.494
 1948SOL    HW217876   9.235   0.594   5.518
 1949SOL     OW17877   8.513   0.957   0.632
 1949SOL    HW117878   8.583   0.953   0.704
 1949SOL    HW217879   8.432   1.004   0.667
 1950SOL     OW17880   8.382   6.644   0.549
 1950SOL    HW117881   8.452   6.677   0.613
 1950SOL    HW217882   8.314   6.716   0.535
 1951SOL     OW17883   5.902   7.180   0.491
 1951SOL    HW117884   5.883   7.082   0.488
 1951SOL    HW217885   5.847   7.227   0.423
 1952SOL     OW17886   7.905   3.403   1.076
 1952SOL    HW117887   7.920   3.307   1.052
 1952SOL    HW217888   7.809   3.417   1.101
 1953SOL     OW17889   6.858   5.937   5.902
 1953SOL    HW117890   6.877   5.986   5.817
 1953SOL    HW217891   6.759   5.931   5.917
 1954SOL     OW17892   6.488   6.442   1.133
 1954SOL    HW117893   6.431   6.521   1.111
 1954SOL    HW217894   6.473   6.415   1.228
 1955SOL     OW17895   2.569   8.294   6.308
 1955SOL    HW117896   2.508   8.261   6.379
 1955SOL    HW217897   2.660   8.312   6.347
 1956SOL     OW17898   7.654   1.989   6.591
 1956SOL    HW117899   7.695   1.905   6.555
 1956SOL    HW217900   7.711   2.067   6.565
 1957SOL     OW17901   0.697   7.489   4.924
 1957SOL    HW117902   0.635   7.426   4.969
 1957SOL    HW217903   0.741   7.548   4.992
 1958SOL     OW17904   4.185   2.466   0.222
 1958SOL    HW117905   4.099   2.511   0.200
 1958SOL    HW217906   4.244   2.530   0.272
 1959SOL     OW17907   4.554   5.250   0.100
 1959SOL    HW117908   4.471   5.226   0.151
 1959SOL    HW217909   4.574   5.178   0.033
 1960SOL     OW17910   0.322   2.142   6.311
 1960SOL    HW117911   0.300   2.083   6.234
 1960SOL    HW217912   0.411   2.185   6.295
 1961SOL     OW17913   1.020   6.849   0.448
 1961SOL    HW117914   1.025   6.759   0.490
 1961SOL    HW217915   1.096   6.905   0.481
 1962SOL     OW17916   1.495   0.143   0.712
 1962SOL    HW117917   1.527   0.117   0.803
 1962SOL    HW217918   1.574   0.155   0.651
 1963SOL     OW17919   2.474   5.490   0.609
 1963SOL    HW117920   2.561   5.444   0.591
 1963SOL    HW217921   2.425   5.503   0.523
 1964SOL     OW17922   1.263   3.120   5.420
 1964SOL    HW117923   1.284   3.140   5.324
 1964SOL    HW217924   1.323   3.175   5.478
 1965SOL     OW17925   2.872   8.382   6.442
 1965SOL    HW117926   2.791   8.417   6.489
 1965SOL    HW217927   2.914   8.456   6.389
 1966SOL     OW17928   0.270   6.871   6.676
 1966SOL    HW117929   0.284   6.812   6.756
 1966SOL    HW217930   0.172   6.877   6.656
 1967SOL     OW17931   2.651   5.159   6.139
 1967SOL    HW117932   2.566   5.129   6.182
 1967SOL    HW217933   2.653   5.258   6.132
 1968SOL     OW17934   7.606   6.104   5.167
 1968SOL    HW117935   7.541   6.177   5.184
 1968SOL    HW217936   7.665   6.128   5.090
 1969SOL     OW17937   4.174   0.132   1.464
 1969SOL    HW117938   4.141   0.040   1.445
 1969SOL    HW217939   4.226   0.132   1.549
 1970SOL     OW17940   4.165   5.150   0.795
 1970SOL    HW117941   4.223   5.119   0.720
 1970SOL    HW217942   4.113   5.230   0.765
 1971SOL     OW17943   1.065   3.791   4.913
 1971SOL    HW117944   1.093   3.876   4.867
 1971SOL    HW217945   1.050   3.720   4.844
 1972SOL     OW17946   1.308   5.654   5.279
 1972SOL    HW117947   1.261   5.732   5.319
 1972SOL    HW217948   1.294   5.655   5.179
 1973SOL     OW17949   8.340   1.176   5.461
 1973SOL    HW117950   8.392   1.132   5.388
 1973SOL    HW217951   8.342   1.275   5.449
 1974SOL     OW17952   4.530   4.918   5.635
 1974SOL    HW117953   4.611   4.862   5.616
 1974SOL    HW217954   4.451   4.878   5.588
 1975SOL     OW17955   6.538   6.178   5.856
 1975SOL    HW117956   6.548   6.083   5.826
 1975SOL    HW217957   6.592   6.238   5.797
 1976SOL     OW17958   0.589   8.168   0.639
 1976SOL    HW117959   0.528   8.195   0.714
 1976SOL    HW217960   0.674   8.132   0.677
 1977SOL     OW17961   4.385   8.249   6.387
 1977SOL    HW117962   4.424   8.199   6.309
 1977SOL    HW217963   4.453   8.313   6.423
 1978SOL     OW17964   2.180   0.554   1.377
 1978SOL    HW117965   2.179   0.643   1.422
 1978SOL    HW217966   2.092   0.509   1.389
 1979SOL     OW17967   4.478   4.806   6.511
 1979SOL    HW117968   4.417   4.850   6.445
 1979SOL    HW217969   4.569   4.796   6.471
 1980SOL     OW17970   1.606   4.217   5.500
 1980SOL    HW117971   1.572   4.309   5.521
 1980SOL    HW217972   1.671   4.222   5.424
 1981SOL     OW17973   8.918   3.434   1.550
 1981SOL    HW117974   9.005   3.386   1.562
 1981SOL    HW217975   8.894   3.482   1.635
 1982SOL     OW17976   7.214   6.128   1.252
 1982SOL    HW117977   7.296   6.092   1.209
 1982SOL    HW217978   7.233   6.218   1.290
 1983SOL     OW17979   1.126   7.361   5.153
 1983SOL    HW117980   1.151   7.291   5.219
 1983SOL    HW217981   1.037   7.338   5.112
 1984SOL     OW17982   4.376   0.003   6.045
 1984SOL    HW117983   4.291  -0.010   6.096
 1984SOL    HW217984   4.377  -0.057   5.965
 1985SOL     OW17985   7.528   5.286   4.980
 1985SOL    HW117986   7.489   5.349   4.913
 1985SOL    HW217987   7.599   5.332   5.033
 1986SOL     OW17988   6.988   3.165   5.468
 1986SOL    HW117989   6.972   3.074   5.429
 1986SOL    HW217990   7.040   3.220   5.403
 1987SOL     OW17991   0.062   3.957   1.347
 1987SOL    HW117992   0.152   3.912   1.353
 1987SOL    HW217993   0.029   3.978   1.438
 1988SOL     OW17994   2.302   5.552   6.031
 1988SOL    HW117995   2.285   5.465   6.077
 1988SOL    HW217996   2.333   5.620   6.098
 1989SOL     OW17997   4.876   8.163   5.664
 1989SOL    HW117998   4.874   8.091   5.594
 1989SOL    HW217999   4.954   8.147   5.725
 1990SOL     OW18000   2.248   2.256   0.194
 1990SOL    HW118001   2.279   2.342   0.154
 1990SOL    HW218002   2.320   2.187   0.185
 1991SOL     OW18003   9.195   3.304   6.055
 1991SOL    HW118004   9.266   3.244   6.092
 1991SOL    HW218005   9.172   3.274   5.962
 1992SOL     OW18006   2.739   4.633   6.658
 1992SOL    HW118007   2.782   4.631   6.568
 1992SOL    HW218008   2.691   4.547   6.674
 1993SOL     OW18009   3.577   4.437   1.816
 1993SOL    HW118010   3.485   4.467   1.840
 1993SOL    HW218011   3.617   4.388   1.893
 1994SOL     OW18012   8.593   3.687   6.087
 1994SOL    HW118013   8.519   3.711   6.024
 1994SOL    HW218014   8.583   3.741   6.171
 1995SOL     OW18015   4.829   1.972   6.160
 1995SOL    HW118016   4.929   1.975   6.151
 1995SOL    HW218017   4.805   1.981   6.257
 1996SOL     OW18018   2.360   4.718   0.882
 1996SOL    HW118019   2.433   4.733   0.816
 1996SOL    HW218020   2.290   4.659   0.842
 1997SOL     OW18021   7.433   1.283   1.136
 1997SOL    HW118022   7.441   1.191   1.096
 1997SOL    HW218023   7.414   1.275   1.234
 1998SOL     OW18024   1.824   2.121   0.077
 1998SOL    HW118025   1.822   2.125   0.177
 1998SOL    HW218026   1.744   2.168   0.040
 1999SOL     OW18027   6.143   7.408   5.318
 1999SOL    HW118028   6.056   7.368   5.345
 1999SOL    HW218029   6.149   7.410   5.218
 2000SOL     OW18030   0.512   1.927   5.185
 2000SOL    HW118031   0.591   1.910   5.127
 2000SOL    HW218032   0.441   1.974   5.133
 2001SOL     OW18033   3.602   7.136   1.311
 2001SOL    HW118034   3.511   7.170   1.334
 2001SOL    HW218035   3.664   7.213   1.298
 2002SOL     OW18036   0.998   3.773   5.802
 2002SOL    HW118037   1.073   3.798   5.863
 2002SOL    HW218038   0.928   3.844   5.805
 2003SOL     OW18039   3.679   6.270   1.693
 2003SOL    HW118040   3.593   6.320   1.693
 2003SOL    HW218041   3.661   6.173   1.676
 2004SOL     OW18042   1.385   6.625   4.869
 2004SOL    HW118043   1.478   6.627   4.906
 2004SOL    HW218044   1.379   6.686   4.790
 2005SOL     OW18045   4.028   1.602   0.771
 2005SOL    HW118046   3.978   1.549   0.839
 2005SOL    HW218047   3.994   1.696   0.770
 2006SOL     OW18048   5.943   4.813   6.001
 2006SOL    HW118049   5.915   4.881   6.068
 2006SOL    HW218050   6.040   4.791   6.013
 2007SOL     OW18051   1.394   8.445   1.082
 2007SOL    HW118052   1.348   8.357   1.070
 2007SOL    HW218053   1.326   8.518   1.090
 2008SOL     OW18054   0.645   0.440   0.494
 2008SOL    HW118055   0.657   0.474   0.587
 2008SOL    HW218056   0.559   0.389   0.488
 2009SOL     OW18057   9.419   1.767   0.627
 2009SOL    HW118058   9.324   1.792   0.607
 2009SOL    HW218059   9.459   1.722   0.547
 2010SOL     OW18060   9.130   2.458   6.320
 2010SOL    HW118061   9.180   2.540   6.349
 2010SOL    HW218062   9.091   2.413   6.401
 2011SOL     OW18063   6.143   7.766   0.855
 2011SOL    HW118064   6.209   7.710   0.906
 2011SOL    HW218065   6.076   7.805   0.918
 2012SOL     OW18066   0.033   1.163   6.474
 2012SOL    HW118067   0.084   1.249   6.465
 2012SOL    HW218068   0.093   1.092   6.510
 2013SOL     OW18069   0.924   5.660   5.094
 2013SOL    HW118070   0.946   5.748   5.053
 2013SOL    HW218071   0.930   5.667   5.194
 2014SOL     OW18072   3.550   3.352   6.692
 2014SOL    HW118073   3.569   3.402   6.777
 2014SOL    HW218074   3.478   3.400   6.641
 2015SOL     OW18075   2.529   7.018   4.971
 2015SOL    HW118076   2.489   6.933   4.938
 2015SOL    HW218077   2.528   7.086   4.897
 2016SOL     OW18078   6.706   5.147   0.780
 2016SOL    HW118079   6.754   5.157   0.867
 2016SOL    HW218080   6.610   5.176   0.791
 2017SOL     OW18081   9.357   3.229   0.130
 2017SOL    HW118082   9.322   3.200   0.219
 2017SOL    HW218083   9.370   3.150   0.071
 2018SOL     OW18084   9.387   2.493   1.077
 2018SOL    HW118085   9.428   2.423   1.018
 2018SOL    HW218086   9.332   2.448   1.147
 2019SOL     OW18087   1.414   7.579   0.448
 2019SOL    HW118088   1.396   7.599   0.352
 2019SOL    HW218089   1.472   7.498   0.455
 2020SOL     OW18090   5.823   5.050   0.881
 2020SOL    HW118091   5.894   5.067   0.813
 2020SOL    HW218092   5.762   4.978   0.848
 2021SOL     OW18093   5.044   0.385   5.990
 2021SOL    HW118094   5.035   0.417   6.085
 2021SOL    HW218095   4.955   0.350   5.959
 2022SOL     OW18096   7.705   4.044   6.620
 2022SOL    HW118097   7.647   3.964   6.638
 2022SOL    HW218098   7.647   4.124   6.602
 2023SOL     OW18099   6.344   5.078   5.928
 2023SOL    HW118100   6.416   5.085   5.859
 2023SOL    HW218101   6.379   5.031   6.008
 2024SOL     OW18102   2.177   4.923   6.000
 2024SOL    HW118103   2.145   5.000   5.945
 2024SOL    HW218104   2.270   4.941   6.032
 2025SOL     OW18105   0.353   5.778   6.632
 2025SOL    HW118106   0.389   5.862   6.593
 2025SOL    HW218107   0.269   5.753   6.585
 2026SOL     OW18108   4.277   6.352   2.111
 2026SOL    HW118109   4.328   6.436   2.094
 2026SOL    HW218110   4.293   6.321   2.204
 2027SOL     OW18111   1.004   5.892   6.467
 2027SOL    HW118112   1.097   5.859   6.453
 2027SOL    HW218113   0.981   5.889   6.564
 2028SOL     OW18114   8.283   6.336   6.428
 2028SOL    HW118115   8.236   6.261   6.382
 2028SOL    HW218116   8.381   6.316   6.434
 2029SOL     OW18117   9.031   3.151   1.023
 2029SOL    HW118118   9.123   3.112   1.023
 2029SOL    HW218119   9.013   3.194   0.934
 2030SOL     OW18120   3.036   1.177   0.220
 2030SOL    HW118121   2.968   1.106   0.239
 2030SOL    HW218122   2.991   1.266   0.216
 2031SOL     OW18123   7.290   8.194   5.709
 2031SOL    HW118124   7.232   8.274   5.727
 2031SOL    HW218125   7.240   8.111   5.732
 2032SOL     OW18126   1.132   2.836   0.739
 2032SOL    HW118127   1.191   2.916   0.748
 2032SOL    HW218128   1.123   2.790   0.827
 2033SOL     OW18129   5.618   2.114   6.249
 2033SOL    HW118130   5.705   2.158   6.269
 2033SOL    HW218131   5.544   2.161   6.297
 2034SOL     OW18132   4.687   0.134   1.027
 2034SOL    HW118133   4.778   0.093   1.016
 2034SOL    HW218134   4.686   0.222   0.979
 2035SOL     OW18135   1.711   8.419   5.292
 2035SOL    HW118136   1.617   8.449   5.272
 2035SOL    HW218137   1.739   8.350   5.226
 2036SOL     OW18138   7.032   4.064   1.170
 2036SOL    HW118139   6.966   3.998   1.207
 2036SOL    HW218140   6.989   4.114   1.094
 2037SOL     OW18141   0.104   5.082   0.140
 2037SOL    HW118142   0.179   5.145   0.118
 2037SOL    HW218143   0.023   5.135   0.164
 2038SOL     OW18144   3.992   4.969   0.928
 2038SOL    HW118145   4.011   4.983   1.025
 2038SOL    HW218146   4.057   5.022   0.873
 2039SOL     OW18147   8.111   3.805   5.591
 2039SOL    HW118148   8.069   3.829   5.504
 2039SOL    HW218149   8.041   3.773   5.654
 2040SOL     OW18150   4.469   1.129   1.778
 2040SOL    HW118151   4.436   1.153   1.870
 2040SOL    HW218152   4.469   1.029   1.768
 2041SOL     OW18153   2.479   2.153   6.411
 2041SOL    HW118154   2.389   2.185   6.440
 2041SOL    HW218155   2.477   2.136   6.312
 2042SOL     OW18156   4.437   7.701   1.127
 2042SOL    HW118157   4.408   7.621   1.179
 2042SOL    HW218158   4.404   7.692   1.032
 2043SOL     OW18159   6.943   2.263   0.499
 2043SOL    HW118160   6.997   2.343   0.472
 2043SOL    HW218161   6.998   2.203   0.556
 2044SOL     OW18162   6.661   6.245   6.696
 2044SOL    HW118163   6.637   6.163   6.750
 2044SOL    HW218164   6.655   6.224   6.599
 2045SOL     OW18165   3.363   1.983   6.624
 2045SOL    HW118166   3.283   1.928   6.600
 2045SOL    HW218167   3.437   1.964   6.560
 2046SOL     OW18168   8.103   0.174   5.790
 2046SOL    HW118169   8.085   0.078   5.813
 2046SOL    HW218170   8.113   0.227   5.874
 2047SOL     OW18171   6.534   8.088   6.615
 2047SOL    HW118172   6.528   8.029   6.534
 2047SOL    HW218173   6.512   8.034   6.697
 2048SOL     OW18174   8.341   4.587   5.546
 2048SOL    HW118175   8.284   4.515   5.585
 2048SOL    HW218176   8.291   4.631   5.471
 2049SOL     OW18177   8.226   4.101   5.945
 2049SOL    HW118178   8.275   4.095   5.858
 2049SOL    HW218179   8.186   4.193   5.954
 2050SOL     OW18180   6.952   5.370   6.598
 2050SOL    HW118181   6.860   5.410   6.601
 2050SOL    HW218182   6.949   5.277   6.633
 2051SOL     OW18183   3.339   4.494   0.189
 2051SOL    HW118184   3.311   4.551   0.112
 2051SOL    HW218185   3.421   4.532   0.231
 2052SOL     OW18186   8.709   6.232   4.367
 2052SOL    HW118187   8.800   6.271   4.380
 2052SOL    HW218188   8.652   6.296   4.316
 2053SOL     OW18189   8.799   3.312   0.219
 2053SOL    HW118190   8.854   3.347   0.143
 2053SOL    HW218191   8.716   3.368   0.229
 2054SOL     OW18192   3.953   8.122   0.288
 2054SOL    HW118193   3.988   8.104   0.196
 2054SOL    HW218194   3.947   8.036   0.338
 2055SOL     OW18195   3.814   6.107   0.167
 2055SOL    HW118196   3.849   6.079   0.078
 2055SOL    HW218197   3.820   6.031   0.232
 2056SOL     OW18198   3.821   1.888   6.322
 2056SOL    HW118199   3.754   1.856   6.255
 2056SOL    HW218200   3.901   1.827   6.321
 2057SOL     OW18201   3.260   3.251   5.425
 2057SOL    HW118202   3.240   3.251   5.327
 2057SOL    HW218203   3.338   3.312   5.443
 2058SOL     OW18204   2.868   3.995   0.182
 2058SOL    HW118205   2.824   3.925   0.126
 2058SOL    HW218206   2.862   4.083   0.136
 2059SOL     OW18207   1.407   7.990   1.378
 2059SOL    HW118208   1.370   8.081   1.359
 2059SOL    HW218209   1.485   7.997   1.440
 2060SOL     OW18210   8.748   5.335   0.454
 2060SOL    HW118211   8.685   5.394   0.404
 2060SOL    HW218212   8.818   5.392   0.498
 2061SOL     OW18213   3.363   7.264   0.511
 2061SOL    HW118214   3.333   7.200   0.581
 2061SOL    HW218215   3.285   7.289   0.453
 2062SOL     OW18216   3.581   5.623   1.226
 2062SOL    HW118217   3.528   5.668   1.299
 2062SOL    HW218218   3.672   5.664   1.220
 2063SOL     OW18219   9.309   7.360   0.091
 2063SOL    HW118220   9.401   7.378   0.125
 2063SOL    HW218221   9.268   7.446   0.060
 2064SOL     OW18222   6.234   5.369   5.785
 2064SOL    HW118223   6.246   5.275   5.753
 2064SOL    HW218224   6.295   5.429   5.732
 2065SOL     OW18225   8.174   0.784   0.124
 2065SOL    HW118226   8.093   0.819   0.171
 2065SOL    HW218227   8.256   0.818   0.171
 2066SOL     OW18228   4.901   3.828   0.068
 2066SOL    HW118229   4.831   3.866   0.129
 2066SOL    HW218230   4.944   3.902   0.017
 2067SOL     OW18231   1.362   2.227   5.066
 2067SOL    HW118232   1.273   2.191   5.037
 2067SOL    HW218233   1.423   2.232   4.987
 2068SOL     OW18234   2.296   7.600   0.333
 2068SOL    HW118235   2.258   7.508   0.335
 2068SOL    HW218236   2.257   7.651   0.256
 2069SOL     OW18237   2.896   5.368   6.577
 2069SOL    HW118238   2.925   5.452   6.531
 2069SOL    HW218239   2.963   5.345   6.648
 2070SOL     OW18240   6.991   7.684   6.327
 2070SOL    HW118241   7.001   7.694   6.228
 2070SOL    HW218242   6.906   7.727   6.357
 2071SOL     OW18243   8.887   4.477   6.705
 2071SOL    HW118244   8.985   4.482   6.685
 2071SOL    HW218245   8.836   4.473   6.620
 2072SOL     OW18246   5.675   0.970   5.799
 2072SOL    HW118247   5.664   0.888   5.743
 2072SOL    HW218248   5.681   1.050   5.740
 2073SOL     OW18249   8.064   1.699   0.477
 2073SOL    HW118250   8.071   1.599   0.468
 2073SOL    HW218251   8.156   1.737   0.489
 2074SOL     OW18252   4.975   3.123   1.315
 2074SOL    HW118253   4.932   3.039   1.350
 2074SOL    HW218254   5.051   3.149   1.375
 2075SOL     OW18255   1.529   3.087   5.202
 2075SOL    HW118256   1.434   3.114   5.188
 2075SOL    HW218257   1.579   3.093   5.115
 2076SOL     OW18258   9.437   6.167   4.271
 2076SOL    HW118259   9.437   6.251   4.325
 2076SOL    HW218260   9.400   6.185   4.180
 2077SOL     OW18261   6.389   7.865   0.430
 2077SOL    HW118262   6.293   7.842   0.413
 2077SOL    HW218263   6.400   7.964   0.427
 2078SOL     OW18264   7.889   4.380   0.094
 2078SOL    HW118265   7.930   4.303   0.045
 2078SOL    HW218266   7.961   4.434   0.138
 2079SOL     OW18267   2.212   7.665   4.813
 2079SOL    HW118268   2.266   7.657   4.729
 2079SOL    HW218269   2.121   7.627   4.798
 2080SOL     OW18270   1.164   2.250   0.041
 2080SOL    HW118271   1.214   2.189  -0.021
 2080SOL    HW218272   1.111   2.196   0.106
 2081SOL     OW18273   4.420   1.953   1.455
 2081SOL    HW118274   4.478   2.034   1.465
 2081SOL    HW218275   4.392   1.921   1.545
 2082SOL     OW18276   1.032   4.468   6.119
 2082SOL    HW118277   1.032   4.456   6.218
 2082SOL    HW218278   1.127   4.466   6.086
 2083SOL     OW18279   4.959   2.928   0.574
 2083SOL    HW118280   5.011   2.979   0.506
 2083SOL    HW218281   5.013   2.919   0.658
 2084SOL     OW18282   4.423   2.514   5.879
 2084SOL    HW118283   4.519   2.543   5.870
 2084SOL    HW218284   4.393   2.471   5.794
 2085SOL     OW18285   7.768   2.586   6.193
 2085SOL    HW118286   7.709   2.566   6.271
 2085SOL    HW218287   7.854   2.625   6.225
 2086SOL     OW18288   9.238   7.198   0.326
 2086SOL    HW118289   9.242   7.248   0.240
 2086SOL    HW218290   9.330   7.192   0.365
 2087SOL     OW18291   3.887   7.656   5.497
 2087SOL    HW118292   3.943   7.668   5.416
 2087SOL    HW218293   3.923   7.712   5.572
 2088SOL     OW18294   0.935   5.128   6.307
 2088SOL    HW118295   0.989   5.208   6.332
 2088SOL    HW218296   0.989   5.068   6.248
 2089SOL     OW18297   3.671   0.944   1.033
 2089SOL    HW118298   3.585   0.912   1.072
 2089SOL    HW218299   3.653   1.021   0.972
 2090SOL     OW18300   5.670   0.609   0.505
 2090SOL    HW118301   5.599   0.566   0.561
 2090SOL    HW218302   5.662   0.709   0.513
 2091SOL     OW18303   0.148   6.595   6.257
 2091SOL    HW118304   0.243   6.604   6.226
 2091SOL    HW218305   0.125   6.498   6.264
 2092SOL     OW18306   7.453   5.738   0.140
 2092SOL    HW118307   7.357   5.753   0.118
 2092SOL    HW218308   7.479   5.644   0.118
 2093SOL     OW18309   2.032   1.652   6.731
 2093SOL    HW118310   2.066   1.744   6.711
 2093SOL    HW218311   2.037   1.635   6.830
 2094SOL     OW18312   0.864   4.083   0.552
 2094SOL    HW118313   0.937   4.149   0.572
 2094SOL    HW218314   0.783   4.132   0.521
 2095SOL     OW18315   5.486   0.697   1.106
 2095SOL    HW118316   5.567   0.664   1.058
 2095SOL    HW218317   5.443   0.769   1.053
 2096SOL     OW18318   7.265   6.137   4.959
 2096SOL    HW118319   7.195   6.162   4.891
 2096SOL    HW218320   7.350   6.113   4.911
 2097SOL     OW18321   0.530   3.574   6.259
 2097SOL    HW118322   0.611   3.568   6.316
 2097SOL    HW218323   0.534   3.503   6.188
 2098SOL     OW18324   7.842   4.599   0.641
 2098SOL    HW118325   7.799   4.671   0.696
 2098SOL    HW218326   7.916   4.556   0.693
 2099SOL     OW18327   1.081   3.101   0.478
 2099SOL    HW118328   1.099   3.180   0.419
 2099SOL    HW218329   1.050   3.025   0.422
 2100SOL     OW18330   3.582   2.243   2.087
 2100SOL    HW118331   3.617   2.166   2.140
 2100SOL    HW218332   3.546   2.312   2.149
 2101SOL     OW18333   7.198   5.071   0.738
 2101SOL    HW118334   7.215   5.167   0.715
 2101SOL    HW218335   7.101   5.050   0.727
 2102SOL     OW18336   5.569   3.497   0.384
 2102SOL    HW118337   5.547   3.409   0.426
 2102SOL    HW218338   5.594   3.563   0.455
 2103SOL     OW18339   5.273   1.201   1.305
 2103SOL    HW118340   5.319   1.287   1.327
 2103SOL    HW218341   5.214   1.174   1.382
 2104SOL     OW18342   2.341   2.715   1.322
 2104SOL    HW118343   2.427   2.766   1.316
 2104SOL    HW218344   2.271   2.761   1.268
 2105SOL     OW18345   9.257   5.011   0.232
 2105SOL    HW118346   9.170   5.023   0.185
 2105SOL    HW218347   9.261   4.920   0.272
 2106SOL     OW18348   4.050   0.232   5.482
 2106SOL    HW118349   4.112   0.296   5.528
 2106SOL    HW218350   3.956   0.263   5.492
 2107SOL     OW18351   4.086   6.221   1.950
 2107SOL    HW118352   4.048   6.144   2.003
 2107SOL    HW218353   4.157   6.266   2.004
 2108SOL     OW18354   8.069   2.606   5.961
 2108SOL    HW118355   8.099   2.579   5.869
 2108SOL    HW218356   8.030   2.528   6.008
 2109SOL     OW18357   3.502   6.472   6.609
 2109SOL    HW118358   3.553   6.409   6.667
 2109SOL    HW218359   3.454   6.421   6.537
 2110SOL     OW18360   5.717   6.739   1.380
 2110SOL    HW118361   5.629   6.709   1.417
 2110SOL    HW218362   5.769   6.786   1.451
 2111SOL     OW18363   1.674   4.010   0.220
 2111SOL    HW118364   1.730   3.934   0.255
 2111SOL    HW218365   1.723   4.096   0.233
 2112SOL     OW18366   8.718   2.946   0.801
 2112SOL    HW118367   8.815   2.924   0.794
 2112SOL    HW218368   8.678   2.948   0.709
 2113SOL     OW18369   7.735   6.903   0.175
 2113SOL    HW118370   7.738   6.938   0.269
 2113SOL    HW218371   7.649   6.853   0.161
 2114SOL     OW18372   5.789   5.639   4.824
 2114SOL    HW118373   5.852   5.701   4.777
 2114SOL    HW218374   5.696   5.675   4.819
 2115SOL     OW18375   2.128   5.130   5.842
 2115SOL    HW118376   2.081   5.213   5.814
 2115SOL    HW218377   2.225   5.149   5.858
 2116SOL     OW18378   3.687   3.881   5.991
 2116SOL    HW118379   3.785   3.862   6.001
 2116SOL    HW218380   3.658   3.861   5.898
 2117SOL     OW18381   3.800   5.187   6.641
 2117SOL    HW118382   3.819   5.272   6.592
 2117SOL    HW218383   3.885   5.134   6.650
 2118SOL     OW18384   5.657   3.942   1.325
 2118SOL    HW118385   5.683   3.972   1.417
 2118SOL    HW218386   5.735   3.899   1.280
 2119SOL     OW18387   3.541   7.461   0.632
 2119SOL    HW118388   3.617   7.425   0.578
 2119SOL    HW218389   3.460   7.404   0.618
 2120SOL     OW18390   2.411   5.759   5.787
 2120SOL    HW118391   2.421   5.845   5.835
 2120SOL    HW218392   2.496   5.706   5.794
 2121SOL     OW18393   1.045   7.959   0.879
 2121SOL    HW118394   1.070   7.968   0.975
 2121SOL    HW218395   1.049   7.862   0.852
 2122SOL     OW18396   4.084   3.085   0.970
 2122SOL    HW118397   4.030   3.078   0.886
 2122SOL    HW218398   4.153   3.012   0.972
 2123SOL     OW18399   4.537   2.435   0.234
 2123SOL    HW118400   4.449   2.475   0.208
 2123SOL    HW218401   4.527   2.385   0.320
 2124SOL     OW18402   4.597   7.053   6.105
 2124SOL    HW118403   4.649   6.995   6.043
 2124SOL    HW218404   4.648   7.138   6.121
 2125SOL     OW18405   7.564   5.276   0.439
 2125SOL    HW118406   7.479   5.295   0.390
 2125SOL    HW218407   7.596   5.184   0.416
 2126SOL     OW18408   8.096   5.495   6.070
 2126SOL    HW118409   8.104   5.575   6.010
 2126SOL    HW218410   8.186   5.452   6.081
 2127SOL     OW18411   0.228   7.287   4.688
 2127SOL    HW118412   0.304   7.301   4.751
 2127SOL    HW218413   0.228   7.192   4.656
 2128SOL     OW18414   5.883   5.482   6.103
 2128SOL    HW118415   5.881   5.386   6.131
 2128SOL    HW218416   5.877   5.540   6.184
 2129SOL     OW18417   0.388   6.187   5.052
 2129SOL    HW118418   0.480   6.215   5.028
 2129SOL    HW218419   0.328   6.267   5.053
 2130SOL     OW18420   9.434   8.353   4.812
 2130SOL    HW118421   9.335   8.362   4.803
 2130SOL    HW218422   9.478   8.440   4.788
 2131SOL     OW18423   8.062   6.076   5.800
 2131SOL    HW118424   8.046   6.130   5.717
 2131SOL    HW218425   8.111   6.131   5.867
 2132SOL     OW18426   4.271   1.170   6.474
 2132SOL    HW118427   4.338   1.180   6.548
 2132SOL    HW218428   4.238   1.261   6.448
 2133SOL     OW18429   5.322   3.356   0.607
 2133SOL    HW118430   5.352   3.432   0.665
 2133SOL    HW218431   5.400   3.316   0.559
 2134SOL     OW18432   0.496   0.848   6.159
 2134SOL    HW118433   0.575   0.786   6.157
 2134SOL    HW218434   0.527   0.941   6.142
 2135SOL     OW18435   6.046   1.236   0.298
 2135SOL    HW118436   6.122   1.244   0.234
 2135SOL    HW218437   6.038   1.321   0.351
 2136SOL     OW18438   2.929   5.350   1.359
 2136SOL    HW118439   2.844   5.379   1.316
 2136SOL    HW218440   2.949   5.409   1.437
 2137SOL     OW18441   3.058   5.858   1.068
 2137SOL    HW118442   3.156   5.879   1.078
 2137SOL    HW218443   3.005   5.942   1.076
 2138SOL     OW18444   1.811   6.391   6.293
 2138SOL    HW118445   1.838   6.465   6.233
 2138SOL    HW218446   1.743   6.424   6.359
 2139SOL     OW18447   1.992   8.211   6.701
 2139SOL    HW118448   2.074   8.207   6.758
 2139SOL    HW218449   1.915   8.244   6.756
 2140SOL     OW18450   4.435   6.387   6.234
 2140SOL    HW118451   4.407   6.301   6.192
 2140SOL    HW218452   4.364   6.456   6.221
 2141SOL     OW18453   0.107   1.667   6.028
 2141SOL    HW118454   0.202   1.693   6.044
 2141SOL    HW218455   0.059   1.656   6.115
 2142SOL     OW18456   6.911   8.005   6.348
 2142SOL    HW118457   7.007   7.982   6.331
 2142SOL    HW218458   6.858   7.991   6.265
 2143SOL     OW18459   1.220   3.761   6.392
 2143SOL    HW118460   1.244   3.702   6.469
 2143SOL    HW218461   1.278   3.738   6.313
 2144SOL     OW18462   4.888   5.626   0.951
 2144SOL    HW118463   4.929   5.543   0.990
 2144SOL    HW218464   4.944   5.658   0.875
 2145SOL     OW18465   6.819   5.256   5.483
 2145SOL    HW118466   6.799   5.195   5.406
 2145SOL    HW218467   6.919   5.261   5.496
 2146SOL     OW18468   1.095   4.805   1.803
 2146SOL    HW118469   1.194   4.806   1.815
 2146SOL    HW218470   1.071   4.751   1.723
 2147SOL     OW18471   7.725   8.317   5.470
 2147SOL    HW118472   7.657   8.375   5.514
 2147SOL    HW218473   7.785   8.372   5.413
 2148SOL     OW18474   1.156   2.914   6.178
 2148SOL    HW118475   1.196   3.002   6.151
 2148SOL    HW218476   1.065   2.906   6.137
 2149SOL     OW18477   1.112   3.582   5.953
 2149SOL    HW118478   1.021   3.621   5.966
 2149SOL    HW218479   1.148   3.611   5.864
 2150SOL     OW18480   6.571   8.353   6.696
 2150SOL    HW118481   6.494   8.413   6.675
 2150SOL    HW218482   6.551   8.260   6.664
 2151SOL     OW18483   1.162   7.880   4.819
 2151SOL    HW118484   1.255   7.848   4.798
 2151SOL    HW218485   1.164   7.979   4.833
 2152SOL     OW18486   9.306   3.256   5.626
 2152SOL    HW118487   9.406   3.250   5.630
 2152SOL    HW218488   9.279   3.305   5.543
 2153SOL     OW18489   8.348   2.847   5.809
 2153SOL    HW118490   8.431   2.902   5.798
 2153SOL    HW218491   8.313   2.822   5.718
 2154SOL     OW18492   8.333   1.583   6.364
 2154SOL    HW118493   8.252   1.546   6.319
 2154SOL    HW218494   8.399   1.510   6.378
 2155SOL     OW18495   6.926   1.593   6.118
 2155SOL    HW118496   6.843   1.623   6.072
 2155SOL    HW218497   7.001   1.587   6.051
 2156SOL     OW18498   1.948   6.495   6.632
 2156SOL    HW118499   1.854   6.462   6.638
 2156SOL    HW218500   2.010   6.428   6.671
 2157SOL     OW18501   4.432   1.815   0.799
 2157SOL    HW118502   4.378   1.760   0.735
 2157SOL    HW218503   4.373   1.849   0.872
 2158SOL     OW18504   3.710   4.276   6.538
 2158SOL    HW118505   3.688   4.354   6.596
 2158SOL    HW218506   3.772   4.304   6.465
 2159SOL     OW18507   4.978   0.321   1.214
 2159SOL    HW118508   5.051   0.322   1.283
 2159SOL    HW218509   4.960   0.227   1.186
 2160SOL     OW18510   6.918   5.773   6.414
 2160SOL    HW118511   7.011   5.737   6.406
 2160SOL    HW218512   6.910   5.857   6.361
 2161SOL     OW18513   3.381   7.316   1.985
 2161SOL    HW118514   3.386   7.372   2.068
 2161SOL    HW218515   3.470   7.316   1.939
 2162SOL     OW18516   2.990   4.548   0.003
 2162SOL    HW118517   3.047   4.568  -0.077
 2162SOL    HW218518   2.894   4.570  -0.018
 2163SOL     OW18519   3.207   1.348   0.764
 2163SOL    HW118520   3.306   1.359   0.773
 2163SOL    HW218521   3.163   1.364   0.852
 2164SOL     OW18522   0.925   5.565   0.815
 2164SOL    HW118523   0.869   5.538   0.893
 2164SOL    HW218524   1.009   5.511   0.814
 2165SOL     OW18525   5.329   3.461   5.524
 2165SOL    HW118526   5.343   3.371   5.566
 2165SOL    HW218527   5.410   3.485   5.471
 2166SOL     OW18528   0.746   3.659   6.451
 2166SOL    HW118529   0.819   3.721   6.421
 2166SOL    HW218530   0.784   3.567   6.465
 2167SOL     OW18531   3.053   5.606   5.896
 2167SOL    HW118532   3.141   5.593   5.850
 2167SOL    HW218533   3.062   5.677   5.966
 2168SOL     OW18534   4.210   6.950   0.931
 2168SOL    HW118535   4.256   7.002   1.002
 2168SOL    HW218536   4.124   6.914   0.966
 2169SOL     OW18537   0.365   2.341   6.638
 2169SOL    HW118538   0.461   2.322   6.615
 2169SOL    HW218539   0.350   2.440   6.638
 2170SOL     OW18540   2.742   7.060   6.000
 2170SOL    HW118541   2.642   7.069   6.005
 2170SOL    HW218542   2.785   7.148   6.019
 2171SOL     OW18543   2.390   2.497   0.176
 2171SOL    HW118544   2.393   2.510   0.276
 2171SOL    HW218545   2.312   2.548   0.139
 2172SOL     OW18546   0.354   6.670   6.037
 2172SOL    HW118547   0.302   6.671   5.952
 2172SOL    HW218548   0.371   6.763   6.067
 2173SOL     OW18549   1.421   2.943   0.544
 2173SOL    HW118550   1.511   2.942   0.498
 2173SOL    HW218551   1.404   3.033   0.583
 2174SOL     OW18552   6.943   5.559   6.177
 2174SOL    HW118553   6.874   5.530   6.111
 2174SOL    HW218554   6.920   5.651   6.211
 2175SOL     OW18555   7.340   2.164   5.883
 2175SOL    HW118556   7.380   2.255   5.894
 2175SOL    HW218557   7.262   2.169   5.821
 2176SOL     OW18558   1.946   2.492   0.532
 2176SOL    HW118559   2.016   2.562   0.542
 2176SOL    HW218560   1.990   2.405   0.508
 2177SOL     OW18561   5.944   3.033   0.300
 2177SOL    HW118562   5.925   3.129   0.280
 2177SOL    HW218563   5.968   3.023   0.397
 2178SOL     OW18564   3.347   0.060   0.837
 2178SOL    HW118565   3.414   0.057   0.763
 2178SOL    HW218566   3.261   0.019   0.806
 2179SOL     OW18567   8.840   5.415   0.985
 2179SOL    HW118568   8.851   5.514   0.986
 2179SOL    HW218569   8.805   5.384   1.074
 2180SOL     OW18570   1.603   5.818   0.163
 2180SOL    HW118571   1.591   5.728   0.204
 2180SOL    HW218572   1.581   5.814   0.066
 2181SOL     OW18573   6.065   5.639   6.636
 2181SOL    HW118574   6.010   5.556   6.631
 2181SOL    HW218575   6.135   5.629   6.707
 2182SOL     OW18576   0.469   7.234   6.561
 2182SOL    HW118577   0.388   7.284   6.531
 2182SOL    HW218578   0.539   7.299   6.592
 2183SOL     OW18579   8.893   1.423   5.786
 2183SOL    HW118580   8.962   1.489   5.755
 2183SOL    HW218581   8.803   1.466   5.785
 2184SOL     OW18582   3.783   6.704   6.121
 2184SOL    HW118583   3.707   6.656   6.165
 2184SOL    HW218584   3.791   6.796   6.158
 2185SOL     OW18585   5.727   7.275   0.303
 2185SOL    HW118586   5.695   7.181   0.292
 2185SOL    HW218587   5.654   7.330   0.342
 2186SOL     OW18588   2.610   0.852   6.567
 2186SOL    HW118589   2.535   0.898   6.616
 2186SOL    HW218590   2.576   0.769   6.524
 2187SOL     OW18591   5.718   0.671   0.199
 2187SOL    HW118592   5.728   0.646   0.295
 2187SOL    HW218593   5.691   0.591   0.146
 2188SOL     OW18594   8.737   4.175   0.290
 2188SOL    HW118595   8.765   4.088   0.330
 2188SOL    HW218596   8.814   4.215   0.240
 2189SOL     OW18597   4.997   7.846   5.210
 2189SOL    HW118598   5.074   7.808   5.158
 2189SOL    HW218599   4.936   7.895   5.148
 2190SOL     OW18600   2.905   8.289   0.658
 2190SOL    HW118601   2.866   8.351   0.591
 2190SOL    HW218602   2.991   8.251   0.623
 2191SOL     OW18603   9.466   7.499   1.727
 2191SOL    HW118604   9.422   7.534   1.809
 2191SOL    HW218605   9.525   7.569   1.687
 2192SOL     OW18606   1.817   7.345   6.637
 2192SOL    HW118607   1.871   7.428   6.651
 2192SOL    HW218608   1.873   7.265   6.657
 2193SOL     OW18609   5.254   7.845   5.079
 2193SOL    HW118610   5.218   7.799   4.998
 2193SOL    HW218611   5.348   7.874   5.062
 2194SOL     OW18612   6.189   0.710   1.461
 2194SOL    HW118613   6.269   0.697   1.519
 2194SOL    HW218614   6.112   0.742   1.517
 2195SOL     OW18615   3.812   7.300   1.342
 2195SOL    HW118616   3.874   7.284   1.419
 2195SOL    HW218617   3.825   7.393   1.308
 2196SOL     OW18618   3.377   7.203   1.408
 2196SOL    HW118619   3.336   7.114   1.425
 2196SOL    HW218620   3.382   7.254   1.494
 2197SOL     OW18621   8.291   5.898   6.231
 2197SOL    HW118622   8.246   5.822   6.278
 2197SOL    HW218623   8.230   5.935   6.161
 2198SOL     OW18624   9.341   8.247   1.009
 2198SOL    HW118625   9.374   8.284   1.096
 2198SOL    HW218626   9.300   8.321   0.955
 2199SOL     OW18627   4.713   3.562   6.443
 2199SOL    HW118628   4.741   3.487   6.503
 2199SOL    HW218629   4.767   3.644   6.464
 2200SOL     OW18630   4.130   5.293   1.552
 2200SOL    HW118631   4.051   5.286   1.614
 2200SOL    HW218632   4.205   5.338   1.600
 2201SOL     OW18633   8.367   1.421   0.042
 2201SOL    HW118634   8.385   1.460   0.132
 2201SOL    HW218635   8.271   1.397   0.034
 2202SOL     OW18636   9.152   4.258   5.691
 2202SOL    HW118637   9.175   4.187   5.625
 2202SOL    HW218638   9.100   4.330   5.645
 2203SOL     OW18639   0.974   4.718   0.574
 2203SOL    HW118640   0.997   4.814   0.555
 2203SOL    HW218641   1.023   4.660   0.509
 2204SOL     OW18642   2.977   7.916   0.985
 2204SOL    HW118643   2.902   7.956   0.931
 2204SOL    HW218644   2.946   7.830   1.025
 2205SOL     OW18645   5.948   8.222   1.280
 2205SOL    HW118646   5.980   8.199   1.372
 2205SOL    HW218647   5.895   8.146   1.243
 2206SOL     OW18648   6.912   7.977   5.917
 2206SOL    HW118649   6.871   7.920   5.846
 2206SOL    HW218650   6.849   7.986   5.994
 2207SOL     OW18651   8.305   7.894   5.611
 2207SOL    HW118652   8.233   7.942   5.661
 2207SOL    HW218653   8.341   7.954   5.539
 2208SOL     OW18654   7.357   0.789   6.031
 2208SOL    HW118655   7.374   0.718   6.099
 2208SOL    HW218656   7.309   0.749   5.953
 2209SOL     OW18657   4.073   2.478   6.369
 2209SOL    HW118658   4.044   2.410   6.302
 2209SOL    HW218659   4.035   2.567   6.345
 2210SOL     OW18660   7.026   6.864   0.782
 2210SOL    HW118661   6.953   6.932   0.788
 2210SOL    HW218662   7.102   6.891   0.842
 2211SOL     OW18663   6.346   1.421   1.022
 2211SOL    HW118664   6.378   1.359   1.093
 2211SOL    HW218665   6.392   1.510   1.032
 2212SOL     OW18666   7.121   2.902   5.508
 2212SOL    HW118667   7.040   2.854   5.473
 2212SOL    HW218668   7.202   2.869   5.460
 2213SOL     OW18669   5.613   3.866   0.857
 2213SOL    HW118670   5.713   3.860   0.854
 2213SOL    HW218671   5.585   3.920   0.936
 2214SOL     OW18672   6.926   5.414   1.110
 2214SOL    HW118673   6.898   5.430   1.204
 2214SOL    HW218674   7.005   5.471   1.088
 2215SOL     OW18675   0.493   5.983   6.447
 2215SOL    HW118676   0.527   6.076   6.431
 2215SOL    HW218677   0.537   5.921   6.383
 2216SOL     OW18678   3.544   3.653   1.260
 2216SOL    HW118679   3.560   3.684   1.354
 2216SOL    HW218680   3.455   3.686   1.229
 2217SOL     OW18681   6.593   3.426   0.662
 2217SOL    HW118682   6.549   3.336   0.671
 2217SOL    HW218683   6.690   3.418   0.685
 2218SOL     OW18684   6.136   7.951   6.122
 2218SOL    HW118685   6.162   7.896   6.201
 2218SOL    HW218686   6.064   8.015   6.148
 2219SOL     OW18687   5.382   5.405   0.883
 2219SOL    HW118688   5.388   5.379   0.786
 2219SOL    HW218689   5.295   5.451   0.900
 2220SOL     OW18690   1.473   7.818   0.263
 2220SOL    HW118691   1.540   7.887   0.289
 2220SOL    HW218692   1.508   7.764   0.186
 2221SOL     OW18693   6.618   0.343   0.602
 2221SOL    HW118694   6.677   0.423   0.590
 2221SOL    HW218695   6.651   0.289   0.680
 2222SOL     OW18696   4.044   4.967   1.419
 2222SOL    HW118697   4.030   5.064   1.399
 2222SOL    HW218698   4.054   4.916   1.333
 2223SOL     OW18699   8.073   0.463   6.589
 2223SOL    HW118700   8.019   0.493   6.510
 2223SOL    HW218701   8.036   0.376   6.623
 2224SOL     OW18702   3.523   1.168   6.710
 2224SOL    HW118703   3.514   1.091   6.647
 2224SOL    HW218704   3.470   1.150   6.793
 2225SOL     OW18705   6.478   3.543   0.031
 2225SOL    HW118706   6.491   3.608   0.105
 2225SOL    HW218707   6.463   3.591  -0.055
 2226SOL     OW18708   0.809   2.598   6.349
 2226SOL    HW118709   0.905   2.568   6.351
 2226SOL    HW218710   0.763   2.567   6.432
 2227SOL     OW18711   5.252   4.515   0.931
 2227SOL    HW118712   5.222   4.498   0.837
 2227SOL    HW218713   5.319   4.589   0.932
 2228SOL     OW18714   6.301   0.917   0.287
 2228SOL    HW118715   6.321   0.822   0.264
 2228SOL    HW218716   6.219   0.947   0.238
 2229SOL     OW18717   7.068   1.372   0.534
 2229SOL    HW118718   7.035   1.327   0.451
 2229SOL    HW218719   7.092   1.467   0.513
 2230SOL     OW18720   3.584   6.203   0.383
 2230SOL    HW118721   3.655   6.144   0.422
 2230SOL    HW218722   3.624   6.293   0.364
 2231SOL     OW18723   1.691   1.879   5.928
 2231SOL    HW118724   1.780   1.884   5.882
 2231SOL    HW218725   1.626   1.829   5.870
 2232SOL     OW18726   3.734   2.925   1.528
 2232SOL    HW118727   3.714   2.878   1.442
 2232SOL    HW218728   3.755   2.857   1.599
 2233SOL     OW18729   2.841   6.968   1.313
 2233SOL    HW118730   2.784   7.009   1.385
 2233SOL    HW218731   2.909   6.908   1.356
 2234SOL     OW18732   0.911   2.808   5.310
 2234SOL    HW118733   1.003   2.845   5.316
 2234SOL    HW218734   0.848   2.879   5.280
 2235SOL     OW18735   2.508   1.297   1.386
 2235SOL    HW118736   2.573   1.250   1.447
 2235SOL    HW218737   2.487   1.238   1.308
 2236SOL     OW18738   2.256   3.016   0.346
 2236SOL    HW118739   2.305   2.941   0.392
 2236SOL    HW218740   2.213   2.981   0.263
 2237SOL     OW18741   1.213   7.908   5.781
 2237SOL    HW118742   1.212   7.808   5.771
 2237SOL    HW218743   1.264   7.948   5.705
 2238SOL     OW18744   6.855   3.443   0.734
 2238SOL    HW118745   6.848   3.542   0.746
 2238SOL    HW218746   6.936   3.409   0.782
 2239SOL     OW18747   0.252   5.835   5.598
 2239SOL    HW118748   0.314   5.854   5.522
 2239SOL    HW218749   0.161   5.813   5.563
 2240SOL     OW18750   5.506   2.397   0.220
 2240SOL    HW118751   5.562   2.349   0.153
 2240SOL    HW218752   5.495   2.492   0.194
 2241SOL     OW18753   5.404   2.566   5.621
 2241SOL    HW118754   5.304   2.563   5.619
 2241SOL    HW218755   5.440   2.477   5.648
 2242SOL     OW18756   4.112   1.717   1.549
 2242SOL    HW118757   4.192   1.687   1.497
 2242SOL    HW218758   4.106   1.817   1.546
 2243SOL     OW18759   4.515   4.584   0.065
 2243SOL    HW118760   4.433   4.576   0.008
 2243SOL    HW218761   4.563   4.496   0.065
 2244SOL     OW18762   6.141   4.266   5.020
 2244SOL    HW118763   6.095   4.354   5.011
 2244SOL    HW218764   6.166   4.251   5.116
 2245SOL     OW18765   7.840   0.336   1.130
 2245SOL    HW118766   7.838   0.279   1.213
 2245SOL    HW218767   7.885   0.286   1.056
 2246SOL     OW18768   3.428   0.485   0.765
 2246SOL    HW118769   3.393   0.477   0.672
 2246SOL    HW218770   3.401   0.573   0.804
 2247SOL     OW18771   8.267   6.714   5.044
 2247SOL    HW118772   8.267   6.643   4.973
 2247SOL    HW218773   8.226   6.677   5.127
 2248SOL     OW18774   9.231   8.328   0.381
 2248SOL    HW118775   9.261   8.241   0.421
 2248SOL    HW218776   9.243   8.401   0.447
 2249SOL     OW18777   7.361   8.363   0.585
 2249SOL    HW118778   7.316   8.278   0.612
 2249SOL    HW218779   7.334   8.386   0.491
 2250SOL     OW18780   1.557   4.999   5.440
 2250SOL    HW118781   1.520   4.906   5.429
 2250SOL    HW218782   1.627   5.015   5.371
 2251SOL     OW18783   6.520   5.787   5.679
 2251SOL    HW118784   6.460   5.708   5.665
 2251SOL    HW218785   6.477   5.868   5.640
 2252SOL     OW18786   1.601   7.896   6.521
 2252SOL    HW118787   1.551   7.979   6.545
 2252SOL    HW218788   1.541   7.835   6.469
 2253SOL     OW18789   2.465   7.349   5.345
 2253SOL    HW118790   2.529   7.272   5.335
 2253SOL    HW218791   2.418   7.364   5.258
 2254SOL     OW18792   0.479   0.376   0.103
 2254SOL    HW118793   0.564   0.342   0.141
 2254SOL    HW218794   0.478   0.476   0.108
 2255SOL     OW18795   4.120   5.612   6.146
 2255SOL    HW118796   4.027   5.615   6.184
 2255SOL    HW218797   4.127   5.675   6.070
 2256SOL     OW18798   0.091   4.302   0.531
 2256SOL    HW118799   0.001   4.321   0.569
 2256SOL    HW218800   0.114   4.206   0.547
 2257SOL     OW18801   5.304   4.828   5.962
 2257SOL    HW118802   5.343   4.746   6.002
 2257SOL    HW218803   5.227   4.859   6.017
 2258SOL     OW18804   7.523   3.683   6.079
 2258SOL    HW118805   7.487   3.748   6.013
 2258SOL    HW218806   7.614   3.654   6.050
 2259SOL     OW18807   4.640   7.679   5.396
 2259SOL    HW118808   4.616   7.625   5.316
 2259SOL    HW218809   4.739   7.676   5.409
 2260SOL     OW18810   3.894   1.840   0.956
 2260SOL    HW118811   3.811   1.793   0.926
 2260SOL    HW218812   3.927   1.900   0.883
 2261SOL     OW18813   6.688   6.779   4.986
 2261SOL    HW118814   6.595   6.747   5.001
 2261SOL    HW218815   6.712   6.767   4.889
 2262SOL     OW18816   1.258   8.197   5.748
 2262SOL    HW118817   1.241   8.288   5.708
 2262SOL    HW218818   1.353   8.192   5.779
 2263SOL     OW18819   0.817   7.557   6.338
 2263SOL    HW118820   0.882   7.484   6.315
 2263SOL    HW218821   0.724   7.524   6.325
 2264SOL     OW18822   4.833   6.901   1.669
 2264SOL    HW118823   4.900   6.834   1.699
 2264SOL    HW218824   4.765   6.916   1.741
 2265SOL     OW18825   0.756   2.173   0.841
 2265SOL    HW118826   0.725   2.245   0.903
 2265SOL    HW218827   0.853   2.183   0.823
 2266SOL     OW18828   4.544   1.283   6.609
 2266SOL    HW118829   4.588   1.240   6.530
 2266SOL    HW218830   4.532   1.215   6.681
 2267SOL     OW18831   8.770   8.483   5.162
 2267SOL    HW118832   8.689   8.520   5.116
 2267SOL    HW218833   8.747   8.395   5.203
 2268SOL     OW18834   0.305   6.673   0.481
 2268SOL    HW118835   0.352   6.672   0.393
 2268SOL    HW218836   0.212   6.638   0.470
 2269SOL     OW18837   2.653   1.840   0.467
 2269SOL    HW118838   2.596   1.758   0.460
 2269SOL    HW218839   2.739   1.818   0.513
 2270SOL     OW18840   7.228   0.100   0.150
 2270SOL    HW118841   7.249   0.135   0.242
 2270SOL    HW218842   7.264   0.007   0.141
 2271SOL     OW18843   3.128   0.770   1.816
 2271SOL    HW118844   3.160   0.865   1.817
 2271SOL    HW218845   3.204   0.710   1.790
 2272SOL     OW18846   5.932   7.179   6.639
 2272SOL    HW118847   5.905   7.109   6.572
 2272SOL    HW218848   6.026   7.161   6.670
 2273SOL     OW18849   0.977   3.287   5.815
 2273SOL    HW118850   0.987   3.200   5.862
 2273SOL    HW218851   0.985   3.362   5.880
 2274SOL     OW18852   0.612   4.270   0.510
 2274SOL    HW118853   0.557   4.221   0.443
 2274SOL    HW218854   0.608   4.368   0.490
 2275SOL     OW18855   2.730   2.525   0.479
 2275SOL    HW118856   2.813   2.580   0.483
 2275SOL    HW218857   2.752   2.435   0.442
 2276SOL     OW18858   3.463   1.378   5.777
 2276SOL    HW118859   3.476   1.289   5.821
 2276SOL    HW218860   3.371   1.382   5.739
 2277SOL     OW18861   3.948   0.284   1.502
 2277SOL    HW118862   3.887   0.290   1.422
 2277SOL    HW218863   4.032   0.236   1.476
 2278SOL     OW18864   2.623   2.022   1.670
 2278SOL    HW118865   2.620   1.972   1.584
 2278SOL    HW218866   2.543   1.999   1.725
 2279SOL     OW18867   5.112   6.809   1.968
 2279SOL    HW118868   5.087   6.905   1.959
 2279SOL    HW218869   5.090   6.760   1.884
 2280SOL     OW18870   1.125   0.441   1.098
 2280SOL    HW118871   1.038   0.484   1.123
 2280SOL    HW218872   1.191   0.455   1.172
 2281SOL     OW18873   4.786   7.497   4.910
 2281SOL    HW118874   4.872   7.545   4.926
 2281SOL    HW218875   4.740   7.536   4.830
 2282SOL     OW18876   4.312   1.410   6.258
 2282SOL    HW118877   4.368   1.346   6.204
 2282SOL    HW218878   4.372   1.475   6.305
 2283SOL     OW18879   1.584   1.409   6.721
 2283SOL    HW118880   1.669   1.440   6.764
 2283SOL    HW218881   1.507   1.457   6.761
 2284SOL     OW18882   7.367   0.040   6.381
 2284SOL    HW118883   7.430  -0.036   6.363
 2284SOL    HW218884   7.360   0.053   6.480
 2285SOL     OW18885   2.476   7.024   5.740
 2285SOL    HW118886   2.480   7.123   5.750
 2285SOL    HW218887   2.458   6.982   5.829
 2286SOL     OW18888   7.329   4.656   6.599
 2286SOL    HW118889   7.335   4.726   6.670
 2286SOL    HW218890   7.259   4.589   6.623
 2287SOL     OW18891   5.228   6.785   0.440
 2287SOL    HW118892   5.235   6.712   0.508
 2287SOL    HW218893   5.147   6.840   0.459
 2288SOL     OW18894   6.462   6.389   1.403
 2288SOL    HW118895   6.553   6.351   1.420
 2288SOL    HW218896   6.392   6.320   1.423
 2289SOL     OW18897   2.644   5.875   0.699
 2289SOL    HW118898   2.656   5.776   0.696
 2289SOL    HW218899   2.682   5.911   0.784
 2290SOL     OW18900   1.942   0.855   0.461
 2290SOL    HW118901   1.998   0.787   0.413
 2290SOL    HW218902   1.965   0.947   0.428
 2291SOL     OW18903   1.522   4.467   5.514
 2291SOL    HW118904   1.480   4.464   5.423
 2291SOL    HW218905   1.597   4.532   5.515
 2292SOL     OW18906   4.147   6.261   6.351
 2292SOL    HW118907   4.221   6.274   6.418
 2292SOL    HW218908   4.127   6.348   6.306
 2293SOL     OW18909   1.303   8.057   0.172
 2293SOL    HW118910   1.349   7.969   0.188
 2293SOL    HW218911   1.342   8.125   0.234
 2294SOL     OW18912   0.010   6.575   4.277
 2294SOL    HW118913  -0.063   6.641   4.259
 2294SOL    HW218914   0.076   6.578   4.202
 2295SOL     OW18915   6.138   3.490   0.163
 2295SOL    HW118916   6.082   3.502   0.245
 2295SOL    HW218917   6.224   3.446   0.188
 2296SOL     OW18918   8.499   7.037   4.647
 2296SOL    HW118919   8.563   6.992   4.585
 2296SOL    HW218920   8.406   7.004   4.629
 2297SOL     OW18921   9.332   2.804   5.565
 2297SOL    HW118922   9.248   2.845   5.600
 2297SOL    HW218923   9.380   2.871   5.507
 2298SOL     OW18924   5.118   1.369   0.677
 2298SOL    HW118925   5.023   1.368   0.645
 2298SOL    HW218926   5.119   1.363   0.777
 2299SOL     OW18927   5.229   1.043   0.575
 2299SOL    HW118928   5.265   1.130   0.609
 2299SOL    HW218929   5.129   1.048   0.570
 2300SOL     OW18930   3.352   1.480   6.171
 2300SOL    HW118931   3.279   1.493   6.238
 2300SOL    HW218932   3.323   1.517   6.083
 2301SOL     OW18933   5.366   1.257   5.939
 2301SOL    HW118934   5.287   1.314   5.918
 2301SOL    HW218935   5.398   1.277   6.032
 2302SOL     OW18936   3.088   0.108   1.262
 2302SOL    HW118937   3.074   0.180   1.195
 2302SOL    HW218938   3.170   0.056   1.239
 2303SOL     OW18939   8.227   3.099   6.262
 2303SOL    HW118940   8.138   3.060   6.286
 2303SOL    HW218941   8.296   3.026   6.259
 2304SOL     OW18942   3.870   3.849   0.393
 2304SOL    HW118943   3.869   3.946   0.367
 2304SOL    HW218944   3.962   3.823   0.421
 2305SOL     OW18945   4.967   2.647   0.119
 2305SOL    HW118946   4.880   2.621   0.161
 2305SOL    HW218947   5.013   2.565   0.085
 2306SOL     OW18948   8.477   8.301   5.776
 2306SOL    HW118949   8.533   8.384   5.779
 2306SOL    HW218950   8.381   8.326   5.786
 2307SOL     OW18951   8.203   7.942   0.622
 2307SOL    HW118952   8.232   8.014   0.558
 2307SOL    HW218953   8.180   7.982   0.710
 2308SOL     OW18954   8.173   3.665   0.374
 2308SOL    HW118955   8.200   3.574   0.406
 2308SOL    HW218956   8.125   3.712   0.448
 2309SOL     OW18957   0.171   1.658   6.585
 2309SOL    HW118958   0.224   1.581   6.621
 2309SOL    HW218959   0.229   1.740   6.582
 2310SOL     OW18960   6.625   2.113   6.140
 2310SOL    HW118961   6.623   2.074   6.232
 2310SOL    HW218962   6.585   2.204   6.142
 2311SOL     OW18963   2.995   2.548   0.806
 2311SOL    HW118964   2.973   2.612   0.732
 2311SOL    HW218965   2.987   2.594   0.894
 2312SOL     OW18966   4.885   3.486   0.395
 2312SOL    HW118967   4.958   3.527   0.339
 2312SOL    HW218968   4.926   3.439   0.473
 2313SOL     OW18969   8.959   3.220   0.408
 2313SOL    HW118970   9.047   3.266   0.424
 2313SOL    HW218971   8.914   3.262   0.329
 2314SOL     OW18972   0.981   5.891   0.002
 2314SOL    HW118973   0.940   5.815   0.054
 2314SOL    HW218974   1.072   5.910   0.038
 2315SOL     OW18975   9.315   2.233   0.784
 2315SOL    HW118976   9.397   2.178   0.769
 2315SOL    HW218977   9.332   2.326   0.751
 2316SOL     OW18978   3.190   7.716   0.074
 2316SOL    HW118979   3.222   7.663   0.152
 2316SOL    HW218980   3.187   7.813   0.098
 2317SOL     OW18981   6.065   1.976   5.539
 2317SOL    HW118982   5.973   1.947   5.515
 2317SOL    HW218983   6.074   2.075   5.529
 2318SOL     OW18984   3.615   1.886   1.447
 2318SOL    HW118985   3.667   1.971   1.459
 2318SOL    HW218986   3.672   1.819   1.399
 2319SOL     OW18987   7.311   8.217   5.443
 2319SOL    HW118988   7.242   8.289   5.431
 2319SOL    HW218989   7.332   8.207   5.540
 2320SOL     OW18990   0.946   8.137   5.818
 2320SOL    HW118991   0.996   8.207   5.870
 2320SOL    HW218992   1.011   8.079   5.770
 2321SOL     OW18993   9.270   6.878   0.665
 2321SOL    HW118994   9.369   6.879   0.651
 2321SOL    HW218995   9.225   6.841   0.583
 2322SOL     OW18996   2.884   6.203   0.353
 2322SOL    HW118997   2.867   6.149   0.436
 2322SOL    HW218998   2.797   6.237   0.317
 2323SOL     OW18999   0.255   3.511   0.256
 2323SOL    HW119000   0.230   3.586   0.317
 2323SOL    HW219001   0.270   3.428   0.310
 2324SOL     OW19002   8.167   2.703   6.509
 2324SOL    HW119003   8.232   2.627   6.517
 2324SOL    HW219004   8.182   2.768   6.583
 2325SOL     OW19005   7.012   8.307   0.797
 2325SOL    HW119006   7.077   8.230   0.789
 2325SOL    HW219007   7.061   8.393   0.779
 2326SOL     OW19008   4.165   8.488   0.493
 2326SOL    HW119009   4.120   8.399   0.497
 2326SOL    HW219010   4.244   8.488   0.554
 2327SOL     OW19011   6.467   5.223   0.105
 2327SOL    HW119012   6.428   5.270   0.026
 2327SOL    HW219013   6.535   5.156   0.075
 2328SOL     OW19014   1.163   6.742   5.797
 2328SOL    HW119015   1.206   6.748   5.707
 2328SOL    HW219016   1.192   6.658   5.843
 2329SOL     OW19017   0.291   6.762   0.180
 2329SOL    HW119018   0.377   6.712   0.180
 2329SOL    HW219019   0.215   6.698   0.188
 2330SOL     OW19020   3.230   1.344   0.030
 2330SOL    HW119021   3.262   1.266   0.085
 2330SOL    HW219022   3.306   1.409   0.018
 2331SOL     OW19023   9.304   3.681   0.573
 2331SOL    HW119024   9.346   3.769   0.595
 2331SOL    HW219025   9.221   3.669   0.629
 2332SOL     OW19026   3.309   4.063   6.712
 2332SOL    HW119027   3.309   3.981   6.655
 2332SOL    HW219028   3.322   4.038   6.808
 2333SOL     OW19029   2.623   8.354   0.023
 2333SOL    HW119030   2.634   8.448  -0.007
 2333SOL    HW219031   2.600   8.352   0.121
 2334SOL     OW19032   1.889   4.072   0.632
 2334SOL    HW119033   1.810   4.026   0.672
 2334SOL    HW219034   1.861   4.120   0.549
 2335SOL     OW19035   2.244   2.570   5.397
 2335SOL    HW119036   2.239   2.566   5.497
 2335SOL    HW219037   2.194   2.493   5.358
 2336SOL     OW19038   3.775   1.958   5.837
 2336SOL    HW119039   3.790   1.871   5.883
 2336SOL    HW219040   3.860   1.988   5.794
 2337SOL     OW19041   1.388   5.390   5.698
 2337SOL    HW119042   1.484   5.373   5.721
 2337SOL    HW219043   1.340   5.302   5.688
 2338SOL     OW19044   6.543   1.136   0.933
 2338SOL    HW119045   6.519   1.081   1.012
 2338SOL    HW219046   6.639   1.122   0.910
 2339SOL     OW19047   0.125   1.816   0.324
 2339SOL    HW119048   0.087   1.891   0.378
 2339SOL    HW219049   0.091   1.821   0.230
 2340SOL     OW19050   6.624   3.360   1.409
 2340SOL    HW119051   6.707   3.403   1.371
 2340SOL    HW219052   6.613   3.389   1.504
 2341SOL     OW19053   5.492   6.635   1.489
 2341SOL    HW119054   5.506   6.571   1.565
 2341SOL    HW219055   5.412   6.607   1.437
 2342SOL     OW19056   4.724   6.829   4.845
 2342SOL    HW119057   4.699   6.811   4.750
 2342SOL    HW219058   4.661   6.896   4.884
 2343SOL     OW19059   6.937   0.162   1.719
 2343SOL    HW119060   6.839   0.143   1.721
 2343SOL    HW219061   6.954   0.250   1.763
 2344SOL     OW19062   2.864   1.403   6.175
 2344SOL    HW119063   2.896   1.463   6.247
 2344SOL    HW219064   2.919   1.417   6.092
 2345SOL     OW19065   1.892   6.797   6.711
 2345SOL    HW119066   1.990   6.808   6.696
 2345SOL    HW219067   1.873   6.702   6.735
 2346SOL     OW19068   4.530   1.981   5.487
 2346SOL    HW119069   4.528   1.882   5.475
 2346SOL    HW219070   4.438   2.014   5.507
 2347SOL     OW19071   6.363   0.046   1.096
 2347SOL    HW119072   6.411   0.001   1.021
 2347SOL    HW219073   6.415   0.124   1.128
 2348SOL     OW19074   2.935   8.198   0.350
 2348SOL    HW119075   3.019   8.159   0.388
 2348SOL    HW219076   2.940   8.298   0.354
 2349SOL     OW19077   3.171   1.542   0.485
 2349SOL    HW119078   3.122   1.548   0.398
 2349SOL    HW219079   3.116   1.491   0.551
 2350SOL     OW19080   1.184   2.756   0.495
 2350SOL    HW119081   1.258   2.823   0.486
 2350SOL    HW219082   1.130   2.777   0.576
 2351SOL     OW19083   4.824   0.271   5.299
 2351SOL    HW119084   4.794   0.269   5.203
 2351SOL    HW219085   4.787   0.353   5.344
 2352SOL     OW19086   2.643   1.881   6.296
 2352SOL    HW119087   2.556   1.835   6.277
 2352SOL    HW219088   2.627   1.978   6.312
 2353SOL     OW19089   8.976   2.232   0.598
 2353SOL    HW119090   9.006   2.174   0.674
 2353SOL    HW219091   8.902   2.292   0.629
 2354SOL     OW19092   0.611   4.857   6.354
 2354SOL    HW119093   0.571   4.875   6.264
 2354SOL    HW219094   0.606   4.939   6.410
 2355SOL     OW19095   9.450   4.854   5.321
 2355SOL    HW119096   9.467   4.785   5.250
 2355SOL    HW219097   9.410   4.935   5.278
 2356SOL     OW19098   5.449   6.781   0.282
 2356SOL    HW119099   5.502   6.710   0.328
 2356SOL    HW219100   5.373   6.810   0.341
 2357SOL     OW19101   4.230   7.964   6.403
 2357SOL    HW119102   4.159   7.951   6.473
 2357SOL    HW219103   4.224   8.056   6.367
 2358SOL     OW19104   3.774   1.222   0.125
 2358SOL    HW119105   3.740   1.286   0.194
 2358SOL    HW219106   3.700   1.196   0.064
 2359SOL     OW19107   9.114   2.849   0.144
 2359SOL    HW119108   9.107   2.937   0.193
 2359SOL    HW219109   9.165   2.862   0.060
 2360SOL     OW19110   9.046   5.259   1.195
 2360SOL    HW119111   8.951   5.290   1.197
 2360SOL    HW219112   9.078   5.242   1.288
 2361SOL     OW19113   8.616   2.621   0.249
 2361SOL    HW119114   8.545   2.684   0.282
 2361SOL    HW219115   8.705   2.652   0.284
 2362SOL     OW19116   4.446   0.575   1.505
 2362SOL    HW119117   4.510   0.600   1.432
 2362SOL    HW219118   4.497   0.534   1.580
 2363SOL     OW19119   0.663   7.798   5.153
 2363SOL    HW119120   0.605   7.784   5.072
 2363SOL    HW219121   0.688   7.710   5.192
 2364SOL     OW19122   8.508   3.985   5.472
 2364SOL    HW119123   8.450   3.994   5.391
 2364SOL    HW219124   8.561   4.068   5.485
 2365SOL     OW19125   4.441   2.262   6.518
 2365SOL    HW119126   4.372   2.332   6.499
 2365SOL    HW219127   4.495   2.290   6.598
 2366SOL     OW19128   4.110   2.768   0.848
 2366SOL    HW119129   4.078   2.843   0.790
 2366SOL    HW219130   4.034   2.706   0.868
 2367SOL     OW19131   4.097   6.160   2.346
 2367SOL    HW119132   4.014   6.188   2.393
 2367SOL    HW219133   4.161   6.236   2.342
 2368SOL     OW19134   6.742   4.025   0.237
 2368SOL    HW119135   6.702   4.034   0.329
 2368SOL    HW219136   6.768   3.930   0.222
 2369SOL     OW19137   8.278   4.156   1.100
 2369SOL    HW119138   8.373   4.147   1.127
 2369SOL    HW219139   8.230   4.069   1.113
 2370SOL     OW19140   2.722   0.431   6.640
 2370SOL    HW119141   2.748   0.524   6.663
 2370SOL    HW219142   2.803   0.372   6.644
 2371SOL     OW19143   6.429   3.863   0.584
 2371SOL    HW119144   6.388   3.944   0.626
 2371SOL    HW219145   6.358   3.810   0.538
 2372SOL     OW19146   4.352   6.416   1.470
 2372SOL    HW119147   4.330   6.387   1.563
 2372SOL    HW219148   4.443   6.384   1.445
 2373SOL     OW19149   2.823   5.928   5.253
 2373SOL    HW119150   2.839   5.863   5.179
 2373SOL    HW219151   2.770   6.005   5.219
 2374SOL     OW19152   4.428   0.928   2.202
 2374SOL    HW119153   4.473   1.017   2.214
 2374SOL    HW219154   4.335   0.942   2.170
 2375SOL     OW19155   6.301   5.235   1.581
 2375SOL    HW119156   6.329   5.231   1.485
 2375SOL    HW219157   6.351   5.166   1.633
 2376SOL     OW19158   0.969   4.912   5.426
 2376SOL    HW119159   0.939   4.888   5.334
 2376SOL    HW219160   1.069   4.912   5.430
 2377SOL     OW19161   4.885   6.644   0.188
 2377SOL    HW119162   4.965   6.703   0.182
 2377SOL    HW219163   4.914   6.551   0.212
 2378SOL     OW19164   7.873   3.594   6.167
 2378SOL    HW119165   7.836   3.631   6.082
 2378SOL    HW219166   7.965   3.558   6.151
 2379SOL     OW19167   8.288   2.804   1.004
 2379SOL    HW119168   8.381   2.771   1.020
 2379SOL    HW219169   8.244   2.826   1.091
 2380SOL     OW19170   5.400   7.460   0.711
 2380SOL    HW119171   5.442   7.526   0.773
 2380SOL    HW219172   5.365   7.382   0.763
 2381SOL     OW19173   4.772   6.208   0.770
 2381SOL    HW119174   4.697   6.196   0.835
 2381SOL    HW219175   4.762   6.297   0.724
 2382SOL     OW19176   5.245   5.500   6.433
 2382SOL    HW119177   5.331   5.462   6.401
 2382SOL    HW219178   5.263   5.584   6.485
 2383SOL     OW19179   5.159   1.788   5.971
 2383SOL    HW119180   5.115   1.861   6.021
 2383SOL    HW219181   5.144   1.701   6.018
 2384SOL     OW19182   3.734   6.682   0.578
 2384SOL    HW119183   3.817   6.656   0.628
 2384SOL    HW219184   3.655   6.637   0.620
 2385SOL     OW19185   8.605   2.696   6.211
 2385SOL    HW119186   8.667   2.618   6.204
 2385SOL    HW219187   8.529   2.673   6.272
 2386SOL     OW19188   5.941   7.989   5.841
 2386SOL    HW119189   5.914   7.945   5.927
 2386SOL    HW219190   6.034   7.961   5.818
 2387SOL     OW19191   3.330   8.202   0.681
 2387SOL    HW119192   3.349   8.255   0.764
 2387SOL    HW219193   3.410   8.147   0.658
 2388SOL     OW19194   8.763   7.165   1.088
 2388SOL    HW119195   8.800   7.135   1.176
 2388SOL    HW219196   8.805   7.252   1.062
 2389SOL     OW19197   8.808   2.752   6.464
 2389SOL    HW119198   8.761   2.839   6.446
 2389SOL    HW219199   8.827   2.706   6.378
 2390SOL     OW19200   1.563   5.868   6.629
 2390SOL    HW119201   1.494   5.937   6.607
 2390SOL    HW219202   1.651   5.912   6.645
 2391SOL     OW19203   0.190   0.940   6.564
 2391SOL    HW119204   0.261   0.972   6.627
 2391SOL    HW219205   0.231   0.877   6.498
 2392SOL     OW19206   9.296   0.408   0.139
 2392SOL    HW119207   9.301   0.316   0.099
 2392SOL    HW219208   9.380   0.458   0.118
 2393SOL     OW19209   0.014   7.122   0.814
 2393SOL    HW119210   0.022   7.063   0.733
 2393SOL    HW219211  -0.009   7.065   0.894
 2394SOL     OW19212   3.336   0.853   5.694
 2394SOL    HW119213   3.282   0.823   5.773
 2394SOL    HW219214   3.283   0.921   5.642
 2395SOL     OW19215   2.967   5.279   0.290
 2395SOL    HW119216   3.014   5.266   0.378
 2395SOL    HW219217   2.899   5.351   0.299
 2396SOL     OW19218   5.083   6.863   0.749
 2396SOL    HW119219   4.992   6.854   0.708
 2396SOL    HW219220   5.126   6.947   0.714
 2397SOL     OW19221   6.294   7.626   5.040
 2397SOL    HW119222   6.315   7.723   5.037
 2397SOL    HW219223   6.378   7.573   5.027
 2398SOL     OW19224   8.038   3.705   6.547
 2398SOL    HW119225   8.006   3.724   6.640
 2398SOL    HW219226   7.989   3.765   6.482
 2399SOL     OW19227   1.607   1.025   5.665
 2399SOL    HW119228   1.647   0.967   5.595
 2399SOL    HW219229   1.514   0.993   5.686
 2400SOL     OW19230   5.652   0.524   6.461
 2400SOL    HW119231   5.579   0.588   6.482
 2400SOL    HW219232   5.736   0.574   6.442
 2401SOL     OW19233   4.848   4.825   6.688
 2401SOL    HW119234   4.860   4.727   6.673
 2401SOL    HW219235   4.772   4.839   6.752
 2402SOL     OW19236   4.501   4.539   0.362
 2402SOL    HW119237   4.404   4.517   0.372
 2402SOL    HW219238   4.537   4.492   0.281
 2403SOL     OW19239   3.283   5.988   5.612
 2403SOL    HW119240   3.281   5.928   5.693
 2403SOL    HW219241   3.338   5.945   5.541
 2404SOL     OW19242   2.882   0.382   5.544
 2404SOL    HW119243   2.813   0.352   5.609
 2404SOL    HW219244   2.973   0.360   5.580
 2405SOL     OW19245   9.248   3.829   0.951
 2405SOL    HW119246   9.345   3.808   0.937
 2405SOL    HW219247   9.226   3.821   1.048
 2406SOL     OW19248   2.857   1.721   0.174
 2406SOL    HW119249   2.893   1.664   0.248
 2406SOL    HW219250   2.826   1.662   0.099
 2407SOL     OW19251   2.243   1.919   0.330
 2407SOL    HW119252   2.177   1.949   0.399
 2407SOL    HW219253   2.305   1.995   0.308
 2408SOL     OW19254   3.924   7.173   2.467
 2408SOL    HW119255   3.987   7.115   2.416
 2408SOL    HW219256   3.848   7.117   2.501
 2409SOL     OW19257   0.283   7.637   0.172
 2409SOL    HW119258   0.234   7.645   0.259
 2409SOL    HW219259   0.377   7.670   0.184
 2410SOL     OW19260   2.255   6.349   0.483
 2410SOL    HW119261   2.311   6.294   0.545
 2410SOL    HW219262   2.298   6.439   0.471
 2411SOL     OW19263   7.061   5.457   0.218
 2411SOL    HW119264   7.019   5.507   0.293
 2411SOL    HW219265   7.157   5.441   0.239
 2412SOL     OW19266   5.482   6.508   5.515
 2412SOL    HW119267   5.525   6.418   5.508
 2412SOL    HW219268   5.430   6.527   5.431
 2413SOL     OW19269   0.500   2.176   1.165
 2413SOL    HW119270   0.571   2.129   1.219
 2413SOL    HW219271   0.469   2.257   1.214
 2414SOL     OW19272   3.091   0.585   2.119
 2414SOL    HW119273   3.087   0.672   2.168
 2414SOL    HW219274   3.137   0.517   2.177
 2415SOL     OW19275   5.407   3.625   0.194
 2415SOL    HW119276   5.311   3.598   0.193
 2415SOL    HW219277   5.452   3.587   0.275
 2416SOL     OW19278   4.532   2.716   0.655
 2416SOL    HW119279   4.500   2.637   0.707
 2416SOL    HW219280   4.473   2.794   0.673
 2417SOL     OW19281   9.446   1.107   0.405
 2417SOL    HW119282   9.433   1.193   0.454
 2417SOL    HW219283   9.541   1.099   0.375
 2418SOL     OW19284   3.218   7.610   5.487
 2418SOL    HW119285   3.132   7.575   5.450
 2418SOL    HW219286   3.201   7.694   5.538
 2419SOL     OW19287   4.247   4.628   1.434
 2419SOL    HW119288   4.201   4.666   1.355
 2419SOL    HW219289   4.209   4.667   1.518
 2420SOL     OW19290   2.244   6.692   5.874
 2420SOL    HW119291   2.235   6.600   5.912
 2420SOL    HW219292   2.337   6.726   5.892
 2421SOL     OW19293   0.400   4.152   6.340
 2421SOL    HW119294   0.330   4.155   6.411
 2421SOL    HW219295   0.486   4.121   6.380
 2422SOL     OW19296   4.057   0.697   5.047
 2422SOL    HW119297   4.059   0.775   5.109
 2422SOL    HW219298   4.069   0.729   4.953
 2423SOL     OW19299   2.596   1.693   2.278
 2423SOL    HW119300   2.586   1.683   2.179
 2423SOL    HW219301   2.602   1.603   2.321
 2424SOL     OW19302   2.431   6.374   0.046
 2424SOL    HW119303   2.383   6.459   0.023
 2424SOL    HW219304   2.530   6.389   0.041
 2425SOL     OW19305   3.158   0.208   0.620
 2425SOL    HW119306   3.157   0.283   0.686
 2425SOL    HW219307   3.068   0.165   0.616
 2426SOL     OW19308   2.712   7.637   5.381
 2426SOL    HW119309   2.659   7.592   5.453
 2426SOL    HW219310   2.775   7.572   5.341
 2427SOL     OW19311   4.223   5.838   1.186
 2427SOL    HW119312   4.229   5.827   1.087
 2427SOL    HW219313   4.223   5.748   1.230
 2428SOL     OW19314   5.457   7.743   6.233
 2428SOL    HW119315   5.370   7.716   6.275
 2428SOL    HW219316   5.526   7.757   6.304
 2429SOL     OW19317   4.128   3.117   6.612
 2429SOL    HW119318   4.220   3.154   6.599
 2429SOL    HW219319   4.132   3.017   6.614
 2430SOL     OW19320   4.143   5.380   0.104
 2430SOL    HW119321   4.085   5.315   0.054
 2430SOL    HW219322   4.176   5.450   0.041
 2431SOL     OW19323   3.777   5.396   1.040
 2431SOL    HW119324   3.753   5.314   0.988
 2431SOL    HW219325   3.708   5.412   1.111
 2432SOL     OW19326   7.218   6.795   0.006
 2432SOL    HW119327   7.157   6.794  -0.073
 2432SOL    HW219328   7.163   6.789   0.090
 2433SOL     OW19329   2.435   4.082   0.252
 2433SOL    HW119330   2.416   4.060   0.347
 2433SOL    HW219331   2.458   3.999   0.202
 2434SOL     OW19332   8.408   7.620   5.543
 2434SOL    HW119333   8.339   7.605   5.614
 2434SOL    HW219334   8.392   7.708   5.499
 2435SOL     OW19335   4.795   7.059   0.938
 2435SOL    HW119336   4.821   7.021   0.849
 2435SOL    HW219337   4.695   7.069   0.942
 2436SOL     OW19338   6.483   5.602   0.592
 2436SOL    HW119339   6.572   5.557   0.604
 2436SOL    HW219340   6.495   5.701   0.597
 2437SOL     OW19341   5.824   3.265   0.076
 2437SOL    HW119342   5.765   3.326   0.025
 2437SOL    HW219343   5.889   3.221   0.014
 2438SOL     OW19344   2.628   0.924   1.939
 2438SOL    HW119345   2.575   0.856   1.889
 2438SOL    HW219346   2.720   0.890   1.956
 2439SOL     OW19347   4.601   2.505   0.925
 2439SOL    HW119348   4.584   2.590   0.976
 2439SOL    HW219349   4.517   2.476   0.880
 2440SOL     OW19350   6.977   3.880   6.637
 2440SOL    HW119351   7.067   3.855   6.602
 2440SOL    HW219352   6.955   3.823   6.717
 2441SOL     OW19353   3.393   6.870   0.608
 2441SOL    HW119354   3.456   6.945   0.630
 2441SOL    HW219355   3.387   6.860   0.509
 2442SOL     OW19356   0.004   5.724   5.486
 2442SOL    HW119357   0.055   5.651   5.440
 2442SOL    HW219358  -0.027   5.791   5.419
 2443SOL     OW19359   2.348   0.109   4.823
 2443SOL    HW119360   2.320   0.101   4.727
 2443SOL    HW219361   2.427   0.170   4.830
 2444SOL     OW19362   2.636   2.428   1.463
 2444SOL    HW119363   2.716   2.369   1.475
 2444SOL    HW219364   2.602   2.456   1.552
 2445SOL     OW19365   3.131   1.042   0.820
 2445SOL    HW119366   3.040   1.028   0.860
 2445SOL    HW219367   3.131   1.127   0.767
 2446SOL     OW19368   5.006   2.874   6.636
 2446SOL    HW119369   5.075   2.876   6.564
 2446SOL    HW219370   5.052   2.862   6.725
 2447SOL     OW19371   2.561   5.552   0.061
 2447SOL    HW119372   2.640   5.534   0.120
 2447SOL    HW219373   2.487   5.590   0.116
 2448SOL     OW19374   9.327   0.538   0.822
 2448SOL    HW119375   9.417   0.578   0.807
 2448SOL    HW219376   9.316   0.458   0.762
 2449SOL     OW19377   0.871   2.267   5.974
 2449SOL    HW119378   0.896   2.261   5.878
 2449SOL    HW219379   0.848   2.361   5.997
 2450SOL     OW19380   0.881   5.956   5.907
 2450SOL    HW119381   0.781   5.949   5.911
 2450SOL    HW219382   0.916   5.969   6.000
 2451SOL     OW19383   5.652   4.318   5.712
 2451SOL    HW119384   5.569   4.363   5.744
 2451SOL    HW219385   5.628   4.241   5.654
 2452SOL     OW19386   9.348   6.937   1.036
 2452SOL    HW119387   9.253   6.966   1.019
 2452SOL    HW219388   9.361   6.922   1.134
 2453SOL     OW19389   7.606   3.798   6.656
 2453SOL    HW119390   7.672   3.728   6.686
 2453SOL    HW219391   7.514   3.758   6.655
 2454SOL     OW19392   2.424   0.565   6.153
 2454SOL    HW119393   2.503   0.512   6.122
 2454SOL    HW219394   2.356   0.504   6.193
 2455SOL     OW19395   0.321   4.556   0.233
 2455SOL    HW119396   0.421   4.556   0.229
 2455SOL    HW219397   0.284   4.610   0.157
 2456SOL     OW19398   7.389   2.064   0.725
 2456SOL    HW119399   7.483   2.042   0.698
 2456SOL    HW219400   7.332   2.070   0.643
 2457SOL     OW19401   3.336   0.767   2.064
 2457SOL    HW119402   3.259   0.736   2.008
 2457SOL    HW219403   3.421   0.738   2.021
 2458SOL     OW19404   1.045   8.187   5.400
 2458SOL    HW119405   1.013   8.094   5.412
 2458SOL    HW219406   0.998   8.248   5.464
 2459SOL     OW19407   0.959   6.019   5.335
 2459SOL    HW119408   0.889   6.005   5.405
 2459SOL    HW219409   1.040   6.059   5.376
 2460SOL     OW19410   2.110   1.668   5.501
 2460SOL    HW119411   2.119   1.709   5.410
 2460SOL    HW219412   2.017   1.684   5.535
 2461SOL     OW19413   8.568   3.486   0.944
 2461SOL    HW119414   8.622   3.520   0.867
 2461SOL    HW219415   8.472   3.483   0.919
 2462SOL     OW19416   0.616   3.661   5.491
 2462SOL    HW119417   0.532   3.621   5.455
 2462SOL    HW219418   0.601   3.758   5.511
 2463SOL     OW19419   2.180   7.314   1.222
 2463SOL    HW119420   2.144   7.267   1.142
 2463SOL    HW219421   2.112   7.379   1.256
 2464SOL     OW19422   4.461   2.135   6.280
 2464SOL    HW119423   4.462   2.192   6.197
 2464SOL    HW219424   4.475   2.193   6.360
 2465SOL     OW19425   2.245   3.603   0.775
 2465SOL    HW119426   2.200   3.683   0.814
 2465SOL    HW219427   2.341   3.602   0.803
 2466SOL     OW19428   6.030   6.032   1.802
 2466SOL    HW119429   6.112   6.025   1.745
 2466SOL    HW219430   6.051   6.084   1.885
 2467SOL     OW19431   0.454   5.872   4.621
 2467SOL    HW119432   0.461   5.814   4.702
 2467SOL    HW219433   0.366   5.858   4.576
 2468SOL     OW19434   8.515   3.887   0.679
 2468SOL    HW119435   8.511   3.789   0.662
 2468SOL    HW219436   8.593   3.908   0.738
 2469SOL     OW19437   9.197   0.411   0.419
 2469SOL    HW119438   9.207   0.468   0.337
 2469SOL    HW219439   9.284   0.410   0.469
 2470SOL     OW19440   3.228   3.402   0.426
 2470SOL    HW119441   3.217   3.492   0.385
 2470SOL    HW219442   3.243   3.334   0.354
 2471SOL     OW19443   8.122   7.998   0.117
 2471SOL    HW119444   8.161   8.025   0.028
 2471SOL    HW219445   8.164   7.912   0.146
 2472SOL     OW19446   3.568   3.520   0.161
 2472SOL    HW119447   3.593   3.458   0.236
 2472SOL    HW219448   3.607   3.611   0.179
 2473SOL     OW19449   3.556   0.847   0.390
 2473SOL    HW119450   3.606   0.894   0.317
 2473SOL    HW219451   3.560   0.748   0.375
 2474SOL     OW19452   5.861   7.578   6.029
 2474SOL    HW119453   5.780   7.627   5.996
 2474SOL    HW219454   5.840   7.481   6.038
 2475SOL     OW19455   0.714   1.014   1.439
 2475SOL    HW119456   0.793   0.984   1.493
 2475SOL    HW219457   0.642   0.945   1.445
 2476SOL     OW19458   4.372   2.404   0.822
 2476SOL    HW119459   4.273   2.389   0.833
 2476SOL    HW219460   4.414   2.321   0.785
 2477SOL     OW19461   3.378   3.001   1.149
 2477SOL    HW119462   3.314   2.934   1.111
 2477SOL    HW219463   3.463   2.999   1.098
 2478SOL     OW19464   8.477   1.424   5.877
 2478SOL    HW119465   8.466   1.331   5.843
 2478SOL    HW219466   8.493   1.423   5.975
 2479SOL     OW19467   4.861   8.282   1.270
 2479SOL    HW119468   4.764   8.273   1.294
 2479SOL    HW219469   4.911   8.315   1.349
 2480SOL     OW19470   0.022   6.364   4.448
 2480SOL    HW119471   0.103   6.382   4.505
 2480SOL    HW219472   0.006   6.442   4.388
 2481SOL     OW19473   2.833   3.589   5.418
 2481SOL    HW119474   2.802   3.594   5.324
 2481SOL    HW219475   2.933   3.598   5.421
 2482SOL     OW19476   8.472   5.272   5.392
 2482SOL    HW119477   8.411   5.197   5.367
 2482SOL    HW219478   8.549   5.275   5.328
 2483SOL     OW19479   7.559   0.750   6.426
 2483SOL    HW119480   7.544   0.809   6.347
 2483SOL    HW219481   7.609   0.668   6.398
 2484SOL     OW19482   0.801   6.869   0.010
 2484SOL    HW119483   0.757   6.954   0.037
 2484SOL    HW219484   0.887   6.888  -0.036
 2485SOL     OW19485   4.734   4.854   5.896
 2485SOL    HW119486   4.688   4.942   5.902
 2485SOL    HW219487   4.666   4.781   5.891
 2486SOL     OW19488   5.477   0.917   0.921
 2486SOL    HW119489   5.502   0.989   0.857
 2486SOL    HW219490   5.428   0.958   0.999
 2487SOL     OW19491   3.413   5.171   0.695
 2487SOL    HW119492   3.457   5.184   0.606
 2487SOL    HW219493   3.330   5.116   0.684
 2488SOL     OW19494   4.074   7.903   1.269
 2488SOL    HW119495   4.133   7.836   1.314
 2488SOL    HW219496   4.130   7.967   1.215
 2489SOL     OW19497   4.286   3.508   0.034
 2489SOL    HW119498   4.319   3.415   0.015
 2489SOL    HW219499   4.253   3.550  -0.051
 2490SOL     OW19500   0.762   0.987   6.727
 2490SOL    HW119501   0.747   0.954   6.820
 2490SOL    HW219502   0.754   1.087   6.725
 2491SOL     OW19503   0.749   2.992   0.253
 2491SOL    HW119504   0.727   3.086   0.277
 2491SOL    HW219505   0.829   2.961   0.305
 2492SOL     OW19506   1.651   6.561   4.940
 2492SOL    HW119507   1.675   6.497   4.867
 2492SOL    HW219508   1.728   6.623   4.956
 2493SOL     OW19509   7.767   3.070   0.181
 2493SOL    HW119510   7.695   3.128   0.220
 2493SOL    HW219511   7.784   3.098   0.087
 2494SOL     OW19512   3.927   5.940   5.559
 2494SOL    HW119513   3.911   5.842   5.571
 2494SOL    HW219514   3.992   5.954   5.484
 2495SOL     OW19515   2.415   1.581   5.822
 2495SOL    HW119516   2.396   1.528   5.739
 2495SOL    HW219517   2.354   1.660   5.827
 2496SOL     OW19518   7.004   1.627   0.411
 2496SOL    HW119519   7.078   1.693   0.399
 2496SOL    HW219520   6.997   1.569   0.330
 2497SOL     OW19521   1.013   0.675   6.293
 2497SOL    HW119522   0.921   0.714   6.293
 2497SOL    HW219523   1.062   0.705   6.211
 2498SOL     OW19524   9.334   6.870   1.390
 2498SOL    HW119525   9.239   6.895   1.406
 2498SOL    HW219526   9.345   6.771   1.401
 2499SOL     OW19527   7.555   4.299   0.079
 2499SOL    HW119528   7.495   4.241   0.024
 2499SOL    HW219529   7.577   4.382   0.028
 2500SOL     OW19530   6.960   5.118   6.682
 2500SOL    HW119531   6.922   5.033   6.720
 2500SOL    HW219532   7.058   5.122   6.702
 2501SOL     OW19533   3.751   3.126   1.220
 2501SOL    HW119534   3.745   3.035   1.263
 2501SOL    HW219535   3.711   3.123   1.129
 2502SOL     OW19536   2.012   2.783   5.951
 2502SOL    HW119537   2.107   2.782   5.982
 2502SOL    HW219538   1.991   2.872   5.912
 2503SOL     OW19539   8.647   3.003   6.054
 2503SOL    HW119540   8.563   2.975   6.100
 2503SOL    HW219541   8.715   2.931   6.062
 2504SOL     OW19542   3.731   3.357   0.334
 2504SOL    HW119543   3.781   3.430   0.288
 2504SOL    HW219544   3.749   3.270   0.288
 2505SOL     OW19545   7.116   1.442   6.391
 2505SOL    HW119546   7.029   1.391   6.391
 2505SOL    HW219547   7.154   1.441   6.299
 2506SOL     OW19548   0.230   1.033   0.488
 2506SOL    HW119549   0.279   1.097   0.547
 2506SOL    HW219550   0.153   0.993   0.539
 2507SOL     OW19551   9.467   0.942   4.883
 2507SOL    HW119552   9.430   1.033   4.897
 2507SOL    HW219553   9.498   0.933   4.788
 2508SOL     OW19554   2.300   2.654   6.474
 2508SOL    HW119555   2.361   2.662   6.552
 2508SOL    HW219556   2.278   2.745   6.440
 2509SOL     OW19557   6.183   7.731   6.287
 2509SOL    HW119558   6.094   7.688   6.303
 2509SOL    HW219559   6.245   7.664   6.245
 2510SOL     OW19560   4.469   7.975   4.992
 2510SOL    HW119561   4.512   8.012   4.910
 2510SOL    HW219562   4.466   7.875   4.986
 2511SOL     OW19563   9.264   8.432   5.048
 2511SOL    HW119564   9.180   8.465   5.091
 2511SOL    HW219565   9.257   8.441   4.949
 2512SOL     OW19566   5.489   0.722   2.150
 2512SOL    HW119567   5.568   0.781   2.165
 2512SOL    HW219568   5.415   0.749   2.212
 2513SOL     OW19569   0.523   7.589   6.288
 2513SOL    HW119570   0.469   7.597   6.372
 2513SOL    HW219571   0.503   7.666   6.228
 2514SOL     OW19572   7.290   0.545   0.141
 2514SOL    HW119573   7.375   0.577   0.098
 2514SOL    HW219574   7.307   0.525   0.238
 2515SOL     OW19575   7.461   5.681   0.409
 2515SOL    HW119576   7.458   5.722   0.318
 2515SOL    HW219577   7.528   5.728   0.465
 2516SOL     OW19578   3.901   5.785   6.734
 2516SOL    HW119579   3.849   5.771   6.818
 2516SOL    HW219580   3.953   5.702   6.713
 2517SOL     OW19581   1.770   6.179   0.104
 2517SOL    HW119582   1.816   6.137   0.025
 2517SOL    HW219583   1.738   6.270   0.080
 2518SOL     OW19584   7.399   6.289   5.148
 2518SOL    HW119585   7.358   6.219   5.089
 2518SOL    HW219586   7.401   6.376   5.099
 2519SOL     OW19587   2.538   1.491   6.310
 2519SOL    HW119588   2.542   1.519   6.214
 2519SOL    HW219589   2.482   1.556   6.361
 2520SOL     OW19590   3.311   1.147   6.171
 2520SOL    HW119591   3.247   1.080   6.210
 2520SOL    HW219592   3.259   1.224   6.134
 2521SOL     OW19593   4.823   6.020   6.684
 2521SOL    HW119594   4.833   6.011   6.783
 2521SOL    HW219595   4.912   6.040   6.642
 2522SOL     OW19596   6.602   6.542   5.507
 2522SOL    HW119597   6.681   6.602   5.493
 2522SOL    HW219598   6.584   6.533   5.605
 2523SOL     OW19599   6.651   5.005   0.177
 2523SOL    HW119600   6.686   5.089   0.219
 2523SOL    HW219601   6.648   5.016   0.078
 2524SOL     OW19602   2.697   4.837   0.528
 2524SOL    HW119603   2.745   4.925   0.524
 2524SOL    HW219604   2.695   4.797   0.436
 2525SOL     OW19605   2.696   5.081   1.042
 2525SOL    HW119606   2.648   5.123   0.965
 2525SOL    HW219607   2.770   5.141   1.072
 2526SOL     OW19608   8.715   2.504   4.989
 2526SOL    HW119609   8.722   2.404   4.988
 2526SOL    HW219610   8.619   2.531   4.991
 2527SOL     OW19611   5.795   2.480   5.964
 2527SOL    HW119612   5.803   2.551   5.894
 2527SOL    HW219613   5.794   2.390   5.921
 2528SOL     OW19614   8.122   8.442   4.891
 2528SOL    HW119615   8.041   8.495   4.868
 2528SOL    HW219616   8.181   8.496   4.952
 2529SOL     OW19617   3.584   0.109   5.524
 2529SOL    HW119618   3.583   0.018   5.565
 2529SOL    HW219619   3.560   0.177   5.594
 2530SOL     OW19620   7.043   0.441   5.891
 2530SOL    HW119621   6.975   0.511   5.868
 2530SOL    HW219622   6.997   0.354   5.909
 2531SOL     OW19623   5.849   6.100   0.637
 2531SOL    HW119624   5.806   6.021   0.593
 2531SOL    HW219625   5.902   6.069   0.716
 2532SOL     OW19626   8.946   6.730   6.288
 2532SOL    HW119627   8.874   6.749   6.221
 2532SOL    HW219628   8.978   6.816   6.329
 2533SOL     OW19629   6.693   4.068   6.692
 2533SOL    HW119630   6.700   4.031   6.785
 2533SOL    HW219631   6.675   4.166   6.696
 2534SOL     OW19632   2.412   5.684   0.806
 2534SOL    HW119633   2.445   5.598   0.768
 2534SOL    HW219634   2.327   5.669   0.857
 2535SOL     OW19635   3.557   1.807   6.544
 2535SOL    HW119636   3.603   1.728   6.503
 2535SOL    HW219637   3.614   1.888   6.534
 2536SOL     OW19638   6.397   1.804   1.215
 2536SOL    HW119639   6.466   1.734   1.196
 2536SOL    HW219640   6.384   1.861   1.134
 2537SOL     OW19641   4.652   8.003   0.672
 2537SOL    HW119642   4.717   8.008   0.596
 2537SOL    HW219643   4.636   8.095   0.708
 2538SOL     OW19644   1.892   0.960   6.731
 2538SOL    HW119645   1.847   1.029   6.787
 2538SOL    HW219646   1.848   0.871   6.746
 2539SOL     OW19647   0.757   7.357   5.754
 2539SOL    HW119648   0.855   7.360   5.772
 2539SOL    HW219649   0.715   7.444   5.781
 2540SOL     OW19650   4.676   6.402   6.406
 2540SOL    HW119651   4.595   6.391   6.347
 2540SOL    HW219652   4.738   6.468   6.365
 2541SOL     OW19653   1.171   8.232   1.084
 2541SOL    HW119654   1.172   8.222   1.184
 2541SOL    HW219655   1.087   8.192   1.047
 2542SOL     OW19656   5.407   6.274   0.935
 2542SOL    HW119657   5.443   6.367   0.930
 2542SOL    HW219658   5.397   6.247   1.031
 2543SOL     OW19659   5.368   0.672   5.960
 2543SOL    HW119660   5.327   0.763   5.963
 2543SOL    HW219661   5.467   0.680   5.968
 2544SOL     OW19662   4.986   0.280   5.529
 2544SOL    HW119663   4.917   0.259   5.460
 2544SOL    HW219664   4.982   0.212   5.602
 2545SOL     OW19665   1.960   1.081   1.119
 2545SOL    HW119666   1.938   1.177   1.139
 2545SOL    HW219667   1.978   1.033   1.205
 2546SOL     OW19668   0.918   8.379   5.590
 2546SOL    HW119669   0.857   8.370   5.668
 2546SOL    HW219670   1.007   8.412   5.622
 2547SOL     OW19671   4.785   8.274   5.901
 2547SOL    HW119672   4.836   8.231   5.975
 2547SOL    HW219673   4.786   8.215   5.820
 2548SOL     OW19674   5.872   4.361   5.869
 2548SOL    HW119675   5.957   4.307   5.872
 2548SOL    HW219676   5.810   4.322   5.802
 2549SOL     OW19677   0.404   7.091   0.047
 2549SOL    HW119678   0.354   7.006   0.035
 2549SOL    HW219679   0.444   7.119  -0.041
 2550SOL     OW19680   1.262   0.616   5.992
 2550SOL    HW119681   1.330   0.635   6.064
 2550SOL    HW219682   1.177   0.586   6.034
 2551SOL     OW19683   4.118   0.922   1.725
 2551SOL    HW119684   4.096   0.985   1.799
 2551SOL    HW219685   4.206   0.878   1.744
 2552SOL     OW19686   6.204   5.004   5.458
 2552SOL    HW119687   6.242   4.912   5.451
 2552SOL    HW219688   6.151   5.025   5.377
 2553SOL     OW19689   0.633   1.094   6.090
 2553SOL    HW119690   0.655   1.072   5.995
 2553SOL    HW219691   0.710   1.143   6.131
 2554SOL     OW19692   6.399   0.359   6.216
 2554SOL    HW119693   6.492   0.394   6.220
 2554SOL    HW219694   6.397   0.265   6.248
 2555SOL     OW19695   8.300   4.611   0.394
 2555SOL    HW119696   8.395   4.580   0.395
 2555SOL    HW219697   8.255   4.577   0.312
 2556SOL     OW19698   2.188   3.198   0.566
 2556SOL    HW119699   2.215   3.135   0.494
 2556SOL    HW219700   2.224   3.289   0.546
 2557SOL     OW19701   0.094   5.195   5.763
 2557SOL    HW119702   0.149   5.174   5.683
 2557SOL    HW219703   0.005   5.232   5.734
 2558SOL     OW19704   8.231   3.729   5.127
 2558SOL    HW119705   8.144   3.701   5.169
 2558SOL    HW219706   8.268   3.654   5.074
 2559SOL     OW19707   6.476   2.093   0.579
 2559SOL    HW119708   6.414   2.158   0.536
 2559SOL    HW219709   6.490   2.014   0.519
 2560SOL     OW19710   0.668   3.137   5.069
 2560SOL    HW119711   0.698   3.232   5.064
 2560SOL    HW219712   0.596   3.122   5.001
 2561SOL     OW19713   0.459   0.279   0.830
 2561SOL    HW119714   0.508   0.362   0.804
 2561SOL    HW219715   0.373   0.304   0.875
 2562SOL     OW19716   5.896   0.766   5.933
 2562SOL    HW119717   5.960   0.751   5.858
 2562SOL    HW219718   5.814   0.710   5.919
 2563SOL     OW19719   3.626   2.699   0.391
 2563SOL    HW119720   3.596   2.612   0.430
 2563SOL    HW219721   3.559   2.731   0.324
 2564SOL     OW19722   5.674   6.579   5.859
 2564SOL    HW119723   5.749   6.513   5.858
 2564SOL    HW219724   5.591   6.535   5.824
 2565SOL     OW19725   7.280   0.959   5.445
 2565SOL    HW119726   7.296   1.058   5.438
 2565SOL    HW219727   7.198   0.935   5.393
 2566SOL     OW19728   3.427   5.134   1.221
 2566SOL    HW119729   3.501   5.189   1.261
 2566SOL    HW219730   3.401   5.174   1.133
 2567SOL     OW19731   2.642   6.301   0.943
 2567SOL    HW119732   2.718   6.243   0.914
 2567SOL    HW219733   2.597   6.340   0.863
 2568SOL     OW19734   6.976   7.060   0.388
 2568SOL    HW119735   6.969   6.961   0.379
 2568SOL    HW219736   7.043   7.094   0.321
 2569SOL     OW19737   8.321   7.548   0.380
 2569SOL    HW119738   8.280   7.460   0.356
 2569SOL    HW219739   8.421   7.541   0.373
 2570SOL     OW19740   4.899   2.895   1.054
 2570SOL    HW119741   4.848   2.855   1.130
 2570SOL    HW219742   4.909   2.828   0.981
 2571SOL     OW19743   3.803   5.250   6.047
 2571SOL    HW119744   3.707   5.225   6.057
 2571SOL    HW219745   3.845   5.195   5.975
 2572SOL     OW19746   6.882   7.883   1.221
 2572SOL    HW119747   6.941   7.922   1.292
 2572SOL    HW219748   6.814   7.824   1.264
 2573SOL     OW19749   3.809   6.235   6.569
 2573SOL    HW119750   3.768   6.298   6.635
 2573SOL    HW219751   3.892   6.195   6.609
 2574SOL     OW19752   6.428   4.967   6.155
 2574SOL    HW119753   6.493   5.040   6.172
 2574SOL    HW219754   6.476   4.879   6.155
 2575SOL     OW19755   4.127   8.135   1.108
 2575SOL    HW119756   4.096   8.156   1.015
 2575SOL    HW219757   4.096   8.207   1.170
 2576SOL     OW19758   8.577   7.884   6.627
 2576SOL    HW119759   8.604   7.874   6.531
 2576SOL    HW219760   8.579   7.981   6.652
 2577SOL     OW19761   1.724   8.032   0.243
 2577SOL    HW119762   1.734   8.072   0.334
 2577SOL    HW219763   1.699   8.103   0.177
 2578SOL     OW19764   5.548   1.182   1.751
 2578SOL    HW119765   5.642   1.165   1.781
 2578SOL    HW219766   5.548   1.253   1.680
 2579SOL     OW19767   3.475   0.566   0.138
 2579SOL    HW119768   3.505   0.563   0.234
 2579SOL    HW219769   3.555   0.561   0.078
 2580SOL     OW19770   2.136   6.495   1.430
 2580SOL    HW119771   2.114   6.405   1.467
 2580SOL    HW219772   2.055   6.533   1.386
 2581SOL     OW19773   0.937   7.098   1.279
 2581SOL    HW119774   1.011   7.161   1.256
 2581SOL    HW219775   0.864   7.146   1.327
 2582SOL     OW19776   3.496   0.160   0.105
 2582SOL    HW119777   3.443   0.081   0.138
 2582SOL    HW219778   3.523   0.217   0.182
 2583SOL     OW19779   3.647   2.074   0.463
 2583SOL    HW119780   3.589   2.149   0.432
 2583SOL    HW219781   3.590   1.999   0.498
 2584SOL     OW19782   9.466   4.713   0.698
 2584SOL    HW119783   9.525   4.777   0.748
 2584SOL    HW219784   9.447   4.633   0.755
 2585SOL     OW19785   2.117   5.385   0.099
 2585SOL    HW119786   2.158   5.371   0.009
 2585SOL    HW219787   2.029   5.338   0.104
 2586SOL     OW19788   4.669   2.281   0.551
 2586SOL    HW119789   4.583   2.245   0.514
 2586SOL    HW219790   4.680   2.251   0.646
 2587SOL     OW19791   3.944   4.864   6.490
 2587SOL    HW119792   3.892   4.853   6.575
 2587SOL    HW219793   3.893   4.922   6.427
 2588SOL     OW19794   2.200   7.742   6.320
 2588SOL    HW119795   2.291   7.718   6.286
 2588SOL    HW219796   2.132   7.727   6.248
 2589SOL     OW19797   9.236   6.383   0.016
 2589SOL    HW119798   9.234   6.452   0.088
 2589SOL    HW219799   9.143   6.350  -0.000
 2590SOL     OW19800   7.482   3.932   0.241
 2590SOL    HW119801   7.395   3.963   0.203
 2590SOL    HW219802   7.544   4.010   0.250
 2591SOL     OW19803   1.703   6.265   6.042
 2591SOL    HW119804   1.767   6.294   5.971
 2591SOL    HW219805   1.747   6.275   6.132
 2592SOL     OW19806   4.683   1.218   6.394
 2592SOL    HW119807   4.717   1.160   6.319
 2592SOL    HW219808   4.757   1.276   6.428
 2593SOL     OW19809   3.951   4.511   1.399
 2593SOL    HW119810   3.904   4.429   1.432
 2593SOL    HW219811   3.885   4.582   1.378
 2594SOL     OW19812   6.398   2.870   6.065
 2594SOL    HW119813   6.384   2.948   6.004
 2594SOL    HW219814   6.395   2.785   6.012
 2595SOL     OW19815   2.009   3.971   1.673
 2595SOL    HW119816   1.910   3.963   1.661
 2595SOL    HW219817   2.056   3.912   1.608
 2596SOL     OW19818   6.315   4.088   0.300
 2596SOL    HW119819   6.281   3.994   0.302
 2596SOL    HW219820   6.238   4.151   0.288
 2597SOL     OW19821   5.175   0.476   5.562
 2597SOL    HW119822   5.197   0.476   5.659
 2597SOL    HW219823   5.111   0.401   5.542
 2598SOL     OW19824   3.101   6.235   1.386
 2598SOL    HW119825   3.130   6.296   1.459
 2598SOL    HW219826   3.001   6.237   1.378
 2599SOL     OW19827   6.416   8.361   5.391
 2599SOL    HW119828   6.478   8.286   5.369
 2599SOL    HW219829   6.469   8.439   5.424
 2600SOL     OW19830   8.892   1.845   6.119
 2600SOL    HW119831   8.878   1.942   6.134
 2600SOL    HW219832   8.960   1.810   6.183
 2601SOL     OW19833   4.887   3.993   1.572
 2601SOL    HW119834   4.908   3.896   1.559
 2601SOL    HW219835   4.859   4.009   1.666
 2602SOL     OW19836   5.585   2.208   1.509
 2602SOL    HW119837   5.627   2.118   1.515
 2602SOL    HW219838   5.487   2.198   1.490
 2603SOL     OW19839   4.993   0.133   0.770
 2603SOL    HW119840   5.075   0.094   0.810
 2603SOL    HW219841   4.982   0.228   0.801
 2604SOL     OW19842   1.714   4.986   6.102
 2604SOL    HW119843   1.668   5.072   6.125
 2604SOL    HW219844   1.774   4.999   6.023
 2605SOL     OW19845   3.970   6.889   4.947
 2605SOL    HW119846   3.927   6.846   5.026
 2605SOL    HW219847   3.905   6.951   4.903
 2606SOL     OW19848   0.267   1.093   5.936
 2606SOL    HW119849   0.260   1.083   6.036
 2606SOL    HW219850   0.360   1.119   5.912
 2607SOL     OW19851   1.924   7.552   6.223
 2607SOL    HW119852   1.918   7.619   6.149
 2607SOL    HW219853   1.863   7.579   6.298
 2608SOL     OW19854   7.671   3.819   1.964
 2608SOL    HW119855   7.677   3.918   1.965
 2608SOL    HW219856   7.576   3.792   1.944
 2609SOL     OW19857   7.215   7.874   5.040
 2609SOL    HW119858   7.282   7.922   4.983
 2609SOL    HW219859   7.128   7.923   5.039
 2610SOL     OW19860   4.392   4.963   5.997
 2610SOL    HW119861   4.385   5.021   5.916
 2610SOL    HW219862   4.385   5.019   6.079
 2611SOL     OW19863   3.771   2.429   1.314
 2611SOL    HW119864   3.863   2.402   1.344
 2611SOL    HW219865   3.756   2.525   1.340
 2612SOL     OW19866   0.525   4.166   6.706
 2612SOL    HW119867   0.487   4.100   6.771
 2612SOL    HW219868   0.554   4.117   6.623
 2613SOL     OW19869   3.112   4.774   0.276
 2613SOL    HW119870   3.197   4.792   0.327
 2613SOL    HW219871   3.066   4.694   0.316
 2614SOL     OW19872   3.157   1.272   5.955
 2614SOL    HW119873   3.101   1.224   5.888
 2614SOL    HW219874   3.115   1.360   5.977
 2615SOL     OW19875   4.611   5.067   6.647
 2615SOL    HW119876   4.529   5.086   6.594
 2615SOL    HW219877   4.608   4.973   6.681
 2616SOL     OW19878   4.952   5.082   5.689
 2616SOL    HW119879   4.907   5.046   5.607
 2616SOL    HW219880   4.987   5.006   5.744
 2617SOL     OW19881   8.262   0.016   0.358
 2617SOL    HW119882   8.202   0.093   0.381
 2617SOL    HW219883   8.340   0.049   0.305
 2618SOL     OW19884   1.132   3.477   6.488
 2618SOL    HW119885   1.096   3.471   6.581
 2618SOL    HW219886   1.188   3.397   6.468
 2619SOL     OW19887   3.845   6.153   1.465
 2619SOL    HW119888   3.824   6.170   1.369
 2619SOL    HW219889   3.787   6.212   1.522
 2620SOL     OW19890   2.976   2.558   5.489
 2620SOL    HW119891   2.951   2.484   5.427
 2620SOL    HW219892   2.893   2.601   5.525
 2621SOL     OW19893   8.120   0.394   5.962
 2621SOL    HW119894   8.197   0.438   5.917
 2621SOL    HW219895   8.106   0.436   6.052
 2622SOL     OW19896   8.817   4.422   6.090
 2622SOL    HW119897   8.857   4.368   6.016
 2622SOL    HW219898   8.889   4.473   6.137
 2623SOL     OW19899   6.137   0.333   5.645
 2623SOL    HW119900   6.054   0.355   5.594
 2623SOL    HW219901   6.124   0.246   5.693
 2624SOL     OW19902   3.689   4.964   0.271
 2624SOL    HW119903   3.675   5.062   0.262
 2624SOL    HW219904   3.706   4.942   0.367
 2625SOL     OW19905   1.742   8.278   0.056
 2625SOL    HW119906   1.734   8.374   0.082
 2625SOL    HW219907   1.671   8.255  -0.011
 2626SOL     OW19908   3.820   7.306   5.710
 2626SOL    HW119909   3.815   7.353   5.798
 2626SOL    HW219910   3.863   7.217   5.722
 2627SOL     OW19911   8.096   0.710   6.391
 2627SOL    HW119912   8.026   0.705   6.463
 2627SOL    HW219913   8.062   0.768   6.317
 2628SOL     OW19914   0.880   6.017   4.980
 2628SOL    HW119915   0.922   5.970   4.903
 2628SOL    HW219916   0.947   6.026   5.054
 2629SOL     OW19917   3.115   2.825   6.671
 2629SOL    HW119918   3.080   2.884   6.598
 2629SOL    HW219919   3.136   2.734   6.633
 2630SOL     OW19920   8.931   5.531   6.021
 2630SOL    HW119921   9.015   5.477   6.028
 2630SOL    HW219922   8.880   5.504   5.939
 2631SOL     OW19923   3.170   7.282   0.328
 2631SOL    HW119924   3.089   7.228   0.351
 2631SOL    HW219925   3.193   7.268   0.232
 2632SOL     OW19926   6.247   3.012   1.446
 2632SOL    HW119927   6.239   2.979   1.540
 2632SOL    HW219928   6.266   3.111   1.446
 2633SOL     OW19929   8.528   5.131   0.688
 2633SOL    HW119930   8.590   5.113   0.764
 2633SOL    HW219931   8.541   5.062   0.617
 2634SOL     OW19932   7.076   7.463   1.718
 2634SOL    HW119933   7.176   7.463   1.729
 2634SOL    HW219934   7.036   7.523   1.787
 2635SOL     OW19935   9.096   7.802   0.572
 2635SOL    HW119936   9.137   7.769   0.487
 2635SOL    HW219937   9.069   7.725   0.629
 2636SOL     OW19938   4.619   6.270   0.369
 2636SOL    HW119939   4.701   6.215   0.379
 2636SOL    HW219940   4.538   6.211   0.369
 2637SOL     OW19941   0.431   5.839   0.521
 2637SOL    HW119942   0.508   5.776   0.505
 2637SOL    HW219943   0.346   5.787   0.523
 2638SOL     OW19944   1.698   7.033   6.333
 2638SOL    HW119945   1.747   7.120   6.339
 2638SOL    HW219946   1.687   7.007   6.237
 2639SOL     OW19947   9.320   2.784   0.685
 2639SOL    HW119948   9.400   2.827   0.642
 2639SOL    HW219949   9.250   2.853   0.703
 2640SOL     OW19950   4.993   4.966   0.994
 2640SOL    HW119951   4.982   4.867   0.999
 2640SOL    HW219952   5.053   4.997   1.067
 2641SOL     OW19953   3.105   2.026   0.726
 2641SOL    HW119954   3.141   2.043   0.818
 2641SOL    HW219955   3.141   1.939   0.692
 2642SOL     OW19956   0.859   7.830   4.091
 2642SOL    HW119957   0.760   7.821   4.077
 2642SOL    HW219958   0.877   7.905   4.155
 2643SOL     OW19959   3.482   5.508   0.207
 2643SOL    HW119960   3.459   5.449   0.284
 2643SOL    HW219961   3.402   5.563   0.183
 2644SOL     OW19962   1.308   6.013   5.215
 2644SOL    HW119963   1.274   6.001   5.122
 2644SOL    HW219964   1.241   5.979   5.280
 2645SOL     OW19965   7.598   3.415   6.532
 2645SOL    HW119966   7.627   3.338   6.589
 2645SOL    HW219967   7.498   3.422   6.536
 2646SOL     OW19968   3.539   5.215   6.084
 2646SOL    HW119969   3.467   5.226   6.015
 2646SOL    HW219970   3.500   5.174   6.167
 2647SOL     OW19971   8.249   3.599   6.228
 2647SOL    HW119972   8.227   3.598   6.131
 2647SOL    HW219973   8.332   3.653   6.243
 2648SOL     OW19974   6.417   4.077   6.414
 2648SOL    HW119975   6.504   4.098   6.370
 2648SOL    HW219976   6.357   4.157   6.411
 2649SOL     OW19977   0.315   7.498   5.067
 2649SOL    HW119978   0.312   7.516   4.968
 2649SOL    HW219979   0.226   7.465   5.097
 2650SOL     OW19980   2.329   5.900   0.420
 2650SOL    HW119981   2.278   5.866   0.499
 2650SOL    HW219982   2.266   5.919   0.345
 2651SOL     OW19983   8.427   6.983   5.379
 2651SOL    HW119984   8.451   6.999   5.283
 2651SOL    HW219985   8.327   6.978   5.387
 2652SOL     OW19986   2.858   1.419   1.703
 2652SOL    HW119987   2.865   1.372   1.615
 2652SOL    HW219988   2.840   1.516   1.688
 2653SOL     OW19989   1.056   7.621   1.619
 2653SOL    HW119990   1.068   7.706   1.670
 2653SOL    HW219991   0.967   7.620   1.574
 2654SOL     OW19992   1.975   5.798   5.567
 2654SOL    HW119993   2.034   5.835   5.638
 2654SOL    HW219994   1.902   5.744   5.609
 2655SOL     OW19995   0.582   5.090   0.031
 2655SOL    HW119996   0.505   5.143   0.068
 2655SOL    HW219997   0.661   5.150   0.019
 2656SOL     OW19998   7.068   5.177   6.154
 2656SOL    HW119999   7.142   5.130   6.104
 2656SOL    HW220000   7.105   5.259   6.198
 2657SOL     OW20001   1.099   0.430   4.523
 2657SOL    HW120002   1.035   0.399   4.453
 2657SOL    HW220003   1.126   0.524   4.503
 2658SOL     OW20004   0.304   1.971   6.103
 2658SOL    HW120005   0.213   1.972   6.061
 2658SOL    HW220006   0.374   1.970   6.031
 2659SOL     OW20007   4.962   3.348   1.120
 2659SOL    HW120008   5.006   3.438   1.129
 2659SOL    HW220009   4.992   3.289   1.194
 2660SOL     OW20010   9.145   0.963   5.922
 2660SOL    HW120011   9.238   0.931   5.941
 2660SOL    HW220012   9.125   1.044   5.976
 2661SOL     OW20013   8.355   1.269   6.180
 2661SOL    HW120014   8.410   1.188   6.164
 2661SOL    HW220015   8.287   1.250   6.251
 2662SOL     OW20016   1.508   7.941   5.623
 2662SOL    HW120017   1.437   7.880   5.587
 2662SOL    HW220018   1.594   7.924   5.575
 2663SOL     OW20019   0.541   2.074   0.563
 2663SOL    HW120020   0.544   2.046   0.659
 2663SOL    HW220021   0.510   1.998   0.507
 2664SOL     OW20022   9.223   1.869   5.419
 2664SOL    HW120023   9.303   1.915   5.381
 2664SOL    HW220024   9.242   1.772   5.431
 2665SOL     OW20025   8.386   0.499   5.243
 2665SOL    HW120026   8.397   0.434   5.167
 2665SOL    HW220027   8.475   0.536   5.268
 2666SOL     OW20028   5.365   7.402   1.051
 2666SOL    HW120029   5.384   7.500   1.050
 2666SOL    HW220030   5.279   7.385   1.099
 2667SOL     OW20031   6.727   4.097   0.745
 2667SOL    HW120032   6.752   4.174   0.804
 2667SOL    HW220033   6.810   4.055   0.708
 2668SOL     OW20034   1.840   3.007   6.165
 2668SOL    HW120035   1.793   3.000   6.253
 2668SOL    HW220036   1.799   2.942   6.100
 2669SOL     OW20037   3.419   1.019   6.520
 2669SOL    HW120038   3.465   1.106   6.503
 2669SOL    HW220039   3.323   1.026   6.492
 2670SOL     OW20040   2.491   8.264   0.662
 2670SOL    HW120041   2.550   8.268   0.742
 2670SOL    HW220042   2.530   8.201   0.594
 2671SOL     OW20043   0.409   7.944   0.733
 2671SOL    HW120044   0.404   8.044   0.740
 2671SOL    HW220045   0.492   7.919   0.683
 2672SOL     OW20046   8.806   5.681   5.178
 2672SOL    HW120047   8.748   5.605   5.149
 2672SOL    HW220048   8.877   5.697   5.110
 2673SOL     OW20049   2.974   3.705   5.936
 2673SOL    HW120050   3.020   3.790   5.961
 2673SOL    HW220051   2.963   3.701   5.837
 2674SOL     OW20052   1.508   1.323   0.340
 2674SOL    HW120053   1.472   1.388   0.273
 2674SOL    HW220054   1.487   1.230   0.310
 2675SOL     OW20055   4.866   2.263   0.337
 2675SOL    HW120056   4.901   2.353   0.313
 2675SOL    HW220057   4.798   2.272   0.409
 2676SOL     OW20058   3.146   7.855   0.553
 2676SOL    HW120059   3.188   7.856   0.462
 2676SOL    HW220060   3.218   7.845   0.622
 2677SOL     OW20061   6.098   6.134   4.581
 2677SOL    HW120062   6.187   6.158   4.621
 2677SOL    HW220063   6.113   6.076   4.500
 2678SOL     OW20064   0.281   7.030   4.023
 2678SOL    HW120065   0.203   6.978   3.989
 2678SOL    HW220066   0.340   7.056   3.946
 2679SOL     OW20067   1.516   1.155   6.327
 2679SOL    HW120068   1.562   1.162   6.415
 2679SOL    HW220069   1.507   1.246   6.286
 2680SOL     OW20070   2.805   3.994   5.781
 2680SOL    HW120071   2.774   3.948   5.698
 2680SOL    HW220072   2.836   3.927   5.848
 2681SOL     OW20073   1.524   6.693   4.329
 2681SOL    HW120074   1.427   6.672   4.347
 2681SOL    HW220075   1.530   6.758   4.253
 2682SOL     OW20076   1.184   5.444   0.852
 2682SOL    HW120077   1.267   5.390   0.837
 2682SOL    HW220078   1.177   5.466   0.949
 2683SOL     OW20079   3.846   5.897   0.332
 2683SOL    HW120080   3.829   5.919   0.428
 2683SOL    HW220081   3.795   5.814   0.308
 2684SOL     OW20082   3.568   2.254   6.523
 2684SOL    HW120083   3.613   2.323   6.468
 2684SOL    HW220084   3.625   2.172   6.527
 2685SOL     OW20085   5.506   7.850   6.491
 2685SOL    HW120086   5.487   7.943   6.462
 2685SOL    HW220087   5.583   7.850   6.556
 2686SOL     OW20088   0.967   7.167   0.754
 2686SOL    HW120089   0.911   7.095   0.714
 2686SOL    HW220090   0.977   7.151   0.852
 2687SOL     OW20091   6.010   6.791   5.634
 2687SOL    HW120092   6.082   6.742   5.585
 2687SOL    HW220093   5.943   6.826   5.568
 2688SOL     OW20094   1.950   4.502   4.910
 2688SOL    HW120095   1.886   4.550   4.849
 2688SOL    HW220096   2.002   4.435   4.857
 2689SOL     OW20097   8.064   8.179   6.457
 2689SOL    HW120098   8.078   8.278   6.457
 2689SOL    HW220099   7.984   8.157   6.512
 2690SOL     OW20100   8.620   1.776   5.883
 2690SOL    HW120101   8.542   1.802   5.825
 2690SOL    HW220102   8.661   1.692   5.848
 2691SOL     OW20103   4.219   5.572   6.609
 2691SOL    HW120104   4.315   5.563   6.586
 2691SOL    HW220105   4.192   5.668   6.602
 2692SOL     OW20106   6.885   6.603   6.298
 2692SOL    HW120107   6.922   6.511   6.306
 2692SOL    HW220108   6.940   6.667   6.352
 2693SOL     OW20109   0.989   7.155   0.416
 2693SOL    HW120110   0.963   7.227   0.480
 2693SOL    HW220111   1.066   7.104   0.453
 2694SOL     OW20112   0.866   5.501   0.357
 2694SOL    HW120113   0.798   5.432   0.380
 2694SOL    HW220114   0.948   5.456   0.320
 2695SOL     OW20115   2.824   1.875   1.934
 2695SOL    HW120116   2.728   1.847   1.929
 2695SOL    HW220117   2.852   1.910   1.845
 2696SOL     OW20118   9.192   0.097   0.543
 2696SOL    HW120119   9.259   0.113   0.470
 2696SOL    HW220120   9.101   0.124   0.511
 2697SOL     OW20121   5.692   6.650   5.569
 2697SOL    HW120122   5.736   6.617   5.653
 2697SOL    HW220123   5.613   6.592   5.549
 2698SOL     OW20124   2.546   0.300   4.807
 2698SOL    HW120125   2.604   0.268   4.732
 2698SOL    HW220126   2.559   0.398   4.820
 2699SOL     OW20127   3.616   2.225   0.935
 2699SOL    HW120128   3.646   2.133   0.910
 2699SOL    HW220129   3.529   2.246   0.889
 2700SOL     OW20130   0.793   3.935   5.647
 2700SOL    HW120131   0.818   3.871   5.574
 2700SOL    HW220132   0.865   4.004   5.655
 2701SOL     OW20133   8.098   8.299   0.395
 2701SOL    HW120134   8.018   8.315   0.338
 2701SOL    HW220135   8.151   8.383   0.404
 2702SOL     OW20136   8.328   3.925   5.697
 2702SOL    HW120137   8.395   3.942   5.624
 2702SOL    HW220138   8.242   3.894   5.656
 2703SOL     OW20139   2.567   7.562   6.645
 2703SOL    HW120140   2.576   7.501   6.723
 2703SOL    HW220141   2.657   7.592   6.615
 2704SOL     OW20142   2.695   4.075   0.922
 2704SOL    HW120143   2.632   4.045   0.850
 2704SOL    HW220144   2.683   4.017   1.003
 2705SOL     OW20145   5.525   7.744   1.178
 2705SOL    HW120146   5.620   7.771   1.191
 2705SOL    HW220147   5.484   7.722   1.267
 2706SOL     OW20148   2.890   0.790   1.974
 2706SOL    HW120149   2.954   0.786   1.897
 2706SOL    HW220150   2.935   0.754   2.056
 2707SOL     OW20151   9.289   6.981   5.920
 2707SOL    HW120152   9.201   7.020   5.896
 2707SOL    HW220153   9.358   7.053   5.926
 2708SOL     OW20154   4.181   5.996   5.849
 2708SOL    HW120155   4.270   6.040   5.848
 2708SOL    HW220156   4.109   6.066   5.843
 2709SOL     OW20157   3.577   6.721   6.576
 2709SOL    HW120158   3.513   6.790   6.611
 2709SOL    HW220159   3.556   6.632   6.617
 2710SOL     OW20160   4.561   0.919   0.425
 2710SOL    HW120161   4.495   0.993   0.435
 2710SOL    HW220162   4.531   0.857   0.352
 2711SOL     OW20163   7.109   2.406   0.336
 2711SOL    HW120164   7.193   2.447   0.372
 2711SOL    HW220165   7.130   2.318   0.294
 2712SOL     OW20166   5.601   8.216   5.881
 2712SOL    HW120167   5.668   8.230   5.954
 2712SOL    HW220168   5.629   8.139   5.823
 2713SOL     OW20169   4.073   1.510   6.122
 2713SOL    HW120170   4.141   1.476   6.187
 2713SOL    HW220171   4.116   1.579   6.064
 2714SOL     OW20172   2.540   1.579   0.149
 2714SOL    HW120173   2.505   1.551   0.238
 2714SOL    HW220174   2.631   1.540   0.135
 2715SOL     OW20175   4.147   4.462   5.633
 2715SOL    HW120176   4.055   4.425   5.625
 2715SOL    HW220177   4.160   4.532   5.563
 2716SOL     OW20178   9.280   3.214   6.519
 2716SOL    HW120179   9.314   3.307   6.507
 2716SOL    HW220180   9.342   3.162   6.578
 2717SOL     OW20181   5.337   3.755   0.729
 2717SOL    HW120182   5.240   3.749   0.753
 2717SOL    HW220183   5.372   3.845   0.756
 2718SOL     OW20184   0.030   1.555   5.434
 2718SOL    HW120185   0.083   1.600   5.362
 2718SOL    HW220186  -0.067   1.581   5.426
 2719SOL     OW20187   1.163   5.773   4.256
 2719SOL    HW120188   1.106   5.830   4.197
 2719SOL    HW220189   1.140   5.677   4.242
 2720SOL     OW20190   3.156   7.434   6.027
 2720SOL    HW120191   3.085   7.494   6.064
 2720SOL    HW220192   3.139   7.340   6.058
 2721SOL     OW20193   6.768   6.705   5.821
 2721SOL    HW120194   6.689   6.643   5.823
 2721SOL    HW220195   6.852   6.651   5.811
 2722SOL     OW20196   5.885   7.104   0.890
 2722SOL    HW120197   5.982   7.127   0.896
 2722SOL    HW220198   5.868   7.019   0.938
 2723SOL     OW20199   8.930   8.003   6.650
 2723SOL    HW120200   9.022   7.966   6.668
 2723SOL    HW220201   8.916   8.010   6.552
 2724SOL     OW20202   2.721   2.710   5.492
 2724SOL    HW120203   2.739   2.800   5.452
 2724SOL    HW220204   2.631   2.679   5.464
 2725SOL     OW20205   0.340   7.511   4.179
 2725SOL    HW120206   0.398   7.541   4.103
 2725SOL    HW220207   0.312   7.416   4.164
 2726SOL     OW20208   6.477   3.303   5.816
 2726SOL    HW120209   6.472   3.315   5.717
 2726SOL    HW220210   6.521   3.216   5.837
 2727SOL     OW20211   5.130   0.589   6.608
 2727SOL    HW120212   5.153   0.667   6.667
 2727SOL    HW220213   5.035   0.596   6.579
 2728SOL     OW20214   1.516   2.967   0.847
 2728SOL    HW120215   1.419   2.946   0.861
 2728SOL    HW220216   1.547   3.032   0.916
 2729SOL     OW20217   5.729   2.681   0.126
 2729SOL    HW120218   5.712   2.679   0.224
 2729SOL    HW220219   5.820   2.718   0.108
 2730SOL     OW20220   9.274   1.134   6.605
 2730SOL    HW120221   9.368   1.136   6.570
 2730SOL    HW220222   9.221   1.066   6.554
 2731SOL     OW20223   0.232   5.471   6.679
 2731SOL    HW120224   0.316   5.485   6.626
 2731SOL    HW220225   0.254   5.467   6.776
 2732SOL     OW20226   5.587   0.816   1.686
 2732SOL    HW120227   5.488   0.809   1.701
 2732SOL    HW220228   5.605   0.829   1.588
 2733SOL     OW20229   5.608   3.902   6.603
 2733SOL    HW120230   5.546   3.824   6.606
 2733SOL    HW220231   5.694   3.878   6.646
 2734SOL     OW20232   2.653   1.199   0.776
 2734SOL    HW120233   2.637   1.161   0.867
 2734SOL    HW220234   2.711   1.136   0.723
 2735SOL     OW20235   4.012   0.787   0.275
 2735SOL    HW120236   4.001   0.689   0.260
 2735SOL    HW220237   3.922   0.829   0.288
 2736SOL     OW20238   0.772   0.480   1.072
 2736SOL    HW120239   0.784   0.439   0.982
 2736SOL    HW220240   0.696   0.546   1.070
 2737SOL     OW20241   9.032   3.121   6.600
 2737SOL    HW120242   8.973   3.161   6.529
 2737SOL    HW220243   9.125   3.157   6.589
 2738SOL     OW20244   5.974   7.859   6.538
 2738SOL    HW120245   6.011   7.770   6.568
 2738SOL    HW220246   6.011   7.881   6.448
 2739SOL     OW20247   3.557   5.160   0.444
 2739SOL    HW120248   3.625   5.231   0.460
 2739SOL    HW220249   3.478   5.198   0.396
 2740SOL     OW20250   5.068   7.878   2.054
 2740SOL    HW120251   5.108   7.819   1.984
 2740SOL    HW220252   5.053   7.824   2.137
 2741SOL     OW20253   0.223   5.261   0.731
 2741SOL    HW120254   0.149   5.195   0.742
 2741SOL    HW220255   0.187   5.353   0.743
 2742SOL     OW20256   0.468   8.366   1.590
 2742SOL    HW120257   0.430   8.301   1.656
 2742SOL    HW220258   0.490   8.451   1.637
 2743SOL     OW20259   8.207   1.865   0.719
 2743SOL    HW120260   8.274   1.800   0.682
 2743SOL    HW220261   8.161   1.825   0.798
 2744SOL     OW20262   7.208   5.348   1.372
 2744SOL    HW120263   7.138   5.284   1.339
 2744SOL    HW220264   7.268   5.301   1.437
 2745SOL     OW20265   1.618   6.820   4.702
 2745SOL    HW120266   1.638   6.728   4.670
 2745SOL    HW220267   1.582   6.874   4.626
 2746SOL     OW20268   5.034   1.076   6.007
 2746SOL    HW120269   4.998   1.158   5.963
 2746SOL    HW220270   5.059   1.009   5.937
 2747SOL     OW20271   3.498   2.785   0.144
 2747SOL    HW120272   3.533   2.864   0.093
 2747SOL    HW220273   3.410   2.809   0.186
 2748SOL     OW20274   1.549   7.429   6.733
 2748SOL    HW120275   1.525   7.432   6.636
 2748SOL    HW220276   1.640   7.389   6.744
 2749SOL     OW20277   8.557   2.857   1.594
 2749SOL    HW120278   8.587   2.763   1.611
 2749SOL    HW220279   8.572   2.912   1.676
 2750SOL     OW20280   6.952   8.093   5.593
 2750SOL    HW120281   7.031   8.042   5.560
 2750SOL    HW220282   6.868   8.042   5.574
 2751SOL     OW20283   5.166   0.769   1.352
 2751SOL    HW120284   5.174   0.669   1.347
 2751SOL    HW220285   5.255   0.808   1.376
 2752SOL     OW20286   0.542   6.138   4.689
 2752SOL    HW120287   0.509   6.048   4.659
 2752SOL    HW220288   0.634   6.129   4.727
 2753SOL     OW20289   2.462   5.144   0.587
 2753SOL    HW120290   2.416   5.162   0.501
 2753SOL    HW220291   2.408   5.079   0.641
 2754SOL     OW20292   5.641   1.815   1.730
 2754SOL    HW120293   5.552   1.840   1.691
 2754SOL    HW220294   5.628   1.778   1.822
 2755SOL     OW20295   8.873   3.259   6.425
 2755SOL    HW120296   8.895   3.355   6.407
 2755SOL    HW220297   8.774   3.249   6.435
 2756SOL     OW20298   0.726   5.466   6.391
 2756SOL    HW120299   0.717   5.398   6.317
 2756SOL    HW220300   0.796   5.436   6.455
 2757SOL     OW20301   8.595   7.572   0.327
 2757SOL    HW120302   8.666   7.563   0.398
 2757SOL    HW220303   8.608   7.500   0.259
 2758SOL     OW20304   5.963   4.731   0.770
 2758SOL    HW120305   6.059   4.754   0.755
 2758SOL    HW220306   5.945   4.727   0.868
 2759SOL     OW20307   6.843   4.513   1.275
 2759SOL    HW120308   6.881   4.424   1.300
 2759SOL    HW220309   6.881   4.583   1.336
 2760SOL     OW20310   4.710   6.702   1.210
 2760SOL    HW120311   4.738   6.656   1.125
 2760SOL    HW220312   4.756   6.659   1.288
 2761SOL     OW20313   5.568   6.226   6.470
 2761SOL    HW120314   5.502   6.285   6.516
 2761SOL    HW220315   5.650   6.218   6.527
 2762SOL     OW20316   8.178   4.686   5.350
 2762SOL    HW120317   8.101   4.633   5.315
 2762SOL    HW220318   8.226   4.730   5.274
 2763SOL     OW20319   5.118   7.489   0.801
 2763SOL    HW120320   5.050   7.517   0.868
 2763SOL    HW220321   5.150   7.570   0.751
 2764SOL     OW20322   8.934   0.624   6.653
 2764SOL    HW120323   8.967   0.596   6.563
 2764SOL    HW220324   9.001   0.597   6.723
 2765SOL     OW20325   3.430   4.340   0.919
 2765SOL    HW120326   3.420   4.349   0.820
 2765SOL    HW220327   3.452   4.245   0.942
 2766SOL     OW20328   7.051   0.026   0.497
 2766SOL    HW120329   6.965  -0.017   0.525
 2766SOL    HW220330   7.101   0.057   0.578
 2767SOL     OW20331   0.772   6.192   5.264
 2767SOL    HW120332   0.845   6.125   5.276
 2767SOL    HW220333   0.684   6.146   5.263
 2768SOL     OW20334   9.253   1.320   5.352
 2768SOL    HW120335   9.300   1.268   5.424
 2768SOL    HW220336   9.291   1.294   5.263
 2769SOL     OW20337   4.888   5.815   6.091
 2769SOL    HW120338   4.824   5.781   6.161
 2769SOL    HW220339   4.850   5.799   6.000
 2770SOL     OW20340   0.644   1.063   0.547
 2770SOL    HW120341   0.617   1.135   0.610
 2770SOL    HW220342   0.714   1.097   0.484
 2771SOL     OW20343   4.077   4.764   0.079
 2771SOL    HW120344   3.982   4.786   0.101
 2771SOL    HW220345   4.081   4.679   0.027
 2772SOL     OW20346   8.811   0.036   0.556
 2772SOL    HW120347   8.823   0.098   0.478
 2772SOL    HW220348   8.717   0.000   0.556
 2773SOL     OW20349   0.227   4.291   0.279
 2773SOL    HW120350   0.157   4.295   0.350
 2773SOL    HW220351   0.244   4.382   0.244
 2774SOL     OW20352   2.163   5.465   4.998
 2774SOL    HW120353   2.224   5.536   4.963
 2774SOL    HW220354   2.084   5.506   5.042
 2775SOL     OW20355   0.101   2.404   6.691
 2775SOL    HW120356   0.140   2.408   6.783
 2775SOL    HW220357   0.168   2.363   6.628
 2776SOL     OW20358   0.813   6.092   5.566
 2776SOL    HW120359   0.716   6.071   5.581
 2776SOL    HW220360   0.842   6.163   5.630
 2777SOL     OW20361   2.811   4.358   1.216
 2777SOL    HW120362   2.785   4.430   1.152
 2777SOL    HW220363   2.757   4.367   1.300
 2778SOL     OW20364   7.030   0.160   6.718
 2778SOL    HW120365   6.973   0.088   6.679
 2778SOL    HW220366   7.095   0.119   6.782
 2779SOL     OW20367   4.813   8.227   6.661
 2779SOL    HW120368   4.900   8.216   6.708
 2779SOL    HW220369   4.784   8.323   6.667
 2780SOL     OW20370   7.872   8.425   0.260
 2780SOL    HW120371   7.908   8.518   0.250
 2780SOL    HW220372   7.773   8.430   0.277
 2781SOL     OW20373   1.594   3.060   6.447
 2781SOL    HW120374   1.537   3.055   6.365
 2781SOL    HW220375   1.624   3.154   6.461
 2782SOL     OW20376   7.833   0.511   5.627
 2782SOL    HW120377   7.794   0.561   5.550
 2782SOL    HW220378   7.886   0.433   5.593
 2783SOL     OW20379   0.655   5.651   0.470
 2783SOL    HW120380   0.722   5.590   0.429
 2783SOL    HW220381   0.681   5.670   0.565
 2784SOL     OW20382   0.024   3.935   6.335
 2784SOL    HW120383   0.063   3.983   6.414
 2784SOL    HW220384  -0.065   3.973   6.312
 2785SOL     OW20385   7.142   1.306   5.413
 2785SOL    HW120386   7.206   1.336   5.342
 2785SOL    HW220387   7.086   1.231   5.377
 2786SOL     OW20388   5.851   5.225   5.085
 2786SOL    HW120389   5.751   5.214   5.092
 2786SOL    HW220390   5.871   5.303   5.025
 2787SOL     OW20391   0.394   3.916   0.371
 2787SOL    HW120392   0.327   3.844   0.391
 2787SOL    HW220393   0.480   3.895   0.417
 2788SOL     OW20394   3.671   1.096   6.408
 2788SOL    HW120395   3.757   1.136   6.436
 2788SOL    HW220396   3.603   1.168   6.394
 2789SOL     OW20397   5.048   6.343   0.915
 2789SOL    HW120398   5.083   6.357   1.008
 2789SOL    HW220399   4.971   6.279   0.918
 2790SOL     OW20400   9.335   2.714   1.693
 2790SOL    HW120401   9.262   2.781   1.710
 2790SOL    HW220402   9.330   2.643   1.763
 2791SOL     OW20403   1.106   6.550   5.974
 2791SOL    HW120404   1.040   6.490   5.930
 2791SOL    HW220405   1.057   6.618   6.029
 2792SOL     OW20406   4.385   6.107   0.424
 2792SOL    HW120407   4.418   6.013   0.436
 2792SOL    HW220408   4.286   6.109   0.439
 2793SOL     OW20409   4.971   0.515   0.202
 2793SOL    HW120410   4.875   0.497   0.227
 2793SOL    HW220411   4.998   0.454   0.128
 2794SOL     OW20412   0.539   6.636   1.179
 2794SOL    HW120413   0.539   6.736   1.166
 2794SOL    HW220414   0.554   6.616   1.276
 2795SOL     OW20415   2.641   3.942   1.147
 2795SOL    HW120416   2.631   3.851   1.187
 2795SOL    HW220417   2.667   4.008   1.218
 2796SOL     OW20418   1.528   5.491   0.551
 2796SOL    HW120419   1.534   5.586   0.582
 2796SOL    HW220420   1.611   5.468   0.500
 2797SOL     OW20421   0.050   6.590   0.419
 2797SOL    HW120422  -0.037   6.594   0.468
 2797SOL    HW220423   0.038   6.625   0.326
 2798SOL     OW20424   7.976   4.181   6.669
 2798SOL    HW120425   8.065   4.143   6.646
 2798SOL    HW220426   7.904   4.116   6.643
 2799SOL     OW20427   3.086   3.918   0.345
 2799SOL    HW120428   3.073   3.996   0.406
 2799SOL    HW220429   3.012   3.915   0.278
 2800SOL     OW20430   6.062   6.781   0.324
 2800SOL    HW120431   6.091   6.823   0.409
 2800SOL    HW220432   6.137   6.780   0.259
 2801SOL     OW20433   1.758   2.889   6.569
 2801SOL    HW120434   1.856   2.898   6.587
 2801SOL    HW220435   1.726   2.971   6.520
 2802SOL     OW20436   6.712   5.502   5.284
 2802SOL    HW120437   6.637   5.552   5.326
 2802SOL    HW220438   6.797   5.521   5.334
 2803SOL     OW20439   8.276   6.624   6.529
 2803SOL    HW120440   8.199   6.669   6.484
 2803SOL    HW220441   8.274   6.526   6.510
 2804SOL     OW20442   4.123   6.827   1.625
 2804SOL    HW120443   4.069   6.909   1.646
 2804SOL    HW220444   4.098   6.793   1.535
 2805SOL     OW20445   9.297   7.627   5.679
 2805SOL    HW120446   9.236   7.704   5.658
 2805SOL    HW220447   9.314   7.625   5.778
 2806SOL     OW20448   5.473   4.661   6.543
 2806SOL    HW120449   5.402   4.732   6.539
 2806SOL    HW220450   5.434   4.573   6.518
 2807SOL     OW20451   0.291   8.280   0.150
 2807SOL    HW120452   0.365   8.241   0.206
 2807SOL    HW220453   0.298   8.380   0.152
 2808SOL     OW20454   6.214   5.084   6.317
 2808SOL    HW120455   6.300   5.035   6.300
 2808SOL    HW220456   6.181   5.124   6.231
 2809SOL     OW20457   6.880   0.290   6.374
 2809SOL    HW120458   6.843   0.346   6.299
 2809SOL    HW220459   6.865   0.336   6.461
 2810SOL     OW20460   7.565   3.193   0.746
 2810SOL    HW120461   7.584   3.251   0.825
 2810SOL    HW220462   7.614   3.107   0.755
 2811SOL     OW20463   0.014   1.086   5.827
 2811SOL    HW120464  -0.015   1.181   5.839
 2811SOL    HW220465   0.110   1.076   5.853
 2812SOL     OW20466   9.275   5.156   5.988
 2812SOL    HW120467   9.187   5.117   6.017
 2812SOL    HW220468   9.349   5.111   6.036
 2813SOL     OW20469   9.299   1.447   1.227
 2813SOL    HW120470   9.207   1.486   1.231
 2813SOL    HW220471   9.342   1.454   1.317
 2814SOL     OW20472   4.909   2.496   0.589
 2814SOL    HW120473   4.848   2.418   0.604
 2814SOL    HW220474   4.855   2.576   0.562
 2815SOL     OW20475   9.007   2.649   5.833
 2815SOL    HW120476   8.971   2.715   5.768
 2815SOL    HW220477   9.037   2.567   5.785
 2816SOL     OW20478   1.328   5.819   6.147
 2816SOL    HW120479   1.281   5.771   6.072
 2816SOL    HW220480   1.427   5.809   6.135
 2817SOL     OW20481   2.677   1.903   0.933
 2817SOL    HW120482   2.708   1.966   0.862
 2817SOL    HW220483   2.593   1.858   0.903
 2818SOL     OW20484   6.813   0.386   6.638
 2818SOL    HW120485   6.888   0.349   6.693
 2818SOL    HW220486   6.740   0.318   6.630
 2819SOL     OW20487   3.117   0.429   5.679
 2819SOL    HW120488   3.097   0.523   5.705
 2819SOL    HW220489   3.174   0.386   5.749
 2820SOL     OW20490   7.590   6.529   4.862
 2820SOL    HW120491   7.622   6.607   4.808
 2820SOL    HW220492   7.662   6.461   4.870
 2821SOL     OW20493   4.399   6.763   5.514
 2821SOL    HW120494   4.328   6.694   5.528
 2821SOL    HW220495   4.369   6.827   5.443
 2822SOL     OW20496   4.908   2.642   6.259
 2822SOL    HW120497   4.892   2.696   6.342
 2822SOL    HW220498   4.884   2.547   6.276
 2823SOL     OW20499   7.440   5.745   5.800
 2823SOL    HW120500   7.450   5.646   5.814
 2823SOL    HW220501   7.388   5.784   5.876
 2824SOL     OW20502   7.248   0.938   5.771
 2824SOL    HW120503   7.333   0.965   5.726
 2824SOL    HW220504   7.172   0.951   5.707
 2825SOL     OW20505   1.676   3.756   5.226
 2825SOL    HW120506   1.696   3.799   5.138
 2825SOL    HW220507   1.750   3.692   5.250
 2826SOL     OW20508   5.470   3.680   6.561
 2826SOL    HW120509   5.464   3.597   6.506
 2826SOL    HW220510   5.445   3.660   6.656
 2827SOL     OW20511   9.051   1.755   6.326
 2827SOL    HW120512   9.135   1.782   6.373
 2827SOL    HW220513   9.038   1.656   6.334
 2828SOL     OW20514   0.129   4.762   5.518
 2828SOL    HW120515   0.189   4.714   5.454
 2828SOL    HW220516   0.054   4.805   5.467
 2829SOL     OW20517   4.419   6.597   6.532
 2829SOL    HW120518   4.462   6.510   6.556
 2829SOL    HW220519   4.464   6.635   6.451
 2830SOL     OW20520   6.371   2.636   5.327
 2830SOL    HW120521   6.337   2.709   5.386
 2830SOL    HW220522   6.457   2.664   5.285
 2831SOL     OW20523   2.002   3.067   5.883
 2831SOL    HW120524   1.942   3.135   5.841
 2831SOL    HW220525   2.035   3.101   5.971
 2832SOL     OW20526   2.349   0.844   0.794
 2832SOL    HW120527   2.315   0.907   0.724
 2832SOL    HW220528   2.366   0.895   0.879
 2833SOL     OW20529   8.080   3.659   1.413
 2833SOL    HW120530   8.055   3.708   1.496
 2833SOL    HW220531   8.152   3.593   1.433
 2834SOL     OW20532   4.961   7.774   0.028
 2834SOL    HW120533   5.006   7.704  -0.028
 2834SOL    HW220534   4.925   7.846  -0.031
 2835SOL     OW20535   0.764   8.414   1.539
 2835SOL    HW120536   0.796   8.425   1.634
 2835SOL    HW220537   0.680   8.360   1.539
 2836SOL     OW20538   1.318   5.138   0.138
 2836SOL    HW120539   1.241   5.129   0.076
 2836SOL    HW220540   1.317   5.229   0.180
 2837SOL     OW20541   4.091   1.506   5.507
 2837SOL    HW120542   4.159   1.572   5.541
 2837SOL    HW220543   4.071   1.527   5.411
 2838SOL     OW20544   8.436   6.273   1.100
 2838SOL    HW120545   8.515   6.216   1.079
 2838SOL    HW220546   8.449   6.316   1.189
 2839SOL     OW20547   5.442   1.329   6.238
 2839SOL    HW120548   5.490   1.243   6.220
 2839SOL    HW220549   5.346   1.309   6.258
 2840SOL     OW20550   1.729   1.648   6.581
 2840SOL    HW120551   1.648   1.694   6.544
 2840SOL    HW220552   1.764   1.699   6.660
 2841SOL     OW20553   3.430   8.041   1.071
 2841SOL    HW120554   3.341   8.052   1.026
 2841SOL    HW220555   3.416   8.033   1.170
 2842SOL     OW20556   4.908   0.778   6.398
 2842SOL    HW120557   4.887   0.709   6.468
 2842SOL    HW220558   4.923   0.733   6.310
 2843SOL     OW20559   0.928   8.412   1.305
 2843SOL    HW120560   1.021   8.446   1.323
 2843SOL    HW220561   0.865   8.447   1.374
 2844SOL     OW20562   2.812   2.721   6.700
 2844SOL    HW120563   2.769   2.647   6.752
 2844SOL    HW220564   2.907   2.732   6.730
 2845SOL     OW20565   5.477   6.903   1.312
 2845SOL    HW120566   5.565   6.858   1.328
 2845SOL    HW220567   5.411   6.837   1.278
 2846SOL     OW20568   3.976   3.661   1.031
 2846SOL    HW120569   3.910   3.679   0.958
 2846SOL    HW220570   4.056   3.719   1.018
 2847SOL     OW20571   2.109   7.065   6.351
 2847SOL    HW120572   2.076   6.973   6.329
 2847SOL    HW220573   2.085   7.087   6.446
 2848SOL     OW20574   0.750   2.685   0.981
 2848SOL    HW120575   0.798   2.773   0.984
 2848SOL    HW220576   0.653   2.700   0.999
 2849SOL     OW20577   1.391   6.002   5.639
 2849SOL    HW120578   1.341   6.038   5.717
 2849SOL    HW220579   1.438   5.917   5.666
 2850SOL     OW20580   6.493   6.895   0.820
 2850SOL    HW120581   6.469   6.990   0.839
 2850SOL    HW220582   6.451   6.866   0.734
 2851SOL     OW20583   1.941   5.722   0.899
 2851SOL    HW120584   1.900   5.789   0.837
 2851SOL    HW220585   1.908   5.631   0.876
 2852SOL     OW20586   4.775   4.765   1.086
 2852SOL    HW120587   4.865   4.723   1.092
 2852SOL    HW220588   4.737   4.775   1.178
 2853SOL     OW20589   3.761   3.048   0.505
 2853SOL    HW120590   3.810   3.131   0.528
 2853SOL    HW220591   3.826   2.974   0.488
 2854SOL     OW20592   9.430   7.678   0.770
 2854SOL    HW120593   9.492   7.692   0.847
 2854SOL    HW220594   9.386   7.589   0.779
 2855SOL     OW20595   1.742   7.247   4.956
 2855SOL    HW120596   1.751   7.336   4.911
 2855SOL    HW220597   1.787   7.177   4.900
 2856SOL     OW20598   6.224   3.246   0.640
 2856SOL    HW120599   6.180   3.290   0.718
 2856SOL    HW220600   6.314   3.213   0.666
 2857SOL     OW20601   3.364   8.310   0.349
 2857SOL    HW120602   3.391   8.330   0.254
 2857SOL    HW220603   3.285   8.365   0.373
 2858SOL     OW20604   2.022   1.626   0.272
 2858SOL    HW120605   2.112   1.603   0.310
 2858SOL    HW220606   1.955   1.628   0.346
 2859SOL     OW20607   3.682   5.520   1.788
 2859SOL    HW120608   3.661   5.617   1.798
 2859SOL    HW220609   3.654   5.471   1.870
 2860SOL     OW20610   7.701   6.057   5.775
 2860SOL    HW120611   7.728   5.979   5.720
 2860SOL    HW220612   7.605   6.048   5.801
 2861SOL     OW20613   5.216   6.858   1.493
 2861SOL    HW120614   5.248   6.918   1.419
 2861SOL    HW220615   5.218   6.908   1.580
 2862SOL     OW20616   5.052   8.062   1.183
 2862SOL    HW120617   5.035   8.036   1.088
 2862SOL    HW220618   4.971   8.105   1.221
 2863SOL     OW20619   8.867   4.683   6.311
 2863SOL    HW120620   8.879   4.776   6.276
 2863SOL    HW220621   8.956   4.645   6.336
 2864SOL     OW20622   6.038   4.976   0.099
 2864SOL    HW120623   6.125   4.971   0.149
 2864SOL    HW220624   5.962   4.967   0.163
 2865SOL     OW20625   7.251   3.825   6.511
 2865SOL    HW120626   7.311   3.796   6.436
 2865SOL    HW220627   7.278   3.775   6.594
 2866SOL     OW20628   1.782   6.701   5.993
 2866SOL    HW120629   1.731   6.770   5.941
 2866SOL    HW220630   1.876   6.732   6.004
 2867SOL     OW20631   6.895   5.864   1.026
 2867SOL    HW120632   6.893   5.831   0.931
 2867SOL    HW220633   6.951   5.802   1.081
 2868SOL     OW20634   4.989   4.857   6.033
 2868SOL    HW120635   5.031   4.936   5.988
 2868SOL    HW220636   4.904   4.833   5.986
 2869SOL     OW20637   3.907   1.230   6.438
 2869SOL    HW120638   3.913   1.262   6.532
 2869SOL    HW220639   3.864   1.301   6.381
 2870SOL     OW20640   5.768   8.048   1.139
 2870SOL    HW120641   5.678   8.025   1.176
 2870SOL    HW220642   5.760   8.126   1.077
 2871SOL     OW20643   1.133   0.602   5.465
 2871SOL    HW120644   1.197   0.537   5.505
 2871SOL    HW220645   1.117   0.579   5.369
 2872SOL     OW20646   0.457   5.423   0.341
 2872SOL    HW120647   0.523   5.363   0.387
 2872SOL    HW220648   0.457   5.513   0.383
 2873SOL     OW20649   4.017   1.717   1.187
 2873SOL    HW120650   4.077   1.641   1.159
 2873SOL    HW220651   3.960   1.744   1.110
 2874SOL     OW20652   1.747   5.596   5.351
 2874SOL    HW120653   1.731   5.498   5.359
 2874SOL    HW220654   1.824   5.611   5.288
 2875SOL     OW20655   7.508   7.651   5.521
 2875SOL    HW120656   7.507   7.558   5.556
 2875SOL    HW220657   7.512   7.649   5.421
 2876SOL     OW20658   4.929   0.071   4.677
 2876SOL    HW120659   4.910  -0.010   4.622
 2876SOL    HW220660   4.875   0.067   4.761
 2877SOL     OW20661   0.745   5.296   6.199
 2877SOL    HW120662   0.820   5.232   6.219
 2877SOL    HW220663   0.669   5.245   6.158
 2878SOL     OW20664   5.508   6.767   0.814
 2878SOL    HW120665   5.489   6.843   0.752
 2878SOL    HW220666   5.425   6.713   0.827
 2879SOL     OW20667   2.321   4.004   0.500
 2879SOL    HW120668   2.291   4.100   0.508
 2879SOL    HW220669   2.249   3.944   0.535
 2880SOL     OW20670   5.576   2.825   6.399
 2880SOL    HW120671   5.591   2.728   6.382
 2880SOL    HW220672   5.545   2.869   6.314
 2881SOL     OW20673   1.122   0.446   0.617
 2881SOL    HW120674   1.132   0.540   0.650
 2881SOL    HW220675   1.054   0.443   0.544
 2882SOL     OW20676   4.893   7.643   5.478
 2882SOL    HW120677   4.934   7.671   5.565
 2882SOL    HW220678   4.943   7.565   5.440
 2883SOL     OW20679   3.690   0.784   5.280
 2883SOL    HW120680   3.743   0.867   5.262
 2883SOL    HW220681   3.595   0.810   5.297
 2884SOL     OW20682   7.923   4.870   5.689
 2884SOL    HW120683   7.980   4.798   5.727
 2884SOL    HW220684   7.929   4.868   5.589
 2885SOL     OW20685   8.009   1.221   0.881
 2885SOL    HW120686   7.979   1.219   0.786
 2885SOL    HW220687   7.929   1.220   0.941
 2886SOL     OW20688   6.735   2.533   6.573
 2886SOL    HW120689   6.647   2.575   6.593
 2886SOL    HW220690   6.732   2.437   6.600
 2887SOL     OW20691   4.871   8.022   0.495
 2887SOL    HW120692   4.800   8.026   0.425
 2887SOL    HW220693   4.939   7.952   0.470
 2888SOL     OW20694   6.870   3.191   0.054
 2888SOL    HW120695   6.787   3.247   0.053
 2888SOL    HW220696   6.917   3.203   0.141
 2889SOL     OW20697   0.819   5.406   4.669
 2889SOL    HW120698   0.752   5.412   4.595
 2889SOL    HW220699   0.785   5.458   4.748
 2890SOL     OW20700   5.992   1.900   6.313
 2890SOL    HW120701   6.008   1.819   6.257
 2890SOL    HW220702   6.069   1.962   6.305
 2891SOL     OW20703   6.158   8.044   5.086
 2891SOL    HW120704   6.073   8.059   5.137
 2891SOL    HW220705   6.141   7.981   5.010
 2892SOL     OW20706   1.954   0.693   5.636
 2892SOL    HW120707   1.993   0.734   5.553
 2892SOL    HW220708   2.001   0.730   5.716
 2893SOL     OW20709   5.822   5.994   1.079
 2893SOL    HW120710   5.843   6.036   1.167
 2893SOL    HW220711   5.853   5.899   1.079
 2894SOL     OW20712   0.394   1.222   0.639
 2894SOL    HW120713   0.385   1.304   0.695
 2894SOL    HW220714   0.415   1.247   0.545
 2895SOL     OW20715   4.292   1.266   1.020
 2895SOL    HW120716   4.347   1.183   1.026
 2895SOL    HW220717   4.236   1.263   0.938
 2896SOL     OW20718   5.876   7.520   0.987
 2896SOL    HW120719   5.860   7.507   0.889
 2896SOL    HW220720   5.916   7.610   1.003
 2897SOL     OW20721   8.026   3.198   6.664
 2897SOL    HW120722   8.040   3.215   6.762
 2897SOL    HW220723   7.932   3.220   6.640
 2898SOL     OW20724   0.063   2.053   0.112
 2898SOL    HW120725   0.019   1.989   0.050
 2898SOL    HW220726   0.010   2.058   0.197
 2899SOL     OW20727   3.731   6.368   0.064
 2899SOL    HW120728   3.718   6.279   0.108
 2899SOL    HW220729   3.726   6.440   0.133
 2900SOL     OW20730   7.276   2.194   6.144
 2900SOL    HW120731   7.282   2.162   6.050
 2900SOL    HW220732   7.183   2.182   6.177
 2901SOL     OW20733   6.957   0.296   0.541
 2901SOL    HW120734   6.894   0.346   0.482
 2901SOL    HW220735   6.994   0.217   0.491
 2902SOL     OW20736   8.500   8.243   6.469
 2902SOL    HW120737   8.505   8.195   6.381
 2902SOL    HW220738   8.420   8.302   6.470
 2903SOL     OW20739   8.707   7.340   5.632
 2903SOL    HW120740   8.800   7.352   5.668
 2903SOL    HW220741   8.685   7.243   5.628
 2904SOL     OW20742   2.054   4.544   6.707
 2904SOL    HW120743   2.042   4.597   6.622
 2904SOL    HW220744   2.150   4.545   6.734
 2905SOL     OW20745   7.777   0.902   6.715
 2905SOL    HW120746   7.832   0.963   6.658
 2905SOL    HW220747   7.687   0.890   6.674
 2906SOL     OW20748   2.347   3.496   6.159
 2906SOL    HW120749   2.365   3.398   6.154
 2906SOL    HW220750   2.434   3.545   6.167
 2907SOL     OW20751   7.607   3.677   0.260
 2907SOL    HW120752   7.580   3.773   0.269
 2907SOL    HW220753   7.531   3.624   0.221
 2908SOL     OW20754   4.090   1.968   0.469
 2908SOL    HW120755   4.001   1.930   0.442
 2908SOL    HW220756   4.099   2.060   0.432
 2909SOL     OW20757   5.323   3.370   5.921
 2909SOL    HW120758   5.391   3.441   5.939
 2909SOL    HW220759   5.295   3.328   6.007
 2910SOL     OW20760   6.439   6.506   0.239
 2910SOL    HW120761   6.452   6.415   0.279
 2910SOL    HW220762   6.485   6.574   0.297
 2911SOL     OW20763   0.706   6.495   5.935
 2911SOL    HW120764   0.697   6.499   6.035
 2911SOL    HW220765   0.615   6.482   5.895
 2912SOL     OW20766   6.961   4.498   0.932
 2912SOL    HW120767   7.041   4.516   0.990
 2912SOL    HW220768   6.948   4.575   0.870
 2913SOL     OW20769   3.980   7.051   5.394
 2913SOL    HW120770   3.884   7.080   5.391
 2913SOL    HW220771   4.016   7.045   5.301
 2914SOL     OW20772   4.592   5.004   0.681
 2914SOL    HW120773   4.613   4.914   0.718
 2914SOL    HW220774   4.579   5.069   0.756
 2915SOL     OW20775   7.818   1.179   0.370
 2915SOL    HW120776   7.763   1.111   0.323
 2915SOL    HW220777   7.806   1.268   0.326
 2916SOL     OW20778   4.964   0.766   0.086
 2916SOL    HW120779   4.986   0.673   0.118
 2916SOL    HW220780   4.913   0.814   0.157
 2917SOL     OW20781   2.622   0.595   1.595
 2917SOL    HW120782   2.595   0.503   1.566
 2917SOL    HW220783   2.721   0.606   1.585
 2918SOL     OW20784   0.268   6.160   4.805
 2918SOL    HW120785   0.350   6.175   4.750
 2918SOL    HW220786   0.292   6.155   4.901
 2919SOL     OW20787   1.082   4.954   6.142
 2919SOL    HW120788   1.000   4.908   6.107
 2919SOL    HW220789   1.138   4.888   6.191
 2920SOL     OW20790   0.340   3.003   6.626
 2920SOL    HW120791   0.367   3.011   6.530
 2920SOL    HW220792   0.333   3.094   6.666
 2921SOL     OW20793   1.173   6.442   4.864
 2921SOL    HW120794   1.147   6.489   4.780
 2921SOL    HW220795   1.264   6.473   4.892
 2922SOL     OW20796   6.350   2.354   5.382
 2922SOL    HW120797   6.367   2.443   5.339
 2922SOL    HW220798   6.431   2.296   5.372
 2923SOL     OW20799   3.687   0.263   6.002
 2923SOL    HW120800   3.714   0.334   6.067
 2923SOL    HW220801   3.762   0.247   5.938
 2924SOL     OW20802   7.381   8.231   5.174
 2924SOL    HW120803   7.440   8.158   5.141
 2924SOL    HW220804   7.396   8.244   5.272
 2925SOL     OW20805   8.798   4.096   0.638
 2925SOL    HW120806   8.789   4.041   0.721
 2925SOL    HW220807   8.721   4.077   0.577
 2926SOL     OW20808   1.512   5.750   4.595
 2926SOL    HW120809   1.478   5.793   4.511
 2926SOL    HW220810   1.490   5.652   4.594
 2927SOL     OW20811   9.369   8.110   5.331
 2927SOL    HW120812   9.389   8.203   5.363
 2927SOL    HW220813   9.318   8.115   5.245
 2928SOL     OW20814   3.188   3.019   5.549
 2928SOL    HW120815   3.091   3.026   5.572
 2928SOL    HW220816   3.215   3.098   5.493
 2929SOL     OW20817   7.676   6.898   5.643
 2929SOL    HW120818   7.656   6.960   5.567
 2929SOL    HW220819   7.771   6.910   5.673
 2930SOL     OW20820   4.104   3.366   1.338
 2930SOL    HW120821   4.017   3.317   1.339
 2930SOL    HW220822   4.106   3.433   1.412
 2931SOL     OW20823   6.760   7.770   6.402
 2931SOL    HW120824   6.673   7.724   6.421
 2931SOL    HW220825   6.745   7.868   6.394
 2932SOL     OW20826   6.123   7.267   0.289
 2932SOL    HW120827   6.198   7.201   0.293
 2932SOL    HW220828   6.059   7.250   0.363
 2933SOL     OW20829   8.752   5.343   1.255
 2933SOL    HW120830   8.665   5.312   1.215
 2933SOL    HW220831   8.733   5.412   1.325
 2934SOL     OW20832   1.548   8.259   6.617
 2934SOL    HW120833   1.467   8.287   6.670
 2934SOL    HW220834   1.542   8.296   6.525
 2935SOL     OW20835   5.230   4.875   1.614
 2935SOL    HW120836   5.164   4.838   1.550
 2935SOL    HW220837   5.198   4.860   1.708
 2936SOL     OW20838   2.203   7.184   1.481
 2936SOL    HW120839   2.197   7.242   1.400
 2936SOL    HW220840   2.182   7.238   1.563
 2937SOL     OW20841   8.565   5.486   0.313
 2937SOL    HW120842   8.566   5.529   0.223
 2937SOL    HW220843   8.562   5.557   0.384
 2938SOL     OW20844   4.839   6.641   6.305
 2938SOL    HW120845   4.924   6.589   6.318
 2938SOL    HW220846   4.852   6.734   6.340
 2939SOL     OW20847   9.102   7.447   0.798
 2939SOL    HW120848   9.123   7.422   0.704
 2939SOL    HW220849   9.150   7.385   0.860
 2940SOL     OW20850   8.846   7.059   4.577
 2940SOL    HW120851   8.863   6.976   4.523
 2940SOL    HW220852   8.833   7.136   4.515
 2941SOL     OW20853   6.598   8.431   1.627
 2941SOL    HW120854   6.551   8.411   1.712
 2941SOL    HW220855   6.635   8.523   1.630
 2942SOL     OW20856   1.460   2.088   5.879
 2942SOL    HW120857   1.456   1.994   5.915
 2942SOL    HW220858   1.474   2.152   5.955
 2943SOL     OW20859   8.447   0.295   5.770
 2943SOL    HW120860   8.455   0.283   5.869
 2943SOL    HW220861   8.351   0.315   5.747
 2944SOL     OW20862   3.185   2.426   6.377
 2944SOL    HW120863   3.225   2.338   6.402
 2944SOL    HW220864   3.085   2.418   6.374
 2945SOL     OW20865   3.233   8.026   5.288
 2945SOL    HW120866   3.186   8.087   5.224
 2945SOL    HW220867   3.328   8.055   5.298
 2946SOL     OW20868   3.924   1.317   5.174
 2946SOL    HW120869   3.913   1.279   5.082
 2946SOL    HW220870   3.976   1.253   5.231
 2947SOL     OW20871   9.163   6.336   6.206
 2947SOL    HW120872   9.117   6.279   6.139
 2947SOL    HW220873   9.103   6.351   6.285
 2948SOL     OW20874   8.780   3.156   5.623
 2948SOL    HW120875   8.788   3.239   5.677
 2948SOL    HW220876   8.710   3.169   5.553
 2949SOL     OW20877   3.766   6.948   0.626
 2949SOL    HW120878   3.816   6.992   0.700
 2949SOL    HW220879   3.743   6.854   0.652
 2950SOL     OW20880   9.221   6.179   5.546
 2950SOL    HW120881   9.259   6.137   5.463
 2950SOL    HW220882   9.133   6.221   5.524
 2951SOL     OW20883   0.916   6.498   6.232
 2951SOL    HW120884   0.820   6.479   6.252
 2951SOL    HW220885   0.926   6.593   6.202
 2952SOL     OW20886   8.284   1.152   1.399
 2952SOL    HW120887   8.329   1.074   1.355
 2952SOL    HW220888   8.332   1.175   1.483
 2953SOL     OW20889   7.679   2.265   0.030
 2953SOL    HW120890   7.768   2.220   0.017
 2953SOL    HW220891   7.607   2.207  -0.009
 2954SOL     OW20892   1.374   8.215   5.458
 2954SOL    HW120893   1.292   8.176   5.500
 2954SOL    HW220894   1.446   8.224   5.527
 2955SOL     OW20895   3.057   0.422   1.089
 2955SOL    HW120896   2.989   0.487   1.054
 2955SOL    HW220897   3.095   0.457   1.175
 2956SOL     OW20898   9.395   0.878   5.959
 2956SOL    HW120899   9.453   0.952   5.924
 2956SOL    HW220900   9.427   0.852   6.050
 2957SOL     OW20901   1.249   7.873   0.457
 2957SOL    HW120902   1.338   7.917   0.462
 2957SOL    HW220903   1.248   7.808   0.380
 2958SOL     OW20904   4.408   8.090   0.356
 2958SOL    HW120905   4.463   8.171   0.335
 2958SOL    HW220906   4.370   8.099   0.448
 2959SOL     OW20907   1.489   2.421   6.731
 2959SOL    HW120908   1.391   2.431   6.748
 2959SOL    HW220909   1.523   2.505   6.689
 2960SOL     OW20910   4.188   7.933   5.528
 2960SOL    HW120911   4.251   7.969   5.596
 2960SOL    HW220912   4.238   7.882   5.459
 2961SOL     OW20913   7.870   5.845   6.304
 2961SOL    HW120914   7.835   5.802   6.388
 2961SOL    HW220915   7.855   5.784   6.227
 2962SOL     OW20916   7.420   5.680   0.875
 2962SOL    HW120917   7.427   5.583   0.854
 2962SOL    HW220918   7.446   5.696   0.970
 2963SOL     OW20919   5.805   4.228   0.985
 2963SOL    HW120920   5.715   4.194   1.010
 2963SOL    HW220921   5.875   4.178   1.036
 2964SOL     OW20922   5.054   1.846   6.390
 2964SOL    HW120923   5.127   1.780   6.371
 2964SOL    HW220924   5.094   1.927   6.433
 2965SOL     OW20925   2.968   5.174   1.137
 2965SOL    HW120926   3.047   5.133   1.181
 2965SOL    HW220927   2.926   5.241   1.199
 2966SOL     OW20928   4.156   8.334   6.568
 2966SOL    HW120929   4.213   8.290   6.499
 2966SOL    HW220930   4.174   8.433   6.567
 2967SOL     OW20931   0.991   2.103   0.265
 2967SOL    HW120932   0.928   2.083   0.340
 2967SOL    HW220933   0.976   2.038   0.191
 2968SOL     OW20934   3.154   8.335   5.197
 2968SOL    HW120935   3.165   8.408   5.130
 2968SOL    HW220936   3.116   8.254   5.152
 2969SOL     OW20937   3.083   0.479   6.265
 2969SOL    HW120938   3.156   0.412   6.267
 2969SOL    HW220939   3.079   0.527   6.353
 2970SOL     OW20940   8.270   1.612   5.850
 2970SOL    HW120941   8.208   1.541   5.818
 2970SOL    HW220942   8.364   1.579   5.849
 2971SOL     OW20943   2.722   1.904   6.568
 2971SOL    HW120944   2.775   1.834   6.520
 2971SOL    HW220945   2.625   1.890   6.552
 2972SOL     OW20946   2.083   8.259   6.408
 2972SOL    HW120947   2.088   8.160   6.422
 2972SOL    HW220948   2.040   8.301   6.488
 2973SOL     OW20949   8.631   4.844   0.618
 2973SOL    HW120950   8.719   4.891   0.614
 2973SOL    HW220951   8.627   4.790   0.702
 2974SOL     OW20952   8.434   4.854   0.432
 2974SOL    HW120953   8.378   4.772   0.423
 2974SOL    HW220954   8.500   4.842   0.506
 2975SOL     OW20955   4.072   6.017   2.114
 2975SOL    HW120956   4.041   5.922   2.117
 2975SOL    HW220957   4.088   6.050   2.207
 2976SOL     OW20958   3.732   5.292   5.604
 2976SOL    HW120959   3.816   5.342   5.586
 2976SOL    HW220960   3.656   5.357   5.615
 2977SOL     OW20961   2.353   8.285   5.674
 2977SOL    HW120962   2.452   8.281   5.673
 2977SOL    HW220963   2.320   8.328   5.590
 2978SOL     OW20964   8.501   3.148   0.050
 2978SOL    HW120965   8.554   3.227   0.018
 2978SOL    HW220966   8.407   3.156   0.019
 2979SOL     OW20967   1.791   7.653   6.442
 2979SOL    HW120968   1.736   7.735   6.458
 2979SOL    HW220969   1.836   7.626   6.527
 2980SOL     OW20970   6.515   7.763   6.112
 2980SOL    HW120971   6.495   7.674   6.152
 2980SOL    HW220972   6.444   7.788   6.046
 2981SOL     OW20973   6.380   2.776   5.566
 2981SOL    HW120974   6.332   2.694   5.598
 2981SOL    HW220975   6.464   2.788   5.618
 2982SOL     OW20976   7.836   2.452   5.590
 2982SOL    HW120977   7.918   2.477   5.642
 2982SOL    HW220978   7.856   2.453   5.493
 2983SOL     OW20979   2.928   7.495   0.312
 2983SOL    HW120980   2.955   7.466   0.404
 2983SOL    HW220981   2.902   7.415   0.259
 2984SOL     OW20982   5.076   4.532   0.680
 2984SOL    HW120983   5.171   4.541   0.648
 2984SOL    HW220984   5.035   4.623   0.688
 2985SOL     OW20985   7.660   4.160   0.297
 2985SOL    HW120986   7.616   4.207   0.221
 2985SOL    HW220987   7.749   4.202   0.316
 2986SOL     OW20988   5.685   1.660   0.025
 2986SOL    HW120989   5.611   1.687   0.086
 2986SOL    HW220990   5.651   1.654  -0.069
 2987SOL     OW20991   4.532   7.049   4.940
 2987SOL    HW120992   4.588   7.130   4.958
 2987SOL    HW220993   4.444   7.077   4.904
 2988SOL     OW20994   2.984   1.446   0.640
 2988SOL    HW120995   3.064   1.410   0.690
 2988SOL    HW220996   2.934   1.509   0.699
 2989SOL     OW20997   0.757   1.178   4.710
 2989SOL    HW120998   0.675   1.223   4.673
 2989SOL    HW220999   0.830   1.245   4.722
 2990SOL     OW21000   1.823   7.332   1.093
 2990SOL    HW121001   1.890   7.341   1.166
 2990SOL    HW221002   1.732   7.322   1.133
 2991SOL     OW21003   5.103   6.014   5.658
 2991SOL    HW121004   5.003   6.020   5.667
 2991SOL    HW221005   5.129   6.034   5.563
 2992SOL     OW21006   2.812   0.434   0.621
 2992SOL    HW121007   2.811   0.334   0.615
 2992SOL    HW221008   2.754   0.463   0.698
 2993SOL     OW21009   7.831   0.681   0.873
 2993SOL    HW121010   7.759   0.614   0.895
 2993SOL    HW221011   7.801   0.772   0.900
 2994SOL     OW21012   1.036   8.370   6.436
 2994SOL    HW121013   1.021   8.308   6.513
 2994SOL    HW221014   1.059   8.461   6.471
 2995SOL     OW21015   2.845   6.111   0.836
 2995SOL    HW121016   2.887   6.083   0.749
 2995SOL    HW221017   2.806   6.030   0.881
 2996SOL     OW21018   2.052   4.987   1.079
 2996SOL    HW121019   2.143   4.981   1.039
 2996SOL    HW221020   1.984   4.988   1.005
 2997SOL     OW21021   9.139   7.790   6.591
 2997SOL    HW121022   9.074   7.814   6.519
 2997SOL    HW221023   9.207   7.862   6.600
 2998SOL     OW21024   7.569   2.675   6.639
 2998SOL    HW121025   7.619   2.759   6.615
 2998SOL    HW221026   7.528   2.685   6.729
 2999SOL     OW21027   1.000   7.199   0.060
 2999SOL    HW121028   0.919   7.157   0.102
 2999SOL    HW221029   1.082   7.158   0.100
 3000SOL     OW21030   1.987   2.569   5.783
 3000SOL    HW121031   2.000   2.640   5.852
 3000SOL    HW221032   1.893   2.573   5.748
 3001SOL     OW21033   3.090   1.766   6.188
 3001SOL    HW121034   3.065   1.754   6.284
 3001SOL    HW221035   3.007   1.765   6.132
 3002SOL     OW21036   7.878   1.855   0.300
 3002SOL    HW121037   7.918   1.794   0.369
 3002SOL    HW221038   7.900   1.949   0.323
 3003SOL     OW21039   6.973   3.759   0.752
 3003SOL    HW121040   6.943   3.787   0.661
 3003SOL    HW221041   7.062   3.800   0.772
 3004SOL     OW21042   9.208   0.904   1.017
 3004SOL    HW121043   9.251   0.892   1.106
 3004SOL    HW221044   9.111   0.924   1.030
 3005SOL     OW21045   5.228   6.055   1.401
 3005SOL    HW121046   5.227   5.963   1.441
 3005SOL    HW221047   5.178   6.118   1.459
 3006SOL     OW21048   5.095   1.990   6.135
 3006SOL    HW121049   5.109   2.089   6.132
 3006SOL    HW221050   5.168   1.948   6.189
 3007SOL     OW21051   5.389   4.216   0.590
 3007SOL    HW121052   5.437   4.138   0.550
 3007SOL    HW221053   5.312   4.241   0.532
 3008SOL     OW21054   2.864   6.027   5.550
 3008SOL    HW121055   2.912   6.014   5.463
 3008SOL    HW221056   2.889   5.953   5.612
 3009SOL     OW21057   3.501   8.107   6.713
 3009SOL    HW121058   3.424   8.158   6.675
 3009SOL    HW221059   3.535   8.042   6.644
 3010SOL     OW21060   1.161   4.364   0.495
 3010SOL    HW121061   1.075   4.333   0.535
 3010SOL    HW221062   1.148   4.453   0.451
 3011SOL     OW21063   0.954   4.223   5.925
 3011SOL    HW121064   0.994   4.151   5.980
 3011SOL    HW221065   0.864   4.247   5.961
 3012SOL     OW21066   0.202   5.983   6.421
 3012SOL    HW121067   0.185   5.887   6.399
 3012SOL    HW221068   0.300   5.997   6.433
 3013SOL     OW21069   6.747   0.201   0.339
 3013SOL    HW121070   6.781   0.151   0.260
 3013SOL    HW221071   6.657   0.166   0.364
 3014SOL     OW21072   8.112   3.416   1.597
 3014SOL    HW121073   8.037   3.413   1.663
 3014SOL    HW221074   8.192   3.459   1.638
 3015SOL     OW21075   3.175   1.072   1.817
 3015SOL    HW121076   3.260   1.091   1.867
 3015SOL    HW221077   3.164   1.139   1.744
 3016SOL     OW21078   9.453   3.496   0.696
 3016SOL    HW121079   9.420   3.552   0.620
 3016SOL    HW221080   9.391   3.507   0.774
 3017SOL     OW21081   1.149   5.121   6.641
 3017SOL    HW121082   1.193   5.141   6.553
 3017SOL    HW221083   1.146   5.022   6.654
 3018SOL     OW21084   5.496   2.533   0.488
 3018SOL    HW121085   5.428   2.605   0.485
 3018SOL    HW221086   5.470   2.460   0.423
 3019SOL     OW21087   5.786   2.469   6.239
 3019SOL    HW121088   5.789   2.482   6.140
 3019SOL    HW221089   5.817   2.376   6.261
 3020SOL     OW21090   8.873   4.351   0.590
 3020SOL    HW121091   8.969   4.344   0.563
 3020SOL    HW221092   8.835   4.259   0.603
 3021SOL     OW21093   6.085   5.227   6.722
 3021SOL    HW121094   6.087   5.137   6.765
 3021SOL    HW221095   5.992   5.264   6.725
 3022SOL     OW21096   5.625   5.533   6.069
 3022SOL    HW121097   5.718   5.504   6.051
 3022SOL    HW221098   5.566   5.453   6.083
 3023SOL     OW21099   4.147   0.341   5.228
 3023SOL    HW121100   4.146   0.288   5.313
 3023SOL    HW221101   4.101   0.289   5.156
 3024SOL     OW21102   0.914   4.035   6.507
 3024SOL    HW121103   0.826   3.992   6.527
 3024SOL    HW221104   0.899   4.127   6.471
 3025SOL     OW21105   7.338   7.488   6.624
 3025SOL    HW121106   7.264   7.505   6.559
 3025SOL    HW221107   7.394   7.413   6.591
 3026SOL     OW21108   1.697   0.898   5.200
 3026SOL    HW121109   1.742   0.892   5.111
 3026SOL    HW221110   1.662   0.991   5.213
 3027SOL     OW21111   0.397   4.846   6.648
 3027SOL    HW121112   0.466   4.915   6.673
 3027SOL    HW221113   0.442   4.758   6.634
 3028SOL     OW21114   6.998   4.722   5.703
 3028SOL    HW121115   6.965   4.757   5.615
 3028SOL    HW221116   7.055   4.791   5.747
 3029SOL     OW21117   7.611   8.459   0.231
 3029SOL    HW121118   7.595   8.550   0.194
 3029SOL    HW221119   7.540   8.396   0.197
 3030SOL     OW21120   4.539   3.680   0.863
 3030SOL    HW121121   4.482   3.640   0.791
 3030SOL    HW221122   4.632   3.642   0.855
 3031SOL     OW21123   3.315   7.248   0.851
 3031SOL    HW121124   3.354   7.187   0.782
 3031SOL    HW221125   3.221   7.271   0.827
 3032SOL     OW21126   1.002   8.058   6.400
 3032SOL    HW121127   1.089   8.012   6.381
 3032SOL    HW221128   1.002   8.090   6.495
 3033SOL     OW21129   9.469   2.602   5.679
 3033SOL    HW121130   9.434   2.685   5.635
 3033SOL    HW221131   9.434   2.597   5.773
 3034SOL     OW21132   4.114   7.808   6.118
 3034SOL    HW121133   4.187   7.845   6.061
 3034SOL    HW221134   4.153   7.757   6.194
 3035SOL     OW21135   1.314   3.463   0.057
 3035SOL    HW121136   1.216   3.449   0.040
 3035SOL    HW221137   1.360   3.375   0.060
 3036SOL     OW21138   1.864   0.834   0.740
 3036SOL    HW121139   1.923   0.844   0.660
 3036SOL    HW221140   1.769   0.825   0.710
 3037SOL     OW21141   9.039   6.881   5.586
 3037SOL    HW121142   9.087   6.801   5.622
 3037SOL    HW221143   9.093   6.963   5.603
 3038SOL     OW21144   8.829   7.471   0.839
 3038SOL    HW121145   8.830   7.479   0.939
 3038SOL    HW221146   8.922   7.481   0.804
 3039SOL     OW21147   6.781   4.787   6.384
 3039SOL    HW121148   6.697   4.840   6.391
 3039SOL    HW221149   6.806   4.777   6.287
 3040SOL     OW21150   4.629   7.066   0.343
 3040SOL    HW121151   4.673   7.155   0.352
 3040SOL    HW221152   4.543   7.066   0.395
 3041SOL     OW21153   0.319   7.353   0.523
 3041SOL    HW121154   0.357   7.288   0.456
 3041SOL    HW221155   0.294   7.303   0.606
 3042SOL     OW21156   9.172   5.901   5.038
 3042SOL    HW121157   9.098   5.842   5.006
 3042SOL    HW221158   9.246   5.844   5.073
 3043SOL     OW21159   8.162   3.367   0.286
 3043SOL    HW121160   8.157   3.421   0.202
 3043SOL    HW221161   8.125   3.275   0.269
 3044SOL     OW21162   2.175   6.454   5.077
 3044SOL    HW121163   2.156   6.543   5.036
 3044SOL    HW221164   2.273   6.435   5.072
 3045SOL     OW21165   8.972   4.611   0.641
 3045SOL    HW121166   8.992   4.647   0.549
 3045SOL    HW221167   8.934   4.519   0.633
 3046SOL     OW21168   4.321   2.231   5.712
 3046SOL    HW121169   4.266   2.312   5.691
 3046SOL    HW221170   4.418   2.254   5.703
 3047SOL     OW21171   7.661   6.628   6.645
 3047SOL    HW121172   7.610   6.661   6.725
 3047SOL    HW221173   7.726   6.558   6.675
 3048SOL     OW21174   7.312   2.981   0.550
 3048SOL    HW121175   7.354   2.893   0.571
 3048SOL    HW221176   7.306   3.036   0.634
 3049SOL     OW21177   6.962   0.924   1.345
 3049SOL    HW121178   7.020   1.005   1.350
 3049SOL    HW221179   7.018   0.842   1.360
 3050SOL     OW21180   1.413   2.101   6.508
 3050SOL    HW121181   1.389   2.106   6.411
 3050SOL    HW221182   1.364   2.024   6.550
 3051SOL     OW21183   6.336   4.927   0.145
 3051SOL    HW121184   6.413   4.965   0.197
 3051SOL    HW221185   6.333   4.971   0.055
 3052SOL     OW21186   2.232   1.464   0.770
 3052SOL    HW121187   2.249   1.407   0.690
 3052SOL    HW221188   2.317   1.510   0.797
 3053SOL     OW21189   4.134   7.329   0.221
 3053SOL    HW121190   4.139   7.287   0.130
 3053SOL    HW221191   4.206   7.397   0.230
 3054SOL     OW21192   4.002   3.296   0.039
 3054SOL    HW121193   4.059   3.239  -0.021
 3054SOL    HW221194   4.054   3.321   0.121
 3055SOL     OW21195   6.237   4.439   0.733
 3055SOL    HW121196   6.172   4.428   0.808
 3055SOL    HW221197   6.203   4.509   0.669
 3056SOL     OW21198   4.950   6.708   4.914
 3056SOL    HW121199   4.874   6.763   4.879
 3056SOL    HW221200   5.036   6.742   4.876
 3057SOL     OW21201   6.262   2.627   6.373
 3057SOL    HW121202   6.197   2.697   6.405
 3057SOL    HW221203   6.345   2.672   6.340
 3058SOL     OW21204   5.441   0.941   5.598
 3058SOL    HW121205   5.512   0.874   5.621
 3058SOL    HW221206   5.433   0.948   5.499
 3059SOL     OW21207   9.308   2.722   1.204
 3059SOL    HW121208   9.351   2.642   1.163
 3059SOL    HW221209   9.379   2.783   1.241
 3060SOL     OW21210   8.876   3.346   5.785
 3060SOL    HW121211   8.868   3.445   5.796
 3060SOL    HW221212   8.857   3.301   5.872
 3061SOL     OW21213   4.870   3.802   1.136
 3061SOL    HW121214   4.925   3.881   1.163
 3061SOL    HW221215   4.773   3.827   1.137
 3062SOL     OW21216   6.207   0.694   6.047
 3062SOL    HW121217   6.150   0.613   6.061
 3062SOL    HW221218   6.149   0.773   6.032
 3063SOL     OW21219   5.262   6.469   1.424
 3063SOL    HW121220   5.202   6.448   1.347
 3063SOL    HW221221   5.310   6.386   1.452
 3064SOL     OW21222   0.520   4.420   0.822
 3064SOL    HW121223   0.486   4.340   0.774
 3064SOL    HW221224   0.453   4.494   0.815
 3065SOL     OW21225   5.558   4.043   0.421
 3065SOL    HW121226   5.471   3.996   0.436
 3065SOL    HW221227   5.603   4.004   0.341
 3066SOL     OW21228   2.552   0.961   0.543
 3066SOL    HW121229   2.453   0.977   0.550
 3066SOL    HW221230   2.567   0.874   0.496
 3067SOL     OW21231   2.811   1.354   5.760
 3067SOL    HW121232   2.855   1.271   5.726
 3067SOL    HW221233   2.736   1.330   5.822
 3068SOL     OW21234   8.174   6.287   0.697
 3068SOL    HW121235   8.176   6.298   0.796
 3068SOL    HW221236   8.256   6.327   0.657
 3069SOL     OW21237   8.644   2.794   1.345
 3069SOL    HW121238   8.723   2.854   1.338
 3069SOL    HW221239   8.597   2.810   1.432
 3070SOL     OW21240   4.816   7.703   6.298
 3070SOL    HW121241   4.767   7.616   6.301
 3070SOL    HW221242   4.908   7.688   6.263
 3071SOL     OW21243   4.529   1.620   1.688
 3071SOL    HW121244   4.577   1.611   1.775
 3071SOL    HW221245   4.468   1.699   1.691
 3072SOL     OW21246   3.839   7.555   1.304
 3072SOL    HW121247   3.766   7.565   1.237
 3072SOL    HW221248   3.922   7.598   1.270
 3073SOL     OW21249   9.223   0.138   1.226
 3073SOL    HW121250   9.129   0.105   1.232
 3073SOL    HW221251   9.278   0.094   1.298
 3074SOL     OW21252   8.534   2.557   0.003
 3074SOL    HW121253   8.475   2.477   0.007
 3074SOL    HW221254   8.570   2.577   0.094
 3075SOL     OW21255   4.884   5.846   1.099
 3075SOL    HW121256   4.913   5.761   1.055
 3075SOL    HW221257   4.784   5.849   1.104
 3076SOL     OW21258   5.911   5.478   1.255
 3076SOL    HW121259   5.830   5.433   1.290
 3076SOL    HW221260   5.983   5.476   1.324
 3077SOL     OW21261   3.309   1.110   0.127
 3077SOL    HW121262   3.225   1.132   0.176
 3077SOL    HW221263   3.324   1.011   0.130
 3078SOL     OW21264   2.969   6.684   6.504
 3078SOL    HW121265   2.972   6.769   6.452
 3078SOL    HW221266   3.053   6.673   6.556
 3079SOL     OW21267   6.900   3.768   0.151
 3079SOL    HW121268   6.919   3.757   0.249
 3079SOL    HW221269   6.849   3.688   0.118
 3080SOL     OW21270   1.469   6.306   6.162
 3080SOL    HW121271   1.552   6.282   6.112
 3080SOL    HW221272   1.424   6.222   6.195
 3081SOL     OW21273   1.057   5.975   6.183
 3081SOL    HW121274   1.142   5.926   6.203
 3081SOL    HW221275   1.020   6.015   6.267
 3082SOL     OW21276   9.231   6.914   6.508
 3082SOL    HW121277   9.271   6.998   6.545
 3082SOL    HW221278   9.138   6.933   6.476
 3083SOL     OW21279   0.966   1.061   5.897
 3083SOL    HW121280   0.992   0.979   5.948
 3083SOL    HW221281   1.019   1.065   5.812
 3084SOL     OW21282   1.916   5.720   4.854
 3084SOL    HW121283   1.838   5.677   4.809
 3084SOL    HW221284   1.996   5.713   4.794
 3085SOL     OW21285   0.541   7.355   5.111
 3085SOL    HW121286   0.591   7.411   5.177
 3085SOL    HW221287   0.457   7.401   5.084
 3086SOL     OW21288   1.802   5.174   0.664
 3086SOL    HW121289   1.744   5.167   0.583
 3086SOL    HW221290   1.839   5.266   0.671
 3087SOL     OW21291   3.546   7.101   5.196
 3087SOL    HW121292   3.477   7.171   5.177
 3087SOL    HW221293   3.623   7.143   5.245
 3088SOL     OW21294   3.515   5.711   1.486
 3088SOL    HW121295   3.454   5.631   1.488
 3088SOL    HW221296   3.510   5.758   1.574
 3089SOL     OW21297   7.678   7.370   0.824
 3089SOL    HW121298   7.749   7.320   0.874
 3089SOL    HW221299   7.697   7.468   0.829
 3090SOL     OW21300   7.633   0.171   5.420
 3090SOL    HW121301   7.586   0.156   5.333
 3090SOL    HW221302   7.602   0.102   5.487
 3091SOL     OW21303   8.064   3.193   0.743
 3091SOL    HW121304   8.106   3.116   0.694
 3091SOL    HW221305   8.033   3.262   0.677
 3092SOL     OW21306   4.912   8.424   5.634
 3092SOL    HW121307   4.847   8.464   5.699
 3092SOL    HW221308   4.894   8.326   5.626
 3093SOL     OW21309   3.872   4.710   1.646
 3093SOL    HW121310   3.877   4.793   1.701
 3093SOL    HW221311   3.956   4.700   1.593
 3094SOL     OW21312   3.920   8.370   1.854
 3094SOL    HW121313   3.846   8.352   1.788
 3094SOL    HW221314   3.918   8.300   1.925
 3095SOL     OW21315   8.730   8.442   0.224
 3095SOL    HW121316   8.780   8.377   0.166
 3095SOL    HW221317   8.794   8.483   0.289
 3096SOL     OW21318   8.429   2.781   0.388
 3096SOL    HW121319   8.372   2.859   0.363
 3096SOL    HW221320   8.420   2.763   0.486
 3097SOL     OW21321   4.277   8.391   4.881
 3097SOL    HW121322   4.247   8.391   4.785
 3097SOL    HW221323   4.218   8.330   4.934
 3098SOL     OW21324   8.392   5.812   1.618
 3098SOL    HW121325   8.324   5.744   1.590
 3098SOL    HW221326   8.483   5.778   1.598
 3099SOL     OW21327   6.329   2.870   6.631
 3099SOL    HW121328   6.259   2.857   6.561
 3099SOL    HW221329   6.349   2.967   6.641
 3100SOL     OW21330   7.299   1.801   6.231
 3100SOL    HW121331   7.322   1.740   6.307
 3100SOL    HW221332   7.324   1.895   6.255
 3101SOL     OW21333   2.148   1.376   0.409
 3101SOL    HW121334   2.112   1.334   0.325
 3101SOL    HW221335   2.090   1.352   0.486
 3102SOL     OW21336   5.942   0.336   6.334
 3102SOL    HW121337   5.864   0.348   6.272
 3102SOL    HW221338   6.026   0.327   6.281
 3103SOL     OW21339   4.250   7.458   0.683
 3103SOL    HW121340   4.342   7.443   0.720
 3103SOL    HW221341   4.199   7.373   0.684
 3104SOL     OW21342   6.837   4.484   5.919
 3104SOL    HW121343   6.846   4.507   6.016
 3104SOL    HW221344   6.922   4.504   5.871
 3105SOL     OW21345   2.863   5.603   6.402
 3105SOL    HW121346   2.877   5.671   6.474
 3105SOL    HW221347   2.782   5.627   6.348
 3106SOL     OW21348   8.654   5.914   5.168
 3106SOL    HW121349   8.566   5.895   5.211
 3106SOL    HW221350   8.712   5.832   5.171
 3107SOL     OW21351   8.320   5.874   0.573
 3107SOL    HW121352   8.264   5.803   0.615
 3107SOL    HW221353   8.278   5.904   0.487
 3108SOL     OW21354   2.339   7.595   5.859
 3108SOL    HW121355   2.274   7.599   5.783
 3108SOL    HW221356   2.301   7.644   5.938
 3109SOL     OW21357   4.977   0.687   5.846
 3109SOL    HW121358   5.008   0.700   5.752
 3109SOL    HW221359   5.032   0.744   5.907
 3110SOL     OW21360   1.790   5.873   0.725
 3110SOL    HW121361   1.842   5.878   0.639
 3110SOL    HW221362   1.719   5.804   0.717
 3111SOL     OW21363   6.572   1.619   1.162
 3111SOL    HW121364   6.615   1.559   1.231
 3111SOL    HW221365   6.642   1.653   1.100
 3112SOL     OW21366   5.239   1.573   0.528
 3112SOL    HW121367   5.179   1.514   0.581
 3112SOL    HW221368   5.268   1.525   0.445
 3113SOL     OW21369   2.112   7.980   6.435
 3113SOL    HW121370   2.014   7.977   6.454
 3113SOL    HW221371   2.145   7.889   6.414
 3114SOL     OW21372   6.780   0.460   0.252
 3114SOL    HW121373   6.756   0.377   0.302
 3114SOL    HW221374   6.871   0.451   0.212
 3115SOL     OW21375   2.515   5.005   0.133
 3115SOL    HW121376   2.436   5.015   0.193
 3115SOL    HW221377   2.532   5.092   0.086
 3116SOL     OW21378   4.899   4.185   0.709
 3116SOL    HW121379   4.957   4.103   0.712
 3116SOL    HW221380   4.923   4.239   0.628
 3117SOL     OW21381   3.155   3.374   0.681
 3117SOL    HW121382   3.190   3.381   0.588
 3117SOL    HW221383   3.156   3.464   0.723
 3118SOL     OW21384   7.793   1.759   6.532
 3118SOL    HW121385   7.822   1.781   6.625
 3118SOL    HW221386   7.861   1.699   6.489
 3119SOL     OW21387   3.849   1.155   5.506
 3119SOL    HW121388   3.840   1.125   5.602
 3119SOL    HW221389   3.944   1.179   5.488
 3120SOL     OW21390   6.309   7.149   6.112
 3120SOL    HW121391   6.337   7.053   6.110
 3120SOL    HW221392   6.212   7.156   6.132
 3121SOL     OW21393   7.992   6.161   6.332
 3121SOL    HW121394   7.988   6.105   6.415
 3121SOL    HW221395   7.903   6.159   6.286
 3122SOL     OW21396   6.897   3.834   1.412
 3122SOL    HW121397   6.925   3.898   1.483
 3122SOL    HW221398   6.854   3.885   1.337
 3123SOL     OW21399   1.100   1.354   6.436
 3123SOL    HW121400   1.164   1.330   6.363
 3123SOL    HW221401   1.134   1.320   6.523
 3124SOL     OW21402   5.247   3.962   6.136
 3124SOL    HW121403   5.263   3.960   6.235
 3124SOL    HW221404   5.249   3.868   6.101
 3125SOL     OW21405   3.998   7.147   0.800
 3125SOL    HW121406   4.012   7.093   0.883
 3125SOL    HW221407   4.074   7.133   0.737
 3126SOL     OW21408   6.658   6.422   0.728
 3126SOL    HW121409   6.721   6.403   0.652
 3126SOL    HW221410   6.659   6.520   0.748
 3127SOL     OW21411   8.907   5.510   0.583
 3127SOL    HW121412   8.942   5.495   0.675
 3127SOL    HW221413   8.982   5.530   0.521
 3128SOL     OW21414   6.595   8.474   5.912
 3128SOL    HW121415   6.671   8.500   5.853
 3128SOL    HW221416   6.586   8.540   5.987
 3129SOL     OW21417   2.827   1.230   1.910
 3129SOL    HW121418   2.821   1.304   1.842
 3129SOL    HW221419   2.821   1.142   1.864
 3130SOL     OW21420   3.969   7.990   6.589
 3130SOL    HW121421   3.988   8.077   6.634
 3130SOL    HW221422   3.875   7.962   6.609
 3131SOL     OW21423   3.891   8.459   0.752
 3131SOL    HW121424   3.910   8.380   0.694
 3131SOL    HW221425   3.877   8.540   0.695
 3132SOL     OW21426   1.697   4.026   5.880
 3132SOL    HW121427   1.714   4.121   5.906
 3132SOL    HW221428   1.738   4.008   5.790
 3133SOL     OW21429   8.271   4.171   6.548
 3133SOL    HW121430   8.225   4.215   6.471
 3133SOL    HW221431   8.368   4.196   6.548
 3134SOL     OW21432   8.964   5.972   0.167
 3134SOL    HW121433   8.898   5.995   0.239
 3134SOL    HW221434   8.997   5.878   0.180
 3135SOL     OW21435   3.508   7.753   5.343
 3135SOL    HW121436   3.431   7.708   5.296
 3135SOL    HW221437   3.593   7.730   5.296
 3136SOL     OW21438   7.660   6.349   1.003
 3136SOL    HW121439   7.705   6.410   1.069
 3136SOL    HW221440   7.580   6.307   1.045
 3137SOL     OW21441   0.792   5.558   5.643
 3137SOL    HW121442   0.745   5.477   5.678
 3137SOL    HW221443   0.726   5.631   5.626
 3138SOL     OW21444   8.549   2.518   1.330
 3138SOL    HW121445   8.527   2.604   1.375
 3138SOL    HW221446   8.544   2.443   1.397
 3139SOL     OW21447   7.779   6.282   5.648
 3139SOL    HW121448   7.765   6.192   5.688
 3139SOL    HW221449   7.694   6.334   5.651
 3140SOL     OW21450   8.564   2.413   0.818
 3140SOL    HW121451   8.521   2.402   0.908
 3140SOL    HW221452   8.603   2.504   0.811
 3141SOL     OW21453   4.554   0.181   0.457
 3141SOL    HW121454   4.525   0.193   0.362
 3141SOL    HW221455   4.592   0.090   0.470
 3142SOL     OW21456   3.328   0.590   5.037
 3142SOL    HW121457   3.248   0.530   5.035
 3142SOL    HW221458   3.392   0.562   4.965
 3143SOL     OW21459   7.307   0.068   1.018
 3143SOL    HW121460   7.398   0.108   1.016
 3143SOL    HW221461   7.280   0.049   1.112
 3144SOL     OW21462   0.599   0.151   5.338
 3144SOL    HW121463   0.578   0.233   5.283
 3144SOL    HW221464   0.671   0.099   5.292
 3145SOL     OW21465   7.359   1.612   6.394
 3145SOL    HW121466   7.443   1.595   6.447
 3145SOL    HW221467   7.299   1.533   6.401
 3146SOL     OW21468   5.197   3.680   5.642
 3146SOL    HW121469   5.254   3.615   5.592
 3146SOL    HW221470   5.196   3.767   5.593
 3147SOL     OW21471   2.768   3.767   0.069
 3147SOL    HW121472   2.722   3.689   0.113
 3147SOL    HW221473   2.831   3.734  -0.001
 3148SOL     OW21474   6.880   3.140   0.672
 3148SOL    HW121475   6.937   3.135   0.590
 3148SOL    HW221476   6.915   3.211   0.733
 3149SOL     OW21477   0.969   5.727   1.485
 3149SOL    HW121478   1.006   5.808   1.530
 3149SOL    HW221479   0.894   5.754   1.424
 3150SOL     OW21480   1.194   7.653   5.011
 3150SOL    HW121481   1.223   7.694   4.925
 3150SOL    HW221482   1.100   7.621   5.003
 3151SOL     OW21483   9.435   4.113   1.144
 3151SOL    HW121484   9.345   4.128   1.185
 3151SOL    HW221485   9.488   4.050   1.202
 3152SOL     OW21486   7.324   4.353   5.827
 3152SOL    HW121487   7.403   4.293   5.841
 3152SOL    HW221488   7.331   4.398   5.738
 3153SOL     OW21489   5.969   5.885   6.684
 3153SOL    HW121490   5.987   5.787   6.679
 3153SOL    HW221491   5.873   5.902   6.664
 3154SOL     OW21492   1.769   6.384   4.757
 3154SOL    HW121493   1.790   6.288   4.735
 3154SOL    HW221494   1.808   6.443   4.687
 3155SOL     OW21495   7.188   4.528   0.225
 3155SOL    HW121496   7.102   4.535   0.275
 3155SOL    HW221497   7.262   4.505   0.288
 3156SOL     OW21498   0.043   0.566   5.375
 3156SOL    HW121499   0.036   0.468   5.390
 3156SOL    HW221500   0.068   0.583   5.279
 3157SOL     OW21501   5.285   2.197   0.228
 3157SOL    HW121502   5.330   2.201   0.138
 3157SOL    HW221503   5.347   2.234   0.297
 3158SOL     OW21504   4.636   5.692   2.039
 3158SOL    HW121505   4.650   5.785   2.074
 3158SOL    HW221506   4.724   5.655   2.009
 3159SOL     OW21507   5.882   3.822   1.250
 3159SOL    HW121508   5.959   3.795   1.308
 3159SOL    HW221509   5.901   3.796   1.155
 3160SOL     OW21510   2.311   5.037   1.024
 3160SOL    HW121511   2.368   5.112   0.993
 3160SOL    HW221512   2.323   5.024   1.122
 3161SOL     OW21513   3.687   4.277   2.000
 3161SOL    HW121514   3.787   4.281   1.995
 3161SOL    HW221515   3.659   4.269   2.095
 3162SOL     OW21516   3.442   5.714   0.867
 3162SOL    HW121517   3.370   5.778   0.837
 3162SOL    HW221518   3.526   5.734   0.818
 3163SOL     OW21519   3.866   7.048   6.499
 3163SOL    HW121520   3.964   7.070   6.504
 3163SOL    HW221521   3.851   6.957   6.538
 3164SOL     OW21522   7.381   1.676   0.722
 3164SOL    HW121523   7.327   1.593   0.704
 3164SOL    HW221524   7.341   1.727   0.798
 3165SOL     OW21525   2.874   7.153   6.428
 3165SOL    HW121526   2.929   7.203   6.495
 3165SOL    HW221527   2.856   7.212   6.349
 3166SOL     OW21528   8.366   4.119   0.310
 3166SOL    HW121529   8.433   4.187   0.283
 3166SOL    HW221530   8.401   4.028   0.290
 3167SOL     OW21531   1.524   0.475   1.789
 3167SOL    HW121532   1.611   0.519   1.809
 3167SOL    HW221533   1.461   0.542   1.749
 3168SOL     OW21534   6.894   6.374   6.667
 3168SOL    HW121535   6.880   6.462   6.622
 3168SOL    HW221536   6.816   6.354   6.726
 3169SOL     OW21537   6.886   2.743   0.450
 3169SOL    HW121538   6.867   2.707   0.359
 3169SOL    HW221539   6.911   2.668   0.511
 3170SOL     OW21540   8.133   3.627   0.697
 3170SOL    HW121541   8.036   3.640   0.715
 3170SOL    HW221542   8.172   3.711   0.659
 3171SOL     OW21543   1.525   1.672   6.223
 3171SOL    HW121544   1.425   1.677   6.235
 3171SOL    HW221545   1.567   1.758   6.250
 3172SOL     OW21546   7.896   6.632   4.827
 3172SOL    HW121547   7.879   6.534   4.836
 3172SOL    HW221548   7.821   6.674   4.777
 3173SOL     OW21549   3.202   5.632   5.635
 3173SOL    HW121550   3.103   5.618   5.630
 3173SOL    HW221551   3.222   5.728   5.655
 3174SOL     OW21552   8.158   0.621   4.893
 3174SOL    HW121553   8.122   0.566   4.818
 3174SOL    HW221554   8.256   0.637   4.878
 3175SOL     OW21555   9.038   0.683   1.354
 3175SOL    HW121556   9.054   0.618   1.429
 3175SOL    HW221557   8.946   0.720   1.360
 3176SOL     OW21558   4.572   8.303   1.296
 3176SOL    HW121559   4.500   8.240   1.267
 3176SOL    HW221560   4.586   8.293   1.394
 3177SOL     OW21561   4.534   1.355   1.625
 3177SOL    HW121562   4.511   1.295   1.702
 3177SOL    HW221563   4.526   1.451   1.654
 3178SOL     OW21564   4.775   2.535   0.270
 3178SOL    HW121565   4.684   2.501   0.247
 3178SOL    HW221566   4.775   2.572   0.363
 3179SOL     OW21567   2.283   5.329   5.209
 3179SOL    HW121568   2.260   5.233   5.193
 3179SOL    HW221569   2.252   5.384   5.132
 3180SOL     OW21570   3.386   1.814   1.334
 3180SOL    HW121571   3.466   1.838   1.390
 3180SOL    HW221572   3.307   1.867   1.365
 3181SOL     OW21573   6.789   6.696   4.748
 3181SOL    HW121574   6.755   6.614   4.701
 3181SOL    HW221575   6.889   6.698   4.744
 3182SOL     OW21576   7.710   0.129   6.615
 3182SOL    HW121577   7.622   0.089   6.641
 3182SOL    HW221578   7.698   0.227   6.601
 3183SOL     OW21579   6.519   1.842   6.201
 3183SOL    HW121580   6.438   1.813   6.252
 3183SOL    HW221581   6.494   1.914   6.137
 3184SOL     OW21582   8.885   7.128   1.323
 3184SOL    HW121583   8.858   7.044   1.371
 3184SOL    HW221584   8.874   7.206   1.384
 3185SOL     OW21585   0.877   0.061   5.374
 3185SOL    HW121586   0.892   0.159   5.363
 3185SOL    HW221587   0.875   0.038   5.472
 3186SOL     OW21588   5.581   0.330   1.048
 3186SOL    HW121589   5.604   0.241   1.088
 3186SOL    HW221590   5.536   0.386   1.117
 3187SOL     OW21591   7.422   3.119   0.326
 3187SOL    HW121592   7.391   3.046   0.387
 3187SOL    HW221593   7.483   3.180   0.376
 3188SOL     OW21594   8.467   6.871   1.530
 3188SOL    HW121595   8.430   6.779   1.517
 3188SOL    HW221596   8.404   6.924   1.587
 3189SOL     OW21597   0.628   2.286   6.561
 3189SOL    HW121598   0.694   2.236   6.616
 3189SOL    HW221599   0.645   2.384   6.569
 3190SOL     OW21600   5.486   0.229   5.502
 3190SOL    HW121601   5.427   0.196   5.575
 3190SOL    HW221602   5.434   0.287   5.440
 3191SOL     OW21603   8.060   5.981   0.783
 3191SOL    HW121604   8.044   6.004   0.879
 3191SOL    HW221605   8.144   6.026   0.752
 3192SOL     OW21606   5.182   2.484   0.560
 3192SOL    HW121607   5.086   2.460   0.546
 3192SOL    HW221608   5.198   2.578   0.530
 3193SOL     OW21609   5.759   2.753   0.841
 3193SOL    HW121610   5.684   2.803   0.884
 3193SOL    HW221611   5.749   2.655   0.860
 3194SOL     OW21612   6.426   6.815   5.806
 3194SOL    HW121613   6.416   6.903   5.759
 3194SOL    HW221614   6.423   6.829   5.904
 3195SOL     OW21615   8.333   5.403   6.714
 3195SOL    HW121616   8.344   5.383   6.616
 3195SOL    HW221617   8.240   5.436   6.732
 3196SOL     OW21618   7.296   7.314   0.775
 3196SOL    HW121619   7.237   7.358   0.843
 3196SOL    HW221620   7.239   7.260   0.712
 3197SOL     OW21621   6.472   1.514   6.470
 3197SOL    HW121622   6.565   1.477   6.470
 3197SOL    HW221623   6.463   1.581   6.544
 3198SOL     OW21624   1.788   1.494   0.160
 3198SOL    HW121625   1.815   1.429   0.230
 3198SOL    HW221626   1.846   1.576   0.167
 3199SOL     OW21627   8.537   7.570   6.666
 3199SOL    HW121628   8.524   7.668   6.679
 3199SOL    HW221629   8.634   7.548   6.677
 3200SOL     OW21630   6.284   8.370   1.337
 3200SOL    HW121631   6.355   8.303   1.359
 3200SOL    HW221632   6.303   8.411   1.248
 3201SOL     OW21633   1.245   1.641   0.733
 3201SOL    HW121634   1.148   1.658   0.749
 3201SOL    HW221635   1.260   1.543   0.718
 3202SOL     OW21636   4.633   2.725   0.036
 3202SOL    HW121637   4.606   2.698   0.128
 3202SOL    HW221638   4.644   2.825   0.032
 3203SOL     OW21639   1.697   0.243   0.506
 3203SOL    HW121640   1.647   0.324   0.475
 3203SOL    HW221641   1.774   0.226   0.445
 3204SOL     OW21642   6.972   5.219   0.472
 3204SOL    HW121643   6.947   5.143   0.532
 3204SOL    HW221644   7.012   5.183   0.388
 3205SOL     OW21645   4.990   3.692   0.656
 3205SOL    HW121646   4.909   3.664   0.708
 3205SOL    HW221647   5.060   3.621   0.663
 3206SOL     OW21648   3.546   6.488   0.605
 3206SOL    HW121649   3.605   6.424   0.654
 3206SOL    HW221650   3.477   6.525   0.668
 3207SOL     OW21651   1.070   2.782   5.862
 3207SOL    HW121652   1.104   2.870   5.830
 3207SOL    HW221653   0.988   2.796   5.916
 3208SOL     OW21654   2.792   0.242   6.032
 3208SOL    HW121655   2.824   0.158   6.075
 3208SOL    HW221656   2.841   0.320   6.070
 3209SOL     OW21657   2.357   1.458   5.261
 3209SOL    HW121658   2.374   1.372   5.309
 3209SOL    HW221659   2.287   1.443   5.190
 3210SOL     OW21660   4.077   8.270   5.047
 3210SOL    HW121661   4.003   8.332   5.024
 3210SOL    HW221662   4.050   8.176   5.025
 3211SOL     OW21663   5.890   6.153   5.413
 3211SOL    HW121664   5.855   6.243   5.436
 3211SOL    HW221665   5.852   6.123   5.325
 3212SOL     OW21666   1.180   5.424   1.151
 3212SOL    HW121667   1.266   5.410   1.200
 3212SOL    HW221668   1.125   5.492   1.198
 3213SOL     OW21669   8.929   7.757   1.258
 3213SOL    HW121670   8.926   7.783   1.161
 3213SOL    HW221671   8.876   7.821   1.312
 3214SOL     OW21672   6.459   4.031   5.884
 3214SOL    HW121673   6.467   3.943   5.929
 3214SOL    HW221674   6.434   4.017   5.788
 3215SOL     OW21675   6.827   3.411   0.383
 3215SOL    HW121676   6.755   3.475   0.355
 3215SOL    HW221677   6.898   3.462   0.431
 3216SOL     OW21678   4.932   6.580   1.041
 3216SOL    HW121679   4.925   6.583   0.942
 3216SOL    HW221680   4.922   6.673   1.077
 3217SOL     OW21681   8.305   3.530   1.188
 3217SOL    HW121682   8.336   3.594   1.258
 3217SOL    HW221683   8.364   3.538   1.107
 3218SOL     OW21684   6.841   2.331   1.892
 3218SOL    HW121685   6.803   2.408   1.944
 3218SOL    HW221686   6.821   2.245   1.940
 3219SOL     OW21687   3.583   4.651   0.236
 3219SOL    HW121688   3.594   4.741   0.279
 3219SOL    HW221689   3.671   4.622   0.198
 3220SOL     OW21690   6.306   7.421   5.963
 3220SOL    HW121691   6.249   7.469   5.896
 3220SOL    HW221692   6.379   7.371   5.916
 3221SOL     OW21693   3.286   3.190   6.618
 3221SOL    HW121694   3.220   3.222   6.686
 3221SOL    HW221695   3.374   3.176   6.663
 3222SOL     OW21696   3.198   8.401   6.082
 3222SOL    HW121697   3.098   8.409   6.078
 3222SOL    HW221698   3.225   8.306   6.065
 3223SOL     OW21699   5.240   2.795   0.181
 3223SOL    HW121700   5.242   2.895   0.182
 3223SOL    HW221701   5.145   2.764   0.178
 3224SOL     OW21702   2.414   6.363   5.782
 3224SOL    HW121703   2.356   6.307   5.723
 3224SOL    HW221704   2.502   6.379   5.737
 3225SOL     OW21705   8.447   8.147   6.192
 3225SOL    HW121706   8.484   8.059   6.164
 3225SOL    HW221707   8.363   8.165   6.141
 3226SOL     OW21708   0.174   6.621   4.058
 3226SOL    HW121709   0.267   6.611   4.023
 3226SOL    HW221710   0.143   6.715   4.043
 3227SOL     OW21711   9.280   2.080   0.336
 3227SOL    HW121712   9.357   2.037   0.383
 3227SOL    HW221713   9.253   2.163   0.385
 3228SOL     OW21714   0.180   6.989   4.886
 3228SOL    HW121715   0.197   7.023   4.794
 3228SOL    HW221716   0.090   6.946   4.889
 3229SOL     OW21717   8.531   7.139   6.115
 3229SOL    HW121718   8.453   7.187   6.075
 3229SOL    HW221719   8.506   7.044   6.133
 3230SOL     OW21720   5.982   2.464   0.546
 3230SOL    HW121721   5.958   2.553   0.586
 3230SOL    HW221722   6.082   2.455   0.542
 3231SOL     OW21723   1.179   4.753   6.403
 3231SOL    HW121724   1.099   4.694   6.418
 3231SOL    HW221725   1.263   4.700   6.416
 3232SOL     OW21726   9.177   2.324   0.452
 3232SOL    HW121727   9.181   2.421   0.475
 3232SOL    HW221728   9.098   2.283   0.497
 3233SOL     OW21729   3.835   7.084   0.399
 3233SOL    HW121730   3.816   7.027   0.479
 3233SOL    HW221731   3.920   7.054   0.356
 3234SOL     OW21732   9.102   7.453   4.822
 3234SOL    HW121733   9.011   7.460   4.862
 3234SOL    HW221734   9.095   7.408   4.733
 3235SOL     OW21735   5.909   2.328   0.791
 3235SOL    HW121736   5.952   2.359   0.706
 3235SOL    HW221737   5.895   2.229   0.787
 3236SOL     OW21738   0.094   7.630   0.370
 3236SOL    HW121739   0.001   7.601   0.391
 3236SOL    HW221740   0.149   7.630   0.453
 3237SOL     OW21741   2.526   0.030   0.521
 3237SOL    HW121742   2.558   0.097   0.588
 3237SOL    HW221743   2.502  -0.055   0.568
 3238SOL     OW21744   0.336   1.972   1.406
 3238SOL    HW121745   0.370   1.905   1.473
 3238SOL    HW221746   0.395   2.052   1.406
 3239SOL     OW21747   5.238   1.962   5.369
 3239SOL    HW121748   5.202   2.053   5.350
 3239SOL    HW221749   5.323   1.948   5.318
 3240SOL     OW21750   6.775   1.731   0.246
 3240SOL    HW121751   6.715   1.655   0.220
 3240SOL    HW221752   6.869   1.696   0.259
 3241SOL     OW21753   5.162   4.247   6.687
 3241SOL    HW121754   5.227   4.310   6.645
 3241SOL    HW221755   5.210   4.182   6.746
 3242SOL     OW21756   6.669   7.544   1.212
 3242SOL    HW121757   6.588   7.545   1.154
 3242SOL    HW221758   6.747   7.510   1.160
 3243SOL     OW21759   2.471   2.363   5.957
 3243SOL    HW121760   2.458   2.272   5.994
 3243SOL    HW221761   2.420   2.429   6.011
 3244SOL     OW21762   6.214   7.839   1.323
 3244SOL    HW121763   6.251   7.807   1.410
 3244SOL    HW221764   6.287   7.842   1.255
 3245SOL     OW21765   7.985   3.140   0.990
 3245SOL    HW121766   8.042   3.158   0.910
 3245SOL    HW221767   8.024   3.063   1.041
 3246SOL     OW21768   0.959   0.948   1.587
 3246SOL    HW121769   1.038   0.888   1.593
 3246SOL    HW221770   0.965   1.018   1.659
 3247SOL     OW21771   6.239   2.834   0.136
 3247SOL    HW121772   6.289   2.907   0.181
 3247SOL    HW221773   6.283   2.812   0.049
 3248SOL     OW21774   7.985   1.864   5.877
 3248SOL    HW121775   7.974   1.798   5.803
 3248SOL    HW221776   7.899   1.872   5.927
 3249SOL     OW21777   2.193   0.751   6.065
 3249SOL    HW121778   2.214   0.758   5.968
 3249SOL    HW221779   2.274   0.776   6.118
 3250SOL     OW21780   7.388   0.282   0.008
 3250SOL    HW121781   7.338   0.220   0.068
 3250SOL    HW221782   7.380   0.376   0.042
 3251SOL     OW21783   2.377   2.824   6.716
 3251SOL    HW121784   2.459   2.839   6.770
 3251SOL    HW221785   2.301   2.797   6.777
 3252SOL     OW21786   2.712   0.565   1.261
 3252SOL    HW121787   2.686   0.482   1.310
 3252SOL    HW221788   2.655   0.641   1.292
 3253SOL     OW21789   4.186   6.346   6.729
 3253SOL    HW121790   4.252   6.301   6.670
 3253SOL    HW221791   4.233   6.407   6.793
 3254SOL     OW21792   0.151   7.591   5.703
 3254SOL    HW121793   0.199   7.572   5.789
 3254SOL    HW221794   0.197   7.665   5.654
 3255SOL     OW21795   8.382   3.230   0.425
 3255SOL    HW121796   8.315   3.304   0.424
 3255SOL    HW221797   8.470   3.263   0.390
 3256SOL     OW21798   2.935   7.356   6.204
 3256SOL    HW121799   2.924   7.432   6.267
 3256SOL    HW221800   2.855   7.350   6.144
 3257SOL     OW21801   7.457   0.658   0.667
 3257SOL    HW121802   7.412   0.599   0.734
 3257SOL    HW221803   7.443   0.754   0.692
 3258SOL     OW21804   6.345   2.969   1.165
 3258SOL    HW121805   6.331   2.977   1.263
 3258SOL    HW221806   6.337   3.059   1.122
 3259SOL     OW21807   1.506   6.984   0.231
 3259SOL    HW121808   1.565   6.979   0.151
 3259SOL    HW221809   1.468   7.077   0.239
 3260SOL     OW21810   2.762   8.329   5.442
 3260SOL    HW121811   2.819   8.249   5.422
 3260SOL    HW221812   2.750   8.336   5.541
 3261SOL     OW21813   7.666   1.010   0.248
 3261SOL    HW121814   7.619   0.955   0.317
 3261SOL    HW221815   7.671   0.959   0.162
 3262SOL     OW21816   4.019   2.233   0.781
 3262SOL    HW121817   4.056   2.290   0.708
 3262SOL    HW221818   4.014   2.286   0.866
 3263SOL     OW21819   2.571   0.424   5.241
 3263SOL    HW121820   2.651   0.375   5.276
 3263SOL    HW221821   2.588   0.454   5.147
 3264SOL     OW21822   5.686   8.015   5.723
 3264SOL    HW121823   5.756   7.956   5.765
 3264SOL    HW221824   5.726   8.062   5.644
 3265SOL     OW21825   0.038   7.976   6.056
 3265SOL    HW121826  -0.002   8.059   6.018
 3265SOL    HW221827   0.004   7.897   6.004
 3266SOL     OW21828   6.557   5.372   0.324
 3266SOL    HW121829   6.543   5.319   0.241
 3266SOL    HW221830   6.469   5.388   0.369
 3267SOL     OW21831   9.322   6.605   1.432
 3267SOL    HW121832   9.338   6.513   1.398
 3267SOL    HW221833   9.252   6.603   1.504
 3268SOL     OW21834   5.315   0.664   0.251
 3268SOL    HW121835   5.305   0.565   0.248
 3268SOL    HW221836   5.267   0.700   0.331
 3269SOL     OW21837   3.869   5.331   2.048
 3269SOL    HW121838   3.880   5.232   2.040
 3269SOL    HW221839   3.779   5.357   2.011
 3270SOL     OW21840   4.773   2.274   6.488
 3270SOL    HW121841   4.767   2.175   6.489
 3270SOL    HW221842   4.704   2.312   6.549
 3271SOL     OW21843   8.410   7.793   4.480
 3271SOL    HW121844   8.448   7.740   4.405
 3271SOL    HW221845   8.313   7.773   4.490
 3272SOL     OW21846   8.729   2.285   5.751
 3272SOL    HW121847   8.635   2.319   5.747
 3272SOL    HW221848   8.731   2.198   5.800
 3273SOL     OW21849   7.677   4.193   6.203
 3273SOL    HW121850   7.587   4.236   6.194
 3273SOL    HW221851   7.746   4.264   6.216
 3274SOL     OW21852   2.698   7.335   6.065
 3274SOL    HW121853   2.609   7.329   6.109
 3274SOL    HW221854   2.697   7.406   5.995
 3275SOL     OW21855   7.567   2.622   1.015
 3275SOL    HW121856   7.643   2.568   1.052
 3275SOL    HW221857   7.565   2.711   1.060
 3276SOL     OW21858   0.841   8.034   0.380
 3276SOL    HW121859   0.787   8.105   0.425
 3276SOL    HW221860   0.924   8.075   0.341
 3277SOL     OW21861   5.381   5.968   6.557
 3277SOL    HW121862   5.452   6.001   6.620
 3277SOL    HW221863   5.415   5.974   6.463
 3278SOL     OW21864   7.468   6.582   1.027
 3278SOL    HW121865   7.392   6.574   0.962
 3278SOL    HW221866   7.479   6.495   1.075
 3279SOL     OW21867   8.251   6.393   0.289
 3279SOL    HW121868   8.317   6.375   0.362
 3279SOL    HW221869   8.187   6.463   0.320
 3280SOL     OW21870   8.486   6.611   0.119
 3280SOL    HW121871   8.518   6.591   0.212
 3280SOL    HW221872   8.391   6.582   0.110
 3281SOL     OW21873   2.747   4.885   1.247
 3281SOL    HW121874   2.757   4.943   1.166
 3281SOL    HW221875   2.692   4.805   1.224
 3282SOL     OW21876   5.291   4.076   0.139
 3282SOL    HW121877   5.375   4.058   0.088
 3282SOL    HW221878   5.241   3.991   0.152
 3283SOL     OW21879   0.783   0.735   1.744
 3283SOL    HW121880   0.694   0.757   1.704
 3283SOL    HW221881   0.813   0.811   1.801
 3284SOL     OW21882   3.955   0.390   0.518
 3284SOL    HW121883   3.987   0.481   0.545
 3284SOL    HW221884   4.029   0.342   0.470
 3285SOL     OW21885   3.657   3.589   6.178
 3285SOL    HW121886   3.715   3.669   6.163
 3285SOL    HW221887   3.705   3.507   6.146
 3286SOL     OW21888   7.752   5.919   5.378
 3286SOL    HW121889   7.686   5.993   5.393
 3286SOL    HW221890   7.740   5.883   5.285
 3287SOL     OW21891   4.242   1.090   0.564
 3287SOL    HW121892   4.230   1.021   0.492
 3287SOL    HW221893   4.307   1.159   0.533
 3288SOL     OW21894   7.488   7.398   4.856
 3288SOL    HW121895   7.402   7.363   4.819
 3288SOL    HW221896   7.487   7.498   4.853
 3289SOL     OW21897   6.300   8.354   0.325
 3289SOL    HW121898   6.227   8.293   0.354
 3289SOL    HW221899   6.263   8.446   0.309
 3290SOL     OW21900   1.513   6.419   5.143
 3290SOL    HW121901   1.484   6.324   5.126
 3290SOL    HW221902   1.565   6.453   5.064
 3291SOL     OW21903   5.052   0.336   0.005
 3291SOL    HW121904   5.093   0.249   0.032
 3291SOL    HW221905   5.112   0.381  -0.061
 3292SOL     OW21906   6.880   1.679   6.351
 3292SOL    HW121907   6.905   1.654   6.258
 3292SOL    HW221908   6.957   1.661   6.412
 3293SOL     OW21909   2.124   2.663   0.109
 3293SOL    HW121910   2.096   2.725   0.183
 3293SOL    HW221911   2.044   2.615   0.074
 3294SOL     OW21912   5.736   0.591   4.641
 3294SOL    HW121913   5.649   0.573   4.595
 3294SOL    HW221914   5.767   0.684   4.620
 3295SOL     OW21915   1.660   7.668   5.883
 3295SOL    HW121916   1.603   7.636   5.808
 3295SOL    HW221917   1.615   7.744   5.929
 3296SOL     OW21918   5.721   0.932   0.332
 3296SOL    HW121919   5.731   0.839   0.297
 3296SOL    HW221920   5.625   0.960   0.328
 3297SOL     OW21921   1.564   8.264   1.263
 3297SOL    HW121922   1.470   8.257   1.294
 3297SOL    HW221923   1.580   8.198   1.189
 3298SOL     OW21924   9.172   6.849   0.408
 3298SOL    HW121925   9.085   6.800   0.420
 3298SOL    HW221926   9.157   6.947   0.422
 3299SOL     OW21927   9.330   4.372   0.644
 3299SOL    HW121928   9.248   4.397   0.593
 3299SOL    HW221929   9.337   4.430   0.725
 3300SOL     OW21930   6.909   2.138   6.458
 3300SOL    HW121931   6.916   2.219   6.399
 3300SOL    HW221932   6.816   2.103   6.454
 3301SOL     OW21933   5.134   5.916   6.052
 3301SOL    HW121934   5.040   5.885   6.071
 3301SOL    HW221935   5.183   5.928   6.138
 3302SOL     OW21936   6.701   6.348   0.984
 3302SOL    HW121937   6.692   6.327   0.886
 3302SOL    HW221938   6.610   6.366   1.022
 3303SOL     OW21939   0.358   1.727   0.408
 3303SOL    HW121940   0.264   1.753   0.388
 3303SOL    HW221941   0.387   1.769   0.494
 3304SOL     OW21942   5.690   5.899   0.506
 3304SOL    HW121943   5.746   5.865   0.430
 3304SOL    HW221944   5.681   5.827   0.575
 3305SOL     OW21945   6.763   1.483   0.538
 3305SOL    HW121946   6.767   1.385   0.522
 3305SOL    HW221947   6.845   1.526   0.501
 3306SOL     OW21948   5.978   1.596   6.659
 3306SOL    HW121949   5.968   1.687   6.619
 3306SOL    HW221950   5.928   1.592   6.746
 3307SOL     OW21951   8.374   6.929   6.197
 3307SOL    HW121952   8.421   6.849   6.160
 3307SOL    HW221953   8.342   6.909   6.290
 3308SOL     OW21954   1.964   5.745   6.303
 3308SOL    HW121955   1.998   5.799   6.380
 3308SOL    HW221956   2.005   5.654   6.305
 3309SOL     OW21957   1.605   5.280   1.457
 3309SOL    HW121958   1.540   5.209   1.429
 3309SOL    HW221959   1.698   5.245   1.448
 3310SOL     OW21960   8.748   6.163   6.626
 3310SOL    HW121961   8.697   6.237   6.671
 3310SOL    HW221962   8.839   6.156   6.667
 3311SOL     OW21963   1.595   5.060   0.151
 3311SOL    HW121964   1.497   5.054   0.136
 3311SOL    HW221965   1.643   5.044   0.064
 3312SOL     OW21966   6.855   0.094   5.376
 3312SOL    HW121967   6.875   0.007   5.420
 3312SOL    HW221968   6.827   0.079   5.281
 3313SOL     OW21969   4.331   2.624   0.385
 3313SOL    HW121970   4.402   2.684   0.421
 3313SOL    HW221971   4.253   2.623   0.447
 3314SOL     OW21972   2.783   6.490   6.005
 3314SOL    HW121973   2.738   6.547   6.073
 3314SOL    HW221974   2.832   6.548   5.940
 3315SOL     OW21975   6.391   3.689   5.821
 3315SOL    HW121976   6.307   3.697   5.766
 3315SOL    HW221977   6.467   3.661   5.762
 3316SOL     OW21978   5.755   1.336   6.284
 3316SOL    HW121979   5.684   1.381   6.229
 3316SOL    HW221980   5.815   1.405   6.325
 3317SOL     OW21981   0.811   0.308   5.810
 3317SOL    HW121982   0.750   0.254   5.752
 3317SOL    HW221983   0.757   0.364   5.873
 3318SOL     OW21984   3.069   1.430   0.999
 3318SOL    HW121985   3.028   1.521   0.994
 3318SOL    HW221986   3.107   1.416   1.090
 3319SOL     OW21987   3.464   4.984   0.107
 3319SOL    HW121988   3.442   5.082   0.108
 3319SOL    HW221989   3.532   4.965   0.178
 3320SOL     OW21990   6.531   3.724   6.304
 3320SOL    HW121991   6.457   3.789   6.287
 3320SOL    HW221992   6.598   3.766   6.366
 3321SOL     OW21993   0.392   2.625   6.487
 3321SOL    HW121994   0.315   2.663   6.539
 3321SOL    HW221995   0.372   2.633   6.389
 3322SOL     OW21996   8.166   2.526   0.935
 3322SOL    HW121997   8.236   2.593   0.962
 3322SOL    HW221998   8.189   2.488   0.845
 3323SOL     OW21999   1.894   1.220   6.432
 3323SOL    HW122000   1.899   1.320   6.439
 3323SOL    HW222001   1.967   1.179   6.487
 3324SOL     OW22002   9.094   3.561   6.011
 3324SOL    HW122003   9.108   3.466   6.037
 3324SOL    HW222004   8.999   3.573   5.981
 3325SOL     OW22005   4.188   5.855   6.614
 3325SOL    HW122006   4.234   5.840   6.702
 3325SOL    HW222007   4.254   5.889   6.547
 3326SOL     OW22008   3.695   3.897   0.933
 3326SOL    HW122009   3.706   3.813   0.987
 3326SOL    HW222010   3.784   3.928   0.900
 3327SOL     OW22011   4.224   3.002   1.853
 3327SOL    HW122012   4.292   2.966   1.916
 3327SOL    HW222013   4.266   3.071   1.793
 3328SOL     OW22014   1.060   0.351   5.624
 3328SOL    HW122015   0.974   0.353   5.675
 3328SOL    HW222016   1.137   0.348   5.688
 3329SOL     OW22017   6.483   6.285   5.467
 3329SOL    HW122018   6.399   6.340   5.474
 3329SOL    HW222019   6.479   6.228   5.385
 3330SOL     OW22020   1.159   5.380   1.488
 3330SOL    HW122021   1.184   5.284   1.477
 3330SOL    HW222022   1.242   5.435   1.496
 3331SOL     OW22023   2.679   2.074   6.017
 3331SOL    HW122024   2.737   2.115   5.947
 3331SOL    HW222025   2.647   1.984   5.987
 3332SOL     OW22026   7.115   6.452   5.398
 3332SOL    HW122027   7.048   6.419   5.464
 3332SOL    HW222028   7.189   6.500   5.445
 3333SOL     OW22029   2.252   2.004   6.011
 3333SOL    HW122030   2.196   1.921   6.011
 3333SOL    HW222031   2.203   2.078   5.966
 3334SOL     OW22032   4.150   4.246   6.425
 3334SOL    HW122033   4.068   4.240   6.368
 3334SOL    HW222034   4.231   4.242   6.366
 3335SOL     OW22035   0.323   5.646   6.185
 3335SOL    HW122036   0.240   5.703   6.184
 3335SOL    HW222037   0.298   5.550   6.171
 3336SOL     OW22038   2.394   6.134   5.449
 3336SOL    HW122039   2.353   6.124   5.358
 3336SOL    HW222040   2.478   6.187   5.442
 3337SOL     OW22041   3.989   1.577   5.221
 3337SOL    HW122042   3.949   1.489   5.197
 3337SOL    HW222043   4.051   1.607   5.148
 3338SOL     OW22044   0.546   2.916   6.171
 3338SOL    HW122045   0.482   2.842   6.152
 3338SOL    HW222046   0.593   2.899   6.258
 3339SOL     OW22047   4.845   7.031   1.196
 3339SOL    HW122048   4.753   7.005   1.225
 3339SOL    HW222049   4.847   7.037   1.096
 3340SOL     OW22050   9.113   7.003   0.886
 3340SOL    HW122051   9.110   7.074   0.956
 3340SOL    HW222052   9.191   7.020   0.825
 3341SOL     OW22053   7.597   2.103   6.155
 3341SOL    HW122054   7.504   2.138   6.162
 3341SOL    HW222055   7.610   2.027   6.219
 3342SOL     OW22056   2.755   4.935   6.652
 3342SOL    HW122057   2.776   4.982   6.737
 3342SOL    HW222058   2.746   4.837   6.669
 3343SOL     OW22059   5.685   2.702   0.400
 3343SOL    HW122060   5.613   2.641   0.433
 3343SOL    HW222061   5.749   2.722   0.474
 3344SOL     OW22062   3.228   0.029   0.431
 3344SOL    HW122063   3.193   0.064   0.518
 3344SOL    HW222064   3.315   0.073   0.410
 3345SOL     OW22065   1.692   1.455   5.513
 3345SOL    HW122066   1.682   1.551   5.541
 3345SOL    HW222067   1.641   1.396   5.576
 3346SOL     OW22068   4.654   7.970   1.085
 3346SOL    HW122069   4.586   8.038   1.058
 3346SOL    HW222070   4.628   7.881   1.049
 3347SOL     OW22071   2.317   3.464   0.536
 3347SOL    HW122072   2.416   3.464   0.522
 3347SOL    HW222073   2.293   3.525   0.611
 3348SOL     OW22074   0.028   5.266   6.151
 3348SOL    HW122075   0.068   5.177   6.173
 3348SOL    HW222076   0.062   5.296   6.062
 3349SOL     OW22077   9.114   2.127   5.560
 3349SOL    HW122078   9.134   2.034   5.593
 3349SOL    HW222079   9.199   2.175   5.543
 3350SOL     OW22080   4.034   7.663   5.255
 3350SOL    HW122081   4.048   7.744   5.199
 3350SOL    HW222082   3.983   7.595   5.203
 3351SOL     OW22083   3.297   5.384   5.564
 3351SOL    HW122084   3.254   5.309   5.613
 3351SOL    HW222085   3.254   5.471   5.590
 3352SOL     OW22086   9.467   6.873   6.683
 3352SOL    HW122087   9.449   6.820   6.600
 3352SOL    HW222088   9.389   6.933   6.701
 3353SOL     OW22089   4.444   0.761   0.217
 3353SOL    HW122090   4.352   0.730   0.194
 3353SOL    HW222091   4.484   0.807   0.138
 3354SOL     OW22092   0.371   1.929   5.630
 3354SOL    HW122093   0.277   1.946   5.598
 3354SOL    HW222094   0.419   1.872   5.563
 3355SOL     OW22095   8.892   2.368   1.060
 3355SOL    HW122096   8.928   2.316   0.982
 3355SOL    HW222097   8.840   2.306   1.119
 3356SOL     OW22098   4.512   1.555   5.936
 3356SOL    HW122099   4.498   1.653   5.951
 3356SOL    HW222100   4.427   1.506   5.950
 3357SOL     OW22101   5.962   2.084   0.729
 3357SOL    HW122102   6.013   2.065   0.645
 3357SOL    HW222103   5.921   1.999   0.763
 3358SOL     OW22104   5.881   1.086   0.160
 3358SOL    HW122105   5.921   1.152   0.223
 3358SOL    HW222106   5.825   1.021   0.211
 3359SOL     OW22107   1.785   0.020   0.745
 3359SOL    HW122108   1.833  -0.012   0.664
 3359SOL    HW222109   1.851   0.041   0.817
 3360SOL     OW22110   3.051   1.683   5.692
 3360SOL    HW122111   3.143   1.722   5.691
 3360SOL    HW222112   2.984   1.756   5.701
 3361SOL     OW22113   0.108   6.480   0.155
 3361SOL    HW122114   0.088   6.536   0.075
 3361SOL    HW222115   0.108   6.383   0.130
 3362SOL     OW22116   7.210   1.480   6.137
 3362SOL    HW122117   7.180   1.535   6.058
 3362SOL    HW222118   7.295   1.518   6.173
 3363SOL     OW22119   3.492   1.110   5.879
 3363SOL    HW122120   3.534   1.076   5.963
 3363SOL    HW222121   3.441   1.035   5.835
 3364SOL     OW22122   5.933   8.073   5.215
 3364SOL    HW122123   5.874   8.153   5.228
 3364SOL    HW222124   5.899   8.019   5.138
 3365SOL     OW22125   9.481   6.561   6.666
 3365SOL    HW122126   9.396   6.508   6.672
 3365SOL    HW222127   9.476   6.621   6.586
 3366SOL     OW22128   3.550   0.793   6.423
 3366SOL    HW122129   3.586   0.759   6.510
 3366SOL    HW222130   3.525   0.890   6.433
 3367SOL     OW22131   6.288   1.357   0.189
 3367SOL    HW122132   6.379   1.337   0.225
 3367SOL    HW222133   6.295   1.427   0.118
 3368SOL     OW22134   0.221   0.249   0.145
 3368SOL    HW122135   0.310   0.296   0.146
 3368SOL    HW222136   0.191   0.235   0.240
 3369SOL     OW22137   1.050   0.649   0.259
 3369SOL    HW122138   1.077   0.651   0.163
 3369SOL    HW222139   1.046   0.742   0.295
 3370SOL     OW22140   8.038   4.413   0.399
 3370SOL    HW122141   8.105   4.456   0.339
 3370SOL    HW222142   7.956   4.471   0.405
 3371SOL     OW22143   9.113   8.434   0.933
 3371SOL    HW122144   9.095   8.387   0.847
 3371SOL    HW222145   9.027   8.448   0.982
 3372SOL     OW22146   4.955   5.110   6.376
 3372SOL    HW122147   4.968   5.209   6.381
 3372SOL    HW222148   5.024   5.064   6.431
 3373SOL     OW22149   7.688   4.549   0.081
 3373SOL    HW122150   7.655   4.540   0.175
 3373SOL    HW222151   7.752   4.475   0.060
 3374SOL     OW22152   0.933   0.634   5.693
 3374SOL    HW122153   0.969   0.617   5.601
 3374SOL    HW222154   0.839   0.669   5.685
 3375SOL     OW22155   3.617   7.701   6.166
 3375SOL    HW122156   3.692   7.745   6.215
 3375SOL    HW222157   3.534   7.706   6.222
 3376SOL     OW22158   3.378   5.222   6.389
 3376SOL    HW122159   3.334   5.274   6.316
 3376SOL    HW222160   3.431   5.284   6.446
 3377SOL     OW22161   2.350   5.767   6.185
 3377SOL    HW122162   2.359   5.755   6.284
 3377SOL    HW222163   2.368   5.862   6.161
 3378SOL     OW22164   7.496   6.843   6.187
 3378SOL    HW122165   7.427   6.771   6.179
 3378SOL    HW222166   7.549   6.847   6.102
 3379SOL     OW22167   1.104   5.682   4.794
 3379SOL    HW122168   1.009   5.708   4.811
 3379SOL    HW222169   1.110   5.635   4.706
 3380SOL     OW22170   0.005   2.039   0.715
 3380SOL    HW122171   0.095   1.998   0.725
 3380SOL    HW222172  -0.063   1.967   0.701
 3381SOL     OW22173   7.478   4.678   5.760
 3381SOL    HW122174   7.414   4.688   5.836
 3381SOL    HW222175   7.428   4.680   5.674
 3382SOL     OW22176   3.841   4.529   6.471
 3382SOL    HW122177   3.753   4.524   6.517
 3382SOL    HW222178   3.833   4.583   6.387
 3383SOL     OW22179   6.167   6.972   0.523
 3383SOL    HW122180   6.115   7.045   0.567
 3383SOL    HW222181   6.249   7.010   0.480
 3384SOL     OW22182   3.822   2.408   6.171
 3384SOL    HW122183   3.885   2.421   6.094
 3384SOL    HW222184   3.831   2.316   6.208
 3385SOL     OW22185   2.076   1.343   5.783
 3385SOL    HW122186   2.151   1.290   5.821
 3385SOL    HW222187   1.990   1.292   5.794
 3386SOL     OW22188   5.040   4.278   6.291
 3386SOL    HW122189   4.958   4.318   6.331
 3386SOL    HW222190   5.071   4.334   6.214
 3387SOL     OW22191   2.996   7.399   0.578
 3387SOL    HW122192   2.974   7.320   0.521
 3387SOL    HW222193   3.014   7.368   0.672
 3388SOL     OW22194   6.768   4.375   6.289
 3388SOL    HW122195   6.720   4.288   6.272
 3388SOL    HW222196   6.701   4.446   6.309
 3389SOL     OW22197   4.191   0.971   2.067
 3389SOL    HW122198   4.170   0.876   2.090
 3389SOL    HW222199   4.116   1.010   2.013
 3390SOL     OW22200   5.765   0.730   1.898
 3390SOL    HW122201   5.714   0.756   1.816
 3390SOL    HW222202   5.730   0.780   1.976
 3391SOL     OW22203   1.772   4.203   5.297
 3391SOL    HW122204   1.768   4.129   5.230
 3391SOL    HW222205   1.856   4.256   5.282
 3392SOL     OW22206   0.132   6.343   4.071
 3392SOL    HW122207   0.051   6.292   4.042
 3392SOL    HW222208   0.123   6.439   4.043
 3393SOL     OW22209   7.963   3.223   1.473
 3393SOL    HW122210   8.023   3.286   1.523
 3393SOL    HW222211   7.986   3.129   1.496
 3394SOL     OW22212   3.151   7.828   5.639
 3394SOL    HW122213   3.226   7.889   5.615
 3394SOL    HW222214   3.071   7.882   5.664
 3395SOL     OW22215   5.177   0.519   1.475
 3395SOL    HW122216   5.125   0.567   1.545
 3395SOL    HW222217   5.274   0.542   1.484
 3396SOL     OW22218   7.000   1.392   0.257
 3396SOL    HW122219   7.098   1.384   0.240
 3396SOL    HW222220   6.950   1.371   0.173
 3397SOL     OW22221   1.165   5.107   4.576
 3397SOL    HW122222   1.210   5.183   4.623
 3397SOL    HW222223   1.234   5.047   4.536
 3398SOL     OW22224   0.033   1.888   5.335
 3398SOL    HW122225   0.069   1.807   5.289
 3398SOL    HW222226   0.086   1.969   5.307
 3399SOL     OW22227   1.355   0.876   0.797
 3399SOL    HW122228   1.275   0.821   0.774
 3399SOL    HW222229   1.374   0.867   0.895
 3400SOL     OW22230   3.815   2.263   5.270
 3400SOL    HW122231   3.779   2.193   5.209
 3400SOL    HW222232   3.765   2.348   5.255
 3401SOL     OW22233   1.252   3.606   5.705
 3401SOL    HW122234   1.328   3.601   5.640
 3401SOL    HW222235   1.206   3.694   5.696
 3402SOL     OW22236   7.059   4.022   6.052
 3402SOL    HW122237   7.157   4.020   6.028
 3402SOL    HW222238   7.048   4.003   6.149
 3403SOL     OW22239   5.233   7.063   5.668
 3403SOL    HW122240   5.253   6.966   5.655
 3403SOL    HW222241   5.140   7.082   5.635
 3404SOL     OW22242   7.051   2.577   0.621
 3404SOL    HW122243   7.123   2.585   0.552
 3404SOL    HW222244   7.073   2.634   0.700
 3405SOL     OW22245   5.069   8.290   0.626
 3405SOL    HW122246   4.979   8.308   0.666
 3405SOL    HW222247   5.083   8.349   0.547
 3406SOL     OW22248   6.197   5.817   1.082
 3406SOL    HW122249   6.169   5.721   1.077
 3406SOL    HW222250   6.180   5.852   1.174
 3407SOL     OW22251   5.292   6.704   1.187
 3407SOL    HW122252   5.251   6.617   1.215
 3407SOL    HW222253   5.219   6.772   1.176
 3408SOL     OW22254   3.570   3.500   1.748
 3408SOL    HW122255   3.613   3.582   1.787
 3408SOL    HW222256   3.493   3.472   1.804
 3409SOL     OW22257   5.329   6.226   1.206
 3409SOL    HW122258   5.299   6.182   1.290
 3409SOL    HW222259   5.254   6.228   1.140
 3410SOL     OW22260   3.839   0.415   5.461
 3410SOL    HW122261   3.865   0.473   5.384
 3410SOL    HW222262   3.843   0.467   5.546
 3411SOL     OW22263   8.077   1.770   0.920
 3411SOL    HW122264   8.105   1.804   1.009
 3411SOL    HW222265   8.010   1.697   0.931
 3412SOL     OW22266   8.813   5.458   5.776
 3412SOL    HW122267   8.723   5.500   5.784
 3412SOL    HW222268   8.813   5.389   5.704
 3413SOL     OW22269   5.744   5.297   5.684
 3413SOL    HW122270   5.797   5.248   5.754
 3413SOL    HW222271   5.726   5.390   5.715
 3414SOL     OW22272   8.012   5.084   5.947
 3414SOL    HW122273   7.989   5.003   5.893
 3414SOL    HW222274   8.111   5.090   5.957
 3415SOL     OW22275   7.462   3.107   1.042
 3415SOL    HW122276   7.404   3.047   1.097
 3415SOL    HW222277   7.545   3.128   1.093
 3416SOL     OW22278   6.743   4.783   0.525
 3416SOL    HW122279   6.759   4.691   0.562
 3416SOL    HW222280   6.686   4.776   0.443
 3417SOL     OW22281   1.503   8.482   5.159
 3417SOL    HW122282   1.409   8.514   5.143
 3417SOL    HW222283   1.546   8.459   5.072
 3418SOL     OW22284   2.474   5.690   0.316
 3418SOL    HW122285   2.420   5.750   0.375
 3418SOL    HW222286   2.418   5.611   0.291
 3419SOL     OW22287   3.986   2.260   1.625
 3419SOL    HW122288   4.013   2.311   1.544
 3419SOL    HW222289   3.954   2.323   1.695
 3420SOL     OW22290   8.027   6.579   0.978
 3420SOL    HW122291   7.974   6.592   1.062
 3420SOL    HW222292   8.041   6.481   0.961
 3421SOL     OW22293   2.419   7.653   4.625
 3421SOL    HW122294   2.409   7.651   4.525
 3421SOL    HW222295   2.485   7.724   4.650
 3422SOL     OW22296   2.648   7.130   0.071
 3422SOL    HW122297   2.631   7.103  -0.024
 3422SOL    HW222298   2.602   7.065   0.133
 3423SOL     OW22299   4.801   0.648   0.958
 3423SOL    HW122300   4.891   0.691   0.954
 3423SOL    HW222301   4.782   0.617   1.052
 3424SOL     OW22302   2.129   2.482   1.733
 3424SOL    HW122303   2.036   2.518   1.718
 3424SOL    HW222304   2.195   2.557   1.726
 3425SOL     OW22305   0.554   1.542   5.426
 3425SOL    HW122306   0.469   1.519   5.379
 3425SOL    HW222307   0.555   1.639   5.449
 3426SOL     OW22308   9.049   3.966   0.586
 3426SOL    HW122309   8.957   4.005   0.597
 3426SOL    HW222310   9.068   3.904   0.662
 3427SOL     OW22311   0.032   7.089   5.453
 3427SOL    HW122312   0.083   7.040   5.382
 3427SOL    HW222313  -0.032   7.153   5.410
 3428SOL     OW22314   7.082   4.680   6.118
 3428SOL    HW122315   7.057   4.587   6.146
 3428SOL    HW222316   7.006   4.722   6.069
 3429SOL     OW22317   8.296   1.986   6.294
 3429SOL    HW122318   8.242   1.911   6.333
 3429SOL    HW222319   8.374   1.948   6.244
 3430SOL     OW22320   1.516   6.442   0.442
 3430SOL    HW122321   1.587   6.384   0.403
 3430SOL    HW222322   1.557   6.525   0.479
 3431SOL     OW22323   0.739   1.274   6.709
 3431SOL    HW122324   0.642   1.300   6.719
 3431SOL    HW222325   0.776   1.317   6.628
 3432SOL     OW22326   3.063   8.260   1.010
 3432SOL    HW122327   3.053   8.162   0.992
 3432SOL    HW222328   3.084   8.275   1.107
 3433SOL     OW22329   6.581   3.545   0.946
 3433SOL    HW122330   6.541   3.631   0.914
 3433SOL    HW222331   6.572   3.475   0.875
 3434SOL     OW22332   1.080   0.665   6.554
 3434SOL    HW122333   1.084   0.569   6.584
 3434SOL    HW222334   1.045   0.668   6.460
 3435SOL     OW22335   7.359   7.021   0.167
 3435SOL    HW122336   7.408   7.053   0.249
 3435SOL    HW222337   7.403   6.937   0.134
 3436SOL     OW22338   8.024   4.118   5.613
 3436SOL    HW122339   8.003   4.087   5.706
 3436SOL    HW222340   7.999   4.046   5.548
 3437SOL     OW22341   8.867   5.926   5.813
 3437SOL    HW122342   8.818   5.960   5.733
 3437SOL    HW222343   8.962   5.907   5.788
 3438SOL     OW22344   3.260   7.529   1.807
 3438SOL    HW122345   3.293   7.480   1.888
 3438SOL    HW222346   3.260   7.627   1.826
 3439SOL     OW22347   3.312   6.860   6.090
 3439SOL    HW122348   3.407   6.845   6.060
 3439SOL    HW222349   3.297   6.814   6.177
 3440SOL     OW22350   6.749   6.867   5.260
 3440SOL    HW122351   6.822   6.936   5.257
 3440SOL    HW222352   6.734   6.831   5.168
 3441SOL     OW22353   1.182   5.890   1.085
 3441SOL    HW122354   1.149   5.800   1.113
 3441SOL    HW222355   1.270   5.908   1.130
 3442SOL     OW22356   7.162   7.233   0.246
 3442SOL    HW122357   7.246   7.199   0.204
 3442SOL    HW222358   7.185   7.300   0.316
 3443SOL     OW22359   3.973   0.603   1.405
 3443SOL    HW122360   4.054   0.544   1.407
 3443SOL    HW222361   4.002   0.699   1.397
 3444SOL     OW22362   7.937   3.036   6.333
 3444SOL    HW122363   7.898   3.117   6.378
 3444SOL    HW222364   7.868   2.996   6.272
 3445SOL     OW22365   1.730   7.836   5.478
 3445SOL    HW122366   1.775   7.854   5.391
 3445SOL    HW222367   1.793   7.855   5.553
 3446SOL     OW22368   8.543   6.029   0.729
 3446SOL    HW122369   8.498   5.968   0.664
 3446SOL    HW222370   8.637   6.047   0.698
 3447SOL     OW22371   5.170   8.144   2.057
 3447SOL    HW122372   5.255   8.179   2.095
 3447SOL    HW222373   5.169   8.044   2.064
 3448SOL     OW22374   7.771   1.007   5.730
 3448SOL    HW122375   7.812   0.971   5.647
 3448SOL    HW222376   7.673   1.021   5.716
 3449SOL     OW22377   1.717   2.454   6.247
 3449SOL    HW122378   1.618   2.454   6.233
 3449SOL    HW222379   1.741   2.523   6.315
 3450SOL     OW22380   8.762   0.000   5.859
 3450SOL    HW122381   8.749  -0.049   5.945
 3450SOL    HW222382   8.819   0.081   5.875
 3451SOL     OW22383   1.760   8.161   0.482
 3451SOL    HW122384   1.736   8.258   0.488
 3451SOL    HW222385   1.746   8.118   0.571
 3452SOL     OW22386   8.593   2.757   1.092
 3452SOL    HW122387   8.632   2.743   1.183
 3452SOL    HW222388   8.667   2.769   1.026
 3453SOL     OW22389   1.513   2.411   5.204
 3453SOL    HW122390   1.468   2.334   5.159
 3453SOL    HW222391   1.593   2.438   5.151
 3454SOL     OW22392   6.478   1.870   5.347
 3454SOL    HW122393   6.514   1.778   5.364
 3454SOL    HW222394   6.379   1.868   5.350
 3455SOL     OW22395   4.389   0.875   1.391
 3455SOL    HW122396   4.293   0.849   1.395
 3455SOL    HW222397   4.400   0.967   1.429
 3456SOL     OW22398   3.522   3.292   0.782
 3456SOL    HW122399   3.479   3.355   0.847
 3456SOL    HW222400   3.576   3.344   0.715
 3457SOL     OW22401   6.142   6.191   5.472
 3457SOL    HW122402   6.187   6.164   5.557
 3457SOL    HW222403   6.049   6.155   5.471
 3458SOL     OW22404   9.335   1.162   5.562
 3458SOL    HW122405   9.271   1.088   5.584
 3458SOL    HW222406   9.427   1.136   5.592
 3459SOL     OW22407   5.254   8.062   0.224
 3459SOL    HW122408   5.342   8.107   0.239
 3459SOL    HW222409   5.206   8.106   0.148
 3460SOL     OW22410   2.457   4.147   6.682
 3460SOL    HW122411   2.393   4.107   6.748
 3460SOL    HW222412   2.406   4.182   6.603
 3461SOL     OW22413   0.700   5.737   5.272
 3461SOL    HW122414   0.778   5.679   5.295
 3461SOL    HW222415   0.636   5.686   5.214
 3462SOL     OW22416   1.237   3.090   0.932
 3462SOL    HW122417   1.276   3.164   0.986
 3462SOL    HW222418   1.182   3.127   0.858
 3463SOL     OW22419   1.213   2.500   0.209
 3463SOL    HW122420   1.193   2.513   0.306
 3463SOL    HW222421   1.177   2.412   0.179
 3464SOL     OW22422   4.560   0.301   5.489
 3464SOL    HW122423   4.620   0.380   5.479
 3464SOL    HW222424   4.527   0.272   5.399
 3465SOL     OW22425   6.665   1.650   1.840
 3465SOL    HW122426   6.657   1.570   1.900
 3465SOL    HW222427   6.585   1.708   1.851
 3466SOL     OW22428   6.686   6.057   0.933
 3466SOL    HW122429   6.718   6.148   0.959
 3466SOL    HW222430   6.752   5.988   0.963
 3467SOL     OW22431   4.088   1.117   6.291
 3467SOL    HW122432   4.176   1.109   6.337
 3467SOL    HW222433   4.021   1.158   6.353
 3468SOL     OW22434   4.294   7.169   1.066
 3468SOL    HW122435   4.230   7.246   1.077
 3468SOL    HW222436   4.366   7.176   1.134
 3469SOL     OW22437   7.252   2.707   1.076
 3469SOL    HW122438   7.327   2.772   1.060
 3469SOL    HW222439   7.198   2.737   1.155
 3470SOL     OW22440   1.010   2.886   0.316
 3470SOL    HW122441   1.060   2.877   0.230
 3470SOL    HW222442   1.028   2.807   0.374
 3471SOL     OW22443   1.547   0.078   1.608
 3471SOL    HW122444   1.486  -0.000   1.621
 3471SOL    HW222445   1.642   0.049   1.620
 3472SOL     OW22446   5.807   5.730   1.152
 3472SOL    HW122447   5.854   5.648   1.183
 3472SOL    HW222448   5.792   5.725   1.053
 3473SOL     OW22449   3.130   4.828   1.161
 3473SOL    HW122450   3.141   4.784   1.073
 3473SOL    HW222451   3.077   4.769   1.222
 3474SOL     OW22452   5.376   4.854   5.708
 3474SOL    HW122453   5.363   4.862   5.807
 3474SOL    HW222454   5.288   4.866   5.662
 3475SOL     OW22455   5.194   6.867   6.296
 3475SOL    HW122456   5.250   6.817   6.362
 3475SOL    HW222457   5.175   6.809   6.218
 3476SOL     OW22458   6.687   2.293   1.258
 3476SOL    HW122459   6.632   2.209   1.261
 3476SOL    HW222460   6.628   2.371   1.238
 3477SOL     OW22461   2.125   6.412   5.799
 3477SOL    HW122462   2.210   6.377   5.839
 3477SOL    HW222463   2.100   6.355   5.720
 3478SOL     OW22464   2.829   1.061   0.439
 3478SOL    HW122465   2.747   1.004   0.435
 3478SOL    HW222466   2.909   1.002   0.454
 3479SOL     OW22467   8.573   6.741   6.476
 3479SOL    HW122468   8.604   6.829   6.439
 3479SOL    HW222469   8.493   6.756   6.534
 3480SOL     OW22470   7.263   1.344   0.170
 3480SOL    HW122471   7.307   1.394   0.095
 3480SOL    HW222472   7.320   1.349   0.252
 3481SOL     OW22473   3.925   6.971   6.138
 3481SOL    HW122474   3.972   6.991   6.052
 3481SOL    HW222475   3.835   7.015   6.137
 3482SOL     OW22476   8.813   5.555   6.274
 3482SOL    HW122477   8.821   5.650   6.305
 3482SOL    HW222478   8.845   5.549   6.179
 3483SOL     OW22479   4.396   6.974   6.640
 3483SOL    HW122480   4.373   6.907   6.569
 3483SOL    HW222481   4.388   7.066   6.603
 3484SOL     OW22482   2.617   8.125   0.439
 3484SOL    HW122483   2.561   8.058   0.391
 3484SOL    HW222484   2.714   8.104   0.426
 3485SOL     OW22485   4.884   6.223   6.342
 3485SOL    HW122486   4.834   6.152   6.292
 3485SOL    HW222487   4.822   6.273   6.402
 3486SOL     OW22488   5.466   0.535   4.563
 3486SOL    HW122489   5.446   0.469   4.635
 3486SOL    HW222490   5.418   0.508   4.479
 3487SOL     OW22491   0.569   5.811   0.956
 3487SOL    HW122492   0.614   5.900   0.950
 3487SOL    HW222493   0.540   5.794   1.050
 3488SOL     OW22494   6.958   5.715   1.580
 3488SOL    HW122495   6.862   5.730   1.606
 3488SOL    HW222496   7.018   5.746   1.653
 3489SOL     OW22497   0.238   8.093   5.507
 3489SOL    HW122498   0.221   8.174   5.450
 3489SOL    HW222499   0.237   8.118   5.603
 3490SOL     OW22500   2.590   2.271   6.650
 3490SOL    HW122501   2.527   2.262   6.573
 3490SOL    HW222502   2.548   2.230   6.731
 3491SOL     OW22503   2.149   6.309   6.722
 3491SOL    HW122504   2.236   6.292   6.677
 3491SOL    HW222505   2.155   6.282   6.818
 3492SOL     OW22506   7.928   6.943   5.755
 3492SOL    HW122507   7.959   6.850   5.774
 3492SOL    HW222508   8.008   7.001   5.737
 3493SOL     OW22509   3.986   7.571   6.033
 3493SOL    HW122510   4.070   7.520   6.049
 3493SOL    HW222511   4.005   7.669   6.037
 3494SOL     OW22512   6.175   5.245   6.083
 3494SOL    HW122513   6.247   5.190   6.041
 3494SOL    HW222514   6.088   5.228   6.035
 3495SOL     OW22515   4.387   4.177   2.055
 3495SOL    HW122516   4.462   4.114   2.074
 3495SOL    HW222517   4.410   4.235   1.978
 3496SOL     OW22518   4.782   1.412   5.372
 3496SOL    HW122519   4.689   1.377   5.383
 3496SOL    HW222520   4.781   1.491   5.311
 3497SOL     OW22521   4.234   3.262   5.682
 3497SOL    HW122522   4.221   3.287   5.586
 3497SOL    HW222523   4.243   3.345   5.737
 3498SOL     OW22524   8.539   4.311   0.143
 3498SOL    HW122525   8.556   4.409   0.131
 3498SOL    HW222526   8.623   4.267   0.177
 3499SOL     OW22527   4.270   6.148   6.144
 3499SOL    HW122528   4.224   6.169   6.231
 3499SOL    HW222529   4.213   6.086   6.090
 3500SOL     OW22530   6.557   7.133   5.047
 3500SOL    HW122531   6.642   7.119   4.996
 3500SOL    HW222532   6.502   7.049   5.043
 3501SOL     OW22533   1.407   3.777   1.314
 3501SOL    HW122534   1.344   3.740   1.246
 3501SOL    HW222535   1.464   3.703   1.351
 3502SOL     OW22536   5.679   7.381   5.124
 3502SOL    HW122537   5.723   7.471   5.117
 3502SOL    HW222538   5.601   7.377   5.062
 3503SOL     OW22539   8.254   4.485   1.241
 3503SOL    HW122540   8.181   4.419   1.222
 3503SOL    HW222541   8.214   4.576   1.253
 3504SOL     OW22542   0.359   4.942   0.597
 3504SOL    HW122543   0.451   4.924   0.562
 3504SOL    HW222544   0.291   4.921   0.527
 3505SOL     OW22545   2.571   3.970   0.699
 3505SOL    HW122546   2.643   3.952   0.632
 3505SOL    HW222547   2.482   3.955   0.657
 3506SOL     OW22548   5.570   6.596   6.374
 3506SOL    HW122549   5.529   6.517   6.328
 3506SOL    HW222550   5.585   6.669   6.307
 3507SOL     OW22551   1.994   4.768   6.485
 3507SOL    HW122552   2.052   4.849   6.481
 3507SOL    HW222553   1.993   4.723   6.396
 3508SOL     OW22554   7.454   6.341   5.995
 3508SOL    HW122555   7.490   6.415   5.937
 3508SOL    HW222556   7.454   6.255   5.944
 3509SOL     OW22557   0.947   0.589   5.976
 3509SOL    HW122558   0.977   0.594   5.881
 3509SOL    HW222559   0.991   0.512   6.021
 3510SOL     OW22560   4.906   1.392   6.424
 3510SOL    HW122561   4.988   1.367   6.477
 3510SOL    HW222562   4.855   1.463   6.472
 3511SOL     OW22563   6.552   2.513   2.048
 3511SOL    HW122564   6.514   2.555   2.130
 3511SOL    HW222565   6.636   2.561   2.022
 3512SOL     OW22566   2.582   2.852   1.318
 3512SOL    HW122567   2.659   2.915   1.322
 3512SOL    HW222568   2.611   2.766   1.274
 3513SOL     OW22569   8.746   3.622   0.378
 3513SOL    HW122570   8.807   3.544   0.395
 3513SOL    HW222571   8.686   3.599   0.301
 3514SOL     OW22572   6.787   4.706   6.639
 3514SOL    HW122573   6.803   4.746   6.549
 3514SOL    HW222574   6.783   4.606   6.630
 3515SOL     OW22575   0.919   2.705   1.507
 3515SOL    HW122576   0.826   2.698   1.543
 3515SOL    HW222577   0.985   2.678   1.578
 3516SOL     OW22578   4.716   4.111   5.308
 3516SOL    HW122579   4.638   4.051   5.291
 3516SOL    HW222580   4.787   4.062   5.358
 3517SOL     OW22581   4.727   2.403   6.222
 3517SOL    HW122582   4.635   2.380   6.190
 3517SOL    HW222583   4.738   2.373   6.317
 3518SOL     OW22584   8.624   7.330   0.193
 3518SOL    HW122585   8.665   7.347   0.103
 3518SOL    HW222586   8.576   7.242   0.192
 3519SOL     OW22587   7.871   7.275   0.983
 3519SOL    HW122588   7.876   7.350   1.048
 3519SOL    HW222589   7.962   7.258   0.945
 3520SOL     OW22590   7.645   7.511   6.613
 3520SOL    HW122591   7.614   7.602   6.641
 3520SOL    HW222592   7.569   7.462   6.570
 3521SOL     OW22593   5.728   3.354   1.255
 3521SOL    HW122594   5.809   3.383   1.306
 3521SOL    HW222595   5.688   3.274   1.300
 3522SOL     OW22596   2.739   0.316   1.402
 3522SOL    HW122597   2.697   0.292   1.315
 3522SOL    HW222598   2.711   0.250   1.472
 3523SOL     OW22599   8.285   7.746   4.985
 3523SOL    HW122600   8.233   7.820   4.943
 3523SOL    HW222601   8.353   7.783   5.047
 3524SOL     OW22602   1.604   0.447   5.900
 3524SOL    HW122603   1.555   0.491   5.825
 3524SOL    HW222604   1.573   0.485   5.987
 3525SOL     OW22605   4.736   5.478   1.611
 3525SOL    HW122606   4.690   5.418   1.676
 3525SOL    HW222607   4.690   5.567   1.608
 3526SOL     OW22608   9.139   2.737   0.969
 3526SOL    HW122609   9.194   2.764   1.048
 3526SOL    HW222610   9.163   2.644   0.942
 3527SOL     OW22611   5.093   6.893   1.143
 3527SOL    HW122612   5.015   6.933   1.190
 3527SOL    HW222613   5.123   6.954   1.071
 3528SOL     OW22614   4.144   4.804   1.189
 3528SOL    HW122615   4.076   4.736   1.161
 3528SOL    HW222616   4.227   4.793   1.135
 3529SOL     OW22617   6.298   1.577   1.355
 3529SOL    HW122618   6.217   1.544   1.307
 3529SOL    HW222619   6.354   1.631   1.292
 3530SOL     OW22620   3.350   6.172   1.261
 3530SOL    HW122621   3.252   6.184   1.281
 3530SOL    HW222622   3.389   6.104   1.323
 3531SOL     OW22623   8.631   6.143   5.295
 3531SOL    HW122624   8.597   6.118   5.386
 3531SOL    HW222625   8.654   6.060   5.244
 3532SOL     OW22626   4.423   6.056   1.136
 3532SOL    HW122627   4.396   6.140   1.181
 3532SOL    HW222628   4.353   5.986   1.148
 3533SOL     OW22629   4.718   5.225   0.515
 3533SOL    HW122630   4.684   5.274   0.435
 3533SOL    HW222631   4.649   5.158   0.545
 3534SOL     OW22632   6.838   0.306   0.770
 3534SOL    HW122633   6.840   0.230   0.836
 3534SOL    HW222634   6.874   0.274   0.682
 3535SOL     OW22635   7.404   6.000   1.130
 3535SOL    HW122636   7.419   6.062   1.053
 3535SOL    HW222637   7.469   6.021   1.203
 3536SOL     OW22638   8.167   4.315   6.330
 3536SOL    HW122639   8.238   4.287   6.266
 3536SOL    HW222640   8.081   4.329   6.281
 3537SOL     OW22641   0.836   6.781   5.323
 3537SOL    HW122642   0.761   6.820   5.270
 3537SOL    HW222643   0.892   6.855   5.361
 3538SOL     OW22644   7.534   5.663   1.157
 3538SOL    HW122645   7.517   5.614   1.242
 3538SOL    HW222646   7.624   5.706   1.160
 3539SOL     OW22647   5.385   4.913   0.929
 3539SOL    HW122648   5.425   4.824   0.903
 3539SOL    HW222649   5.455   4.984   0.920
 3540SOL     OW22650   4.037   6.719   5.332
 3540SOL    HW122651   3.970   6.764   5.390
 3540SOL    HW222652   4.029   6.620   5.342
 3541SOL     OW22653   4.226   0.259   0.518
 3541SOL    HW122654   4.254   0.244   0.613
 3541SOL    HW222655   4.182   0.177   0.483
 3542SOL     OW22656   4.934   8.209   6.158
 3542SOL    HW122657   5.019   8.259   6.176
 3542SOL    HW222658   4.898   8.172   6.244
 3543SOL     OW22659   0.229   5.504   0.235
 3543SOL    HW122660   0.133   5.475   0.233
 3543SOL    HW222661   0.284   5.432   0.278
 3544SOL     OW22662   0.496   8.481   6.423
 3544SOL    HW122663   0.430   8.409   6.402
 3544SOL    HW222664   0.587   8.441   6.429
 3545SOL     OW22665   2.252   2.554   5.671
 3545SOL    HW122666   2.316   2.613   5.719
 3545SOL    HW222667   2.171   2.540   5.727
 3546SOL     OW22668   5.023   0.031   0.502
 3546SOL    HW122669   5.012   0.073   0.592
 3546SOL    HW222670   4.933   0.021   0.460
 3547SOL     OW22671   0.362   5.256   6.420
 3547SOL    HW122672   0.391   5.351   6.434
 3547SOL    HW222673   0.280   5.254   6.364
 3548SOL     OW22674   1.486   4.318   5.774
 3548SOL    HW122675   1.454   4.381   5.845
 3548SOL    HW222676   1.515   4.370   5.694
 3549SOL     OW22677   2.419   4.867   6.418
 3549SOL    HW122678   2.403   4.853   6.516
 3549SOL    HW222679   2.517   4.870   6.400
 3550SOL     OW22680   0.189   4.875   0.788
 3550SOL    HW122681   0.212   4.889   0.884
 3550SOL    HW222682   0.257   4.920   0.730
 3551SOL     OW22683   0.232   1.012   6.253
 3551SOL    HW122684   0.261   0.919   6.276
 3551SOL    HW222685   0.283   1.076   6.311
 3552SOL     OW22686   7.169   7.965   6.262
 3552SOL    HW122687   7.155   8.061   6.239
 3552SOL    HW222688   7.224   7.921   6.191
 3553SOL     OW22689   0.880   2.099   5.697
 3553SOL    HW122690   0.964   2.063   5.739
 3553SOL    HW222691   0.905   2.165   5.626
 3554SOL     OW22692   6.491   4.419   6.315
 3554SOL    HW122693   6.427   4.398   6.389
 3554SOL    HW222694   6.462   4.373   6.232
 3555SOL     OW22695   1.086   5.685   1.231
 3555SOL    HW122696   1.186   5.687   1.229
 3555SOL    HW222697   1.054   5.713   1.322
 3556SOL     OW22698   3.550   4.293   0.671
 3556SOL    HW122699   3.555   4.225   0.745
 3556SOL    HW222700   3.640   4.300   0.627
 3557SOL     OW22701   8.554   0.838   5.557
 3557SOL    HW122702   8.460   0.872   5.557
 3557SOL    HW222703   8.577   0.804   5.465
 3558SOL     OW22704   0.050   5.460   5.058
 3558SOL    HW122705   0.130   5.417   5.016
 3558SOL    HW222706  -0.017   5.390   5.082
 3559SOL     OW22707   9.464   0.836   6.726
 3559SOL    HW122708   9.539   0.864   6.666
 3559SOL    HW222709   9.433   0.915   6.778
 3560SOL     OW22710   4.301   8.049   0.095
 3560SOL    HW122711   4.388   8.024   0.053
 3560SOL    HW222712   4.315   8.069   0.192
 3561SOL     OW22713   3.047   6.397   0.280
 3561SOL    HW122714   3.097   6.448   0.350
 3561SOL    HW222715   2.975   6.342   0.323
 3562SOL     OW22716   1.485   6.979   4.476
 3562SOL    HW122717   1.419   6.940   4.412
 3562SOL    HW222718   1.461   7.074   4.496
 3563SOL     OW22719   8.590   2.373   0.360
 3563SOL    HW122720   8.492   2.385   0.379
 3563SOL    HW222721   8.626   2.454   0.315
 3564SOL     OW22722   5.184   2.845   6.438
 3564SOL    HW122723   5.281   2.854   6.418
 3564SOL    HW222724   5.160   2.748   6.446
 3565SOL     OW22725   1.944   1.947   0.877
 3565SOL    HW122726   1.893   1.985   0.954
 3565SOL    HW222727   1.896   1.867   0.842
 3566SOL     OW22728   6.990   4.083   5.397
 3566SOL    HW122729   7.004   3.984   5.395
 3566SOL    HW222730   7.075   4.128   5.422
 3567SOL     OW22731   9.484   3.893   0.463
 3567SOL    HW122732   9.432   3.878   0.380
 3567SOL    HW222733   9.449   3.973   0.511
 3568SOL     OW22734   2.127   4.992   0.499
 3568SOL    HW122735   2.048   4.931   0.510
 3568SOL    HW222736   2.181   4.992   0.584
 3569SOL     OW22737   3.645   6.435   1.411
 3569SOL    HW122738   3.743   6.443   1.429
 3569SOL    HW222739   3.595   6.444   1.497
 3570SOL     OW22740   2.135   1.399   5.137
 3570SOL    HW122741   2.105   1.480   5.086
 3570SOL    HW222742   2.135   1.319   5.077
 3571SOL     OW22743   5.980   7.715   0.204
 3571SOL    HW122744   5.909   7.648   0.183
 3571SOL    HW222745   6.056   7.705   0.139
 3572SOL     OW22746   8.724   7.204   5.217
 3572SOL    HW122747   8.723   7.119   5.164
 3572SOL    HW222748   8.723   7.183   5.315
 3573SOL     OW22749   7.851   7.849   6.426
 3573SOL    HW122750   7.761   7.872   6.387
 3573SOL    HW222751   7.845   7.848   6.526
 3574SOL     OW22752   1.944   2.100   6.578
 3574SOL    HW122753   1.905   2.013   6.546
 3574SOL    HW222754   1.908   2.121   6.668
 3575SOL     OW22755   5.813   7.823   0.925
 3575SOL    HW122756   5.815   7.802   1.022
 3575SOL    HW222757   5.797   7.920   0.912
 3576SOL     OW22758   7.348   0.594   6.247
 3576SOL    HW122759   7.297   0.652   6.311
 3576SOL    HW222760   7.372   0.508   6.291
 3577SOL     OW22761   4.370   0.661   2.269
 3577SOL    HW122762   4.274   0.675   2.293
 3577SOL    HW222763   4.407   0.744   2.228
 3578SOL     OW22764   7.118   2.735   0.839
 3578SOL    HW122765   7.031   2.784   0.845
 3578SOL    HW222766   7.138   2.691   0.927
 3579SOL     OW22767   6.418   6.007   5.603
 3579SOL    HW122768   6.343   6.056   5.647
 3579SOL    HW222769   6.473   6.072   5.550
 3580SOL     OW22770   1.868   8.033   6.508
 3580SOL    HW122771   1.906   8.086   6.584
 3580SOL    HW222772   1.779   7.996   6.535
 3581SOL     OW22773   0.984   7.861   0.523
 3581SOL    HW122774   0.917   7.914   0.470
 3581SOL    HW222775   1.073   7.906   0.517
 3582SOL     OW22776   2.717   4.057   1.427
 3582SOL    HW122777   2.806   4.101   1.417
 3582SOL    HW222778   2.726   3.977   1.487
 3583SOL     OW22779   1.559   3.235   5.692
 3583SOL    HW122780   1.594   3.279   5.775
 3583SOL    HW222781   1.559   3.301   5.616
 3584SOL     OW22782   0.437   0.261   0.523
 3584SOL    HW122783   0.430   0.252   0.622
 3584SOL    HW222784   0.476   0.178   0.485
 3585SOL     OW22785   5.956   6.608   1.371
 3585SOL    HW122786   6.014   6.671   1.319
 3585SOL    HW222787   5.868   6.652   1.390
 3586SOL     OW22788   2.960   5.958   0.597
 3586SOL    HW122789   3.052   5.946   0.560
 3586SOL    HW222790   2.907   5.874   0.580
 3587SOL     OW22791   0.081   4.800   0.175
 3587SOL    HW122792   0.124   4.733   0.114
 3587SOL    HW222793   0.106   4.893   0.145
 3588SOL     OW22794   3.374   0.117   6.097
 3588SOL    HW122795   3.462   0.084   6.131
 3588SOL    HW222796   3.303   0.049   6.117
 3589SOL     OW22797   4.534   5.566   1.237
 3589SOL    HW122798   4.547   5.558   1.138
 3589SOL    HW222799   4.600   5.506   1.284
 3590SOL     OW22800   7.144   1.071   6.334
 3590SOL    HW122801   7.070   1.006   6.315
 3590SOL    HW222802   7.162   1.074   6.432
 3591SOL     OW22803   4.016   6.309   0.186
 3591SOL    HW122804   3.943   6.250   0.152
 3591SOL    HW222805   4.085   6.322   0.115
 3592SOL     OW22806   2.874   1.735   0.585
 3592SOL    HW122807   2.901   1.732   0.681
 3592SOL    HW222808   2.949   1.772   0.531
 3593SOL     OW22809   1.057   3.878   0.564
 3593SOL    HW122810   1.036   3.791   0.607
 3593SOL    HW222811   0.974   3.933   0.557
 3594SOL     OW22812   7.119   3.341   5.323
 3594SOL    HW122813   7.120   3.436   5.292
 3594SOL    HW222814   7.197   3.293   5.285
 3595SOL     OW22815   3.235   5.922   0.485
 3595SOL    HW122816   3.229   5.823   0.495
 3595SOL    HW222817   3.248   5.945   0.389
 3596SOL     OW22818   1.018   0.155   5.917
 3596SOL    HW122819   0.991   0.096   5.993
 3596SOL    HW222820   0.936   0.183   5.866
 3597SOL     OW22821   5.445   7.417   6.366
 3597SOL    HW122822   5.474   7.387   6.275
 3597SOL    HW222823   5.380   7.351   6.404
 3598SOL     OW22824   7.961   6.639   5.798
 3598SOL    HW122825   8.056   6.623   5.827
 3598SOL    HW222826   7.901   6.575   5.845
 3599SOL     OW22827   8.408   3.767   5.913
 3599SOL    HW122828   8.382   3.827   5.837
 3599SOL    HW222829   8.326   3.741   5.965
 3600SOL     OW22830   8.577   5.181   5.988
 3600SOL    HW122831   8.570   5.119   6.066
 3600SOL    HW222832   8.656   5.156   5.932
 3601SOL     OW22833   4.749   7.982   5.055
 3601SOL    HW122834   4.688   7.999   4.977
 3601SOL    HW222835   4.694   7.961   5.136
 3602SOL     OW22836   5.232   7.774   0.974
 3602SOL    HW122837   5.174   7.743   1.050
 3602SOL    HW222838   5.196   7.737   0.888
 3603SOL     OW22839   8.058   0.539   0.118
 3603SOL    HW122840   8.017   0.545   0.027
 3603SOL    HW222841   8.083   0.631   0.149
 3604SOL     OW22842   2.120   6.064   1.373
 3604SOL    HW122843   2.153   6.131   1.439
 3604SOL    HW222844   2.186   5.989   1.364
 3605SOL     OW22845   0.713   8.448   6.040
 3605SOL    HW122846   0.704   8.349   6.052
 3605SOL    HW222847   0.797   8.478   6.087
 3606SOL     OW22848   5.237   4.986   1.167
 3606SOL    HW122849   5.283   5.074   1.173
 3606SOL    HW222850   5.291   4.924   1.110
 3607SOL     OW22851   1.950   8.149   0.892
 3607SOL    HW122852   1.950   8.058   0.850
 3607SOL    HW222853   1.934   8.141   0.990
 3608SOL     OW22854   6.471   5.587   6.173
 3608SOL    HW122855   6.481   5.583   6.073
 3608SOL    HW222856   6.460   5.494   6.209
 3609SOL     OW22857   4.787   1.536   4.737
 3609SOL    HW122858   4.725   1.515   4.812
 3609SOL    HW222859   4.753   1.616   4.687
 3610SOL     OW22860   2.677   6.217   5.445
 3610SOL    HW122861   2.737   6.165   5.506
 3610SOL    HW222862   2.691   6.187   5.351
 3611SOL     OW22863   1.338   0.565   0.150
 3611SOL    HW122864   1.313   0.472   0.123
 3611SOL    HW222865   1.353   0.568   0.249
 3612SOL     OW22866   5.902   4.500   5.614
 3612SOL    HW122867   5.810   4.506   5.575
 3612SOL    HW222868   5.896   4.464   5.707
 3613SOL     OW22869   3.874   1.830   5.333
 3613SOL    HW122870   3.889   1.915   5.282
 3613SOL    HW222871   3.917   1.754   5.284
 3614SOL     OW22872   6.537   0.341   5.193
 3614SOL    HW122873   6.550   0.380   5.102
 3614SOL    HW222874   6.444   0.304   5.201
 3615SOL     OW22875   4.790   6.830   0.380
 3615SOL    HW122876   4.804   6.753   0.319
 3615SOL    HW222877   4.717   6.889   0.345
 3616SOL     OW22878   1.928   5.889   0.498
 3616SOL    HW122879   1.888   5.913   0.409
 3616SOL    HW222880   2.017   5.935   0.507
 3617SOL     OW22881   4.177   4.187   1.711
 3617SOL    HW122882   4.260   4.153   1.668
 3617SOL    HW222883   4.159   4.135   1.794
 3618SOL     OW22884   8.502   3.902   6.531
 3618SOL    HW122885   8.543   3.860   6.612
 3618SOL    HW222886   8.544   3.991   6.515
 3619SOL     OW22887   4.263   0.396   0.103
 3619SOL    HW122888   4.306   0.425   0.018
 3619SOL    HW222889   4.296   0.453   0.178
 3620SOL     OW22890   5.171   6.361   5.351
 3620SOL    HW122891   5.160   6.324   5.444
 3620SOL    HW222892   5.259   6.409   5.345
 3621SOL     OW22893   5.664   4.491   0.981
 3621SOL    HW122894   5.660   4.420   0.910
 3621SOL    HW222895   5.716   4.457   1.059
 3622SOL     OW22896   7.267   7.895   0.377
 3622SOL    HW122897   7.193   7.866   0.316
 3622SOL    HW222898   7.276   7.828   0.452
 3623SOL     OW22899   6.891   4.420   0.390
 3623SOL    HW122900   6.985   4.389   0.405
 3623SOL    HW222901   6.851   4.368   0.314
 3624SOL     OW22902   2.082   3.401   5.978
 3624SOL    HW122903   2.159   3.454   6.014
 3624SOL    HW222904   2.101   3.376   5.883
 3625SOL     OW22905   0.838   0.476   1.794
 3625SOL    HW122906   0.832   0.576   1.785
 3625SOL    HW222907   0.927   0.452   1.832
 3626SOL     OW22908   4.803   1.701   6.329
 3626SOL    HW122909   4.735   1.766   6.296
 3626SOL    HW222910   4.889   1.749   6.350
 3627SOL     OW22911   1.796   2.186   0.728
 3627SOL    HW122912   1.830   2.202   0.635
 3627SOL    HW222913   1.697   2.173   0.725
 3628SOL     OW22914   3.893   5.730   0.917
 3628SOL    HW122915   3.919   5.820   0.883
 3628SOL    HW222916   3.822   5.691   0.859
 3629SOL     OW22917   3.654   7.248   6.426
 3629SOL    HW122918   3.584   7.217   6.490
 3629SOL    HW222919   3.744   7.221   6.461
 3630SOL     OW22920   1.529   2.315   0.245
 3630SOL    HW122921   1.523   2.359   0.155
 3630SOL    HW222922   1.595   2.364   0.302
 3631SOL     OW22923   5.318   3.420   6.203
 3631SOL    HW122924   5.231   3.471   6.206
 3631SOL    HW222925   5.392   3.483   6.178
 3632SOL     OW22926   4.907   8.046   0.931
 3632SOL    HW122927   4.893   7.952   0.902
 3632SOL    HW222928   4.818   8.092   0.937
 3633SOL     OW22929   5.167   1.473   5.877
 3633SOL    HW122930   5.224   1.536   5.825
 3633SOL    HW222931   5.112   1.418   5.814
 3634SOL     OW22932   6.747   1.011   0.794
 3634SOL    HW122933   6.767   0.980   0.701
 3634SOL    HW222934   6.649   1.007   0.810
 3635SOL     OW22935   5.423   6.061   0.441
 3635SOL    HW122936   5.507   6.021   0.477
 3635SOL    HW222937   5.444   6.117   0.361
 3636SOL     OW22938   2.069   2.285   0.420
 3636SOL    HW122939   2.104   2.288   0.327
 3636SOL    HW222940   2.138   2.243   0.480
 3637SOL     OW22941   0.835   6.280   0.385
 3637SOL    HW122942   0.895   6.252   0.460
 3637SOL    HW222943   0.829   6.380   0.383
 3638SOL     OW22944   6.878   7.498   5.400
 3638SOL    HW122945   6.839   7.462   5.315
 3638SOL    HW222946   6.929   7.581   5.380
 3639SOL     OW22947   3.230   3.708   0.434
 3639SOL    HW122948   3.168   3.780   0.407
 3639SOL    HW222949   3.324   3.733   0.410
 3640SOL     OW22950   8.494   1.391   6.532
 3640SOL    HW122951   8.452   1.380   6.622
 3640SOL    HW222952   8.466   1.315   6.473
 3641SOL     OW22953   3.891   7.495   1.003
 3641SOL    HW122954   3.802   7.524   1.038
 3641SOL    HW222955   3.883   7.476   0.905
 3642SOL     OW22956   0.110   6.946   6.150
 3642SOL    HW122957   0.127   7.007   6.227
 3642SOL    HW222958   0.067   6.862   6.183
 3643SOL     OW22959   4.458   7.248   6.604
 3643SOL    HW122960   4.493   7.310   6.674
 3643SOL    HW222961   4.442   7.300   6.519
 3644SOL     OW22962   3.768   0.071   0.989
 3644SOL    HW122963   3.838   0.141   1.001
 3644SOL    HW222964   3.771   0.036   0.895
 3645SOL     OW22965   5.733   7.772   1.549
 3645SOL    HW122966   5.713   7.855   1.600
 3645SOL    HW222967   5.832   7.766   1.533
 3646SOL     OW22968   5.612   7.689   5.951
 3646SOL    HW122969   5.555   7.720   5.875
 3646SOL    HW222970   5.554   7.665   6.029
 3647SOL     OW22971   7.612   0.383   6.598
 3647SOL    HW122972   7.541   0.347   6.659
 3647SOL    HW222973   7.570   0.416   6.514
 3648SOL     OW22974   6.061   4.049   0.073
 3648SOL    HW122975   6.009   4.069  -0.010
 3648SOL    HW222976   6.066   4.131   0.130
 3649SOL     OW22977   6.029   8.409   4.829
 3649SOL    HW122978   5.999   8.368   4.743
 3649SOL    HW222979   6.033   8.509   4.818
 3650SOL     OW22980   4.418   2.288   6.070
 3650SOL    HW122981   4.437   2.375   6.026
 3650SOL    HW222982   4.324   2.259   6.049
 3651SOL     OW22983   7.095   5.870   0.755
 3651SOL    HW122984   7.086   5.925   0.672
 3651SOL    HW222985   7.094   5.930   0.835
 3652SOL     OW22986   3.185   6.652   6.643
 3652SOL    HW122987   3.255   6.581   6.630
 3652SOL    HW222988   3.145   6.643   6.735
 3653SOL     OW22989   7.330   1.865   0.116
 3653SOL    HW122990   7.295   1.890   0.025
 3653SOL    HW222991   7.430   1.855   0.112
 3654SOL     OW22992   0.754   3.071   5.558
 3654SOL    HW122993   0.711   3.072   5.467
 3654SOL    HW222994   0.853   3.080   5.548
 3655SOL     OW22995   4.084   2.856   6.103
 3655SOL    HW122996   4.183   2.847   6.108
 3655SOL    HW222997   4.059   2.901   6.017
 3656SOL     OW22998   4.972   4.052   6.613
 3656SOL    HW122999   5.047   4.116   6.626
 3656SOL    HW223000   4.891   4.101   6.580
 3657SOL     OW23001   2.729   7.934   5.402
 3657SOL    HW123002   2.662   7.955   5.331
 3657SOL    HW223003   2.765   7.842   5.387
 3658SOL     OW23004   8.802   7.776   5.949
 3658SOL    HW123005   8.855   7.851   5.910
 3658SOL    HW223006   8.719   7.812   5.991
 3659SOL     OW23007   6.637   2.009   6.681
 3659SOL    HW123008   6.593   2.093   6.650
 3659SOL    HW223009   6.681   1.964   6.603
 3660SOL     OW23010   2.776   0.693   6.705
 3660SOL    HW123011   2.738   0.757   6.638
 3660SOL    HW223012   2.846   0.740   6.760
 3661SOL     OW23013   8.372   5.898   5.249
 3661SOL    HW123014   8.388   5.813   5.198
 3661SOL    HW223015   8.301   5.951   5.203
 3662SOL     OW23016   5.918   3.276   2.176
 3662SOL    HW123017   5.971   3.230   2.247
 3662SOL    HW223018   5.836   3.223   2.155
 3663SOL     OW23019   8.294   3.991   6.186
 3663SOL    HW123020   8.259   4.043   6.108
 3663SOL    HW223021   8.224   3.987   6.257
 3664SOL     OW23022   9.229   4.323   5.945
 3664SOL    HW123023   9.201   4.335   5.850
 3664SOL    HW223024   9.275   4.235   5.956
 3665SOL     OW23025   6.849   8.349   5.485
 3665SOL    HW123026   6.892   8.261   5.506
 3665SOL    HW223027   6.761   8.355   5.532
 3666SOL     OW23028   3.713   4.920   0.875
 3666SOL    HW123029   3.681   4.896   0.783
 3666SOL    HW223030   3.798   4.869   0.895
 3667SOL     OW23031   6.815   2.673   0.194
 3667SOL    HW123032   6.828   2.747   0.128
 3667SOL    HW223033   6.795   2.588   0.146
 3668SOL     OW23034   2.527   6.024   5.839
 3668SOL    HW123035   2.590   6.034   5.762
 3668SOL    HW223036   2.434   6.049   5.809
 3669SOL     OW23037   6.051   1.562   1.190
 3669SOL    HW123038   5.990   1.606   1.256
 3669SOL    HW223039   6.047   1.611   1.103
 3670SOL     OW23040   5.017   6.679   1.763
 3670SOL    HW123041   5.026   6.655   1.666
 3670SOL    HW223042   4.939   6.630   1.802
 3671SOL     OW23043   3.133   5.675   6.311
 3671SOL    HW123044   3.147   5.662   6.409
 3671SOL    HW223045   3.059   5.614   6.280
 3672SOL     OW23046   0.533   1.797   5.430
 3672SOL    HW123047   0.558   1.879   5.482
 3672SOL    HW223048   0.507   1.823   5.337
 3673SOL     OW23049   0.924   5.616   6.573
 3673SOL    HW123050   0.908   5.679   6.496
 3673SOL    HW223051   0.845   5.618   6.634
 3674SOL     OW23052   7.141   4.716   5.283
 3674SOL    HW123053   7.093   4.771   5.214
 3674SOL    HW223054   7.236   4.702   5.254
 3675SOL     OW23055   2.417   5.151   5.785
 3675SOL    HW123056   2.443   5.244   5.813
 3675SOL    HW223057   2.475   5.085   5.831
 3676SOL     OW23058   0.688   8.409   5.245
 3676SOL    HW123059   0.766   8.453   5.291
 3676SOL    HW223060   0.721   8.358   5.165
 3677SOL     OW23061   9.230   6.417   5.199
 3677SOL    HW123062   9.220   6.393   5.102
 3677SOL    HW223063   9.261   6.512   5.207
 3678SOL     OW23064   0.309   3.529   6.642
 3678SOL    HW123065   0.241   3.512   6.713
 3678SOL    HW223066   0.266   3.574   6.564
 3679SOL     OW23067   3.020   8.262   5.658
 3679SOL    HW123068   3.015   8.211   5.572
 3679SOL    HW223069   3.012   8.198   5.735
 3680SOL     OW23070   6.682   6.013   0.455
 3680SOL    HW123071   6.760   5.960   0.486
 3680SOL    HW223072   6.713   6.091   0.401
 3681SOL     OW23073   3.701   3.749   0.203
 3681SOL    HW123074   3.766   3.753   0.279
 3681SOL    HW223075   3.733   3.808   0.129
 3682SOL     OW23076   4.292   0.180   1.702
 3682SOL    HW123077   4.384   0.147   1.722
 3682SOL    HW223078   4.275   0.264   1.754
 3683SOL     OW23079   3.169   2.373   0.421
 3683SOL    HW123080   3.143   2.468   0.404
 3683SOL    HW223081   3.092   2.314   0.398
 3684SOL     OW23082   9.277   5.112   0.869
 3684SOL    HW123083   9.251   5.203   0.900
 3684SOL    HW223084   9.347   5.075   0.931
 3685SOL     OW23085   7.275   3.317   0.227
 3685SOL    HW123086   7.344   3.258   0.270
 3685SOL    HW223087   7.184   3.278   0.241
 3686SOL     OW23088   1.451   6.406   0.913
 3686SOL    HW123089   1.486   6.372   1.001
 3686SOL    HW223090   1.401   6.333   0.867
 3687SOL     OW23091   8.786   0.363   0.808
 3687SOL    HW123092   8.723   0.360   0.885
 3687SOL    HW223093   8.827   0.273   0.795
 3688SOL     OW23094   4.165   4.056   6.624
 3688SOL    HW123095   4.150   4.138   6.568
 3688SOL    HW223096   4.191   3.980   6.565
 3689SOL     OW23097   3.069   3.453   5.508
 3689SOL    HW123098   2.976   3.417   5.504
 3689SOL    HW223099   3.134   3.381   5.485
 3690SOL     OW23100   5.569   3.423   6.415
 3690SOL    HW123101   5.659   3.379   6.410
 3690SOL    HW223102   5.497   3.354   6.420
 3691SOL     OW23103   4.256   8.324   5.369
 3691SOL    HW123104   4.313   8.390   5.319
 3691SOL    HW223105   4.269   8.233   5.330
 3692SOL     OW23106   2.878   4.563   0.277
 3692SOL    HW123107   2.927   4.553   0.191
 3692SOL    HW223108   2.810   4.491   0.285
 3693SOL     OW23109   8.335   7.061   5.868
 3693SOL    HW123110   8.398   6.998   5.912
 3693SOL    HW223111   8.374   7.091   5.781
 3694SOL     OW23112   0.713   8.064   1.532
 3694SOL    HW123113   0.623   8.064   1.488
 3694SOL    HW223114   0.702   8.072   1.631
 3695SOL     OW23115   7.375   8.461   5.032
 3695SOL    HW123116   7.396   8.384   5.093
 3695SOL    HW223117   7.339   8.426   4.945
 3696SOL     OW23118   1.250   0.312   0.101
 3696SOL    HW123119   1.302   0.253   0.039
 3696SOL    HW223120   1.266   0.283   0.196
 3697SOL     OW23121   2.120   7.162   1.008
 3697SOL    HW123122   2.021   7.164   0.998
 3697SOL    HW223123   2.149   7.070   1.035
 3698SOL     OW23124   4.669   3.262   6.298
 3698SOL    HW123125   4.762   3.290   6.323
 3698SOL    HW223126   4.625   3.335   6.246
 3699SOL     OW23127   3.967   2.725   6.298
 3699SOL    HW123128   3.870   2.701   6.291
 3699SOL    HW223129   3.995   2.777   6.217
 3700SOL     OW23130   3.312   6.846   0.860
 3700SOL    HW123131   3.344   6.908   0.931
 3700SOL    HW223132   3.362   6.863   0.775
 3701SOL     OW23133   5.265   8.008   6.194
 3701SOL    HW123134   5.267   8.058   6.280
 3701SOL    HW223135   5.352   7.960   6.182
 3702SOL     OW23136   2.049   4.568   0.461
 3702SOL    HW123137   1.971   4.565   0.523
 3702SOL    HW223138   2.022   4.533   0.371
 3703SOL     OW23139   6.977   2.416   0.880
 3703SOL    HW123140   7.046   2.436   0.810
 3703SOL    HW223141   6.897   2.375   0.836
 3704SOL     OW23142   6.087   4.366   6.276
 3704SOL    HW123143   6.115   4.320   6.192
 3704SOL    HW223144   6.093   4.465   6.264
 3705SOL     OW23145   4.782   4.487   6.341
 3705SOL    HW123146   4.782   4.413   6.273
 3705SOL    HW223147   4.811   4.572   6.297
 3706SOL     OW23148   7.160   3.241   1.349
 3706SOL    HW123149   7.248   3.218   1.391
 3706SOL    HW223150   7.101   3.285   1.417
 3707SOL     OW23151   0.050   0.306   5.413
 3707SOL    HW123152  -0.027   0.257   5.454
 3707SOL    HW223153   0.122   0.319   5.482
 3708SOL     OW23154   3.614   6.675   1.233
 3708SOL    HW123155   3.519   6.704   1.218
 3708SOL    HW223156   3.618   6.609   1.307
 3709SOL     OW23157   1.586   5.273   6.030
 3709SOL    HW123158   1.540   5.217   5.960
 3709SOL    HW223159   1.537   5.264   6.117
 3710SOL     OW23160   2.351   4.540   0.043
 3710SOL    HW123161   2.362   4.540   0.142
 3710SOL    HW223162   2.371   4.631   0.007
 3711SOL     OW23163   4.583   7.383   1.154
 3711SOL    HW123164   4.566   7.297   1.202
 3711SOL    HW223165   4.587   7.458   1.221
 3712SOL     OW23166   6.811   5.549   0.040
 3712SOL    HW123167   6.834   5.646   0.025
 3712SOL    HW223168   6.896   5.495   0.044
 3713SOL     OW23169   0.712   8.332   0.919
 3713SOL    HW123170   0.772   8.275   0.863
 3713SOL    HW223171   0.684   8.412   0.867
 3714SOL     OW23172   4.826   8.341   0.410
 3714SOL    HW123173   4.919   8.314   0.386
 3714SOL    HW223174   4.762   8.302   0.344
 3715SOL     OW23175   2.735   5.450   0.542
 3715SOL    HW123176   2.803   5.465   0.613
 3715SOL    HW223177   2.726   5.352   0.524
 3716SOL     OW23178   6.415   6.903   0.014
 3716SOL    HW123179   6.464   6.955   0.083
 3716SOL    HW223180   6.430   6.944  -0.076
 3717SOL     OW23181   8.536   6.515   6.250
 3717SOL    HW123182   8.556   6.433   6.304
 3717SOL    HW223183   8.525   6.593   6.311
 3718SOL     OW23184   8.235   8.296   0.736
 3718SOL    HW123185   8.334   8.309   0.731
 3718SOL    HW223186   8.216   8.202   0.764
 3719SOL     OW23187   7.504   8.471   5.587
 3719SOL    HW123188   7.415   8.461   5.543
 3719SOL    HW223189   7.492   8.505   5.681
 3720SOL     OW23190   0.685   3.046   5.881
 3720SOL    HW123191   0.586   3.039   5.870
 3720SOL    HW223192   0.729   3.046   5.791
 3721SOL     OW23193   3.468   8.049   0.414
 3721SOL    HW123194   3.461   7.981   0.340
 3721SOL    HW223195   3.411   8.128   0.391
 3722SOL     OW23196   8.787   8.263   5.461
 3722SOL    HW123197   8.712   8.265   5.394
 3722SOL    HW223198   8.757   8.216   5.543
 3723SOL     OW23199   2.207   3.569   0.097
 3723SOL    HW123200   2.187   3.471   0.103
 3723SOL    HW223201   2.183   3.602   0.005
 3724SOL     OW23202   5.282   7.689   6.601
 3724SOL    HW123203   5.294   7.686   6.700
 3724SOL    HW223204   5.354   7.745   6.561
 3725SOL     OW23205   5.306   0.051   1.878
 3725SOL    HW123206   5.327   0.055   1.975
 3725SOL    HW223207   5.216   0.091   1.861
 3726SOL     OW23208   4.977   1.901   5.244
 3726SOL    HW123209   4.975   1.944   5.334
 3726SOL    HW223210   5.036   1.953   5.183
 3727SOL     OW23211   4.129   0.672   0.560
 3727SOL    HW123212   4.189   0.641   0.486
 3727SOL    HW223213   4.135   0.608   0.637
 3728SOL     OW23214   2.423   4.602   0.307
 3728SOL    HW123215   2.505   4.656   0.292
 3728SOL    HW223216   2.442   4.531   0.375
 3729SOL     OW23217   1.514   0.762   6.051
 3729SOL    HW123218   1.487   0.746   5.956
 3729SOL    HW223219   1.502   0.859   6.073
 3730SOL     OW23220   1.552   2.905   4.631
 3730SOL    HW123221   1.622   2.955   4.579
 3730SOL    HW223222   1.568   2.919   4.729
 3731SOL     OW23223   2.718   4.539   1.065
 3731SOL    HW123224   2.667   4.621   1.090
 3731SOL    HW223225   2.708   4.522   0.967
 3732SOL     OW23226   4.362   7.785   5.344
 3732SOL    HW123227   4.418   7.719   5.393
 3732SOL    HW223228   4.340   7.749   5.253
 3733SOL     OW23229   4.786   1.954   0.739
 3733SOL    HW123230   4.874   1.978   0.699
 3733SOL    HW223231   4.734   1.898   0.674
 3734SOL     OW23232   8.309   8.036   1.112
 3734SOL    HW123233   8.288   7.940   1.092
 3734SOL    HW223234   8.279   8.057   1.205
 3735SOL     OW23235   8.561   6.542   0.375
 3735SOL    HW123236   8.634   6.516   0.437
 3735SOL    HW223237   8.489   6.589   0.427
 3736SOL     OW23238   0.961   7.016   5.428
 3736SOL    HW123239   1.003   7.087   5.484
 3736SOL    HW223240   0.920   7.057   5.346
 3737SOL     OW23241   9.103   2.195   0.062
 3737SOL    HW123242   9.129   2.116   0.118
 3737SOL    HW223243   9.173   2.266   0.070
 3738SOL     OW23244   6.752   4.071   5.120
 3738SOL    HW123245   6.679   4.064   5.051
 3738SOL    HW223246   6.837   4.034   5.081
 3739SOL     OW23247   6.293   7.512   1.800
 3739SOL    HW123248   6.347   7.562   1.867
 3739SOL    HW223249   6.286   7.416   1.828
 3740SOL     OW23250   6.951   5.872   1.345
 3740SOL    HW123251   7.020   5.878   1.273
 3740SOL    HW223252   6.985   5.817   1.421
 3741SOL     OW23253   6.911   6.455   5.581
 3741SOL    HW123254   6.883   6.538   5.533
 3741SOL    HW223255   6.972   6.480   5.657
 3742SOL     OW23256   0.713   0.834   1.177
 3742SOL    HW123257   0.812   0.826   1.170
 3742SOL    HW223258   0.684   0.819   1.272
 3743SOL     OW23259   6.011   6.809   5.912
 3743SOL    HW123260   6.002   6.804   5.812
 3743SOL    HW223261   6.072   6.736   5.943
 3744SOL     OW23262   2.183   5.334   1.180
 3744SOL    HW123263   2.261   5.396   1.170
 3744SOL    HW223264   2.215   5.244   1.209
 3745SOL     OW23265   5.419   5.856   6.287
 3745SOL    HW123266   5.471   5.776   6.318
 3745SOL    HW223267   5.325   5.850   6.319
 3746SOL     OW23268   1.293   2.613   5.590
 3746SOL    HW123269   1.199   2.640   5.612
 3746SOL    HW223270   1.308   2.624   5.492
 3747SOL     OW23271   7.054   7.712   5.371
 3747SOL    HW123272   7.057   7.704   5.271
 3747SOL    HW223273   7.095   7.799   5.398
 3748SOL     OW23274   5.376   6.446   6.246
 3748SOL    HW123275   5.347   6.442   6.150
 3748SOL    HW223276   5.405   6.356   6.276
 3749SOL     OW23277   4.207   0.199   0.787
 3749SOL    HW123278   4.265   0.153   0.855
 3749SOL    HW223279   4.113   0.205   0.822
 3750SOL     OW23280   8.614   0.970   0.055
 3750SOL    HW123281   8.635   1.067   0.064
 3750SOL    HW223282   8.690   0.924   0.008
 3751SOL     OW23283   8.226   7.147   6.103
 3751SOL    HW123284   8.219   7.124   6.006
 3751SOL    HW223285   8.244   7.064   6.156
 3752SOL     OW23286   1.244   7.120   0.156
 3752SOL    HW123287   1.311   7.183   0.195
 3752SOL    HW223288   1.243   7.035   0.208
 3753SOL     OW23289   5.754   3.048   6.265
 3753SOL    HW123290   5.684   3.053   6.194
 3753SOL    HW223291   5.757   2.955   6.303
 3754SOL     OW23292   5.730   5.215   0.321
 3754SOL    HW123293   5.797   5.288   0.332
 3754SOL    HW223294   5.671   5.211   0.402
 3755SOL     OW23295   3.001   0.877   0.620
 3755SOL    HW123296   3.087   0.900   0.575
 3755SOL    HW223297   3.007   0.785   0.658
 3756SOL     OW23298   1.618   1.969   0.914
 3756SOL    HW123299   1.712   2.003   0.909
 3756SOL    HW223300   1.555   2.043   0.893
 3757SOL     OW23301   4.377   5.346   6.094
 3757SOL    HW123302   4.381   5.399   6.179
 3757SOL    HW223303   4.369   5.409   6.016
 3758SOL     OW23304   4.894   1.478   4.996
 3758SOL    HW123305   4.804   1.449   5.027
 3758SOL    HW223306   4.887   1.515   4.903
 3759SOL     OW23307   8.994   0.166   0.178
 3759SOL    HW123308   8.913   0.172   0.119
 3759SOL    HW223309   8.992   0.240   0.245
 3760SOL     OW23310   3.170   3.656   6.594
 3760SOL    HW123311   3.136   3.741   6.554
 3760SOL    HW223312   3.111   3.580   6.564
 3761SOL     OW23313   7.469   3.186   6.148
 3761SOL    HW123314   7.556   3.229   6.121
 3761SOL    HW223315   7.447   3.212   6.242
 3762SOL     OW23316   2.087   1.990   5.673
 3762SOL    HW123317   2.116   2.078   5.711
 3762SOL    HW223318   2.096   1.992   5.573
 3763SOL     OW23319   3.178   3.860   1.339
 3763SOL    HW123320   3.187   3.761   1.349
 3763SOL    HW223321   3.085   3.881   1.306
 3764SOL     OW23322   4.364   1.477   1.299
 3764SOL    HW123323   4.462   1.477   1.316
 3764SOL    HW223324   4.323   1.559   1.339
 3765SOL     OW23325   4.754   7.263   6.089
 3765SOL    HW123326   4.751   7.350   6.139
 3765SOL    HW223327   4.822   7.270   6.015
 3766SOL     OW23328   3.527   4.465   1.562
 3766SOL    HW123329   3.545   4.462   1.661
 3766SOL    HW223330   3.495   4.557   1.537
 3767SOL     OW23331   0.202   5.702   5.113
 3767SOL    HW123332   0.164   5.791   5.139
 3767SOL    HW223333   0.153   5.630   5.162
 3768SOL     OW23334   1.372   0.950   6.657
 3768SOL    HW123335   1.343   1.042   6.629
 3768SOL    HW223336   1.375   0.890   6.577
 3769SOL     OW23337   3.235   6.580   1.381
 3769SOL    HW123338   3.201   6.573   1.475
 3769SOL    HW223339   3.171   6.535   1.319
 3770SOL     OW23340   3.805   1.412   5.853
 3770SOL    HW123341   3.825   1.315   5.840
 3770SOL    HW223342   3.729   1.422   5.917
 3771SOL     OW23343   4.243   0.411   2.155
 3771SOL    HW123344   4.243   0.317   2.190
 3771SOL    HW223345   4.267   0.474   2.229
 3772SOL     OW23346   3.135   5.819   6.071
 3772SOL    HW123347   3.107   5.781   6.159
 3772SOL    HW223348   3.116   5.917   6.068
 3773SOL     OW23349   6.870   4.432   6.563
 3773SOL    HW123350   6.949   4.491   6.548
 3773SOL    HW223351   6.839   4.394   6.476
 3774SOL     OW23352   6.962   4.735   0.745
 3774SOL    HW123353   6.994   4.731   0.651
 3774SOL    HW223354   7.041   4.745   0.806
 3775SOL     OW23355   4.486   0.061   5.659
 3775SOL    HW123356   4.536   0.071   5.745
 3775SOL    HW223357   4.511   0.137   5.598
 3776SOL     OW23358   2.000   4.608   6.263
 3776SOL    HW123359   1.993   4.519   6.308
 3776SOL    HW223360   1.908   4.639   6.238
 3777SOL     OW23361   4.424   3.287   6.713
 3777SOL    HW123362   4.454   3.214   6.652
 3777SOL    HW223363   4.502   3.344   6.738
 3778SOL     OW23364   6.046   2.364   1.043
 3778SOL    HW123365   6.011   2.368   0.949
 3778SOL    HW223366   6.051   2.268   1.072
 3779SOL     OW23367   7.202   5.824   6.530
 3779SOL    HW123368   7.182   5.759   6.603
 3779SOL    HW223369   7.239   5.909   6.570
 3780SOL     OW23370   4.503   6.017   0.164
 3780SOL    HW123371   4.461   6.045   0.250
 3780SOL    HW223372   4.491   6.090   0.096
 3781SOL     OW23373   2.422   6.207   0.641
 3781SOL    HW123374   2.462   6.158   0.564
 3781SOL    HW223375   2.414   6.146   0.720
 3782SOL     OW23376   1.236   7.445   0.021
 3782SOL    HW123377   1.323   7.444  -0.027
 3782SOL    HW223378   1.206   7.351   0.038
 3783SOL     OW23379   6.125   2.543   0.163
 3783SOL    HW123380   6.208   2.504   0.124
 3783SOL    HW223381   6.144   2.635   0.197
 3784SOL     OW23382   3.168   0.837   0.318
 3784SOL    HW123383   3.179   0.745   0.280
 3784SOL    HW223384   3.243   0.855   0.382
 3785SOL     OW23385   4.321   7.446   5.779
 3785SOL    HW123386   4.302   7.461   5.876
 3785SOL    HW223387   4.274   7.515   5.724
 3786SOL     OW23388   4.947   6.404   0.267
 3786SOL    HW123389   4.931   6.306   0.257
 3786SOL    HW223390   4.970   6.424   0.362
 3787SOL     OW23391   7.538   5.861   6.622
 3787SOL    HW123392   7.508   5.852   6.717
 3787SOL    HW223393   7.518   5.952   6.588
 3788SOL     OW23394   8.189   5.473   5.674
 3788SOL    HW123395   8.166   5.549   5.735
 3788SOL    HW223396   8.281   5.487   5.637
 3789SOL     OW23397   1.177   5.237   0.662
 3789SOL    HW123398   1.125   5.156   0.688
 3789SOL    HW223399   1.141   5.317   0.710
 3790SOL     OW23400   3.495   4.770   0.605
 3790SOL    HW123401   3.545   4.692   0.642
 3790SOL    HW223402   3.560   4.836   0.566
 3791SOL     OW23403   3.777   6.689   5.143
 3791SOL    HW123404   3.796   6.617   5.077
 3791SOL    HW223405   3.855   6.701   5.204
 3792SOL     OW23406   1.821   2.206   0.346
 3792SOL    HW123407   1.918   2.218   0.371
 3792SOL    HW223408   1.768   2.282   0.383
 3793SOL     OW23409   2.413   6.647   4.919
 3793SOL    HW123410   2.399   6.568   4.861
 3793SOL    HW223411   2.467   6.715   4.870
 3794SOL     OW23412   7.870   1.353   6.545
 3794SOL    HW123413   7.838   1.316   6.458
 3794SOL    HW223414   7.898   1.278   6.605
 3795SOL     OW23415   4.825   5.848   1.450
 3795SOL    HW123416   4.843   5.929   1.505
 3795SOL    HW223417   4.748   5.797   1.489
 3796SOL     OW23418   5.608   4.100   1.081
 3796SOL    HW123419   5.654   4.080   1.168
 3796SOL    HW223420   5.551   4.182   1.092
 3797SOL     OW23421   2.365   1.907   1.600
 3797SOL    HW123422   2.362   1.918   1.699
 3797SOL    HW223423   2.276   1.930   1.562
 3798SOL     OW23424   4.645   1.720   0.936
 3798SOL    HW123425   4.599   1.632   0.945
 3798SOL    HW223426   4.591   1.781   0.878
 3799SOL     OW23427   4.974   5.300   1.990
 3799SOL    HW123428   5.029   5.278   2.070
 3799SOL    HW223429   4.937   5.216   1.950
 3800SOL     OW23430   0.418   5.667   0.128
 3800SOL    HW123431   0.386   5.681   0.034
 3800SOL    HW223432   0.354   5.607   0.176
 3801SOL     OW23433   2.893   5.771   5.667
 3801SOL    HW123434   2.882   5.690   5.610
 3801SOL    HW223435   2.909   5.744   5.762
 3802SOL     OW23436   3.794   2.505   6.578
 3802SOL    HW123437   3.720   2.454   6.534
 3802SOL    HW223438   3.757   2.556   6.655
 3803SOL     OW23439   4.306   5.034   0.595
 3803SOL    HW123440   4.390   5.068   0.637
 3803SOL    HW223441   4.311   4.934   0.587
 3804SOL     OW23442   1.222   6.830   5.342
 3804SOL    HW123443   1.285   6.808   5.267
 3804SOL    HW223444   1.163   6.906   5.314
 3805SOL     OW23445   5.513   8.012   1.187
 3805SOL    HW123446   5.429   8.068   1.188
 3805SOL    HW223447   5.490   7.918   1.213
 3806SOL     OW23448   1.440   7.465   6.504
 3806SOL    HW123449   1.471   7.431   6.415
 3806SOL    HW223450   1.368   7.533   6.490
 3807SOL     OW23451   0.683   7.102   6.435
 3807SOL    HW123452   0.654   7.007   6.419
 3807SOL    HW223453   0.611   7.151   6.485
 3808SOL     OW23454   1.549   0.614   1.405
 3808SOL    HW123455   1.627   0.596   1.464
 3808SOL    HW223456   1.465   0.614   1.459
 3809SOL     OW23457   7.361   4.052   6.022
 3809SOL    HW123458   7.425   4.129   6.023
 3809SOL    HW223459   7.375   3.998   5.940
 3810SOL     OW23460   5.594   1.334   6.562
 3810SOL    HW123461   5.498   1.340   6.588
 3810SOL    HW223462   5.602   1.328   6.462
 3811SOL     OW23463   5.767   3.251   6.459
 3811SOL    HW123464   5.759   3.182   6.388
 3811SOL    HW223465   5.809   3.212   6.540
 3812SOL     OW23466   8.819   7.098   0.317
 3812SOL    HW123467   8.835   7.019   0.376
 3812SOL    HW223468   8.731   7.088   0.271
 3813SOL     OW23469   4.293   1.646   0.625
 3813SOL    HW123470   4.203   1.631   0.666
 3813SOL    HW223471   4.353   1.569   0.648
 3814SOL     OW23472   6.724   1.976   0.204
 3814SOL    HW123473   6.734   1.879   0.226
 3814SOL    HW223474   6.717   1.987   0.105
 3815SOL     OW23475   7.453   1.413   5.949
 3815SOL    HW123476   7.382   1.347   5.926
 3815SOL    HW223477   7.475   1.407   6.046
 3816SOL     OW23478   9.334   2.789   6.680
 3816SOL    HW123479   9.362   2.748   6.767
 3816SOL    HW223480   9.292   2.720   6.622
 3817SOL     OW23481   7.935   2.615   6.708
 3817SOL    HW123482   7.971   2.661   6.627
 3817SOL    HW223483   7.918   2.683   6.780
 3818SOL     OW23484   0.656   6.865   1.899
 3818SOL    HW123485   0.653   6.862   1.999
 3818SOL    HW223486   0.746   6.833   1.868
 3819SOL     OW23487   5.424   0.232   6.086
 3819SOL    HW123488   5.489   0.236   6.011
 3819SOL    HW223489   5.364   0.153   6.075
 3820SOL     OW23490   3.788   1.703   5.915
 3820SOL    HW123491   3.798   1.629   5.848
 3820SOL    HW223492   3.869   1.707   5.973
 3821SOL     OW23493   0.563   0.200   5.021
 3821SOL    HW123494   0.584   0.123   4.961
 3821SOL    HW223495   0.597   0.284   4.980
 3822SOL     OW23496   5.883   7.039   6.004
 3822SOL    HW123497   5.950   7.081   6.066
 3822SOL    HW223498   5.921   6.957   5.963
 3823SOL     OW23499   5.329   6.634   0.062
 3823SOL    HW123500   5.245   6.687   0.074
 3823SOL    HW223501   5.400   6.667   0.124
 3824SOL     OW23502   5.249   5.876   0.939
 3824SOL    HW123503   5.200   5.926   1.010
 3824SOL    HW223504   5.237   5.921   0.851
 3825SOL     OW23505   8.614   4.552   0.081
 3825SOL    HW123506   8.700   4.598   0.058
 3825SOL    HW223507   8.548   4.569   0.008
 3826SOL     OW23508   4.287   6.797   1.842
 3826SOL    HW123509   4.275   6.881   1.895
 3826SOL    HW223510   4.239   6.805   1.754
 3827SOL     OW23511   1.920   4.206   6.226
 3827SOL    HW123512   1.909   4.182   6.322
 3827SOL    HW223513   1.833   4.194   6.178
 3828SOL     OW23514   4.342   6.223   6.540
 3828SOL    HW123515   4.423   6.252   6.590
 3828SOL    HW223516   4.355   6.129   6.508
 3829SOL     OW23517   0.181   4.762   5.784
 3829SOL    HW123518   0.174   4.852   5.827
 3829SOL    HW223519   0.158   4.769   5.687
 3830SOL     OW23520   5.973   8.174   0.800
 3830SOL    HW123521   6.030   8.199   0.878
 3830SOL    HW223522   6.023   8.111   0.741
 3831SOL     OW23523   3.667   5.726   0.704
 3831SOL    HW123524   3.621   5.805   0.663
 3831SOL    HW223525   3.750   5.705   0.654
 3832SOL     OW23526   5.974   7.726   1.432
 3832SOL    HW123527   6.061   7.764   1.399
 3832SOL    HW223528   5.992   7.667   1.510
 3833SOL     OW23529   3.053   0.079   5.596
 3833SOL    HW123530   3.117   0.010   5.628
 3833SOL    HW223531   3.020   0.054   5.505
 3834SOL     OW23532   1.193   4.287   0.861
 3834SOL    HW123533   1.212   4.294   0.959
 3834SOL    HW223534   1.252   4.350   0.811
 3835SOL     OW23535   1.551   1.742   1.040
 3835SOL    HW123536   1.601   1.822   1.005
 3835SOL    HW223537   1.530   1.680   0.965
 3836SOL     OW23538   1.103   1.748   6.047
 3836SOL    HW123539   1.092   1.847   6.040
 3836SOL    HW223540   1.018   1.703   6.021
 3837SOL     OW23541   2.783   1.254   2.401
 3837SOL    HW123542   2.761   1.191   2.326
 3837SOL    HW223543   2.758   1.211   2.488
 3838SOL     OW23544   3.790   3.372   1.353
 3838SOL    HW123545   3.768   3.320   1.270
 3838SOL    HW223546   3.716   3.361   1.420
 3839SOL     OW23547   1.230   5.738   6.400
 3839SOL    HW123548   1.276   5.759   6.314
 3839SOL    HW223549   1.292   5.687   6.460
 3840SOL     OW23550   2.703   3.767   0.809
 3840SOL    HW123551   2.762   3.817   0.872
 3840SOL    HW223552   2.641   3.830   0.763
 3841SOL     OW23553   8.620   6.500   4.462
 3841SOL    HW123554   8.713   6.466   4.475
 3841SOL    HW223555   8.556   6.442   4.512
 3842SOL     OW23556   9.152   7.401   5.105
 3842SOL    HW123557   9.181   7.425   5.013
 3842SOL    HW223558   9.052   7.399   5.109
 3843SOL     OW23559   8.317   3.479   0.565
 3843SOL    HW123560   8.238   3.524   0.607
 3843SOL    HW223561   8.336   3.393   0.613
 3844SOL     OW23562   9.274   5.219   0.439
 3844SOL    HW123563   9.295   5.132   0.393
 3844SOL    HW223564   9.175   5.232   0.441
 3845SOL     OW23565   3.315   6.981   0.278
 3845SOL    HW123566   3.384   7.048   0.304
 3845SOL    HW223567   3.277   7.005   0.189
 3846SOL     OW23568   4.423   1.138   1.509
 3846SOL    HW123569   4.420   1.103   1.603
 3846SOL    HW223570   4.474   1.224   1.508
 3847SOL     OW23571   3.892   8.387   6.407
 3847SOL    HW123572   3.965   8.395   6.475
 3847SOL    HW223573   3.884   8.291   6.378
 3848SOL     OW23574   4.866   0.571   6.584
 3848SOL    HW123575   4.857   0.476   6.556
 3848SOL    HW223576   4.803   0.589   6.660
 3849SOL     OW23577   7.193   8.401   5.971
 3849SOL    HW123578   7.141   8.382   5.888
 3849SOL    HW223579   7.222   8.315   6.013
 3850SOL     OW23580   6.602   4.296   1.483
 3850SOL    HW123581   6.543   4.254   1.551
 3850SOL    HW223582   6.583   4.395   1.479
 3851SOL     OW23583   7.033   6.245   0.403
 3851SOL    HW123584   7.124   6.214   0.376
 3851SOL    HW223585   7.013   6.213   0.495
 3852SOL     OW23586   1.615   1.936   6.300
 3852SOL    HW123587   1.693   1.907   6.355
 3852SOL    HW223588   1.646   2.000   6.229
 3853SOL     OW23589   0.714   7.168   5.279
 3853SOL    HW123590   0.688   7.205   5.368
 3853SOL    HW223591   0.635   7.125   5.236
 3854SOL     OW23592   6.625   2.169   0.375
 3854SOL    HW123593   6.695   2.115   0.329
 3854SOL    HW223594   6.616   2.136   0.470
 3855SOL     OW23595   7.612   6.520   0.486
 3855SOL    HW123596   7.674   6.585   0.530
 3855SOL    HW223597   7.565   6.466   0.556
 3856SOL     OW23598   4.343   1.466   0.023
 3856SOL    HW123599   4.380   1.515   0.102
 3856SOL    HW223600   4.410   1.399  -0.008
 3857SOL     OW23601   2.861   6.539   5.639
 3857SOL    HW123602   2.779   6.483   5.652
 3857SOL    HW223603   2.848   6.628   5.682
 3858SOL     OW23604   6.991   4.912   5.140
 3858SOL    HW123605   7.047   4.895   5.058
 3858SOL    HW223606   6.906   4.957   5.112
 3859SOL     OW23607   6.623   4.036   5.376
 3859SOL    HW123608   6.675   4.057   5.293
 3859SOL    HW223609   6.561   4.111   5.397
 3860SOL     OW23610   7.048   3.075   6.169
 3860SOL    HW123611   7.080   3.159   6.214
 3860SOL    HW223612   7.123   3.009   6.164
 3861SOL     OW23613   6.053   7.794   5.271
 3861SOL    HW123614   6.119   7.868   5.282
 3861SOL    HW223615   6.002   7.808   5.186
 3862SOL     OW23616   6.320   3.367   6.016
 3862SOL    HW123617   6.369   3.305   5.954
 3862SOL    HW223618   6.367   3.455   6.020
 3863SOL     OW23619   4.995   0.368   4.622
 3863SOL    HW123620   4.967   0.281   4.664
 3863SOL    HW223621   5.046   0.350   4.538
 3864SOL     OW23622   1.228   4.536   0.152
 3864SOL    HW123623   1.191   4.534   0.059
 3864SOL    HW223624   1.327   4.523   0.148
 3865SOL     OW23625   9.031   5.052   6.500
 3865SOL    HW123626   8.980   5.104   6.568
 3865SOL    HW223627   9.116   5.101   6.478
 3866SOL     OW23628   6.157   4.234   6.047
 3866SOL    HW123629   6.241   4.288   6.041
 3866SOL    HW223630   6.145   4.182   5.962
 3867SOL     OW23631   7.954   3.798   1.622
 3867SOL    HW123632   7.932   3.761   1.712
 3867SOL    HW223633   7.873   3.792   1.563
 3868SOL     OW23634   3.814   8.372   5.921
 3868SOL    HW123635   3.849   8.454   5.875
 3868SOL    HW223636   3.821   8.294   5.858
 3869SOL     OW23637   0.545   6.022   5.573
 3869SOL    HW123638   0.504   6.082   5.504
 3869SOL    HW223639   0.478   6.003   5.645
 3870SOL     OW23640   1.208   2.665   6.062
 3870SOL    HW123641   1.212   2.743   6.125
 3870SOL    HW223642   1.146   2.686   5.987
 3871SOL     OW23643   7.639   0.410   5.047
 3871SOL    HW123644   7.646   0.474   4.970
 3871SOL    HW223645   7.630   0.462   5.132
 3872SOL     OW23646   8.133   1.483   0.319
 3872SOL    HW123647   8.195   1.546   0.273
 3872SOL    HW223648   8.064   1.450   0.255
 3873SOL     OW23649   8.009   4.523   1.081
 3873SOL    HW123650   8.064   4.476   1.012
 3873SOL    HW223651   7.971   4.456   1.145
 3874SOL     OW23652   1.018   7.382   4.237
 3874SOL    HW123653   1.086   7.385   4.310
 3874SOL    HW223654   1.041   7.452   4.169
 3875SOL     OW23655   4.766   5.555   5.166
 3875SOL    HW123656   4.818   5.491   5.222
 3875SOL    HW223657   4.816   5.573   5.081
 3876SOL     OW23658   6.789   8.227   6.475
 3876SOL    HW123659   6.855   8.168   6.429
 3876SOL    HW223660   6.727   8.172   6.531
 3877SOL     OW23661   6.379   6.701   1.053
 3877SOL    HW123662   6.333   6.717   0.965
 3877SOL    HW223663   6.434   6.780   1.077
 3878SOL     OW23664   1.575   2.131   0.557
 3878SOL    HW123665   1.616   2.168   0.474
 3878SOL    HW223666   1.481   2.102   0.537
 3879SOL     OW23667   6.088   4.128   5.805
 3879SOL    HW123668   6.165   4.095   5.751
 3879SOL    HW223669   6.005   4.080   5.776
 3880SOL     OW23670   1.941   5.087   0.251
 3880SOL    HW123671   1.969   4.997   0.215
 3880SOL    HW223672   2.006   5.115   0.322
 3881SOL     OW23673   6.287   0.395   6.710
 3881SOL    HW123674   6.315   0.373   6.804
 3881SOL    HW223675   6.192   0.366   6.696
 3882SOL     OW23676   7.022   7.645   5.641
 3882SOL    HW123677   7.030   7.690   5.552
 3882SOL    HW223678   6.926   7.619   5.656
 3883SOL     OW23679   2.281   6.805   0.117
 3883SOL    HW123680   2.214   6.819   0.190
 3883SOL    HW223681   2.237   6.815   0.028
 3884SOL     OW23682   8.346   8.384   0.995
 3884SOL    HW123683   8.305   8.337   0.916
 3884SOL    HW223684   8.287   8.372   1.075
 3885SOL     OW23685   8.792   1.008   5.071
 3885SOL    HW123686   8.834   1.014   4.981
 3885SOL    HW223687   8.692   1.012   5.061
 3886SOL     OW23688   6.702   7.110   0.457
 3886SOL    HW123689   6.783   7.118   0.399
 3886SOL    HW223690   6.682   7.198   0.499
 3887SOL     OW23691   9.467   8.431   5.268
 3887SOL    HW123692   9.407   8.399   5.195
 3887SOL    HW223693   9.420   8.501   5.322
 3888SOL     OW23694   8.406   2.794   0.018
 3888SOL    HW123695   8.440   2.701   0.004
 3888SOL    HW223696   8.464   2.841   0.084
 3889SOL     OW23697   4.421   6.749   1.074
 3889SOL    HW123698   4.515   6.750   1.107
 3889SOL    HW223699   4.380   6.659   1.090
 3890SOL     OW23700   4.683   7.270   5.015
 3890SOL    HW123701   4.753   7.235   5.077
 3890SOL    HW223702   4.712   7.357   4.977
 3891SOL     OW23703   8.417   7.727   0.831
 3891SOL    HW123704   8.348   7.771   0.889
 3891SOL    HW223705   8.381   7.715   0.739
 3892SOL     OW23706   2.728   7.791   5.985
 3892SOL    HW123707   2.714   7.825   6.079
 3892SOL    HW223708   2.761   7.696   5.989
 3893SOL     OW23709   6.807   7.664   0.164
 3893SOL    HW123710   6.771   7.572   0.181
 3893SOL    HW223711   6.756   7.731   0.219
 3894SOL     OW23712   5.682   2.544   6.481
 3894SOL    HW123713   5.753   2.606   6.516
 3894SOL    HW223714   5.725   2.465   6.437
 3895SOL     OW23715   6.533   4.545   1.501
 3895SOL    HW123716   6.589   4.595   1.567
 3895SOL    HW223717   6.437   4.565   1.518
 3896SOL     OW23718   9.474   6.281   5.568
 3896SOL    HW123719   9.521   6.194   5.578
 3896SOL    HW223720   9.375   6.267   5.572
 3897SOL     OW23721   0.891   4.768   6.643
 3897SOL    HW123722   0.972   4.826   6.653
 3897SOL    HW223723   0.861   4.769   6.548
 3898SOL     OW23724   7.742   6.676   6.245
 3898SOL    HW123725   7.673   6.736   6.204
 3898SOL    HW223726   7.821   6.669   6.183
 3899SOL     OW23727   6.533   4.320   0.989
 3899SOL    HW123728   6.456   4.353   1.043
 3899SOL    HW223729   6.513   4.333   0.891
 3900SOL     OW23730   6.904   1.903   0.584
 3900SOL    HW123731   6.829   1.837   0.593
 3900SOL    HW223732   6.941   1.898   0.491
 3901SOL     OW23733   8.167   6.313   0.973
 3901SOL    HW123734   8.262   6.316   1.004
 3901SOL    HW223735   8.125   6.228   1.003
 3902SOL     OW23736   9.029   2.341   6.568
 3902SOL    HW123737   9.040   2.295   6.656
 3902SOL    HW223738   8.992   2.433   6.583
 3903SOL     OW23739   2.946   8.103   5.429
 3903SOL    HW123740   3.023   8.054   5.388
 3903SOL    HW223741   2.864   8.044   5.427
 3904SOL     OW23742   5.840   8.442   1.429
 3904SOL    HW123743   5.897   8.368   1.394
 3904SOL    HW223744   5.861   8.456   1.526
 3905SOL     OW23745   7.293   6.070   6.624
 3905SOL    HW123746   7.272   6.128   6.703
 3905SOL    HW223747   7.309   6.128   6.544
 3906SOL     OW23748   6.921   1.289   1.254
 3906SOL    HW123749   6.979   1.258   1.329
 3906SOL    HW223750   6.885   1.380   1.275
 3907SOL     OW23751   6.806   0.131   0.990
 3907SOL    HW123752   6.903   0.148   1.009
 3907SOL    HW223753   6.790   0.033   0.979
 3908SOL     OW23754   0.768   0.827   6.264
 3908SOL    HW123755   0.768   0.811   6.166
 3908SOL    HW223756   0.841   0.892   6.287
 3909SOL     OW23757   4.675   4.378   5.755
 3909SOL    HW123758   4.609   4.453   5.749
 3909SOL    HW223759   4.636   4.303   5.808
 3910SOL     OW23760   3.213   7.967   0.835
 3910SOL    HW123761   3.133   7.915   0.867
 3910SOL    HW223762   3.182   8.047   0.784
 3911SOL     OW23763   2.094   5.936   5.772
 3911SOL    HW123764   2.007   5.980   5.797
 3911SOL    HW223765   2.112   5.861   5.835
 3912SOL     OW23766   4.659   0.543   0.025
 3912SOL    HW123767   4.688   0.485   0.101
 3912SOL    HW223768   4.610   0.623   0.060
 3913SOL     OW23769   1.414   4.352   1.284
 3913SOL    HW123770   1.437   4.447   1.305
 3913SOL    HW223771   1.494   4.294   1.302
 3914SOL     OW23772   6.710   5.585   6.431
 3914SOL    HW123773   6.628   5.635   6.400
 3914SOL    HW223774   6.786   5.649   6.441
 3915SOL     OW23775   3.560   0.561   1.062
 3915SOL    HW123776   3.477   0.587   1.013
 3915SOL    HW223777   3.629   0.531   0.996
 3916SOL     OW23778   1.427   6.999   5.860
 3916SOL    HW123779   1.376   6.948   5.791
 3916SOL    HW223780   1.372   7.006   5.943
 3917SOL     OW23781   4.616   0.144   6.670
 3917SOL    HW123782   4.544   0.213   6.680
 3917SOL    HW223783   4.577   0.059   6.636
 3918SOL     OW23784   4.454   0.392   6.649
 3918SOL    HW123785   4.525   0.456   6.679
 3918SOL    HW223786   4.469   0.369   6.552
 3919SOL     OW23787   6.123   8.326   5.082
 3919SOL    HW123788   6.131   8.229   5.057
 3919SOL    HW223789   6.088   8.377   5.003
 3920SOL     OW23790   8.578   0.062   5.671
 3920SOL    HW123791   8.514   0.130   5.706
 3920SOL    HW223792   8.649   0.045   5.739
 3921SOL     OW23793   2.394   2.753   5.802
 3921SOL    HW123794   2.419   2.833   5.748
 3921SOL    HW223795   2.358   2.783   5.891
 3922SOL     OW23796   4.385   6.292   1.729
 3922SOL    HW123797   4.396   6.195   1.709
 3922SOL    HW223798   4.358   6.304   1.825
 3923SOL     OW23799   8.739   2.040   5.915
 3923SOL    HW123800   8.706   1.951   5.886
 3923SOL    HW223801   8.750   2.042   6.015
 3924SOL     OW23802   6.174   0.658   1.198
 3924SOL    HW123803   6.270   0.644   1.174
 3924SOL    HW223804   6.168   0.681   1.295
 3925SOL     OW23805   8.821   7.722   6.271
 3925SOL    HW123806   8.741   7.747   6.216
 3925SOL    HW223807   8.799   7.642   6.327
 3926SOL     OW23808   5.012   3.262   5.771
 3926SOL    HW123809   4.942   3.285   5.703
 3926SOL    HW223810   5.075   3.338   5.782
 3927SOL     OW23811   5.437   6.343   0.608
 3927SOL    HW123812   5.473   6.343   0.515
 3927SOL    HW223813   5.380   6.262   0.622
 3928SOL     OW23814   2.459   4.387   6.299
 3928SOL    HW123815   2.378   4.393   6.241
 3928SOL    HW223816   2.528   4.453   6.268
 3929SOL     OW23817   0.723   3.357   6.506
 3929SOL    HW123818   0.753   3.367   6.601
 3929SOL    HW223819   0.626   3.336   6.503
 3930SOL     OW23820   0.388   2.561   0.762
 3930SOL    HW123821   0.483   2.531   0.763
 3930SOL    HW223822   0.384   2.661   0.755
 3931SOL     OW23823   7.198   6.442   1.066
 3931SOL    HW123824   7.209   6.508   0.991
 3931SOL    HW223825   7.105   6.448   1.101
 3932SOL     OW23826   3.178   5.673   0.222
 3932SOL    HW123827   3.198   5.770   0.233
 3932SOL    HW223828   3.130   5.659   0.135
 3933SOL     OW23829   6.100   6.976   6.409
 3933SOL    HW123830   6.038   6.902   6.381
 3933SOL    HW223831   6.115   6.971   6.507
 3934SOL     OW23832   0.693   3.613   0.721
 3934SOL    HW123833   0.667   3.583   0.813
 3934SOL    HW223834   0.727   3.535   0.669
 3935SOL     OW23835   1.890   7.295   0.642
 3935SOL    HW123836   1.805   7.243   0.633
 3935SOL    HW223837   1.872   7.381   0.689
 3936SOL     OW23838   3.640   5.450   6.222
 3936SOL    HW123839   3.559   5.508   6.234
 3936SOL    HW223840   3.616   5.371   6.165
 3937SOL     OW23841   2.330   0.327   5.306
 3937SOL    HW123842   2.274   0.314   5.224
 3937SOL    HW223843   2.416   0.371   5.280
 3938SOL     OW23844   1.978   7.998   6.004
 3938SOL    HW123845   2.052   8.054   6.039
 3938SOL    HW223846   1.890   8.042   6.025
 3939SOL     OW23847   8.304   3.474   0.035
 3939SOL    HW123848   8.303   3.542  -0.038
 3939SOL    HW223849   8.298   3.383  -0.005
 3940SOL     OW23850   6.002   3.191   6.616
 3940SOL    HW123851   6.008   3.137   6.532
 3940SOL    HW223852   6.088   3.240   6.631
 3941SOL     OW23853   1.463   2.754   5.813
 3941SOL    HW123854   1.485   2.852   5.817
 3941SOL    HW223855   1.391   2.739   5.745
 3942SOL     OW23856   4.001   2.412   0.987
 3942SOL    HW123857   3.903   2.433   0.987
 3942SOL    HW223858   4.040   2.435   1.077
 3943SOL     OW23859   2.030   1.423   1.689
 3943SOL    HW123860   2.088   1.465   1.619
 3943SOL    HW223861   2.015   1.488   1.764
 3944SOL     OW23862   6.008   0.067   6.459
 3944SOL    HW123863   6.106   0.074   6.438
 3944SOL    HW223864   5.967   0.158   6.455
 3945SOL     OW23865   5.570   6.268   5.475
 3945SOL    HW123866   5.661   6.298   5.447
 3945SOL    HW223867   5.543   6.190   5.419
 3946SOL     OW23868   4.842   0.960   6.651
 3946SOL    HW123869   4.870   0.961   6.555
 3946SOL    HW223870   4.897   0.893   6.701
 3947SOL     OW23871   6.674   6.290   5.657
 3947SOL    HW123872   6.600   6.284   5.589
 3947SOL    HW223873   6.737   6.363   5.630
 3948SOL     OW23874   1.082   0.421   4.914
 3948SOL    HW123875   1.008   0.455   4.856
 3948SOL    HW223876   1.158   0.391   4.857
 3949SOL     OW23877   2.483   0.385   0.219
 3949SOL    HW123878   2.491   0.484   0.207
 3949SOL    HW223879   2.428   0.366   0.301
 3950SOL     OW23880   2.097   4.347   6.397
 3950SOL    HW123881   2.145   4.365   6.311
 3950SOL    HW223882   2.006   4.311   6.376
 3951SOL     OW23883   7.924   6.461   0.106
 3951SOL    HW123884   7.998   6.521   0.074
 3951SOL    HW223885   7.952   6.366   0.094
 3952SOL     OW23886   3.248   6.537   1.056
 3952SOL    HW123887   3.163   6.530   1.109
 3952SOL    HW223888   3.321   6.488   1.103
 3953SOL     OW23889   1.973   3.481   1.297
 3953SOL    HW123890   1.993   3.443   1.388
 3953SOL    HW223891   1.908   3.422   1.250
 3954SOL     OW23892   2.827   3.877   5.208
 3954SOL    HW123893   2.787   3.789   5.183
 3954SOL    HW223894   2.907   3.861   5.266
 3955SOL     OW23895   8.028   6.872   1.026
 3955SOL    HW123896   8.044   6.787   0.976
 3955SOL    HW223897   8.048   6.949   0.965
 3956SOL     OW23898   2.899   1.231   1.503
 3956SOL    HW123899   2.936   1.247   1.412
 3956SOL    HW223900   2.955   1.163   1.551
 3957SOL     OW23901   0.538   1.674   5.947
 3957SOL    HW123902   0.585   1.725   6.019
 3957SOL    HW223903   0.471   1.734   5.902
 3958SOL     OW23904   1.322   2.167   5.633
 3958SOL    HW123905   1.365   2.238   5.577
 3958SOL    HW223906   1.368   2.164   5.722
 3959SOL     OW23907   3.875   2.106   0.185
 3959SOL    HW123908   3.861   2.062   0.274
 3959SOL    HW223909   3.807   2.178   0.173
 3960SOL     OW23910   5.757   6.603   6.617
 3960SOL    HW123911   5.683   6.596   6.550
 3960SOL    HW223912   5.733   6.551   6.698
 3961SOL     OW23913   1.174   3.992   6.591
 3961SOL    HW123914   1.243   3.961   6.525
 3961SOL    HW223915   1.101   4.040   6.542
 3962SOL     OW23916   0.318   0.716   1.126
 3962SOL    HW123917   0.319   0.796   1.186
 3962SOL    HW223918   0.244   0.655   1.154
 3963SOL     OW23919   3.930   3.226   0.590
 3963SOL    HW123920   4.017   3.261   0.554
 3963SOL    HW223921   3.865   3.301   0.597
 3964SOL     OW23922   6.389   4.993   0.489
 3964SOL    HW123923   6.351   5.082   0.465
 3964SOL    HW223924   6.317   4.923   0.485
 3965SOL     OW23925   9.253   6.155   5.830
 3965SOL    HW123926   9.203   6.132   5.913
 3965SOL    HW223927   9.229   6.247   5.801
 3966SOL     OW23928   7.227   5.777   1.429
 3966SOL    HW123929   7.174   5.703   1.470
 3966SOL    HW223930   7.205   5.784   1.331
 3967SOL     OW23931   8.454   8.377   5.266
 3967SOL    HW123932   8.529   8.312   5.250
 3967SOL    HW223933   8.469   8.459   5.212
 3968SOL     OW23934   2.809   2.168   6.528
 3968SOL    HW123935   2.751   2.226   6.584
 3968SOL    HW223936   2.783   2.072   6.542
 3969SOL     OW23937   7.119   8.454   6.368
 3969SOL    HW123938   7.123   8.431   6.465
 3969SOL    HW223939   7.191   8.521   6.347
 3970SOL     OW23940   0.473   8.064   0.192
 3970SOL    HW123941   0.396   8.005   0.218
 3970SOL    HW223942   0.466   8.087   0.095
 3971SOL     OW23943   3.354   6.181   0.547
 3971SOL    HW123944   3.434   6.199   0.490
 3971SOL    HW223945   3.278   6.151   0.490
 3972SOL     OW23946   3.798   0.994   0.725
 3972SOL    HW123947   3.736   0.923   0.759
 3972SOL    HW223948   3.883   0.952   0.695
 3973SOL     OW23949   8.837   0.105   6.406
 3973SOL    HW123950   8.777   0.030   6.433
 3973SOL    HW223951   8.826   0.123   6.309
 3974SOL     OW23952   6.441   4.823   5.750
 3974SOL    HW123953   6.463   4.920   5.744
 3974SOL    HW223954   6.489   4.773   5.678
 3975SOL     OW23955   3.780   3.346   0.933
 3975SOL    HW123956   3.739   3.277   0.991
 3975SOL    HW223957   3.710   3.387   0.874
 3976SOL     OW23958   1.372   2.362   0.628
 3976SOL    HW123959   1.433   2.396   0.700
 3976SOL    HW223960   1.365   2.262   0.634
 3977SOL     OW23961   5.800   4.015   0.229
 3977SOL    HW123962   5.740   3.970   0.163
 3977SOL    HW223963   5.864   4.074   0.180
 3978SOL     OW23964   9.374   1.541   5.659
 3978SOL    HW123965   9.423   1.537   5.572
 3978SOL    HW223966   9.355   1.448   5.690
 3979SOL     OW23967   0.397   3.906   0.012
 3979SOL    HW123968   0.459   3.858  -0.050
 3979SOL    HW223969   0.398   3.861   0.101
 3980SOL     OW23970   4.971   5.220   0.414
 3980SOL    HW123971   4.919   5.288   0.466
 3980SOL    HW223972   4.928   5.130   0.425
 3981SOL     OW23973   2.264   2.822   6.044
 3981SOL    HW123974   2.283   2.905   6.097
 3981SOL    HW223975   2.275   2.742   6.102
 3982SOL     OW23976   4.561   5.822   0.941
 3982SOL    HW123977   4.513   5.910   0.931
 3982SOL    HW223978   4.563   5.797   1.038
 3983SOL     OW23979   3.042   0.426   1.878
 3983SOL    HW123980   3.037   0.488   1.956
 3983SOL    HW223981   2.963   0.440   1.819
 3984SOL     OW23982   5.697   1.355   5.965
 3984SOL    HW123983   5.692   1.282   6.033
 3984SOL    HW223984   5.742   1.322   5.882
 3985SOL     OW23985   7.714   0.968   0.716
 3985SOL    HW123986   7.739   0.920   0.800
 3985SOL    HW223987   7.623   1.009   0.727
 3986SOL     OW23988   5.135   0.006   0.032
 3986SOL    HW123989   5.231  -0.012   0.055
 3986SOL    HW223990   5.125   0.009  -0.068
 3987SOL     OW23991   5.854   8.438   5.947
 3987SOL    HW123992   5.921   8.500   5.988
 3987SOL    HW223993   5.775   8.430   6.007
 3988SOL     OW23994   6.824   3.581   1.361
 3988SOL    HW123995   6.868   3.512   1.419
 3988SOL    HW223996   6.856   3.672   1.389
 3989SOL     OW23997   4.948   8.354   1.996
 3989SOL    HW123998   4.875   8.356   2.064
 3989SOL    HW223999   5.024   8.297   2.029
 3990SOL     OW24000   7.968   7.740   5.730
 3990SOL    HW124001   8.003   7.684   5.655
 3990SOL    HW224002   8.041   7.757   5.796
 3991SOL     OW24003   1.623   6.380   5.523
 3991SOL    HW124004   1.580   6.471   5.526
 3991SOL    HW224005   1.554   6.311   5.502
 3992SOL     OW24006   6.779   2.989   5.620
 3992SOL    HW124007   6.799   2.928   5.543
 3992SOL    HW224008   6.787   3.084   5.591
 3993SOL     OW24009   1.310   6.909   5.579
 3993SOL    HW124010   1.313   7.008   5.562
 3993SOL    HW224011   1.280   6.862   5.496
 3994SOL     OW24012   4.794   0.356   4.991
 3994SOL    HW124013   4.865   0.288   4.973
 3994SOL    HW224014   4.785   0.417   4.912
 3995SOL     OW24015   6.536   1.124   1.465
 3995SOL    HW124016   6.471   1.064   1.418
 3995SOL    HW224017   6.606   1.154   1.400
 3996SOL     OW24018   0.657   4.215   5.171
 3996SOL    HW124019   0.633   4.122   5.142
 3996SOL    HW224020   0.716   4.258   5.102
 3997SOL     OW24021   7.103   6.800   5.716
 3997SOL    HW124022   7.171   6.868   5.744
 3997SOL    HW224023   7.060   6.829   5.631
 3998SOL     OW24024   3.571   1.496   1.484
 3998SOL    HW124025   3.573   1.478   1.583
 3998SOL    HW224026   3.611   1.586   1.467
 3999SOL     OW24027   8.091   6.650   0.023
 3999SOL    HW124028   8.154   6.650  -0.055
 3999SOL    HW224029   8.012   6.707   0.003
 4000SOL     OW24030   1.955   2.013   6.026
 4000SOL    HW124031   1.885   1.945   6.049
 4000SOL    HW224032   1.985   2.060   6.109
 4001SOL     OW24033   3.844   6.773   6.572
 4001SOL    HW124034   3.748   6.767   6.597
 4001SOL    HW224035   3.896   6.703   6.621
 4002SOL     OW24036   6.456   5.241   0.827
 4002SOL    HW124037   6.417   5.327   0.794
 4002SOL    HW224038   6.433   5.229   0.923
 4003SOL     OW24039   3.732   3.248   6.270
 4003SOL    HW124040   3.815   3.199   6.292
 4003SOL    HW224041   3.711   3.237   6.173
 4004SOL     OW24042   3.691   7.637   5.193
 4004SOL    HW124043   3.606   7.586   5.180
 4004SOL    HW224044   3.768   7.584   5.158
 4005SOL     OW24045   3.476   5.880   5.411
 4005SOL    HW124046   3.546   5.951   5.417
 4005SOL    HW224047   3.421   5.894   5.328
 4006SOL     OW24048   8.139   1.364   5.981
 4006SOL    HW124049   8.235   1.359   6.006
 4006SOL    HW224050   8.097   1.273   5.991
 4007SOL     OW24051   2.285   7.952   6.641
 4007SOL    HW124052   2.219   7.975   6.569
 4007SOL    HW224053   2.293   8.029   6.704
 4008SOL     OW24054   2.997   8.177   1.568
 4008SOL    HW124055   3.043   8.199   1.654
 4008SOL    HW224056   2.949   8.258   1.534
 4009SOL     OW24057   2.772   8.493   1.140
 4009SOL    HW124058   2.740   8.587   1.130
 4009SOL    HW224059   2.820   8.484   1.228
 4010SOL     OW24060   3.113   3.907   6.495
 4010SOL    HW124061   3.054   3.984   6.519
 4010SOL    HW224062   3.101   3.885   6.398
 4011SOL     OW24063   1.903   3.702   6.710
 4011SOL    HW124064   1.830   3.677   6.647
 4011SOL    HW224065   1.868   3.765   6.779
 4012SOL     OW24066   6.367   0.507   6.486
 4012SOL    HW124067   6.346   0.456   6.570
 4012SOL    HW224068   6.400   0.443   6.416
 4013SOL     OW24069   5.472   5.089   5.888
 4013SOL    HW124070   5.457   5.115   5.793
 4013SOL    HW224071   5.530   5.008   5.892
 4014SOL     OW24072   1.159   4.461   6.633
 4014SOL    HW124073   1.062   4.486   6.633
 4014SOL    HW224074   1.168   4.362   6.642
 4015SOL     OW24075   5.895   5.864   5.886
 4015SOL    HW124076   5.847   5.843   5.971
 4015SOL    HW224077   5.994   5.851   5.899
 4016SOL     OW24078   8.682   1.437   0.155
 4016SOL    HW124079   8.754   1.506   0.166
 4016SOL    HW224080   8.596   1.472   0.192
 4017SOL     OW24081   5.702   6.141   5.884
 4017SOL    HW124082   5.623   6.170   5.829
 4017SOL    HW224083   5.673   6.070   5.948
 4018SOL     OW24084   0.950   1.617   0.744
 4018SOL    HW124085   0.981   1.526   0.774
 4018SOL    HW224086   0.900   1.608   0.658
 4019SOL     OW24087   8.909   1.151   5.753
 4019SOL    HW124088   8.913   1.246   5.784
 4019SOL    HW224089   9.001   1.112   5.754
 4020SOL     OW24090   9.210   2.008   0.647
 4020SOL    HW124091   9.235   2.096   0.686
 4020SOL    HW224092   9.155   1.957   0.713
 4021SOL     OW24093   7.792   3.609   0.066
 4021SOL    HW124094   7.860   3.681   0.076
 4021SOL    HW224095   7.720   3.621   0.134
 4022SOL     OW24096   2.196   0.488   5.893
 4022SOL    HW124097   2.191   0.562   5.827
 4022SOL    HW224098   2.149   0.514   5.978
 4023SOL     OW24099   1.055   7.843   6.718
 4023SOL    HW124100   1.106   7.766   6.680
 4023SOL    HW224101   1.051   7.834   6.817
 4024SOL     OW24102   8.729   6.998   0.857
 4024SOL    HW124103   8.741   7.042   0.947
 4024SOL    HW224104   8.648   7.037   0.813
 4025SOL     OW24105   1.685   8.163   6.321
 4025SOL    HW124106   1.716   8.240   6.377
 4025SOL    HW224107   1.699   8.078   6.373
 4026SOL     OW24108   2.992   0.112   6.345
 4026SOL    HW124109   3.071   0.173   6.339
 4026SOL    HW224110   2.908   0.166   6.335
 4027SOL     OW24111   1.429   7.278   5.850
 4027SOL    HW124112   1.442   7.179   5.856
 4027SOL    HW224113   1.398   7.302   5.758
 4028SOL     OW24114   0.353   2.834   0.756
 4028SOL    HW124115   0.317   2.850   0.848
 4028SOL    HW224116   0.350   2.919   0.703
 4029SOL     OW24117   1.673   1.491   1.343
 4029SOL    HW124118   1.575   1.477   1.355
 4029SOL    HW224119   1.718   1.489   1.433
 4030SOL     OW24120   6.599   4.770   0.097
 4030SOL    HW124121   6.662   4.742   0.024
 4030SOL    HW224122   6.622   4.863   0.127
 4031SOL     OW24123   6.452   2.206   5.830
 4031SOL    HW124124   6.422   2.169   5.742
 4031SOL    HW224125   6.464   2.305   5.822
 4032SOL     OW24126   1.733   2.670   5.697
 4032SOL    HW124127   1.655   2.654   5.758
 4032SOL    HW224128   1.700   2.702   5.609
 4033SOL     OW24129   7.476   3.258   0.052
 4033SOL    HW124130   7.398   3.294   0.104
 4033SOL    HW224131   7.444   3.221  -0.035
 4034SOL     OW24132   8.619   3.407   6.682
 4034SOL    HW124133   8.560   3.419   6.602
 4034SOL    HW224134   8.715   3.410   6.653
 4035SOL     OW24135   1.284   6.612   0.562
 4035SOL    HW124136   1.365   6.553   0.567
 4035SOL    HW224137   1.305   6.692   0.505
 4036SOL     OW24138   7.266   5.030   4.961
 4036SOL    HW124139   7.217   4.943   4.952
 4036SOL    HW224140   7.363   5.016   4.938
 4037SOL     OW24141   1.177   5.833   4.547
 4037SOL    HW124142   1.243   5.856   4.475
 4037SOL    HW224143   1.152   5.737   4.538
 4038SOL     OW24144   2.750   6.132   6.443
 4038SOL    HW124145   2.677   6.079   6.486
 4038SOL    HW224146   2.710   6.210   6.395
 4039SOL     OW24147   8.860   6.379   6.441
 4039SOL    HW124148   8.805   6.319   6.499
 4039SOL    HW224149   8.838   6.475   6.462
 4040SOL     OW24150   4.863   7.204   5.246
 4040SOL    HW124151   4.836   7.108   5.255
 4040SOL    HW224152   4.963   7.209   5.236
 4041SOL     OW24153   5.759   5.860   6.376
 4041SOL    HW124154   5.687   5.861   6.445
 4041SOL    HW224155   5.825   5.788   6.398
 4042SOL     OW24156   0.045   4.052   5.848
 4042SOL    HW124157   0.111   3.979   5.864
 4042SOL    HW224158   0.066   4.129   5.908
 4043SOL     OW24159   9.019   6.311   5.348
 4043SOL    HW124160   9.012   6.363   5.432
 4043SOL    HW224161   9.105   6.334   5.302
 4044SOL     OW24162   7.870   6.793   6.693
 4044SOL    HW124163   7.830   6.828   6.777
 4044SOL    HW224164   7.802   6.739   6.644
 4045SOL     OW24165   7.640   2.380   1.721
 4045SOL    HW124166   7.600   2.312   1.782
 4045SOL    HW224167   7.612   2.472   1.749
 4046SOL     OW24168   1.147   7.602   6.544
 4046SOL    HW124169   1.062   7.591   6.493
 4046SOL    HW224170   1.142   7.548   6.628
 4047SOL     OW24171   7.727   5.665   5.861
 4047SOL    HW124172   7.646   5.701   5.906
 4047SOL    HW224173   7.752   5.725   5.785
 4048SOL     OW24174   2.122   5.980   0.212
 4048SOL    HW124175   2.023   5.969   0.225
 4048SOL    HW224176   2.158   5.901   0.162
 4049SOL     OW24177   5.395   2.904   1.255
 4049SOL    HW124178   5.419   2.986   1.306
 4049SOL    HW224179   5.321   2.925   1.190
 4050SOL     OW24180   0.447   8.225   0.902
 4050SOL    HW124181   0.389   8.201   0.980
 4050SOL    HW224182   0.532   8.266   0.935
 4051SOL     OW24183   0.795   7.659   0.343
 4051SOL    HW124184   0.875   7.673   0.401
 4051SOL    HW224185   0.817   7.593   0.271
 4052SOL     OW24186   2.341   7.249   0.169
 4052SOL    HW124187   2.416   7.312   0.151
 4052SOL    HW224188   2.376   7.155   0.170
 4053SOL     OW24189   3.259   0.627   5.305
 4053SOL    HW124190   3.322   0.657   5.377
 4053SOL    HW224191   3.310   0.611   5.220
 4054SOL     OW24192   3.296   1.606   6.481
 4054SOL    HW124193   3.279   1.683   6.542
 4054SOL    HW224194   3.387   1.568   6.500
 4055SOL     OW24195   3.128   5.669   0.483
 4055SOL    HW124196   3.140   5.590   0.543
 4055SOL    HW224197   3.163   5.647   0.392
 4056SOL     OW24198   3.880   2.807   0.421
 4056SOL    HW124199   3.902   2.853   0.335
 4056SOL    HW224200   3.792   2.761   0.412
 4057SOL     OW24201   7.806   4.257   5.899
 4057SOL    HW124202   7.843   4.172   5.937
 4057SOL    HW224203   7.852   4.335   5.941
 4058SOL     OW24204   4.208   2.468   5.688
 4058SOL    HW124205   4.143   2.523   5.740
 4058SOL    HW224206   4.183   2.469   5.591
 4059SOL     OW24207   2.797   5.485   0.276
 4059SOL    HW124208   2.774   5.474   0.372
 4059SOL    HW224209   2.838   5.575   0.262
 4060SOL     OW24210   8.234   0.367   0.217
 4060SOL    HW124211   8.157   0.401   0.162
 4060SOL    HW224212   8.199   0.313   0.293
 4061SOL     OW24213   3.030   7.261   0.809
 4061SOL    HW124214   2.993   7.286   0.899
 4061SOL    HW224215   2.994   7.172   0.781
 4062SOL     OW24216   2.955   3.802   0.962
 4062SOL    HW124217   2.927   3.872   1.027
 4062SOL    HW224218   3.026   3.744   1.003
 4063SOL     OW24219   6.512   3.937   5.590
 4063SOL    HW124220   6.556   3.973   5.508
 4063SOL    HW224221   6.537   3.841   5.603
 4064SOL     OW24222   7.579   7.620   5.997
 4064SOL    HW124223   7.553   7.524   6.006
 4064SOL    HW224224   7.519   7.666   5.931
 4065SOL     OW24225   3.718   3.427   6.490
 4065SOL    HW124226   3.732   3.374   6.406
 4065SOL    HW224227   3.640   3.389   6.539
 4066SOL     OW24228   8.155   6.255   5.982
 4066SOL    HW124229   8.103   6.252   6.067
 4066SOL    HW224230   8.239   6.307   5.996
 4067SOL     OW24231   2.273   3.109   5.833
 4067SOL    HW124232   2.173   3.097   5.831
 4067SOL    HW224233   2.295   3.203   5.809
 4068SOL     OW24234   6.528   0.958   5.961
 4068SOL    HW124235   6.487   0.927   5.875
 4068SOL    HW224236   6.625   0.977   5.946
 4069SOL     OW24237   2.047   2.371   5.373
 4069SOL    HW124238   2.088   2.290   5.333
 4069SOL    HW224239   2.020   2.352   5.467
 4070SOL     OW24240   5.046   1.075   0.223
 4070SOL    HW124241   4.974   1.134   0.259
 4070SOL    HW224242   5.026   0.979   0.246
 4071SOL     OW24243   0.162   5.089   5.512
 4071SOL    HW124244   0.074   5.047   5.533
 4071SOL    HW224245   0.177   5.086   5.413
 4072SOL     OW24246   8.560   3.133   5.058
 4072SOL    HW124247   8.553   3.220   5.106
 4072SOL    HW224248   8.477   3.117   5.004
 4073SOL     OW24249   6.784   1.211   0.483
 4073SOL    HW124250   6.807   1.170   0.395
 4073SOL    HW224251   6.694   1.178   0.513
 4074SOL     OW24252   4.855   3.186   0.661
 4074SOL    HW124253   4.886   3.092   0.648
 4074SOL    HW224254   4.856   3.209   0.758
 4075SOL     OW24255   9.306   0.814   0.256
 4075SOL    HW124256   9.268   0.800   0.348
 4075SOL    HW224257   9.403   0.791   0.256
 4076SOL     OW24258   5.116   6.314   6.679
 4076SOL    HW124259   5.056   6.394   6.676
 4076SOL    HW224260   5.175   6.320   6.759
 4077SOL     OW24261   8.548   3.237   5.994
 4077SOL    HW124262   8.509   3.283   6.074
 4077SOL    HW224263   8.586   3.149   6.020
 4078SOL     OW24264   3.045   1.731   1.100
 4078SOL    HW124265   3.142   1.724   1.124
 4078SOL    HW224266   2.989   1.718   1.182
 4079SOL     OW24267   0.966   7.816   5.200
 4079SOL    HW124268   0.878   7.771   5.179
 4079SOL    HW224269   0.965   7.909   5.163
 4080SOL     OW24270   6.703   4.502   5.433
 4080SOL    HW124271   6.668   4.579   5.486
 4080SOL    HW224272   6.803   4.498   5.443
 4081SOL     OW24273   4.613   2.997   6.180
 4081SOL    HW124274   4.695   2.949   6.148
 4081SOL    HW224275   4.639   3.064   6.250
 4082SOL     OW24276   5.478   6.273   5.729
 4082SOL    HW124277   5.406   6.333   5.764
 4082SOL    HW224278   5.496   6.294   5.633
 4083SOL     OW24279   8.430   0.857   0.232
 4083SOL    HW124280   8.474   0.784   0.283
 4083SOL    HW224281   8.498   0.908   0.179
 4084SOL     OW24282   5.910   0.840   0.521
 4084SOL    HW124283   5.878   0.875   0.609
 4084SOL    HW224284   5.865   0.890   0.447
 4085SOL     OW24285   8.069   7.096   0.836
 4085SOL    HW124286   8.118   7.183   0.839
 4085SOL    HW224287   8.119   7.032   0.778
 4086SOL     OW24288   7.735   2.502   0.500
 4086SOL    HW124289   7.693   2.496   0.410
 4086SOL    HW224290   7.767   2.596   0.516
 4087SOL     OW24291   8.944   7.236   6.641
 4087SOL    HW124292   8.971   7.176   6.716
 4087SOL    HW224293   9.024   7.256   6.584
 4088SOL     OW24294   0.829   4.850   6.039
 4088SOL    HW124295   0.747   4.905   6.021
 4088SOL    HW224296   0.852   4.798   5.956
 4089SOL     OW24297   8.587   6.766   0.951
 4089SOL    HW124298   8.620   6.728   1.037
 4089SOL    HW224299   8.637   6.850   0.930
 4090SOL     OW24300   1.494   3.793   5.739
 4090SOL    HW124301   1.525   3.816   5.647
 4090SOL    HW224302   1.433   3.865   5.773
 4091SOL     OW24303   6.910   0.506   6.157
 4091SOL    HW124304   6.928   0.604   6.163
 4091SOL    HW224305   6.984   0.463   6.105
 4092SOL     OW24306   1.384   1.516   0.186
 4092SOL    HW124307   1.448   1.589   0.162
 4092SOL    HW224308   1.298   1.557   0.216
 4093SOL     OW24309   0.015   0.114   4.729
 4093SOL    HW124310   0.049   0.108   4.635
 4093SOL    HW224311  -0.032   0.201   4.742
 4094SOL     OW24312   1.680   8.093   1.068
 4094SOL    HW124313   1.779   8.094   1.081
 4094SOL    HW224314   1.659   8.129   0.978
 4095SOL     OW24315   0.973   2.519   0.965
 4095SOL    HW124316   0.888   2.571   0.977
 4095SOL    HW224317   0.981   2.490   0.869
 4096SOL     OW24318   6.142   3.824   0.214
 4096SOL    HW124319   6.099   3.914   0.201
 4096SOL    HW224320   6.120   3.765   0.137
 4097SOL     OW24321   8.900   1.633   0.192
 4097SOL    HW124322   8.870   1.697   0.121
 4097SOL    HW224323   8.923   1.684   0.274
 4098SOL     OW24324   5.536   4.903   6.730
 4098SOL    HW124325   5.499   4.991   6.762
 4098SOL    HW224326   5.553   4.844   6.809
 4099SOL     OW24327   3.999   4.803   0.599
 4099SOL    HW124328   3.986   4.899   0.575
 4099SOL    HW224329   3.944   4.782   0.681
 4100SOL     OW24330   0.485   0.484   5.223
 4100SOL    HW124331   0.460   0.490   5.126
 4100SOL    HW224332   0.433   0.551   5.276
 4101SOL     OW24333   7.030   6.760   6.447
 4101SOL    HW124334   7.001   6.854   6.465
 4101SOL    HW224335   7.117   6.761   6.396
 4102SOL     OW24336   8.976   4.236   0.174
 4102SOL    HW124337   8.943   4.309   0.114
 4102SOL    HW224338   9.075   4.246   0.187
 4103SOL     OW24339   6.018   2.546   6.591
 4103SOL    HW124340   6.011   2.451   6.563
 4103SOL    HW224341   5.987   2.555   6.686
 4104SOL     OW24342   3.020   2.872   1.128
 4104SOL    HW124343   3.044   2.919   1.213
 4104SOL    HW224344   2.943   2.918   1.084
 4105SOL     OW24345   3.567   4.073   0.506
 4105SOL    HW124346   3.545   4.139   0.577
 4105SOL    HW224347   3.613   4.119   0.430
 4106SOL     OW24348   6.051   1.923   1.109
 4106SOL    HW124349   6.024   1.856   1.178
 4106SOL    HW224350   6.030   2.015   1.143
 4107SOL     OW24351   7.505   5.664   5.362
 4107SOL    HW124352   7.501   5.679   5.263
 4107SOL    HW224353   7.452   5.735   5.408
 4108SOL     OW24354   8.307   4.355   0.021
 4108SOL    HW124355   8.396   4.323   0.054
 4108SOL    HW224356   8.274   4.293  -0.050
 4109SOL     OW24357   8.910   6.050   5.420
 4109SOL    HW124358   8.858   6.000   5.351
 4109SOL    HW224359   8.965   6.121   5.376
 4110SOL     OW24360   0.738   0.745   5.948
 4110SOL    HW124361   0.818   0.686   5.958
 4110SOL    HW224362   0.722   0.765   5.852
 4111SOL     OW24363   2.840   5.752   5.030
 4111SOL    HW124364   2.815   5.758   4.934
 4111SOL    HW224365   2.837   5.657   5.060
 4112SOL     OW24366   0.112   4.088   0.129
 4112SOL    HW124367   0.185   4.079   0.061
 4112SOL    HW224368   0.136   4.161   0.193
 4113SOL     OW24369   3.297   4.722   1.778
 4113SOL    HW124370   3.319   4.637   1.826
 4113SOL    HW224371   3.294   4.798   1.843
 4114SOL     OW24372   1.970   5.200   6.592
 4114SOL    HW124373   1.986   5.178   6.496
 4114SOL    HW224374   1.934   5.293   6.600
 4115SOL     OW24375   6.100   5.036   5.719
 4115SOL    HW124376   6.191   5.015   5.755
 4115SOL    HW224377   6.107   5.060   5.622
 4116SOL     OW24378   1.771   1.341   0.406
 4116SOL    HW124379   1.673   1.341   0.387
 4116SOL    HW224380   1.788   1.304   0.497
 4117SOL     OW24381   1.933   0.668   6.264
 4117SOL    HW124382   2.007   0.712   6.214
 4117SOL    HW224383   1.935   0.569   6.246
 4118SOL     OW24384   8.281   5.386   6.391
 4118SOL    HW124385   8.374   5.420   6.382
 4118SOL    HW224386   8.234   5.393   6.303
 4119SOL     OW24387   7.551   7.607   5.207
 4119SOL    HW124388   7.492   7.683   5.177
 4119SOL    HW224389   7.635   7.607   5.153
 4120SOL     OW24390   0.342   8.145   1.723
 4120SOL    HW124391   0.316   8.049   1.709
 4120SOL    HW224392   0.393   8.154   1.808
 4121SOL     OW24393   1.852   3.487   6.095
 4121SOL    HW124394   1.820   3.413   6.155
 4121SOL    HW224395   1.932   3.456   6.044
 4122SOL     OW24396   3.333   4.691   6.562
 4122SOL    HW124397   3.319   4.746   6.479
 4122SOL    HW224398   3.299   4.742   6.641
 4123SOL     OW24399   3.578   7.543   5.947
 4123SOL    HW124400   3.598   7.611   6.018
 4123SOL    HW224401   3.652   7.477   5.942
 4124SOL     OW24402   2.754   1.558   6.467
 4124SOL    HW124403   2.704   1.509   6.396
 4124SOL    HW224404   2.748   1.507   6.553
 4125SOL     OW24405   9.176   4.507   0.249
 4125SOL    HW124406   9.204   4.462   0.164
 4125SOL    HW224407   9.084   4.546   0.237
 4126SOL     OW24408   7.508   2.956   5.707
 4126SOL    HW124409   7.566   2.900   5.765
 4126SOL    HW224410   7.538   3.052   5.713
 4127SOL     OW24411   4.311   0.649   0.934
 4127SOL    HW124412   4.308   0.570   0.995
 4127SOL    HW224413   4.260   0.630   0.851
 4128SOL     OW24414   8.966   7.035   0.081
 4128SOL    HW124415   9.045   6.994   0.126
 4128SOL    HW224416   8.905   7.074   0.151
 4129SOL     OW24417   5.739   5.839   6.114
 4129SOL    HW124418   5.652   5.881   6.090
 4129SOL    HW224419   5.743   5.824   6.213
 4130SOL     OW24420   0.527   2.038   0.865
 4130SOL    HW124421   0.513   1.985   0.949
 4130SOL    HW224422   0.625   2.055   0.852
 4131SOL     OW24423   4.564   6.836   0.854
 4131SOL    HW124424   4.492   6.797   0.911
 4131SOL    HW224425   4.524   6.875   0.771
 4132SOL     OW24426   9.061   1.394   0.233
 4132SOL    HW124427   9.027   1.481   0.196
 4132SOL    HW224428   9.006   1.319   0.197
 4133SOL     OW24429   6.553   0.696   6.455
 4133SOL    HW124430   6.480   0.629   6.464
 4133SOL    HW224431   6.524   0.784   6.494
 4134SOL     OW24432   1.438   3.245   6.724
 4134SOL    HW124433   1.404   3.249   6.630
 4134SOL    HW224434   1.467   3.152   6.744
 4135SOL     OW24435   8.442   3.788   6.289
 4135SOL    HW124436   8.463   3.817   6.382
 4135SOL    HW224437   8.422   3.867   6.232
 4136SOL     OW24438   8.068   6.777   1.281
 4136SOL    HW124439   8.031   6.839   1.350
 4136SOL    HW224440   8.041   6.808   1.190
 4137SOL     OW24441   8.388   5.839   6.701
 4137SOL    HW124442   8.390   5.938   6.715
 4137SOL    HW224443   8.359   5.794   6.785
 4138SOL     OW24444   2.428   1.156   1.174
 4138SOL    HW124445   2.417   1.063   1.138
 4138SOL    HW224446   2.351   1.213   1.145
 4139SOL     OW24447   0.811   5.209   6.530
 4139SOL    HW124448   0.850   5.170   6.446
 4139SOL    HW224449   0.885   5.226   6.596
 4140SOL     OW24450   0.947   4.399   1.226
 4140SOL    HW124451   0.883   4.332   1.263
 4140SOL    HW224452   0.951   4.478   1.287
 4141SOL     OW24453   3.215   2.747   5.592
 4141SOL    HW124454   3.231   2.699   5.506
 4141SOL    HW224455   3.195   2.843   5.573
 4142SOL     OW24456   6.501   7.609   1.986
 4142SOL    HW124457   6.562   7.684   1.960
 4142SOL    HW224458   6.555   7.529   2.011
 4143SOL     OW24459   8.769   5.304   0.167
 4143SOL    HW124460   8.680   5.280   0.130
 4143SOL    HW224461   8.766   5.302   0.267
 4144SOL     OW24462   2.108   6.826   5.670
 4144SOL    HW124463   2.175   6.894   5.639
 4144SOL    HW224464   2.155   6.745   5.703
 4145SOL     OW24465   5.543   2.367   1.949
 4145SOL    HW124466   5.611   2.427   1.991
 4145SOL    HW224467   5.582   2.323   1.868
 4146SOL     OW24468   7.324   3.538   0.535
 4146SOL    HW124469   7.345   3.625   0.492
 4146SOL    HW224470   7.342   3.544   0.633
 4147SOL     OW24471   0.575   4.551   0.465
 4147SOL    HW124472   0.632   4.607   0.525
 4147SOL    HW224473   0.481   4.549   0.500
 4148SOL     OW24474   1.461   4.830   6.695
 4148SOL    HW124475   1.559   4.806   6.699
 4148SOL    HW224476   1.444   4.888   6.616
 4149SOL     OW24477   6.882   2.916   0.877
 4149SOL    HW124478   6.886   2.961   0.788
 4149SOL    HW224479   6.941   2.963   0.941
 4150SOL     OW24480   9.369   5.672   5.018
 4150SOL    HW124481   9.452   5.621   5.042
 4150SOL    HW224482   9.316   5.621   4.951
 4151SOL     OW24483   5.407   3.311   0.078
 4151SOL    HW124484   5.499   3.285   0.105
 4151SOL    HW224485   5.385   3.401   0.116
 4152SOL     OW24486   8.488   6.360   1.341
 4152SOL    HW124487   8.447   6.433   1.396
 4152SOL    HW224488   8.576   6.391   1.304
 4153SOL     OW24489   7.125   5.650   0.033
 4153SOL    HW124490   7.067   5.728   0.057
 4153SOL    HW224491   7.101   5.571   0.089
 4154SOL     OW24492   7.401   4.045   6.293
 4154SOL    HW124493   7.365   4.018   6.203
 4154SOL    HW224494   7.446   3.966   6.336
 4155SOL     OW24495   3.761   7.226   5.326
 4155SOL    HW124496   3.809   7.248   5.241
 4155SOL    HW224497   3.750   7.309   5.381
 4156SOL     OW24498   2.850   0.249   0.885
 4156SOL    HW124499   2.900   0.164   0.870
 4156SOL    HW224500   2.914   0.320   0.916
 4157SOL     OW24501   4.951   2.371   6.032
 4157SOL    HW124502   4.960   2.429   5.951
 4157SOL    HW224503   4.864   2.389   6.077
 4158SOL     OW24504   0.548   3.708   6.618
 4158SOL    HW124505   0.485   3.630   6.627
 4158SOL    HW224506   0.628   3.680   6.565
 4159SOL     OW24507   2.250   4.070   1.152
 4159SOL    HW124508   2.271   4.090   1.057
 4159SOL    HW224509   2.328   4.096   1.210
 4160SOL     OW24510   2.320   3.016   6.193
 4160SOL    HW124511   2.402   3.072   6.197
 4160SOL    HW224512   2.241   3.074   6.174
 4161SOL     OW24513   4.957   5.949   0.567
 4161SOL    HW124514   5.056   5.946   0.580
 4161SOL    HW224515   4.911   5.945   0.656
 4162SOL     OW24516   1.585   0.078   0.950
 4162SOL    HW124517   1.680   0.094   0.977
 4162SOL    HW224518   1.532   0.049   1.030
 4163SOL     OW24519   6.948   1.516   5.458
 4163SOL    HW124520   6.879   1.448   5.481
 4163SOL    HW224521   7.039   1.475   5.464
 4164SOL     OW24522   0.991   2.395   1.482
 4164SOL    HW124523   1.020   2.483   1.520
 4164SOL    HW224524   0.941   2.343   1.552
 4165SOL     OW24525   5.829   1.577   0.933
 4165SOL    HW124526   5.763   1.522   0.985
 4165SOL    HW224527   5.883   1.517   0.874
 4166SOL     OW24528   7.943   8.088   6.196
 4166SOL    HW124529   7.958   8.085   6.295
 4166SOL    HW224530   7.856   8.133   6.177
 4167SOL     OW24531   6.696   6.434   4.680
 4167SOL    HW124532   6.613   6.445   4.625
 4167SOL    HW224533   6.724   6.338   4.679
 4168SOL     OW24534   7.543   4.214   5.848
 4168SOL    HW124535   7.632   4.224   5.894
 4168SOL    HW224536   7.529   4.118   5.825
 4169SOL     OW24537   1.075   0.497   5.202
 4169SOL    HW124538   1.037   0.429   5.266
 4169SOL    HW224539   1.082   0.456   5.111
 4170SOL     OW24540   3.810   1.410   6.251
 4170SOL    HW124541   3.741   1.373   6.189
 4170SOL    HW224542   3.894   1.430   6.200
 4171SOL     OW24543   3.793   6.620   1.040
 4171SOL    HW124544   3.718   6.655   1.096
 4171SOL    HW224545   3.808   6.523   1.061
 4172SOL     OW24546   8.471   7.062   0.721
 4172SOL    HW124547   8.531   7.033   0.646
 4172SOL    HW224548   8.402   6.992   0.737
 4173SOL     OW24549   6.118   5.748   5.614
 4173SOL    HW124550   6.070   5.669   5.654
 4173SOL    HW224551   6.162   5.800   5.687
 4174SOL     OW24552   1.788   0.332   0.773
 4174SOL    HW124553   1.773   0.257   0.837
 4174SOL    HW224554   1.763   0.303   0.681
 4175SOL     OW24555   6.300   8.087   0.101
 4175SOL    HW124556   6.362   8.015   0.131
 4175SOL    HW224557   6.318   8.171   0.152
 4176SOL     OW24558   8.914   1.251   6.523
 4176SOL    HW124559   8.847   1.242   6.597
 4176SOL    HW224560   8.983   1.179   6.532
 4177SOL     OW24561   1.811   7.753   0.131
 4177SOL    HW124562   1.735   7.725   0.072
 4177SOL    HW224563   1.786   7.836   0.181
 4178SOL     OW24564   2.578   3.728   1.263
 4178SOL    HW124565   2.483   3.759   1.278
 4178SOL    HW224566   2.618   3.701   1.350
 4179SOL     OW24567   2.956   5.494   4.818
 4179SOL    HW124568   2.915   5.433   4.886
 4179SOL    HW224569   2.885   5.552   4.778
 4180SOL     OW24570   6.509   0.036   0.408
 4180SOL    HW124571   6.423   0.051   0.359
 4180SOL    HW224572   6.502   0.070   0.501
 4181SOL     OW24573   7.412   4.883   0.077
 4181SOL    HW124574   7.508   4.909   0.080
 4181SOL    HW224575   7.380   4.863   0.170
 4182SOL     OW24576   8.108   6.997   5.187
 4182SOL    HW124577   8.171   7.068   5.155
 4182SOL    HW224578   8.060   6.957   5.109
 4183SOL     OW24579   0.815   7.433   4.073
 4183SOL    HW124580   0.862   7.520   4.059
 4183SOL    HW224581   0.872   7.372   4.128
 4184SOL     OW24582   6.206   6.381   6.587
 4184SOL    HW124583   6.289   6.417   6.632
 4184SOL    HW224584   6.199   6.283   6.604
 4185SOL     OW24585   2.060   3.402   0.836
 4185SOL    HW124586   2.110   3.484   0.808
 4185SOL    HW224587   2.103   3.321   0.795
 4186SOL     OW24588   5.271   4.829   6.307
 4186SOL    HW124589   5.368   4.828   6.282
 4186SOL    HW224590   5.239   4.735   6.319
 4187SOL     OW24591   4.919   1.762   1.743
 4187SOL    HW124592   4.978   1.713   1.806
 4187SOL    HW224593   4.853   1.816   1.794
 4188SOL     OW24594   8.838   1.829   6.524
 4188SOL    HW124595   8.778   1.749   6.516
 4188SOL    HW224596   8.915   1.820   6.461
 4189SOL     OW24597   4.641   7.759   0.122
 4189SOL    HW124598   4.701   7.679   0.122
 4189SOL    HW224599   4.559   7.740   0.067
 4190SOL     OW24600   7.516   1.428   6.222
 4190SOL    HW124601   7.609   1.392   6.227
 4190SOL    HW224602   7.504   1.498   6.292
 4191SOL     OW24603   8.735   5.287   5.172
 4191SOL    HW124604   8.783   5.237   5.100
 4191SOL    HW224605   8.693   5.369   5.134
 4192SOL     OW24606   7.578   2.772   6.343
 4192SOL    HW124607   7.578   2.727   6.433
 4192SOL    HW224608   7.486   2.767   6.304
 4193SOL     OW24609   1.321   6.642   0.865
 4193SOL    HW124610   1.297   6.623   0.770
 4193SOL    HW224611   1.388   6.575   0.896
 4194SOL     OW24612   3.134   3.005   0.468
 4194SOL    HW124613   3.138   2.991   0.567
 4194SOL    HW224614   3.213   3.059   0.439
 4195SOL     OW24615   3.938   1.730   6.579
 4195SOL    HW124616   3.985   1.758   6.496
 4195SOL    HW224617   3.949   1.799   6.650
 4196SOL     OW24618   0.423   6.899   6.182
 4196SOL    HW124619   0.477   6.983   6.188
 4196SOL    HW224620   0.336   6.912   6.229
 4197SOL     OW24621   4.169   3.293   1.702
 4197SOL    HW124622   4.151   3.359   1.628
 4197SOL    HW224623   4.236   3.226   1.671
 4198SOL     OW24624   5.118   2.424   0.250
 4198SOL    HW124625   5.164   2.339   0.223
 4198SOL    HW224626   5.187   2.495   0.266
 4199SOL     OW24627   9.157   2.903   1.720
 4199SOL    HW124628   9.201   2.991   1.735
 4199SOL    HW224629   9.061   2.908   1.749
 4200SOL     OW24630   1.581   8.073   4.152
 4200SOL    HW124631   1.518   8.151   4.146
 4200SOL    HW224632   1.585   8.041   4.247
 4201SOL     OW24633   1.566   2.989   5.495
 4201SOL    HW124634   1.581   3.076   5.541
 4201SOL    HW224635   1.519   3.004   5.408
 4202SOL     OW24636   2.696   6.611   6.235
 4202SOL    HW124637   2.746   6.692   6.206
 4202SOL    HW224638   2.671   6.620   6.331
 4203SOL     OW24639   8.195   8.331   0.051
 4203SOL    HW124640   8.176   8.245   0.003
 4203SOL    HW224641   8.159   8.326   0.144
 4204SOL     OW24642   1.564   3.815   5.451
 4204SOL    HW124643   1.615   3.796   5.367
 4204SOL    HW224644   1.492   3.747   5.463
 4205SOL     OW24645   3.714   0.141   6.653
 4205SOL    HW124646   3.642   0.171   6.716
 4205SOL    HW224647   3.794   0.110   6.706
 4206SOL     OW24648   2.388   1.701   1.371
 4206SOL    HW124649   2.296   1.739   1.379
 4206SOL    HW224650   2.451   1.756   1.426
 4207SOL     OW24651   7.215   7.860   6.549
 4207SOL    HW124652   7.207   7.886   6.453
 4207SOL    HW224653   7.124   7.842   6.587
 4208SOL     OW24654   3.009   8.157   6.475
 4208SOL    HW124655   3.020   8.132   6.379
 4208SOL    HW224656   2.949   8.237   6.481
 4209SOL     OW24657   1.464   3.466   6.383
 4209SOL    HW124658   1.440   3.521   6.303
 4209SOL    HW224659   1.409   3.383   6.384
 4210SOL     OW24660   6.330   4.469   5.728
 4210SOL    HW124661   6.412   4.451   5.782
 4210SOL    HW224662   6.301   4.564   5.741
 4211SOL     OW24663   0.683   1.900   4.985
 4211SOL    HW124664   0.698   1.815   4.935
 4211SOL    HW224665   0.739   1.973   4.944
 4212SOL     OW24666   4.452   0.201   5.245
 4212SOL    HW124667   4.520   0.154   5.190
 4212SOL    HW224668   4.364   0.154   5.237
 4213SOL     OW24669   0.297   4.693   5.301
 4213SOL    HW124670   0.281   4.673   5.205
 4213SOL    HW224671   0.390   4.726   5.314
 4214SOL     OW24672   7.626   2.762   0.754
 4214SOL    HW124673   7.625   2.738   0.851
 4214SOL    HW224674   7.719   2.753   0.718
 4215SOL     OW24675   7.339   5.469   0.268
 4215SOL    HW124676   7.364   5.550   0.322
 4215SOL    HW224677   7.392   5.469   0.183
 4216SOL     OW24678   1.026   6.146   5.787
 4216SOL    HW124679   0.979   6.234   5.795
 4216SOL    HW224680   0.975   6.077   5.838
 4217SOL     OW24681   2.960   8.494   5.337
 4217SOL    HW124682   3.014   8.425   5.289
 4217SOL    HW224683   2.888   8.449   5.390
 4218SOL     OW24684   0.628   5.878   5.054
 4218SOL    HW124685   0.665   5.842   5.139
 4218SOL    HW224686   0.703   5.913   4.997
 4219SOL     OW24687   2.185   0.152   5.526
 4219SOL    HW124688   2.165   0.089   5.451
 4219SOL    HW224689   2.282   0.173   5.528
 4220SOL     OW24690   5.185   6.412   5.662
 4220SOL    HW124691   5.193   6.418   5.762
 4220SOL    HW224692   5.093   6.440   5.635
 4221SOL     OW24693   5.431   0.580   1.499
 4221SOL    HW124694   5.441   0.645   1.574
 4221SOL    HW224695   5.517   0.573   1.449
 4222SOL     OW24696   5.044   3.975   0.704
 4222SOL    HW124697   5.037   3.878   0.680
 4222SOL    HW224698   5.080   3.984   0.797
 4223SOL     OW24699   2.387   0.232   0.798
 4223SOL    HW124700   2.308   0.191   0.843
 4223SOL    HW224701   2.360   0.318   0.754
 4224SOL     OW24702   5.162   5.733   5.346
 4224SOL    HW124703   5.204   5.823   5.361
 4224SOL    HW224704   5.110   5.734   5.261
 4225SOL     OW24705   4.707   7.809   6.513
 4225SOL    HW124706   4.744   7.773   6.427
 4225SOL    HW224707   4.758   7.892   6.538
 4226SOL     OW24708   0.935   4.954   4.659
 4226SOL    HW124709   0.984   4.890   4.720
 4226SOL    HW224710   1.001   5.016   4.616
 4227SOL     OW24711   1.860   3.307   5.798
 4227SOL    HW124712   1.921   3.381   5.768
 4227SOL    HW224713   1.800   3.341   5.870
 4228SOL     OW24714   0.015   0.276   5.704
 4228SOL    HW124715   0.095   0.228   5.739
 4228SOL    HW224716  -0.057   0.209   5.684
 4229SOL     OW24717   7.664   8.495   0.486
 4229SOL    HW124718   7.637   8.468   0.393
 4229SOL    HW224719   7.667   8.594   0.492
 4230SOL     OW24720   0.520   1.024   1.159
 4230SOL    HW124721   0.586   0.951   1.141
 4230SOL    HW224722   0.440   0.985   1.205
 4231SOL     OW24723   1.151   1.963   5.701
 4231SOL    HW124724   1.188   1.870   5.702
 4231SOL    HW224725   1.222   2.027   5.670
 4232SOL     OW24726   6.224   5.807   6.488
 4232SOL    HW124727   6.178   5.872   6.428
 4232SOL    HW224728   6.157   5.764   6.548
 4233SOL     OW24729   3.057   6.668   0.138
 4233SOL    HW124730   2.964   6.703   0.151
 4233SOL    HW224731   3.067   6.580   0.186
 4234SOL     OW24732   0.018   5.494   1.364
 4234SOL    HW124733   0.035   5.545   1.280
 4234SOL    HW224734   0.029   5.555   1.443
 4235SOL     OW24735   6.649   0.462   6.273
 4235SOL    HW124736   6.709   0.471   6.194
 4235SOL    HW224737   6.648   0.547   6.325
 4236SOL     OW24738   0.721   6.766   0.247
 4236SOL    HW124739   0.756   6.805   0.161
 4236SOL    HW224740   0.739   6.830   0.322
 4237SOL     OW24741   6.697   2.763   0.984
 4237SOL    HW124742   6.719   2.666   1.001
 4237SOL    HW224743   6.778   2.809   0.947
 4238SOL     OW24744   2.744   0.887   0.728
 4238SOL    HW124745   2.667   0.922   0.673
 4238SOL    HW224746   2.824   0.876   0.670
 4239SOL     OW24747   7.619   1.870   6.326
 4239SOL    HW124748   7.547   1.801   6.319
 4239SOL    HW224749   7.689   1.840   6.390
 4240SOL     OW24750   5.007   2.020   0.603
 4240SOL    HW124751   5.084   2.067   0.649
 4240SOL    HW224752   4.972   2.078   0.530
 4241SOL     OW24753   0.508   6.344   1.214
 4241SOL    HW124754   0.536   6.440   1.211
 4241SOL    HW224755   0.500   6.314   1.309
 4242SOL     OW24756   6.105   6.423   6.016
 4242SOL    HW124757   6.147   6.504   6.056
 4242SOL    HW224758   6.104   6.431   5.917
 4243SOL     OW24759   6.356   0.890   0.560
 4243SOL    HW124760   6.284   0.926   0.619
 4243SOL    HW224761   6.326   0.893   0.464
 4244SOL     OW24762   9.034   5.812   0.570
 4244SOL    HW124763   9.037   5.912   0.571
 4244SOL    HW224764   8.939   5.781   0.581
 4245SOL     OW24765   9.063   7.116   4.981
 4245SOL    HW124766   9.052   7.201   5.033
 4245SOL    HW224767   9.156   7.112   4.944
 4246SOL     OW24768   2.417   4.974   6.109
 4246SOL    HW124769   2.482   4.931   6.046
 4246SOL    HW224770   2.395   4.910   6.182
 4247SOL     OW24771   9.257   8.207   6.441
 4247SOL    HW124772   9.182   8.266   6.471
 4247SOL    HW224773   9.246   8.185   6.344
 4248SOL     OW24774   2.737   0.602   6.018
 4248SOL    HW124775   2.830   0.569   6.001
 4248SOL    HW224776   2.688   0.611   5.932
 4249SOL     OW24777   5.438   1.220   5.677
 4249SOL    HW124778   5.440   1.262   5.767
 4249SOL    HW224779   5.445   1.121   5.686
 4250SOL     OW24780   2.569   8.187   5.846
 4250SOL    HW124781   2.596   8.118   5.778
 4250SOL    HW224782   2.642   8.254   5.857
 4251SOL     OW24783   0.838   3.309   4.916
 4251SOL    HW124784   0.796   3.400   4.910
 4251SOL    HW224785   0.911   3.311   4.985
 4252SOL     OW24786   8.025   6.573   5.517
 4252SOL    HW124787   8.123   6.553   5.521
 4252SOL    HW224788   7.980   6.539   5.599
 4253SOL     OW24789   8.363   0.717   6.331
 4253SOL    HW124790   8.351   0.658   6.412
 4253SOL    HW224791   8.315   0.803   6.346
 4254SOL     OW24792   1.265   7.276   6.146
 4254SOL    HW124793   1.330   7.240   6.214
 4254SOL    HW224794   1.309   7.279   6.056
 4255SOL     OW24795   1.230   7.027   0.521
 4255SOL    HW124796   1.235   7.079   0.606
 4255SOL    HW224797   1.313   6.973   0.510
 4256SOL     OW24798   8.376   3.173   0.936
 4256SOL    HW124799   8.342   3.261   0.902
 4256SOL    HW224800   8.475   3.176   0.942
 4257SOL     OW24801   6.899   4.607   5.142
 4257SOL    HW124802   6.951   4.576   5.222
 4257SOL    HW224803   6.929   4.556   5.061
 4258SOL     OW24804   0.499   1.422   5.722
 4258SOL    HW124805   0.526   1.518   5.715
 4258SOL    HW224806   0.422   1.405   5.660
 4259SOL     OW24807   2.008   3.342   5.414
 4259SOL    HW124808   1.939   3.291   5.362
 4259SOL    HW224809   2.085   3.281   5.436
 4260SOL     OW24810   7.734   4.740   5.874
 4260SOL    HW124811   7.654   4.692   5.838
 4260SOL    HW224812   7.784   4.783   5.799
 4261SOL     OW24813   0.101   4.709   6.357
 4261SOL    HW124814   0.179   4.772   6.353
 4261SOL    HW224815   0.022   4.756   6.397
 4262SOL     OW24816   7.305   4.046   0.057
 4262SOL    HW124817   7.348   4.107  -0.010
 4262SOL    HW224818   7.208   4.068   0.064
 4263SOL     OW24819   3.620   2.342   5.752
 4263SOL    HW124820   3.635   2.300   5.662
 4263SOL    HW224821   3.675   2.296   5.821
 4264SOL     OW24822   3.898   0.863   6.537
 4264SOL    HW124823   3.980   0.903   6.577
 4264SOL    HW224824   3.883   0.904   6.446
 4265SOL     OW24825   2.027   4.331   5.210
 4265SOL    HW124826   2.108   4.390   5.208
 4265SOL    HW224827   1.989   4.323   5.118
 4266SOL     OW24828   8.370   0.987   1.169
 4266SOL    HW124829   8.411   0.919   1.109
 4266SOL    HW224830   8.419   1.073   1.161
 4267SOL     OW24831   5.818   8.174   0.410
 4267SOL    HW124832   5.798   8.240   0.338
 4267SOL    HW224833   5.742   8.172   0.475
 4268SOL     OW24834   3.403   6.188   1.828
 4268SOL    HW124835   3.465   6.110   1.837
 4268SOL    HW224836   3.324   6.174   1.888
 4269SOL     OW24837   6.612   7.470   5.897
 4269SOL    HW124838   6.619   7.372   5.880
 4269SOL    HW224839   6.616   7.488   5.995
 4270SOL     OW24840   5.364   8.297   5.780
 4270SOL    HW124841   5.377   8.349   5.696
 4270SOL    HW224842   5.452   8.271   5.817
 4271SOL     OW24843   4.317   0.499   0.388
 4271SOL    HW124844   4.410   0.529   0.409
 4271SOL    HW224845   4.297   0.415   0.439
 4272SOL     OW24846   2.501   0.741   1.375
 4272SOL    HW124847   2.423   0.799   1.353
 4272SOL    HW224848   2.476   0.676   1.446
 4273SOL     OW24849   3.474   0.141   0.414
 4273SOL    HW124850   3.480   0.089   0.499
 4273SOL    HW224851   3.565   0.155   0.377
 4274SOL     OW24852   6.648   1.320   6.086
 4274SOL    HW124853   6.733   1.343   6.039
 4274SOL    HW224854   6.656   1.229   6.127
 4275SOL     OW24855   6.337   5.541   0.374
 4275SOL    HW124856   6.403   5.550   0.449
 4275SOL    HW224857   6.277   5.622   0.373
 4276SOL     OW24858   7.359   3.579   0.197
 4276SOL    HW124859   7.329   3.643   0.268
 4276SOL    HW224860   7.305   3.495   0.203
 4277SOL     OW24861   4.759   5.839   5.806
 4277SOL    HW124862   4.805   5.784   5.737
 4277SOL    HW224863   4.784   5.935   5.794
 4278SOL     OW24864   9.030   4.260   6.329
 4278SOL    HW124865   9.045   4.338   6.268
 4278SOL    HW224866   8.937   4.262   6.365
 4279SOL     OW24867   3.538   1.835   0.495
 4279SOL    HW124868   3.596   1.757   0.519
 4279SOL    HW224869   3.508   1.827   0.401
 4280SOL     OW24870   3.480   0.754   6.023
 4280SOL    HW124871   3.480   0.820   6.098
 4280SOL    HW224872   3.560   0.695   6.030
 4281SOL     OW24873   5.181   5.457   1.157
 4281SOL    HW124874   5.233   5.374   1.178
 4281SOL    HW224875   5.237   5.537   1.178
 4282SOL     OW24876   2.750   4.125   5.262
 4282SOL    HW124877   2.773   4.028   5.252
 4282SOL    HW224878   2.663   4.134   5.309
 4283SOL     OW24879   0.829   5.196   5.881
 4283SOL    HW124880   0.784   5.157   5.961
 4283SOL    HW224881   0.769   5.267   5.841
 4284SOL     OW24882   0.816   0.356   6.695
 4284SOL    HW124883   0.743   0.324   6.635
 4284SOL    HW224884   0.784   0.353   6.790
 4285SOL     OW24885   8.053   3.630   1.085
 4285SOL    HW124886   8.123   3.616   1.155
 4285SOL    HW224887   7.999   3.546   1.075
 4286SOL     OW24888   8.330   7.650   6.468
 4286SOL    HW124889   8.234   7.670   6.451
 4286SOL    HW224890   8.339   7.591   6.548
 4287SOL     OW24891   6.560   6.911   1.147
 4287SOL    HW124892   6.594   6.906   1.241
 4287SOL    HW224893   6.484   6.975   1.142
 4288SOL     OW24894   9.435   7.414   0.719
 4288SOL    HW124895   9.400   7.329   0.759
 4288SOL    HW224896   9.534   7.420   0.735
 4289SOL     OW24897   1.811   2.604   0.083
 4289SOL    HW124898   1.837   2.529   0.021
 4289SOL    HW224899   1.721   2.638   0.057
 4290SOL     OW24900   4.951   6.491   5.552
 4290SOL    HW124901   4.871   6.456   5.600
 4290SOL    HW224902   4.934   6.490   5.454
 4291SOL     OW24903   5.236   6.159   5.894
 4291SOL    HW124904   5.240   6.116   5.804
 4291SOL    HW224905   5.227   6.089   5.965
 4292SOL     OW24906   0.570   0.050   1.749
 4292SOL    HW124907   0.656   0.007   1.778
 4292SOL    HW224908   0.577   0.149   1.762
 4293SOL     OW24909   6.011   0.786   6.650
 4293SOL    HW124910   6.011   0.691   6.680
 4293SOL    HW224911   6.010   0.790   6.551
 4294SOL     OW24912   6.028   3.954   0.739
 4294SOL    HW124913   6.069   3.877   0.689
 4294SOL    HW224914   5.979   4.013   0.675
 4295SOL     OW24915   3.830   7.842   6.283
 4295SOL    HW124916   3.911   7.807   6.237
 4295SOL    HW224917   3.830   7.811   6.378
 4296SOL     OW24918   6.160   8.012   0.667
 4296SOL    HW124919   6.207   7.947   0.726
 4296SOL    HW224920   6.155   7.976   0.574
 4297SOL     OW24921   8.597   6.399   6.674
 4297SOL    HW124922   8.513   6.346   6.680
 4297SOL    HW224923   8.595   6.474   6.739
 4298SOL     OW24924   5.672   4.873   0.756
 4298SOL    HW124925   5.614   4.798   0.786
 4298SOL    HW224926   5.680   4.870   0.656
 4299SOL     OW24927   4.052   1.760   6.319
 4299SOL    HW124928   4.123   1.830   6.326
 4299SOL    HW224929   4.081   1.688   6.257
 4300SOL     OW24930   1.835   1.601   0.453
 4300SOL    HW124931   1.802   1.510   0.431
 4300SOL    HW224932   1.765   1.649   0.507
 4301SOL     OW24933   8.612   5.143   6.487
 4301SOL    HW124934   8.673   5.217   6.462
 4301SOL    HW224935   8.603   5.138   6.586
 4302SOL     OW24936   9.054   3.551   5.293
 4302SOL    HW124937   8.970   3.516   5.251
 4302SOL    HW224938   9.127   3.553   5.225
 4303SOL     OW24939   4.391   6.373   5.353
 4303SOL    HW124940   4.315   6.316   5.325
 4303SOL    HW224941   4.473   6.348   5.301
 4304SOL     OW24942   7.258   3.939   1.305
 4304SOL    HW124943   7.251   3.956   1.403
 4304SOL    HW224944   7.234   4.022   1.255
 4305SOL     OW24945   6.527   0.091   6.247
 4305SOL    HW124946   6.598   0.149   6.207
 4305SOL    HW224947   6.564  -0.002   6.258
 4306SOL     OW24948   2.121   7.150   6.608
 4306SOL    HW124949   2.067   7.115   6.685
 4306SOL    HW224950   2.159   7.239   6.631
 4307SOL     OW24951   8.082   5.498   6.690
 4307SOL    HW124952   8.076   5.484   6.591
 4307SOL    HW224953   8.058   5.592   6.712
 4308SOL     OW24954   5.615   0.725   5.650
 4308SOL    HW124955   5.604   0.679   5.738
 4308SOL    HW224956   5.645   0.658   5.581
 4309SOL     OW24957   8.558   2.989   0.572
 4309SOL    HW124958   8.473   3.041   0.583
 4309SOL    HW224959   8.608   3.023   0.493
 4310SOL     OW24960   6.033   0.750   0.266
 4310SOL    HW124961   6.039   0.850   0.257
 4310SOL    HW224962   6.116   0.708   0.231
 4311SOL     OW24963   8.688   0.882   0.439
 4311SOL    HW124964   8.610   0.908   0.495
 4311SOL    HW224965   8.657   0.863   0.345
 4312SOL     OW24966   6.454   6.919   6.110
 4312SOL    HW124967   6.410   6.886   6.194
 4312SOL    HW224968   6.540   6.871   6.096
 4313SOL     OW24969   0.075   0.663   0.904
 4313SOL    HW124970   0.173   0.683   0.907
 4313SOL    HW224971   0.049   0.615   0.988
 4314SOL     OW24972   3.397   1.136   1.953
 4314SOL    HW124973   3.418   1.074   2.029
 4314SOL    HW224974   3.482   1.161   1.907
 4315SOL     OW24975   7.343   1.255   6.379
 4315SOL    HW124976   7.377   1.304   6.300
 4315SOL    HW224977   7.267   1.195   6.351
 4316SOL     OW24978   6.480   2.379   6.112
 4316SOL    HW124979   6.558   2.441   6.117
 4316SOL    HW224980   6.456   2.363   6.016
 4317SOL     OW24981   5.342   0.969   6.025
 4317SOL    HW124982   5.282   1.029   5.973
 4317SOL    HW224983   5.427   1.016   6.046
 4318SOL     OW24984   2.322   7.495   1.577
 4318SOL    HW124985   2.394   7.515   1.643
 4318SOL    HW224986   2.251   7.440   1.620
 4319SOL     OW24987   9.122   2.514   5.610
 4319SOL    HW124988   9.216   2.545   5.598
 4319SOL    HW224989   9.074   2.520   5.522
 4320SOL     OW24990   3.675   2.597   0.068
 4320SOL    HW124991   3.647   2.502   0.083
 4320SOL    HW224992   3.617   2.658   0.122
 4321SOL     OW24993   8.041   3.926   0.868
 4321SOL    HW124994   7.984   3.845   0.858
 4321SOL    HW224995   8.071   3.934   0.963
 4322SOL     OW24996   8.797   3.813   6.314
 4322SOL    HW124997   8.855   3.830   6.393
 4322SOL    HW224998   8.807   3.888   6.249
 4323SOL     OW24999   8.743   7.213   4.800
 4323SOL    HW125000   8.783   7.170   4.720
 4323SOL    HW225001   8.782   7.304   4.813
 4324SOL     OW25002   3.029   3.473   0.091
 4324SOL    HW125003   3.121   3.508   0.109
 4324SOL    HW225004   3.009   3.483  -0.007
 4325SOL     OW25005   5.769   6.012   5.214
 4325SOL    HW125006   5.683   5.986   5.259
 4325SOL    HW225007   5.749   6.062   5.130
 4326SOL     OW25008   8.376   4.455   0.706
 4326SOL    HW125009   8.382   4.379   0.641
 4326SOL    HW225010   8.467   4.490   0.725
 4327SOL     OW25011   0.416   3.075   5.638
 4327SOL    HW125012   0.364   3.135   5.577
 4327SOL    HW225013   0.403   3.104   5.732
 4328SOL     OW25014   1.024   0.942   6.615
 4328SOL    HW125015   1.050   0.846   6.601
 4328SOL    HW225016   0.947   0.946   6.678
 4329SOL     OW25017   1.925   6.446   5.982
 4329SOL    HW125018   1.869   6.527   5.962
 4329SOL    HW225019   1.981   6.424   5.902
 4330SOL     OW25020   4.777   0.491   4.745
 4330SOL    HW125021   4.844   0.450   4.683
 4330SOL    HW225022   4.788   0.591   4.743
 4331SOL     OW25023   5.705   4.786   1.078
 4331SOL    HW125024   5.632   4.790   1.146
 4331SOL    HW225025   5.665   4.778   0.987
 4332SOL     OW25026   8.775   1.983   0.673
 4332SOL    HW125027   8.794   1.997   0.576
 4332SOL    HW225028   8.730   2.065   0.710
 4333SOL     OW25029   3.748   7.724   0.711
 4333SOL    HW125030   3.682   7.654   0.680
 4333SOL    HW225031   3.706   7.778   0.784
 4334SOL     OW25032   8.656   4.480   0.673
 4334SOL    HW125033   8.737   4.465   0.616
 4334SOL    HW225034   8.637   4.398   0.727
 4335SOL     OW25035   7.351   2.527   0.409
 4335SOL    HW125036   7.405   2.566   0.334
 4335SOL    HW225037   7.353   2.589   0.487
 4336SOL     OW25038   6.605   4.782   0.792
 4336SOL    HW125039   6.635   4.704   0.847
 4336SOL    HW225040   6.658   4.785   0.707
 4337SOL     OW25041   6.137   0.791   0.793
 4337SOL    HW125042   6.087   0.770   0.709
 4337SOL    HW225043   6.161   0.888   0.795
 4338SOL     OW25044   8.441   6.672   4.731
 4338SOL    HW125045   8.531   6.707   4.705
 4338SOL    HW225046   8.374   6.745   4.725
 4339SOL     OW25047   0.846   1.724   0.991
 4339SOL    HW125048   0.750   1.752   0.993
 4339SOL    HW225049   0.872   1.699   0.898
 4340SOL     OW25050   1.966   2.326   5.654
 4340SOL    HW125051   1.925   2.268   5.724
 4340SOL    HW225052   1.980   2.418   5.691
 4341SOL     OW25053   1.634   3.312   5.950
 4341SOL    HW125054   1.644   3.311   6.049
 4341SOL    HW225055   1.565   3.380   5.924
 4342SOL     OW25056   5.432   6.529   5.234
 4342SOL    HW125057   5.504   6.469   5.199
 4342SOL    HW225058   5.360   6.539   5.165
 4343SOL     OW25059   5.031   0.191   4.980
 4343SOL    HW125060   5.122   0.179   4.939
 4343SOL    HW225061   4.964   0.138   4.929
 4344SOL     OW25062   1.558   0.155   5.799
 4344SOL    HW125063   1.604   0.204   5.725
 4344SOL    HW225064   1.618   0.148   5.878
 4345SOL     OW25065   3.447   3.022   5.308
 4345SOL    HW125066   3.489   3.065   5.387
 4345SOL    HW225067   3.347   3.029   5.315
 4346SOL     OW25068   2.813   2.327   6.062
 4346SOL    HW125069   2.790   2.230   6.073
 4346SOL    HW225070   2.744   2.383   6.107
 4347SOL     OW25071   0.656   8.185   6.055
 4347SOL    HW125072   0.740   8.146   6.095
 4347SOL    HW225073   0.646   8.152   5.961
 4348SOL     OW25074   3.742   5.201   0.843
 4348SOL    HW125075   3.753   5.105   0.818
 4348SOL    HW225076   3.646   5.226   0.841
 4349SOL     OW25077   7.293   6.767   1.156
 4349SOL    HW125078   7.281   6.788   1.253
 4349SOL    HW225079   7.362   6.696   1.145
 4350SOL     OW25080   7.424   1.361   5.570
 4350SOL    HW125081   7.332   1.333   5.543
 4350SOL    HW225082   7.425   1.459   5.588
 4351SOL     OW25083   5.521   4.881   6.213
 4351SOL    HW125084   5.608   4.924   6.236
 4351SOL    HW225085   5.494   4.908   6.121
 4352SOL     OW25086   2.982   0.103   5.862
 4352SOL    HW125087   3.014   0.093   5.767
 4352SOL    HW225088   2.907   0.168   5.865
 4353SOL     OW25089   3.130   5.278   0.523
 4353SOL    HW125090   3.155   5.356   0.580
 4353SOL    HW225091   3.130   5.194   0.577
 4354SOL     OW25092   8.252   6.944   4.650
 4354SOL    HW125093   8.186   7.018   4.641
 4354SOL    HW225094   8.214   6.860   4.612
 4355SOL     OW25095   0.686   8.201   4.567
 4355SOL    HW125096   0.630   8.119   4.557
 4355SOL    HW225097   0.641   8.277   4.520
 4356SOL     OW25098   0.560   5.101   6.458
 4356SOL    HW125099   0.477   5.155   6.451
 4356SOL    HW225100   0.637   5.160   6.484
 4357SOL     OW25101   4.485   6.940   5.770
 4357SOL    HW125102   4.410   6.897   5.720
 4357SOL    HW225103   4.453   7.027   5.809
 4358SOL     OW25104   1.834   6.059   5.844
 4358SOL    HW125105   1.821   6.144   5.793
 4358SOL    HW225106   1.744   6.024   5.874
 4359SOL     OW25107   2.947   4.031   5.523
 4359SOL    HW125108   2.942   4.045   5.622
 4359SOL    HW225109   2.992   4.109   5.481
 4360SOL     OW25110   8.592   6.899   5.127
 4360SOL    HW125111   8.684   6.862   5.113
 4360SOL    HW225112   8.567   6.957   5.050
 4361SOL     OW25113   3.998   0.223   4.781
 4361SOL    HW125114   3.918   0.237   4.723
 4361SOL    HW225115   4.077   0.200   4.724
 4362SOL     OW25116   5.224   6.192   0.761
 4362SOL    HW125117   5.145   6.249   0.783
 4362SOL    HW225118   5.303   6.222   0.815
 4363SOL     OW25119   6.155   5.752   1.609
 4363SOL    HW125120   6.175   5.850   1.610
 4363SOL    HW225121   6.113   5.725   1.695
 4364SOL     OW25122   2.639   5.250   6.528
 4364SOL    HW125123   2.598   5.306   6.456
 4364SOL    HW225124   2.730   5.287   6.550
 4365SOL     OW25125   7.163   4.891   5.833
 4365SOL    HW125126   7.182   4.981   5.874
 4365SOL    HW225127   7.206   4.820   5.888
 4366SOL     OW25128   3.515   5.243   1.583
 4366SOL    HW125129   3.421   5.245   1.618
 4366SOL    HW225130   3.573   5.190   1.644
 4367SOL     OW25131   0.930   2.920   6.423
 4367SOL    HW125132   0.831   2.907   6.432
 4367SOL    HW225133   0.971   2.835   6.390
 4368SOL     OW25134   2.379   0.641   6.664
 4368SOL    HW125135   2.289   0.675   6.690
 4368SOL    HW225136   2.438   0.639   6.745
 4369SOL     OW25137   4.237   4.489   0.273
 4369SOL    HW125138   4.213   4.566   0.213
 4369SOL    HW225139   4.259   4.409   0.217
 4370SOL     OW25140   2.899   2.636   1.061
 4370SOL    HW125141   2.814   2.639   1.114
 4370SOL    HW225142   2.955   2.716   1.084
 4371SOL     OW25143   8.172   8.070   0.863
 4371SOL    HW125144   8.217   8.086   0.951
 4371SOL    HW225145   8.085   8.022   0.877
 4372SOL     OW25146   6.576   2.121   5.390
 4372SOL    HW125147   6.656   2.150   5.337
 4372SOL    HW225148   6.548   2.030   5.360
 4373SOL     OW25149   8.149   7.248   0.018
 4373SOL    HW125150   8.207   7.329   0.008
 4373SOL    HW225151   8.171   7.202   0.104
 4374SOL     OW25152   5.683   0.433   6.185
 4374SOL    HW125153   5.680   0.498   6.260
 4374SOL    HW225154   5.641   0.347   6.214
 4375SOL     OW25155   1.530   6.639   5.818
 4375SOL    HW125156   1.597   6.567   5.836
 4375SOL    HW225157   1.469   6.648   5.896
 4376SOL     OW25158   5.976   8.157   6.150
 4376SOL    HW125159   5.927   8.209   6.080
 4376SOL    HW225160   5.983   8.213   6.233
 4377SOL     OW25161   7.647   2.781   0.446
 4377SOL    HW125162   7.691   2.870   0.431
 4377SOL    HW225163   7.638   2.765   0.544
 4378SOL     OW25164   1.322   8.045   0.821
 4378SOL    HW125165   1.272   7.965   0.855
 4378SOL    HW225166   1.372   8.088   0.896
 4379SOL     OW25167   7.280   6.533   5.607
 4379SOL    HW125168   7.319   6.625   5.621
 4379SOL    HW225169   7.214   6.514   5.679
 4380SOL     OW25170   4.041   6.455   5.306
 4380SOL    HW125171   4.020   6.468   5.209
 4380SOL    HW225172   4.099   6.374   5.316
 4381SOL     OW25173   6.358   7.125   0.365
 4381SOL    HW125174   6.406   7.181   0.433
 4381SOL    HW225175   6.424   7.093   0.297
 4382SOL     OW25176   1.352   5.432   5.421
 4382SOL    HW125177   1.331   5.452   5.517
 4382SOL    HW225178   1.353   5.518   5.369
 4383SOL     OW25179   2.550   7.393   0.132
 4383SOL    HW125180   2.586   7.424   0.219
 4383SOL    HW225181   2.587   7.303   0.111
 4384SOL     OW25182   5.095   7.115   0.119
 4384SOL    HW125183   5.085   7.213   0.104
 4384SOL    HW225184   5.172   7.080   0.065
 4385SOL     OW25185   5.852   0.855   6.181
 4385SOL    HW125186   5.869   0.949   6.212
 4385SOL    HW225187   5.894   0.841   6.092
 4386SOL     OW25188   5.079   0.072   5.244
 4386SOL    HW125189   5.167   0.118   5.235
 4386SOL    HW225190   5.010   0.121   5.190
 4387SOL     OW25191   1.306   4.794   5.508
 4387SOL    HW125192   1.368   4.801   5.586
 4387SOL    HW225193   1.314   4.703   5.467
 4388SOL     OW25194   1.651   5.949   4.921
 4388SOL    HW125195   1.637   5.851   4.912
 4388SOL    HW225196   1.701   5.983   4.842
 4389SOL     OW25197   8.360   8.289   5.501
 4389SOL    HW125198   8.414   8.291   5.585
 4389SOL    HW225199   8.405   8.346   5.432
 4390SOL     OW25200   4.329   8.348   5.713
 4390SOL    HW125201   4.255   8.335   5.646
 4390SOL    HW225202   4.384   8.428   5.687
 4391SOL     OW25203   7.141   4.788   4.958
 4391SOL    HW125204   7.211   4.731   5.000
 4391SOL    HW225205   7.084   4.732   4.897
 4392SOL     OW25206   8.160   4.595   6.357
 4392SOL    HW125207   8.182   4.501   6.333
 4392SOL    HW225208   8.097   4.596   6.435
 4393SOL     OW25209   4.450   5.428   6.578
 4393SOL    HW125210   4.481   5.362   6.647
 4393SOL    HW225211   4.519   5.434   6.505
 4394SOL     OW25212   2.314   2.245   0.599
 4394SOL    HW125213   2.380   2.171   0.607
 4394SOL    HW225214   2.225   2.213   0.632
 4395SOL     OW25215   1.925   1.566   5.771
 4395SOL    HW125216   1.858   1.494   5.789
 4395SOL    HW225217   2.015   1.525   5.761
 4396SOL     OW25218   5.549   6.311   6.051
 4396SOL    HW125219   5.513   6.394   6.008
 4396SOL    HW225220   5.642   6.294   6.020
 4397SOL     OW25221   7.274   8.255   4.848
 4397SOL    HW125222   7.323   8.168   4.858
 4397SOL    HW225223   7.183   8.247   4.889
 4398SOL     OW25224   2.306   8.461   0.077
 4398SOL    HW125225   2.233   8.467   0.009
 4398SOL    HW225226   2.268   8.477   0.168
 4399SOL     OW25227   8.165   1.239   6.375
 4399SOL    HW125228   8.162   1.196   6.466
 4399SOL    HW225229   8.086   1.208   6.322
 4400SOL     OW25230   0.762   0.513   5.263
 4400SOL    HW125231   0.668   0.497   5.235
 4400SOL    HW225232   0.769   0.604   5.306
 4401SOL     OW25233   3.726   4.289   5.954
 4401SOL    HW125234   3.814   4.291   6.002
 4401SOL    HW225235   3.718   4.202   5.905
 4402SOL     OW25236   4.321   4.518   6.207
 4402SOL    HW125237   4.266   4.509   6.124
 4402SOL    HW225238   4.264   4.556   6.280
 4403SOL     OW25239   2.550   3.088   5.868
 4403SOL    HW125240   2.574   3.001   5.912
 4403SOL    HW225241   2.455   3.085   5.837
 4404SOL     OW25242   3.578   3.122   1.618
 4404SOL    HW125243   3.637   3.057   1.571
 4404SOL    HW225244   3.556   3.088   1.709
 4405SOL     OW25245   2.954   4.832   0.809
 4405SOL    HW125246   2.977   4.779   0.727
 4405SOL    HW225247   3.002   4.794   0.888
 4406SOL     OW25248   2.069   6.306   5.525
 4406SOL    HW125249   2.158   6.265   5.505
 4406SOL    HW225250   2.070   6.403   5.500
 4407SOL     OW25251   4.834   2.145   5.929
 4407SOL    HW125252   4.888   2.226   5.952
 4407SOL    HW225253   4.814   2.093   6.013
 4408SOL     OW25254   8.660   4.003   5.983
 4408SOL    HW125255   8.670   3.935   5.910
 4408SOL    HW225256   8.571   3.993   6.026
 4409SOL     OW25257   1.831   6.269   5.656
 4409SOL    HW125258   1.783   6.329   5.592
 4409SOL    HW225259   1.923   6.251   5.621
 4410SOL     OW25260   6.090   6.360   0.822
 4410SOL    HW125261   6.021   6.404   0.765
 4410SOL    HW225262   6.063   6.266   0.841
 4411SOL     OW25263   2.821   2.065   0.768
 4411SOL    HW125264   2.919   2.048   0.758
 4411SOL    HW225265   2.806   2.158   0.801
 4412SOL     OW25266   7.894   2.467   1.994
 4412SOL    HW125267   7.829   2.476   2.069
 4412SOL    HW225268   7.987   2.476   2.029
 4413SOL     OW25269   3.095   2.933   0.761
 4413SOL    HW125270   3.016   2.994   0.757
 4413SOL    HW225271   3.092   2.879   0.845
 4414SOL     OW25272   6.109   6.422   5.728
 4414SOL    HW125273   6.169   6.437   5.649
 4414SOL    HW225274   6.053   6.340   5.713
 4415SOL     OW25275   2.221   4.400   6.155
 4415SOL    HW125276   2.174   4.475   6.108
 4415SOL    HW225277   2.198   4.313   6.110
 4416SOL     OW25278   4.300   5.473   0.738
 4416SOL    HW125279   4.210   5.478   0.781
 4416SOL    HW225280   4.293   5.425   0.650
 4417SOL     OW25281   1.860   5.268   5.584
 4417SOL    HW125282   1.817   5.292   5.498
 4417SOL    HW225283   1.890   5.172   5.582
 4418SOL     OW25284   0.748   5.739   0.708
 4418SOL    HW125285   0.821   5.692   0.758
 4418SOL    HW225286   0.673   5.760   0.770
 4419SOL     OW25287   4.385   1.128   5.958
 4419SOL    HW125288   4.404   1.167   6.048
 4419SOL    HW225289   4.397   1.028   5.961
 4420SOL     OW25290   7.304   3.426   6.491
 4420SOL    HW125291   7.211   3.398   6.512
 4420SOL    HW225292   7.305   3.482   6.408
 4421SOL     OW25293   8.461   5.999   5.478
 4421SOL    HW125294   8.365   5.997   5.504
 4421SOL    HW225295   8.481   5.922   5.417
 4422SOL     OW25296   2.585   1.256   0.272
 4422SOL    HW125297   2.506   1.308   0.303
 4422SOL    HW225298   2.664   1.278   0.329
 4423SOL     OW25299   8.802   2.759   5.073
 4423SOL    HW125300   8.897   2.746   5.100
 4423SOL    HW225301   8.766   2.675   5.034
 4424SOL     OW25302   5.392   8.440   5.542
 4424SOL    HW125303   5.293   8.446   5.530
 4424SOL    HW225304   5.437   8.513   5.491
 4425SOL     OW25305   0.198   3.710   0.453
 4425SOL    HW125306   0.113   3.763   0.455
 4425SOL    HW225307   0.212   3.667   0.542
 4426SOL     OW25308   1.475   6.775   5.207
 4426SOL    HW125309   1.505   6.686   5.241
 4426SOL    HW225310   1.531   6.801   5.128
 4427SOL     OW25311   2.313   4.444   1.503
 4427SOL    HW125312   2.334   4.524   1.447
 4427SOL    HW225313   2.384   4.374   1.490
 4428SOL     OW25314   5.379   3.248   6.383
 4428SOL    HW125315   5.356   3.314   6.312
 4428SOL    HW225316   5.295   3.205   6.416
 4429SOL     OW25317   0.932   4.707   5.812
 4429SOL    HW125318   0.941   4.649   5.731
 4429SOL    HW225319   1.016   4.761   5.824
 4430SOL     OW25320   4.258   2.182   5.242
 4430SOL    HW125321   4.343   2.196   5.191
 4430SOL    HW225322   4.278   2.175   5.339
 4431SOL     OW25323   4.898   3.059   6.231
 4431SOL    HW125324   4.971   3.016   6.179
 4431SOL    HW225325   4.927   3.150   6.261
 4432SOL     OW25326   2.325   2.111   0.930
 4432SOL    HW125327   2.411   2.113   0.980
 4432SOL    HW225328   2.307   2.201   0.890
 4433SOL     OW25329   4.196   7.676   0.509
 4433SOL    HW125330   4.210   7.600   0.573
 4433SOL    HW225331   4.273   7.739   0.516
 4434SOL     OW25332   7.464   0.777   5.570
 4434SOL    HW125333   7.401   0.824   5.508
 4434SOL    HW225334   7.557   0.811   5.554
 4435SOL     OW25335   8.391   0.297   6.510
 4435SOL    HW125336   8.292   0.312   6.500
 4435SOL    HW225337   8.407   0.210   6.556
 4436SOL     OW25338   3.023   4.853   5.905
 4436SOL    HW125339   2.972   4.920   5.960
 4436SOL    HW225340   2.964   4.821   5.830
 4437SOL     OW25341   4.827   2.220   5.657
 4437SOL    HW125342   4.843   2.174   5.745
 4437SOL    HW225343   4.871   2.310   5.659
 4438SOL     OW25344   2.067   5.932   1.008
 4438SOL    HW125345   2.007   5.855   0.985
 4438SOL    HW225346   2.148   5.898   1.055
 4439SOL     OW25347   2.228   0.502   1.131
 4439SOL    HW125348   2.210   0.529   1.226
 4439SOL    HW225349   2.233   0.584   1.074
 4440SOL     OW25350   3.396   3.310   1.245
 4440SOL    HW125351   3.438   3.304   1.336
 4440SOL    HW225352   3.414   3.226   1.195
 4441SOL     OW25353   4.828   7.693   5.950
 4441SOL    HW125354   4.865   7.777   5.991
 4441SOL    HW225355   4.881   7.615   5.982
 4442SOL     OW25356   5.503   8.423   1.724
 4442SOL    HW125357   5.479   8.433   1.628
 4442SOL    HW225358   5.423   8.442   1.781
 4443SOL     OW25359   3.181   6.784   4.836
 4443SOL    HW125360   3.228   6.780   4.924
 4443SOL    HW225361   3.208   6.867   4.788
 4444SOL     OW25362   3.775   0.948   0.206
 4444SOL    HW125363   3.728   0.917   0.124
 4444SOL    HW225364   3.775   1.048   0.208
 4445SOL     OW25365   1.602   2.718   0.276
 4445SOL    HW125366   1.638   2.808   0.300
 4445SOL    HW225367   1.665   2.648   0.308
 4446SOL     OW25368   2.198   7.538   1.003
 4446SOL    HW125369   2.126   7.472   0.982
 4446SOL    HW225370   2.226   7.586   0.920
 4447SOL     OW25371   4.574   3.821   1.093
 4447SOL    HW125372   4.533   3.771   1.169
 4447SOL    HW225373   4.581   3.761   1.014
 4448SOL     OW25374   5.770   4.672   6.254
 4448SOL    HW125375   5.868   4.656   6.241
 4448SOL    HW225376   5.756   4.749   6.315
 4449SOL     OW25377   3.733   5.576   1.521
 4449SOL    HW125378   3.664   5.638   1.482
 4449SOL    HW225379   3.706   5.550   1.613
 4450SOL     OW25380   1.767   8.400   6.432
 4450SOL    HW125381   1.823   8.435   6.357
 4450SOL    HW225382   1.774   8.461   6.510
 4451SOL     OW25383   3.673   0.057   1.621
 4451SOL    HW125384   3.691   0.069   1.523
 4451SOL    HW225385   3.678  -0.040   1.644
 4452SOL     OW25386   4.643   5.617   6.695
 4452SOL    HW125387   4.732   5.572   6.705
 4452SOL    HW225388   4.577   5.551   6.658
 4453SOL     OW25389   6.830   0.898   6.413
 4453SOL    HW125390   6.738   0.933   6.396
 4453SOL    HW225391   6.825   0.820   6.475
 4454SOL     OW25392   8.446   7.133   5.617
 4454SOL    HW125393   8.397   7.206   5.569
 4454SOL    HW225394   8.482   7.068   5.551
 4455SOL     OW25395   7.084   3.990   0.337
 4455SOL    HW125396   7.057   3.900   0.372
 4455SOL    HW225397   7.069   3.994   0.239
 4456SOL     OW25398   4.204   4.913   6.607
 4456SOL    HW125399   4.161   4.874   6.689
 4456SOL    HW225400   4.152   4.886   6.526
 4457SOL     OW25401   0.262   3.319   5.866
 4457SOL    HW125402   0.237   3.379   5.942
 4457SOL    HW225403   0.342   3.355   5.819
 4458SOL     OW25404   2.426   0.332   5.687
 4458SOL    HW125405   2.524   0.338   5.708
 4458SOL    HW225406   2.379   0.283   5.761
 4459SOL     OW25407   7.421   6.676   0.347
 4459SOL    HW125408   7.358   6.718   0.411
 4459SOL    HW225409   7.494   6.629   0.397
 4460SOL     OW25410   5.373   5.329   0.632
 4460SOL    HW125411   5.353   5.385   0.552
 4460SOL    HW225412   5.309   5.252   0.637
 4461SOL     OW25413   8.280   0.900   5.078
 4461SOL    HW125414   8.297   0.935   4.986
 4461SOL    HW225415   8.189   0.859   5.082
 4462SOL     OW25416   3.297   4.837   0.812
 4462SOL    HW125417   3.357   4.829   0.733
 4462SOL    HW225418   3.351   4.854   0.894
 4463SOL     OW25419   8.617   5.806   0.524
 4463SOL    HW125420   8.658   5.746   0.593
 4463SOL    HW225421   8.518   5.808   0.535
 4464SOL     OW25422   0.874   4.496   6.690
 4464SOL    HW125423   0.846   4.427   6.757
 4464SOL    HW225424   0.865   4.587   6.730
 4465SOL     OW25425   8.339   7.535   5.150
 4465SOL    HW125426   8.436   7.519   5.137
 4465SOL    HW225427   8.308   7.605   5.086
 4466SOL     OW25428   3.270   1.790   0.660
 4466SOL    HW125429   3.366   1.798   0.634
 4466SOL    HW225430   3.240   1.696   0.647
 4467SOL     OW25431   1.492   1.757   5.771
 4467SOL    HW125432   1.392   1.748   5.767
 4467SOL    HW225433   1.530   1.685   5.828
 4468SOL     OW25434   8.555   6.716   5.467
 4468SOL    HW125435   8.544   6.809   5.430
 4468SOL    HW225436   8.646   6.707   5.507
 4469SOL     OW25437   7.914   0.799   0.199
 4469SOL    HW125438   7.859   0.831   0.276
 4469SOL    HW225439   7.874   0.832   0.114
 4470SOL     OW25440   2.264   1.201   5.923
 4470SOL    HW125441   2.350   1.212   5.874
 4470SOL    HW225442   2.282   1.162   6.013
 4471SOL     OW25443   5.219   5.938   0.654
 4471SOL    HW125444   5.270   5.894   0.580
 4471SOL    HW225445   5.224   6.037   0.643
 4472SOL     OW25446   7.529   2.833   1.184
 4472SOL    HW125447   7.580   2.917   1.202
 4472SOL    HW225448   7.499   2.792   1.270
 4473SOL     OW25449   5.231   5.126   6.564
 4473SOL    HW125450   5.321   5.108   6.523
 4473SOL    HW225451   5.185   5.039   6.582
 4474SOL     OW25452   0.478   4.396   6.186
 4474SOL    HW125453   0.572   4.423   6.209
 4474SOL    HW225454   0.448   4.323   6.248
 4475SOL     OW25455   5.753   1.081   6.555
 4475SOL    HW125456   5.851   1.065   6.570
 4475SOL    HW225457   5.734   1.179   6.560
 4476SOL     OW25458   3.134   1.520   5.177
 4476SOL    HW125459   3.188   1.485   5.101
 4476SOL    HW225460   3.151   1.618   5.188
 4477SOL     OW25461   2.649   2.869   0.318
 4477SOL    HW125462   2.637   2.894   0.222
 4477SOL    HW225463   2.746   2.879   0.343
 4478SOL     OW25464   2.498   2.444   1.706
 4478SOL    HW125465   2.588   2.461   1.746
 4478SOL    HW225466   2.439   2.524   1.721
 4479SOL     OW25467   6.797   5.200   6.075
 4479SOL    HW125468   6.782   5.293   6.042
 4479SOL    HW225469   6.889   5.191   6.112
 4480SOL     OW25470   1.214   8.250   6.260
 4480SOL    HW125471   1.136   8.278   6.315
 4480SOL    HW225472   1.228   8.151   6.268
 4481SOL     OW25473   4.793   4.886   6.412
 4481SOL    HW125474   4.797   4.868   6.511
 4481SOL    HW225475   4.830   4.977   6.394
 4482SOL     OW25476   2.341   1.689   0.404
 4482SOL    HW125477   2.321   1.780   0.369
 4482SOL    HW225478   2.271   1.662   0.469
 4483SOL     OW25479   7.284   2.045   6.384
 4483SOL    HW125480   7.195   2.078   6.413
 4483SOL    HW225481   7.319   2.104   6.311
 4484SOL     OW25482   9.470   2.486   0.430
 4484SOL    HW125483   9.388   2.530   0.394
 4484SOL    HW225484   9.452   2.451   0.522
 4485SOL     OW25485   1.186   1.528   5.359
 4485SOL    HW125486   1.127   1.483   5.293
 4485SOL    HW225487   1.155   1.506   5.452
 4486SOL     OW25488   3.809   0.322   1.272
 4486SOL    HW125489   3.774   0.388   1.338
 4486SOL    HW225490   3.754   0.238   1.275
 4487SOL     OW25491   9.002   5.226   0.482
 4487SOL    HW125492   8.907   5.203   0.465
 4487SOL    HW225493   9.037   5.168   0.556
 4488SOL     OW25494   7.838   1.624   0.947
 4488SOL    HW125495   7.840   1.611   0.848
 4488SOL    HW225496   7.796   1.543   0.990
 4489SOL     OW25497   3.165   5.912   0.793
 4489SOL    HW125498   3.194   6.001   0.757
 4489SOL    HW225499   3.070   5.895   0.766
 4490SOL     OW25500   8.538   7.471   5.824
 4490SOL    HW125501   8.576   7.428   5.742
 4490SOL    HW225502   8.601   7.458   5.901
 4491SOL     OW25503   4.378   1.198   2.036
 4491SOL    HW125504   4.427   1.195   2.124
 4491SOL    HW225505   4.310   1.125   2.034
 4492SOL     OW25506   3.699   2.915   5.902
 4492SOL    HW125507   3.740   2.934   5.813
 4492SOL    HW225508   3.622   2.977   5.917
 4493SOL     OW25509   5.188   3.266   6.682
 4493SOL    HW125510   5.196   3.207   6.602
 4493SOL    HW225511   5.279   3.292   6.714
 4494SOL     OW25512   4.409   5.690   6.214
 4494SOL    HW125513   4.321   5.660   6.177
 4494SOL    HW225514   4.473   5.706   6.138
 4495SOL     OW25515   1.787   2.277   1.602
 4495SOL    HW125516   1.690   2.269   1.580
 4495SOL    HW225517   1.798   2.279   1.701
 4496SOL     OW25518   8.050   7.619   5.496
 4496SOL    HW125519   8.071   7.524   5.521
 4496SOL    HW225520   8.099   7.643   5.411
 4497SOL     OW25521   4.538   0.326   0.696
 4497SOL    HW125522   4.450   0.283   0.714
 4497SOL    HW225523   4.593   0.268   0.637
 4498SOL     OW25524   1.360   0.731   6.423
 4498SOL    HW125525   1.378   0.651   6.365
 4498SOL    HW225526   1.263   0.734   6.446
 4499SOL     OW25527   0.610   4.908   5.847
 4499SOL    HW125528   0.679   4.943   5.784
 4499SOL    HW225529   0.535   4.867   5.795
 4500SOL     OW25530   8.535   1.126   4.992
 4500SOL    HW125531   8.514   1.060   4.920
 4500SOL    HW225532   8.564   1.212   4.950
 4501SOL     OW25533   4.787   8.492   6.378
 4501SOL    HW125534   4.845   8.572   6.362
 4501SOL    HW225535   4.739   8.469   6.293
 4502SOL     OW25536   0.612   4.425   1.393
 4502SOL    HW125537   0.653   4.368   1.464
 4502SOL    HW225538   0.519   4.450   1.419
 4503SOL     OW25539   6.482   3.585   6.063
 4503SOL    HW125540   6.511   3.630   6.148
 4503SOL    HW225541   6.441   3.653   6.002
 4504SOL     OW25542   3.852   4.636   6.241
 4504SOL    HW125543   3.911   4.714   6.221
 4504SOL    HW225544   3.777   4.633   6.175
 4505SOL     OW25545   0.627   6.858   5.178
 4505SOL    HW125546   0.576   6.772   5.164
 4505SOL    HW225547   0.566   6.935   5.160
 4506SOL     OW25548   2.831   0.260   4.710
 4506SOL    HW125549   2.766   0.211   4.652
 4506SOL    HW225550   2.907   0.200   4.734
 4507SOL     OW25551   0.531   2.350   0.606
 4507SOL    HW125552   0.534   2.250   0.596
 4507SOL    HW225553   0.594   2.378   0.679
 4508SOL     OW25554   2.419   5.473   1.160
 4508SOL    HW125555   2.385   5.548   1.218
 4508SOL    HW225556   2.511   5.494   1.129
 4509SOL     OW25557   4.228   3.491   1.128
 4509SOL    HW125558   4.181   3.433   1.194
 4509SOL    HW225559   4.202   3.463   1.035
 4510SOL     OW25560   1.429   5.348   0.773
 4510SOL    HW125561   1.460   5.402   0.695
 4510SOL    HW225562   1.391   5.261   0.741
 4511SOL     OW25563   5.084   4.485   1.644
 4511SOL    HW125564   5.139   4.457   1.723
 4511SOL    HW225565   5.050   4.404   1.597
 4512SOL     OW25566   3.061   0.305   0.076
 4512SOL    HW125567   3.025   0.211   0.071
 4512SOL    HW225568   3.043   0.342   0.167
 4513SOL     OW25569   6.089   3.243   1.280
 4513SOL    HW125570   6.058   3.338   1.290
 4513SOL    HW225571   6.030   3.183   1.333
 4514SOL     OW25572   0.800   6.784   5.899
 4514SOL    HW125573   0.831   6.800   5.805
 4514SOL    HW225574   0.773   6.688   5.909
 4515SOL     OW25575   2.334   8.153   1.593
 4515SOL    HW125576   2.396   8.091   1.642
 4515SOL    HW225577   2.292   8.216   1.659
 4516SOL     OW25578   3.181   5.064   1.287
 4516SOL    HW125579   3.178   4.982   1.230
 4516SOL    HW225580   3.265   5.116   1.267
 4517SOL     OW25581   2.521   6.640   5.552
 4517SOL    HW125582   2.516   6.712   5.621
 4517SOL    HW225583   2.432   6.594   5.545
 4518SOL     OW25584   8.945   0.235   5.841
 4518SOL    HW125585   8.976   0.233   5.936
 4518SOL    HW225586   8.987   0.313   5.795
 4519SOL     OW25587   5.701   4.841   6.469
 4519SOL    HW125588   5.628   4.800   6.524
 4519SOL    HW225589   5.789   4.826   6.513
 4520SOL     OW25590   8.698   7.564   5.492
 4520SOL    HW125591   8.602   7.593   5.496
 4520SOL    HW225592   8.705   7.468   5.519
 4521SOL     OW25593   1.998   3.821   6.304
 4521SOL    HW125594   2.024   3.904   6.253
 4521SOL    HW225595   2.073   3.795   6.365
 4522SOL     OW25596   1.654   1.183   5.123
 4522SOL    HW125597   1.703   1.178   5.036
 4522SOL    HW225598   1.562   1.146   5.112
 4523SOL     OW25599   5.836   0.476   0.680
 4523SOL    HW125600   5.781   0.397   0.653
 4523SOL    HW225601   5.800   0.558   0.635
 4524SOL     OW25602   8.014   6.107   1.082
 4524SOL    HW125603   7.926   6.130   1.042
 4524SOL    HW225604   8.004   6.027   1.142
 4525SOL     OW25605   3.141   6.318   1.691
 4525SOL    HW125606   3.144   6.278   1.783
 4525SOL    HW225607   3.162   6.416   1.697
 4526SOL     OW25608   0.344   4.368   6.667
 4526SOL    HW125609   0.276   4.313   6.618
 4526SOL    HW225610   0.427   4.314   6.680
 4527SOL     OW25611   3.652   5.733   0.235
 4527SOL    HW125612   3.589   5.656   0.244
 4527SOL    HW225613   3.615   5.798   0.168
 4528SOL     OW25614   4.984   3.433   6.594
 4528SOL    HW125615   5.049   3.362   6.620
 4528SOL    HW225616   4.957   3.486   6.675
 4529SOL     OW25617   3.452   7.959   1.425
 4529SOL    HW125618   3.505   8.040   1.451
 4529SOL    HW225619   3.384   7.939   1.495
 4530SOL     OW25620   6.737   2.297   6.697
 4530SOL    HW125621   6.771   2.311   6.790
 4530SOL    HW225622   6.812   2.271   6.637
 4531SOL     OW25623   8.740   6.796   6.127
 4531SOL    HW125624   8.768   6.827   6.036
 4531SOL    HW225625   8.640   6.799   6.134
 4532SOL     OW25626   9.110   4.152   6.572
 4532SOL    HW125627   9.104   4.201   6.485
 4532SOL    HW225628   9.206   4.145   6.600
 4533SOL     OW25629   5.088   1.172   0.908
 4533SOL    HW125630   5.089   1.077   0.940
 4533SOL    HW225631   5.025   1.180   0.830
 4534SOL     OW25632   1.612   7.645   1.027
 4534SOL    HW125633   1.701   7.602   1.016
 4534SOL    HW225634   1.622   7.734   1.070
 4535SOL     OW25635   8.712   5.640   0.715
 4535SOL    HW125636   8.785   5.606   0.656
 4535SOL    HW225637   8.747   5.654   0.807
 4536SOL     OW25638   4.743   0.815   0.622
 4536SOL    HW125639   4.681   0.875   0.572
 4536SOL    HW225640   4.696   0.778   0.703
 4537SOL     OW25641   7.482   4.452   0.424
 4537SOL    HW125642   7.499   4.356   0.402
 4537SOL    HW225643   7.565   4.505   0.410
 4538SOL     OW25644   8.294   5.188   0.575
 4538SOL    HW125645   8.382   5.170   0.619
 4538SOL    HW225646   8.307   5.250   0.498
 4539SOL     OW25647   4.073   8.193   0.043
 4539SOL    HW125648   4.149   8.133   0.069
 4539SOL    HW225649   4.103   8.251  -0.033
 4540SOL     OW25650   0.257   3.312   0.438
 4540SOL    HW125651   0.202   3.237   0.401
 4540SOL    HW225652   0.232   3.328   0.534
 4541SOL     OW25653   7.129   6.444   6.412
 4541SOL    HW125654   7.063   6.371   6.395
 4541SOL    HW225655   7.199   6.443   6.340
 4542SOL     OW25656   4.597   5.828   1.805
 4542SOL    HW125657   4.694   5.851   1.806
 4542SOL    HW225658   4.578   5.760   1.876
 4543SOL     OW25659   0.899   6.749   1.883
 4543SOL    HW125660   0.984   6.778   1.838
 4543SOL    HW225661   0.869   6.662   1.844
 4544SOL     OW25662   6.138   3.425   6.239
 4544SOL    HW125663   6.192   3.387   6.164
 4544SOL    HW225664   6.198   3.456   6.312
 4545SOL     OW25665   7.969   8.388   5.313
 4545SOL    HW125666   8.044   8.368   5.250
 4545SOL    HW225667   7.888   8.416   5.261
 4546SOL     OW25668   3.655   4.679   6.060
 4546SOL    HW125669   3.624   4.774   6.061
 4546SOL    HW225670   3.694   4.656   5.971
 4547SOL     OW25671   7.314   0.305   0.380
 4547SOL    HW125672   7.317   0.403   0.401
 4547SOL    HW225673   7.331   0.253   0.463
 4548SOL     OW25674   5.866   6.257   0.420
 4548SOL    HW125675   5.887   6.205   0.503
 4548SOL    HW225676   5.930   6.333   0.411
 4549SOL     OW25677   8.831   5.189   0.831
 4549SOL    HW125678   8.843   5.274   0.881
 4549SOL    HW225679   8.759   5.135   0.874
 4550SOL     OW25680   7.129   3.792   5.479
 4550SOL    HW125681   7.058   3.756   5.540
 4550SOL    HW225682   7.132   3.737   5.396
 4551SOL     OW25683   8.093   3.941   1.136
 4551SOL    HW125684   8.154   3.866   1.161
 4551SOL    HW225685   8.000   3.921   1.168
 4552SOL     OW25686   5.369   5.565   0.084
 4552SOL    HW125687   5.358   5.496   0.154
 4552SOL    HW225688   5.349   5.655   0.122
 4553SOL     OW25689   3.957   5.524   0.320
 4553SOL    HW125690   4.024   5.451   0.300
 4553SOL    HW225691   3.907   5.547   0.237
 4554SOL     OW25692   5.869   8.344   6.692
 4554SOL    HW125693   5.879   8.412   6.619
 4554SOL    HW225694   5.950   8.285   6.693
 4555SOL     OW25695   7.439   1.170   6.624
 4555SOL    HW125696   7.405   1.221   6.545
 4555SOL    HW225697   7.387   1.086   6.635
 4556SOL     OW25698   3.177   2.604   0.152
 4556SOL    HW125699   3.166   2.701   0.129
 4556SOL    HW225700   3.098   2.553   0.119
 4557SOL     OW25701   6.688   1.670   6.026
 4557SOL    HW125702   6.612   1.684   6.089
 4557SOL    HW225703   6.663   1.602   5.957
 4558SOL     OW25704   1.473   6.679   6.430
 4558SOL    HW125705   1.415   6.616   6.378
 4558SOL    HW225706   1.554   6.701   6.376
 4559SOL     OW25707   0.073   1.972   5.962
 4559SOL    HW125708  -0.005   2.035   5.970
 4559SOL    HW225709   0.066   1.922   5.875
 4560SOL     OW25710   2.461   1.294   0.597
 4560SOL    HW125711   2.536   1.325   0.539
 4560SOL    HW225712   2.493   1.288   0.692
 4561SOL     OW25713   6.841   6.690   5.440
 4561SOL    HW125714   6.798   6.755   5.378
 4561SOL    HW225715   6.940   6.704   5.441
 4562SOL     OW25716   5.396   4.689   1.889
 4562SOL    HW125717   5.353   4.779   1.881
 4562SOL    HW225718   5.331   4.618   1.859
 4563SOL     OW25719   4.109   6.588   6.569
 4563SOL    HW125720   4.134   6.603   6.473
 4563SOL    HW225721   4.164   6.513   6.606
 4564SOL     OW25722   3.485   6.620   0.183
 4564SOL    HW125723   3.534   6.703   0.211
 4564SOL    HW225724   3.415   6.643   0.115
 4565SOL     OW25725   2.989   3.459   6.536
 4565SOL    HW125726   3.001   3.368   6.497
 4565SOL    HW225727   2.893   3.484   6.534
 4566SOL     OW25728   6.636   4.348   6.669
 4566SOL    HW125729   6.726   4.390   6.662
 4566SOL    HW225730   6.566   4.419   6.669
 4567SOL     OW25731   7.186   0.000   5.280
 4567SOL    HW125732   7.091  -0.018   5.256
 4567SOL    HW225733   7.242   0.002   5.197
 4568SOL     OW25734   0.902   6.127   6.499
 4568SOL    HW125735   0.928   6.032   6.513
 4568SOL    HW225736   0.825   6.132   6.435
 4569SOL     OW25737   3.417   0.869   1.159
 4569SOL    HW125738   3.385   0.933   1.089
 4569SOL    HW225739   3.346   0.802   1.178
 4570SOL     OW25740   1.491   6.123   0.173
 4570SOL    HW125741   1.560   6.121   0.245
 4570SOL    HW225742   1.535   6.121   0.083
 4571SOL     OW25743   6.022   7.351   5.697
 4571SOL    HW125744   6.068   7.278   5.645
 4571SOL    HW225745   5.924   7.347   5.678
 4572SOL     OW25746   7.803   2.188   6.467
 4572SOL    HW125747   7.814   2.275   6.417
 4572SOL    HW225748   7.882   2.175   6.527
 4573SOL     OW25749   4.310   1.075   5.535
 4573SOL    HW125750   4.251   1.069   5.616
 4573SOL    HW225751   4.295   0.996   5.476
 4574SOL     OW25752   1.088   5.279   5.883
 4574SOL    HW125753   1.101   5.360   5.826
 4574SOL    HW225754   0.991   5.253   5.882
 4575SOL     OW25755   7.547   5.345   6.311
 4575SOL    HW125756   7.473   5.278   6.311
 4575SOL    HW225757   7.617   5.317   6.376
 4576SOL     OW25758   1.809   6.704   5.440
 4576SOL    HW125759   1.748   6.703   5.520
 4576SOL    HW225760   1.765   6.654   5.365
 4577SOL     OW25761   5.732   4.400   0.410
 4577SOL    HW125762   5.729   4.476   0.474
 4577SOL    HW225763   5.743   4.314   0.460
 4578SOL     OW25764   5.309   8.052   5.636
 4578SOL    HW125765   5.339   8.142   5.669
 4578SOL    HW225766   5.263   8.063   5.549
 4579SOL     OW25767   3.588   6.984   5.948
 4579SOL    HW125768   3.655   6.912   5.963
 4579SOL    HW225769   3.519   6.951   5.883
 4580SOL     OW25770   1.216   1.961   0.330
 4580SOL    HW125771   1.304   2.009   0.320
 4580SOL    HW225772   1.141   2.026   0.319
 4581SOL     OW25773   8.801   6.093   5.006
 4581SOL    HW125774   8.737   6.047   5.068
 4581SOL    HW225775   8.855   6.025   4.957
 4582SOL     OW25776   3.056   4.394   0.442
 4582SOL    HW125777   2.978   4.448   0.410
 4582SOL    HW225778   3.116   4.373   0.365
 4583SOL     OW25779   3.082   4.955   6.610
 4583SOL    HW125780   2.993   4.971   6.654
 4583SOL    HW225781   3.135   4.890   6.664
 4584SOL     OW25782   6.149   2.460   5.969
 4584SOL    HW125783   6.096   2.398   5.913
 4584SOL    HW225784   6.116   2.458   6.063
 4585SOL     OW25785   1.114   3.958   0.247
 4585SOL    HW125786   1.214   3.956   0.238
 4585SOL    HW225787   1.088   3.929   0.339
 4586SOL     OW25788   0.453   8.053   1.444
 4586SOL    HW125789   0.427   8.148   1.462
 4586SOL    HW225790   0.417   7.995   1.517
 4587SOL     OW25791   2.290   7.845   5.004
 4587SOL    HW125792   2.365   7.900   4.965
 4587SOL    HW225793   2.247   7.791   4.932
 4588SOL     OW25794   0.769   1.591   5.771
 4588SOL    HW125795   0.774   1.687   5.744
 4588SOL    HW225796   0.695   1.579   5.837
 4589SOL     OW25797   0.825   4.173   1.357
 4589SOL    HW125798   0.787   4.190   1.447
 4589SOL    HW225799   0.836   4.074   1.343
 4590SOL     OW25800   3.158   5.045   6.378
 4590SOL    HW125801   3.246   5.090   6.393
 4590SOL    HW225802   3.124   5.009   6.465
 4591SOL     OW25803   1.637   8.329   5.546
 4591SOL    HW125804   1.659   8.369   5.456
 4591SOL    HW225805   1.722   8.313   5.596
 4592SOL     OW25806   0.207   5.043   5.250
 4592SOL    HW125807   0.173   5.060   5.158
 4592SOL    HW225808   0.164   4.961   5.288
 4593SOL     OW25809   6.596   5.324   6.500
 4593SOL    HW125810   6.517   5.344   6.558
 4593SOL    HW225811   6.649   5.408   6.484
 4594SOL     OW25812   3.356   3.135   6.360
 4594SOL    HW125813   3.340   3.146   6.458
 4594SOL    HW225814   3.438   3.080   6.346
 4595SOL     OW25815   0.275   6.431   4.647
 4595SOL    HW125816   0.289   6.513   4.592
 4595SOL    HW225817   0.358   6.375   4.647
 4596SOL     OW25818   9.163   5.064   5.378
 4596SOL    HW125819   9.072   5.101   5.359
 4596SOL    HW225820   9.201   5.023   5.295
 4597SOL     OW25821   4.263   7.762   0.861
 4597SOL    HW125822   4.217   7.697   0.922
 4597SOL    HW225823   4.199   7.795   0.793
 4598SOL     OW25824   7.713   2.895   6.585
 4598SOL    HW125825   7.812   2.901   6.602
 4598SOL    HW225826   7.697   2.874   6.489
 4599SOL     OW25827   2.777   7.010   5.740
 4599SOL    HW125828   2.743   7.019   5.834
 4599SOL    HW225829   2.741   7.086   5.685
 4600SOL     OW25830   3.464   3.061   1.878
 4600SOL    HW125831   3.417   3.147   1.859
 4600SOL    HW225832   3.421   3.016   1.957
 4601SOL     OW25833   2.387   7.490   0.766
 4601SOL    HW125834   2.320   7.546   0.718
 4601SOL    HW225835   2.347   7.400   0.787
 4602SOL     OW25836   7.746   4.032   0.778
 4602SOL    HW125837   7.827   4.081   0.811
 4602SOL    HW225838   7.746   4.030   0.678
 4603SOL     OW25839   3.971   5.474   1.360
 4603SOL    HW125840   3.893   5.507   1.414
 4603SOL    HW225841   4.001   5.385   1.395
 4604SOL     OW25842   8.473   2.428   1.079
 4604SOL    HW125843   8.378   2.413   1.108
 4604SOL    HW225844   8.514   2.500   1.134
 4605SOL     OW25845   6.755   5.760   0.826
 4605SOL    HW125846   6.665   5.794   0.798
 4605SOL    HW225847   6.755   5.660   0.825
 4606SOL     OW25848   7.781   3.671   5.930
 4606SOL    HW125849   7.845   3.649   5.856
 4606SOL    HW225850   7.698   3.712   5.891
 4607SOL     OW25851   0.213   6.919   5.316
 4607SOL    HW125852   0.252   6.873   5.237
 4607SOL    HW225853   0.166   6.852   5.373
 4608SOL     OW25854   5.757   8.446   0.985
 4608SOL    HW125855   5.737   8.535   0.943
 4608SOL    HW225856   5.847   8.448   1.027
 4609SOL     OW25857   5.077   6.619   1.508
 4609SOL    HW125858   5.144   6.548   1.484
 4609SOL    HW225859   5.109   6.708   1.476
 4610SOL     OW25860   1.210   5.681   0.029
 4610SOL    HW125861   1.152   5.640  -0.042
 4610SOL    HW225862   1.239   5.772  -0.001
 4611SOL     OW25863   2.054   0.322   0.985
 4611SOL    HW125864   2.121   0.377   1.036
 4611SOL    HW225865   1.964   0.330   1.028
 4612SOL     OW25866   4.405   0.470   6.083
 4612SOL    HW125867   4.398   0.553   6.028
 4612SOL    HW225868   4.460   0.402   6.035
 4613SOL     OW25869   8.198   7.665   0.596
 4613SOL    HW125870   8.246   7.636   0.514
 4613SOL    HW225871   8.185   7.765   0.594
 4614SOL     OW25872   0.767   6.588   4.521
 4614SOL    HW125873   0.770   6.491   4.495
 4614SOL    HW225874   0.816   6.600   4.608
 4615SOL     OW25875   2.169   7.682   6.057
 4615SOL    HW125876   2.186   7.777   6.032
 4615SOL    HW225877   2.077   7.656   6.026
 4616SOL     OW25878   4.811   3.717   1.695
 4616SOL    HW125879   4.755   3.651   1.745
 4616SOL    HW225880   4.888   3.745   1.753
 4617SOL     OW25881   2.019   1.297   0.029
 4617SOL    HW125882   2.004   1.390  -0.003
 4617SOL    HW225883   2.110   1.290   0.070
 4618SOL     OW25884   2.511   2.762   0.875
 4618SOL    HW125885   2.471   2.828   0.811
 4618SOL    HW225886   2.437   2.710   0.918
 4619SOL     OW25887   7.115   1.161   1.389
 4619SOL    HW125888   7.065   1.206   1.462
 4619SOL    HW225889   7.213   1.176   1.402
 4620SOL     OW25890   6.352   3.912   6.174
 4620SOL    HW125891   6.332   3.970   6.253
 4620SOL    HW225892   6.281   3.926   6.104
 4621SOL     OW25893   3.712   7.857   6.663
 4621SOL    HW125894   3.682   7.766   6.694
 4621SOL    HW225895   3.662   7.881   6.580
 4622SOL     OW25896   3.220   1.422   5.643
 4622SOL    HW125897   3.194   1.378   5.557
 4622SOL    HW225898   3.143   1.476   5.677
 4623SOL     OW25899   4.105   2.299   6.108
 4623SOL    HW125900   4.081   2.335   6.018
 4623SOL    HW225901   4.054   2.215   6.126
 4624SOL     OW25902   7.043   0.401   0.117
 4624SOL    HW125903   7.075   0.331   0.052
 4624SOL    HW225904   7.110   0.475   0.121
 4625SOL     OW25905   6.187   6.661   6.111
 4625SOL    HW125906   6.215   6.756   6.113
 4625SOL    HW225907   6.145   6.636   6.199
 4626SOL     OW25908   4.247   2.472   1.219
 4626SOL    HW125909   4.308   2.547   1.193
 4626SOL    HW225910   4.299   2.387   1.225
 4627SOL     OW25911   0.723   3.251   0.314
 4627SOL    HW125912   0.779   3.262   0.396
 4627SOL    HW225913   0.634   3.294   0.328
 4628SOL     OW25914   8.858   2.630   1.007
 4628SOL    HW125915   8.955   2.653   0.992
 4628SOL    HW225916   8.851   2.536   1.039
 4629SOL     OW25917   8.866   6.845   0.410
 4629SOL    HW125918   8.873   6.758   0.362
 4629SOL    HW225919   8.840   6.829   0.505
 4630SOL     OW25920   7.788   3.053   0.502
 4630SOL    HW125921   7.799   3.065   0.601
 4630SOL    HW225922   7.773   3.142   0.459
 4631SOL     OW25923   1.145   8.121   0.604
 4631SOL    HW125924   1.202   8.105   0.684
 4631SOL    HW225925   1.172   8.059   0.530
 4632SOL     OW25926   8.893   7.824   0.376
 4632SOL    HW125927   8.926   7.917   0.359
 4632SOL    HW225928   8.929   7.792   0.464
 4633SOL     OW25929   8.696   4.221   5.810
 4633SOL    HW125930   8.663   4.164   5.885
 4633SOL    HW225931   8.665   4.182   5.723
 4634SOL     OW25932   8.924   3.726   5.575
 4634SOL    HW125933   8.897   3.656   5.509
 4634SOL    HW225934   8.993   3.786   5.535
 4635SOL     OW25935   1.691   6.763   6.303
 4635SOL    HW125936   1.689   6.859   6.332
 4635SOL    HW225937   1.648   6.756   6.213
 4636SOL     OW25938   7.252   6.139   5.675
 4636SOL    HW125939   7.238   6.051   5.630
 4636SOL    HW225940   7.269   6.209   5.606
 4637SOL     OW25941   6.969   5.532   0.478
 4637SOL    HW125942   7.041   5.513   0.544
 4637SOL    HW225943   6.910   5.452   0.469
 4638SOL     OW25944   9.015   8.358   0.634
 4638SOL    HW125945   8.941   8.406   0.588
 4638SOL    HW225946   9.060   8.295   0.571
 4639SOL     OW25947   2.961   4.936   0.118
 4639SOL    HW125948   3.007   4.864   0.170
 4639SOL    HW225949   2.886   4.973   0.172
 4640SOL     OW25950   5.672   6.716   2.195
 4640SOL    HW125951   5.703   6.809   2.212
 4640SOL    HW225952   5.750   6.653   2.196
 4641SOL     OW25953   1.345   8.029   5.992
 4641SOL    HW125954   1.339   8.128   5.982
 4641SOL    HW225955   1.316   7.985   5.907
 4642SOL     OW25956   1.779   3.639   5.778
 4642SOL    HW125957   1.767   3.578   5.700
 4642SOL    HW225958   1.721   3.720   5.767
 4643SOL     OW25959   4.945   6.947   6.400
 4643SOL    HW125960   4.925   6.979   6.493
 4643SOL    HW225961   5.040   6.916   6.395
 4644SOL     OW25962   0.065   2.667   6.524
 4644SOL    HW125963   0.078   2.573   6.554
 4644SOL    HW225964  -0.016   2.673   6.466
 4645SOL     OW25965   5.706   1.605   6.452
 4645SOL    HW125966   5.713   1.705   6.450
 4645SOL    HW225967   5.796   1.566   6.475
 4646SOL     OW25968   9.337   2.149   6.305
 4646SOL    HW125969   9.330   2.230   6.247
 4646SOL    HW225970   9.407   2.164   6.375
 4647SOL     OW25971   0.968   1.824   6.460
 4647SOL    HW125972   0.982   1.748   6.523
 4647SOL    HW225973   0.901   1.798   6.391
 4648SOL     OW25974   7.289   7.443   0.389
 4648SOL    HW125975   7.371   7.389   0.408
 4648SOL    HW225976   7.304   7.498   0.306
 4649SOL     OW25977   8.543   7.057   0.183
 4649SOL    HW125978   8.603   6.998   0.128
 4649SOL    HW225979   8.449   7.026   0.175
 4650SOL     OW25980   1.677   3.299   0.182
 4650SOL    HW125981   1.588   3.276   0.143
 4650SOL    HW225982   1.733   3.343   0.111
 4651SOL     OW25983   7.286   3.110   0.801
 4651SOL    HW125984   7.373   3.151   0.829
 4651SOL    HW225985   7.237   3.077   0.881
 4652SOL     OW25986   8.291   2.343   0.768
 4652SOL    HW125987   8.262   2.278   0.698
 4652SOL    HW225988   8.387   2.326   0.791
 4653SOL     OW25989   4.159   2.817   0.011
 4653SOL    HW125990   4.099   2.761  -0.045
 4653SOL    HW225991   4.254   2.789  -0.002
 4654SOL     OW25992   2.793   2.351   1.090
 4654SOL    HW125993   2.749   2.429   1.134
 4654SOL    HW225994   2.820   2.376   0.997
 4655SOL     OW25995   2.142   3.443   6.334
 4655SOL    HW125996   2.184   3.507   6.269
 4655SOL    HW225997   2.184   3.353   6.323
 4656SOL     OW25998   4.211   5.466   1.841
 4656SOL    HW125999   4.218   5.366   1.834
 4656SOL    HW226000   4.145   5.490   1.912
 4657SOL     OW26001   5.209   0.416   0.299
 4657SOL    HW126002   5.130   0.475   0.285
 4657SOL    HW226003   5.181   0.320   0.296
 4658SOL     OW26004   7.943   6.417   0.567
 4658SOL    HW126005   7.882   6.338   0.558
 4658SOL    HW226006   8.014   6.396   0.635
 4659SOL     OW26007   7.965   2.504   0.671
 4659SOL    HW126008   8.050   2.533   0.629
 4659SOL    HW226009   7.909   2.456   0.603
 4660SOL     OW26010   6.934   6.638   0.956
 4660SOL    HW126011   6.976   6.674   0.873
 4660SOL    HW226012   6.836   6.627   0.942
 4661SOL     OW26013   7.143   0.332   0.754
 4661SOL    HW126014   7.215   0.287   0.700
 4661SOL    HW226015   7.058   0.334   0.701
 4662SOL     OW26016   3.523   6.892   1.648
 4662SOL    HW126017   3.612   6.925   1.618
 4662SOL    HW226018   3.534   6.838   1.731
 4663SOL     OW26019   9.187   7.837   5.515
 4663SOL    HW126020   9.209   7.933   5.531
 4663SOL    HW226021   9.096   7.818   5.551
 4664SOL     OW26022   3.433   7.412   6.145
 4664SOL    HW126023   3.436   7.315   6.122
 4664SOL    HW226024   3.471   7.466   6.069
 4665SOL     OW26025   5.343   1.201   0.149
 4665SOL    HW126026   5.261   1.152   0.177
 4665SOL    HW226027   5.424   1.149   0.175
 4666SOL     OW26028   0.324   7.583   4.779
 4666SOL    HW126029   0.314   7.668   4.728
 4666SOL    HW226030   0.411   7.539   4.754
 4667SOL     OW26031   7.298   4.870   0.316
 4667SOL    HW126032   7.224   4.928   0.283
 4667SOL    HW226033   7.312   4.886   0.413
 4668SOL     OW26034   4.453   5.579   0.213
 4668SOL    HW126035   4.542   5.593   0.170
 4668SOL    HW226036   4.459   5.504   0.278
 4669SOL     OW26037   3.329   1.792   5.687
 4669SOL    HW126038   3.318   1.823   5.592
 4669SOL    HW226039   3.405   1.842   5.729
 4670SOL     OW26040   8.652   0.703   6.409
 4670SOL    HW126041   8.684   0.616   6.373
 4670SOL    HW226042   8.562   0.724   6.371
 4671SOL     OW26043   3.279   3.980   1.107
 4671SOL    HW126044   3.234   3.933   1.183
 4671SOL    HW226045   3.262   3.931   1.022
 4672SOL     OW26046   4.421   7.765   2.165
 4672SOL    HW126047   4.436   7.858   2.199
 4672SOL    HW226048   4.418   7.767   2.065
 4673SOL     OW26049   3.598   5.013   4.937
 4673SOL    HW126050   3.589   5.015   4.838
 4673SOL    HW226051   3.545   5.087   4.978
 4674SOL     OW26052   8.525   5.615   0.075
 4674SOL    HW126053   8.505   5.534   0.020
 4674SOL    HW226054   8.519   5.697   0.018
 4675SOL     OW26055   6.171   2.929   6.194
 4675SOL    HW126056   6.270   2.928   6.176
 4675SOL    HW226057   6.125   2.864   6.133
 4676SOL     OW26058   0.322   2.583   0.101
 4676SOL    HW126059   0.274   2.662   0.063
 4676SOL    HW226060   0.256   2.520   0.140
 4677SOL     OW26061   1.126   4.901   5.813
 4677SOL    HW126062   1.153   4.936   5.723
 4677SOL    HW226063   1.080   4.974   5.864
 4678SOL     OW26064   1.285   0.301   0.797
 4678SOL    HW126065   1.237   0.336   0.716
 4678SOL    HW226066   1.361   0.244   0.769
 4679SOL     OW26067   6.661   7.765   1.390
 4679SOL    HW126068   6.719   7.768   1.471
 4679SOL    HW226069   6.657   7.672   1.355
 4680SOL     OW26070   5.238   7.114   6.120
 4680SOL    HW126071   5.287   7.056   6.186
 4680SOL    HW226072   5.300   7.139   6.046
 4681SOL     OW26073   2.882   7.921   5.740
 4681SOL    HW126074   2.829   7.840   5.764
 4681SOL    HW226075   2.820   7.997   5.719
 4682SOL     OW26076   5.658   6.313   0.745
 4682SOL    HW126077   5.561   6.327   0.726
 4682SOL    HW226078   5.698   6.255   0.674
 4683SOL     OW26079   2.787   0.259   5.314
 4683SOL    HW126080   2.860   0.223   5.255
 4683SOL    HW226081   2.828   0.312   5.389
 4684SOL     OW26082   6.930   6.163   1.278
 4684SOL    HW126083   7.027   6.143   1.285
 4684SOL    HW226084   6.879   6.078   1.262
 4685SOL     OW26085   8.189   8.323   1.251
 4685SOL    HW126086   8.247   8.317   1.332
 4685SOL    HW226087   8.099   8.358   1.276
 4686SOL     OW26088   2.356   7.201   6.391
 4686SOL    HW126089   2.288   7.138   6.353
 4686SOL    HW226090   2.313   7.260   6.459
 4687SOL     OW26091   0.580   6.463   4.298
 4687SOL    HW126092   0.608   6.450   4.203
 4687SOL    HW226093   0.659   6.450   4.358
 4688SOL     OW26094   5.761   5.935   1.811
 4688SOL    HW126095   5.748   5.837   1.830
 4688SOL    HW226096   5.858   5.957   1.811
 4689SOL     OW26097   2.252   8.136   0.109
 4689SOL    HW126098   2.304   8.076   0.170
 4689SOL    HW226099   2.265   8.231   0.136
 4690SOL     OW26100   8.448   7.155   6.393
 4690SOL    HW126101   8.452   7.255   6.399
 4690SOL    HW226102   8.480   7.125   6.303
 4691SOL     OW26103   6.786   1.012   6.106
 4691SOL    HW126104   6.727   0.946   6.151
 4691SOL    HW226105   6.879   0.974   6.099
 4692SOL     OW26106   9.000   6.195   6.727
 4692SOL    HW126107   9.007   6.112   6.783
 4692SOL    HW226108   8.972   6.272   6.785
 4693SOL     OW26109   3.984   0.070   5.749
 4693SOL    HW126110   3.939   0.159   5.758
 4693SOL    HW226111   4.006   0.054   5.653
 4694SOL     OW26112   2.945   2.238   0.348
 4694SOL    HW126113   2.936   2.205   0.254
 4694SOL    HW226114   2.898   2.176   0.410
 4695SOL     OW26115   6.144   6.974   6.684
 4695SOL    HW126116   6.097   6.887   6.701
 4695SOL    HW226117   6.227   6.977   6.740
 4696SOL     OW26118   1.056   1.963   6.729
 4696SOL    HW126119   0.975   1.986   6.676
 4696SOL    HW226120   1.047   1.871   6.767
 4697SOL     OW26121   0.302   8.071   6.017
 4697SOL    HW126122   0.221   8.019   6.048
 4697SOL    HW226123   0.324   8.141   6.085
 4698SOL     OW26124   5.315   0.179   5.136
 4698SOL    HW126125   5.274   0.197   5.047
 4698SOL    HW226126   5.357   0.262   5.171
 4699SOL     OW26127   4.552   0.913   0.035
 4699SOL    HW126128   4.634   0.927  -0.021
 4699SOL    HW226129   4.535   0.995   0.090
 4700SOL     OW26130   3.792   3.129   0.194
 4700SOL    HW126131   3.830   3.037   0.187
 4700SOL    HW226132   3.847   3.192   0.139
 4701SOL     OW26133   8.686   4.882   6.457
 4701SOL    HW126134   8.748   4.844   6.525
 4701SOL    HW226135   8.658   4.974   6.485
 4702SOL     OW26136   5.971   1.563   5.935
 4702SOL    HW126137   5.893   1.501   5.931
 4702SOL    HW226138   5.985   1.604   5.845
 4703SOL     OW26139   3.812   6.318   5.783
 4703SOL    HW126140   3.886   6.288   5.724
 4703SOL    HW226141   3.826   6.415   5.807
 4704SOL     OW26142   0.279   5.544   5.624
 4704SOL    HW126143   0.275   5.644   5.634
 4704SOL    HW226144   0.373   5.516   5.605
 4705SOL     OW26145   3.656   2.022   0.781
 4705SOL    HW126146   3.695   2.068   0.701
 4705SOL    HW226147   3.720   1.952   0.813
 4706SOL     OW26148   7.349   4.252   6.580
 4706SOL    HW126149   7.380   4.280   6.489
 4706SOL    HW226150   7.282   4.317   6.614
 4707SOL     OW26151   2.333   4.833   6.692
 4707SOL    HW126152   2.418   4.867   6.733
 4707SOL    HW226153   2.266   4.907   6.687
 4708SOL     OW26154   8.311   6.588   5.543
 4708SOL    HW126155   8.388   6.646   5.517
 4708SOL    HW226156   8.345   6.496   5.564
 4709SOL     OW26157   9.198   7.936   6.078
 4709SOL    HW126158   9.279   7.917   6.022
 4709SOL    HW226159   9.184   8.034   6.084
 4710SOL     OW26160   4.246   2.123   0.071
 4710SOL    HW126161   4.238   2.222   0.058
 4710SOL    HW226162   4.173   2.077   0.020
 4711SOL     OW26163   8.472   0.103   0.820
 4711SOL    HW126164   8.508   0.155   0.897
 4711SOL    HW226165   8.397   0.045   0.852
 4712SOL     OW26166   8.247   6.914   0.738
 4712SOL    HW126167   8.252   6.856   0.819
 4712SOL    HW226168   8.199   6.865   0.665
 4713SOL     OW26169   9.209   3.509   1.388
 4713SOL    HW126170   9.165   3.435   1.440
 4713SOL    HW226171   9.179   3.597   1.425
 4714SOL     OW26172   5.811   6.850   1.087
 4714SOL    HW126173   5.809   6.831   1.185
 4714SOL    HW226174   5.846   6.770   1.038
 4715SOL     OW26175   4.531   7.674   0.794
 4715SOL    HW126176   4.439   7.706   0.816
 4715SOL    HW226177   4.531   7.574   0.792
 4716SOL     OW26178   2.882   7.444   5.559
 4716SOL    HW126179   2.930   7.395   5.486
 4716SOL    HW226180   2.937   7.440   5.642
 4717SOL     OW26181   4.344   1.846   1.685
 4717SOL    HW126182   4.370   1.921   1.745
 4717SOL    HW226183   4.285   1.782   1.734
 4718SOL     OW26184   7.526   0.154   5.791
 4718SOL    HW126185   7.517   0.243   5.746
 4718SOL    HW226186   7.470   0.153   5.873
 4719SOL     OW26187   9.231   5.544   4.842
 4719SOL    HW126188   9.307   5.542   4.777
 4719SOL    HW226189   9.146   5.565   4.793
 4720SOL     OW26190   4.509   5.249   0.785
 4720SOL    HW126191   4.447   5.312   0.738
 4720SOL    HW226192   4.495   5.256   0.884
 4721SOL     OW26193   0.586   1.294   6.340
 4721SOL    HW126194   0.524   1.293   6.261
 4721SOL    HW226195   0.672   1.250   6.315
 4722SOL     OW26196   7.976   6.943   4.955
 4722SOL    HW126197   7.920   7.025   4.969
 4722SOL    HW226198   7.916   6.864   4.943
 4723SOL     OW26199   3.749   6.079   0.570
 4723SOL    HW126200   3.803   6.161   0.582
 4723SOL    HW226201   3.672   6.079   0.635
 4724SOL     OW26202   8.745   6.342   5.803
 4724SOL    HW126203   8.707   6.257   5.840
 4724SOL    HW226204   8.830   6.365   5.852
 4725SOL     OW26205   3.777   7.397   2.398
 4725SOL    HW126206   3.808   7.302   2.396
 4725SOL    HW226207   3.790   7.435   2.490
 4726SOL     OW26208   8.990   2.876   0.757
 4726SOL    HW126209   9.034   2.864   0.669
 4726SOL    HW226210   9.035   2.818   0.826
 4727SOL     OW26211   6.959   5.583   5.125
 4727SOL    HW126212   6.968   5.566   5.223
 4727SOL    HW226213   6.908   5.668   5.110
 4728SOL     OW26214   4.479   5.298   1.053
 4728SOL    HW126215   4.382   5.277   1.065
 4728SOL    HW226216   4.493   5.396   1.066
 4729SOL     OW26217   6.105   4.699   5.658
 4729SOL    HW126218   6.057   4.623   5.614
 4729SOL    HW226219   6.090   4.696   5.757
 4730SOL     OW26220   1.273   6.886   4.341
 4730SOL    HW126221   1.321   6.899   4.254
 4730SOL    HW226222   1.238   6.792   4.346
 4731SOL     OW26223   0.389   0.222   6.290
 4731SOL    HW126224   0.449   0.148   6.322
 4731SOL    HW226225   0.345   0.265   6.368
 4732SOL     OW26226   2.863   0.872   5.726
 4732SOL    HW126227   2.811   0.847   5.644
 4732SOL    HW226228   2.914   0.792   5.759
 4733SOL     OW26229   2.800   6.859   6.177
 4733SOL    HW126230   2.865   6.886   6.247
 4733SOL    HW226231   2.781   6.937   6.117
 4734SOL     OW26232   0.791   6.187   4.812
 4734SOL    HW126233   0.816   6.121   4.883
 4734SOL    HW226234   0.866   6.196   4.747
 4735SOL     OW26235   5.797   3.783   6.371
 4735SOL    HW126236   5.829   3.702   6.322
 4735SOL    HW226237   5.728   3.756   6.438
 4736SOL     OW26238   3.461   7.264   6.699
 4736SOL    HW126239   3.530   7.197   6.726
 4736SOL    HW226240   3.458   7.338   6.766
 4737SOL     OW26241   3.656   7.597   1.101
 4737SOL    HW126242   3.590   7.560   1.036
 4737SOL    HW226243   3.639   7.694   1.114
 4738SOL     OW26244   4.466   4.579   0.923
 4738SOL    HW126245   4.462   4.611   0.828
 4738SOL    HW226246   4.532   4.504   0.929
 4739SOL     OW26247   5.314   4.184   0.855
 4739SOL    HW126248   5.362   4.248   0.916
 4739SOL    HW226249   5.358   4.184   0.765
 4740SOL     OW26250   4.047   0.921   0.638
 4740SOL    HW126251   4.129   0.977   0.626
 4740SOL    HW226252   4.056   0.838   0.584
 4741SOL     OW26253   6.108   0.191   1.045
 4741SOL    HW126254   6.185   0.128   1.029
 4741SOL    HW226255   6.078   0.228   0.957
 4742SOL     OW26256   6.111   2.234   5.465
 4742SOL    HW126257   6.188   2.291   5.440
 4742SOL    HW226258   6.036   2.248   5.400
 4743SOL     OW26259   0.286   7.502   5.411
 4743SOL    HW126260   0.239   7.471   5.329
 4743SOL    HW226261   0.245   7.459   5.492
 4744SOL     OW26262   1.311   6.302   0.509
 4744SOL    HW126263   1.308   6.208   0.475
 4744SOL    HW226264   1.390   6.349   0.469
 4745SOL     OW26265   3.604   5.939   0.011
 4745SOL    HW126266   3.597   6.005   0.086
 4745SOL    HW226267   3.547   5.969  -0.065
 4746SOL     OW26268   7.074   2.155   6.673
 4746SOL    HW126269   7.005   2.093   6.636
 4746SOL    HW226270   7.071   2.241   6.622
 4747SOL     OW26271   0.670   5.522   5.984
 4747SOL    HW126272   0.665   5.473   6.071
 4747SOL    HW226273   0.721   5.607   5.996
 4748SOL     OW26274   5.114   1.585   6.134
 4748SOL    HW126275   5.167   1.522   6.077
 4748SOL    HW226276   5.022   1.549   6.148
 4749SOL     OW26277   1.329   3.833   0.653
 4749SOL    HW126278   1.234   3.846   0.622
 4749SOL    HW226279   1.354   3.907   0.715
 4750SOL     OW26280   7.038   2.402   6.591
 4750SOL    HW126281   7.131   2.413   6.555
 4750SOL    HW226282   7.021   2.471   6.660
 4751SOL     OW26283   6.964   7.799   6.639
 4751SOL    HW126284   6.899   7.841   6.575
 4751SOL    HW226285   6.915   7.769   6.721
 4752SOL     OW26286   2.243   3.901   5.699
 4752SOL    HW126287   2.337   3.893   5.667
 4752SOL    HW226288   2.184   3.844   5.642
 4753SOL     OW26289   8.040   0.777   5.084
 4753SOL    HW126290   7.964   0.734   5.132
 4753SOL    HW226291   8.074   0.716   5.013
 4754SOL     OW26292   6.491   7.528   1.008
 4754SOL    HW126293   6.396   7.506   1.029
 4754SOL    HW226294   6.496   7.578   0.921
 4755SOL     OW26295   4.148   7.132   0.552
 4755SOL    HW126296   4.163   7.044   0.508
 4755SOL    HW226297   4.054   7.162   0.536
 4756SOL     OW26298   2.617   5.887   6.082
 4756SOL    HW126299   2.559   5.958   6.041
 4756SOL    HW226300   2.709   5.924   6.096
 4757SOL     OW26301   3.024   0.595   0.700
 4757SOL    HW126302   2.941   0.552   0.664
 4757SOL    HW226303   3.078   0.527   0.751
 4758SOL     OW26304   4.857   7.961   6.028
 4758SOL    HW126305   4.866   8.001   6.120
 4758SOL    HW226306   4.927   8.001   5.968
 4759SOL     OW26307   4.236   4.757   5.926
 4759SOL    HW126308   4.272   4.759   5.832
 4759SOL    HW226309   4.277   4.831   5.979
 4760SOL     OW26310   7.213   3.888   0.841
 4760SOL    HW126311   7.200   3.842   0.929
 4760SOL    HW226312   7.310   3.911   0.829
 4761SOL     OW26313   2.965   6.952   5.540
 4761SOL    HW126314   2.880   6.942   5.591
 4761SOL    HW226315   2.950   7.012   5.461
 4762SOL     OW26316   2.454   7.291   0.476
 4762SOL    HW126317   2.506   7.372   0.448
 4762SOL    HW226318   2.358   7.317   0.491
 4763SOL     OW26319   4.588   5.704   5.994
 4763SOL    HW126320   4.656   5.742   5.931
 4763SOL    HW226321   4.614   5.611   6.019
 4764SOL     OW26322   5.957   4.651   1.082
 4764SOL    HW126323   5.877   4.711   1.086
 4764SOL    HW226324   5.963   4.598   1.166
 4765SOL     OW26325   3.407   3.932   1.547
 4765SOL    HW126326   3.445   4.015   1.507
 4765SOL    HW226327   3.315   3.917   1.511
 4766SOL     OW26328   4.525   1.483   0.991
 4766SOL    HW126329   4.613   1.454   1.029
 4766SOL    HW226330   4.450   1.442   1.043
 4767SOL     OW26331   7.476   6.775   0.097
 4767SOL    HW126332   7.392   6.775   0.042
 4767SOL    HW226333   7.457   6.737   0.187
 4768SOL     OW26334   9.355   7.508   0.486
 4768SOL    HW126335   9.393   7.468   0.569
 4768SOL    HW226336   9.276   7.454   0.456
 4769SOL     OW26337   8.001   0.502   0.395
 4769SOL    HW126338   8.031   0.523   0.302
 4769SOL    HW226339   7.993   0.586   0.447
 4770SOL     OW26340   5.939   2.339   0.131
 4770SOL    HW126341   5.991   2.422   0.152
 4770SOL    HW226342   5.973   2.263   0.186
 4771SOL     OW26343   8.584   1.416   6.136
 4771SOL    HW126344   8.647   1.370   6.199
 4771SOL    HW226345   8.493   1.375   6.144
 4772SOL     OW26346   3.193   6.190   0.790
 4772SOL    HW126347   3.214   6.196   0.693
 4772SOL    HW226348   3.126   6.259   0.814
 4773SOL     OW26349   6.500   6.072   5.280
 4773SOL    HW126350   6.536   6.063   5.188
 4773SOL    HW226351   6.550   6.010   5.341
 4774SOL     OW26352   5.228   1.577   1.197
 4774SOL    HW126353   5.270   1.510   1.259
 4774SOL    HW226354   5.204   1.533   1.111
 4775SOL     OW26355   7.884   4.711   0.198
 4775SOL    HW126356   7.914   4.789   0.143
 4775SOL    HW226357   7.842   4.642   0.138
 4776SOL     OW26358   7.161   0.370   6.395
 4776SOL    HW126359   7.063   0.362   6.373
 4776SOL    HW226360   7.173   0.423   6.478
 4777SOL     OW26361   0.906   2.371   6.694
 4777SOL    HW126362   0.994   2.325   6.683
 4777SOL    HW226363   0.921   2.469   6.707
 4778SOL     OW26364   6.039   6.717   0.014
 4778SOL    HW126365   5.980   6.650   0.060
 4778SOL    HW226366   6.133   6.707   0.047
 4779SOL     OW26367   7.266   5.464   1.149
 4779SOL    HW126368   7.251   5.407   1.230
 4779SOL    HW226369   7.355   5.509   1.155
 4780SOL     OW26370   6.203   4.790   6.042
 4780SOL    HW126371   6.273   4.733   6.084
 4780SOL    HW226372   6.244   4.875   6.009
 4781SOL     OW26373   5.294   7.420   6.056
 4781SOL    HW126374   5.265   7.333   6.016
 4781SOL    HW226375   5.391   7.417   6.077
 4782SOL     OW26376   9.281   5.237   6.520
 4782SOL    HW126377   9.202   5.286   6.558
 4782SOL    HW226378   9.364   5.266   6.567
 4783SOL     OW26379   0.365   4.651   0.763
 4783SOL    HW126380   0.386   4.746   0.786
 4783SOL    HW226381   0.295   4.647   0.692
 4784SOL     OW26382   7.366   8.464   4.695
 4784SOL    HW126383   7.430   8.504   4.760
 4784SOL    HW226384   7.322   8.384   4.736
 4785SOL     OW26385   7.685   4.676   6.311
 4785SOL    HW126386   7.696   4.720   6.400
 4785SOL    HW226387   7.753   4.712   6.247
 4786SOL     OW26388   1.658   6.638   0.548
 4786SOL    HW126389   1.702   6.640   0.458
 4786SOL    HW226390   1.702   6.706   0.607
 4787SOL     OW26391   5.044   6.995   0.362
 4787SOL    HW126392   4.958   6.972   0.407
 4787SOL    HW226393   5.025   7.037   0.273
 4788SOL     OW26394   0.757   4.615   5.242
 4788SOL    HW126395   0.852   4.595   5.263
 4788SOL    HW226396   0.739   4.594   5.145
 4789SOL     OW26397   7.521   5.458   0.066
 4789SOL    HW126398   7.474   5.406  -0.005
 4789SOL    HW226399   7.613   5.483   0.034
 4790SOL     OW26400   1.742   3.446   5.574
 4790SOL    HW126401   1.675   3.399   5.516
 4790SOL    HW226402   1.781   3.381   5.639
 4791SOL     OW26403   8.823   7.983   1.371
 4791SOL    HW126404   8.732   8.024   1.362
 4791SOL    HW226405   8.864   8.012   1.457
 4792SOL     OW26406   1.918   8.441   0.521
 4792SOL    HW126407   2.013   8.446   0.550
 4792SOL    HW226408   1.908   8.377   0.445
 4793SOL     OW26409   7.074   6.477   0.171
 4793SOL    HW126410   7.075   6.383   0.205
 4793SOL    HW226411   7.016   6.482   0.089
 4794SOL     OW26412   3.889   7.083   0.074
 4794SOL    HW126413   3.983   7.099   0.041
 4794SOL    HW226414   3.883   6.993   0.115
 4795SOL     OW26415   2.217   7.172   5.928
 4795SOL    HW126416   2.156   7.190   6.005
 4795SOL    HW226417   2.176   7.208   5.844
 4796SOL     OW26418   7.355   4.576   0.643
 4796SOL    HW126419   7.303   4.650   0.601
 4796SOL    HW226420   7.430   4.550   0.583
 4797SOL     OW26421   7.455   8.014   0.216
 4797SOL    HW126422   7.502   8.085   0.268
 4797SOL    HW226423   7.392   7.965   0.277
 4798SOL     OW26424   1.195   6.390   1.223
 4798SOL    HW126425   1.229   6.484   1.234
 4798SOL    HW226426   1.159   6.379   1.130
 4799SOL     OW26427   6.000   8.439   1.120
 4799SOL    HW126428   5.994   8.383   1.202
 4799SOL    HW226429   6.050   8.523   1.140
 4800SOL     OW26430   6.682   3.135   0.878
 4800SOL    HW126431   6.761   3.150   0.819
 4800SOL    HW226432   6.704   3.066   0.947
 4801SOL     OW26433   4.653   8.403   6.164
 4801SOL    HW126434   4.565   8.434   6.127
 4801SOL    HW226435   4.669   8.309   6.137
 4802SOL     OW26436   7.909   2.911   1.105
 4802SOL    HW126437   7.910   2.821   1.062
 4802SOL    HW226438   7.843   2.912   1.180
 4803SOL     OW26439   1.382   7.661   5.207
 4803SOL    HW126440   1.457   7.618   5.156
 4803SOL    HW226441   1.302   7.670   5.148
 4804SOL     OW26442   4.539   8.399   1.034
 4804SOL    HW126443   4.574   8.492   1.022
 4804SOL    HW226444   4.563   8.366   1.125
 4805SOL     OW26445   2.217   1.759   5.745
 4805SOL    HW126446   2.202   1.857   5.754
 4805SOL    HW226447   2.199   1.732   5.650
 4806SOL     OW26448   9.115   3.747   1.527
 4806SOL    HW126449   9.063   3.830   1.503
 4806SOL    HW226450   9.123   3.740   1.626
 4807SOL     OW26451   5.136   1.842   1.296
 4807SOL    HW126452   5.125   1.861   1.393
 4807SOL    HW226453   5.164   1.746   1.284
 4808SOL     OW26454   3.241   7.912   1.587
 4808SOL    HW126455   3.247   7.902   1.686
 4808SOL    HW226456   3.178   7.843   1.551
 4809SOL     OW26457   0.671   0.390   6.080
 4809SOL    HW126458   0.705   0.331   6.153
 4809SOL    HW226459   0.721   0.477   6.081
 4810SOL     OW26460   2.791   2.204   1.542
 4810SOL    HW126461   2.733   2.141   1.594
 4810SOL    HW226462   2.812   2.164   1.453
 4811SOL     OW26463   0.441   8.373   5.690
 4811SOL    HW126464   0.390   8.415   5.765
 4811SOL    HW226465   0.395   8.289   5.661
 4812SOL     OW26466   5.893   8.329   5.368
 4812SOL    HW126467   5.878   8.409   5.426
 4812SOL    HW226468   5.991   8.319   5.349
 4813SOL     OW26469   0.861   0.915   1.932
 4813SOL    HW126470   0.944   0.939   1.982
 4813SOL    HW226471   0.791   0.985   1.950
 4814SOL     OW26472   5.571   2.800   5.598
 4814SOL    HW126473   5.500   2.856   5.555
 4814SOL    HW226474   5.539   2.706   5.607
 4815SOL     OW26475   4.098   1.053   5.741
 4815SOL    HW126476   4.098   1.147   5.706
 4815SOL    HW226477   4.142   1.051   5.831
 4816SOL     OW26478   2.576   4.821   5.907
 4816SOL    HW126479   2.623   4.867   5.833
 4816SOL    HW226480   2.596   4.723   5.904
 4817SOL     OW26481   0.134   3.925   6.612
 4817SOL    HW126482   0.105   3.832   6.589
 4817SOL    HW226483   0.219   3.921   6.664
 4818SOL     OW26484   0.710   1.288   5.010
 4818SOL    HW126485   0.679   1.376   5.047
 4818SOL    HW226486   0.807   1.295   4.985
 4819SOL     OW26487   6.122   7.203   0.699
 4819SOL    HW126488   6.184   7.281   0.686
 4819SOL    HW226489   6.033   7.225   0.659
 4820SOL     OW26490   0.433   7.329   1.952
 4820SOL    HW126491   0.373   7.408   1.944
 4820SOL    HW226492   0.401   7.270   2.026
 4821SOL     OW26493   0.452   5.762   4.303
 4821SOL    HW126494   0.380   5.764   4.372
 4821SOL    HW226495   0.529   5.709   4.337
 4822SOL     OW26496   5.585   3.512   1.041
 4822SOL    HW126497   5.587   3.607   1.072
 4822SOL    HW226498   5.655   3.459   1.089
 4823SOL     OW26499   2.910   8.414   6.063
 4823SOL    HW126500   2.944   8.475   5.991
 4823SOL    HW226501   2.813   8.431   6.079
 4824SOL     OW26502   7.369   4.455   6.089
 4824SOL    HW126503   7.337   4.549   6.103
 4824SOL    HW226504   7.370   4.434   5.992
 4825SOL     OW26505   8.847   3.629   5.888
 4825SOL    HW126506   8.785   3.655   5.962
 4825SOL    HW226507   8.861   3.707   5.827
 4826SOL     OW26508   5.501   8.495   0.100
 4826SOL    HW126509   5.493   8.396   0.110
 4826SOL    HW226510   5.585   8.526   0.146
 4827SOL     OW26511   8.059   0.189   6.605
 4827SOL    HW126512   8.038   0.151   6.515
 4827SOL    HW226513   8.151   0.163   6.633
 4828SOL     OW26514   6.122   7.804   0.434
 4828SOL    HW126515   6.080   7.760   0.513
 4828SOL    HW226516   6.069   7.784   0.352
 4829SOL     OW26517   0.555   6.455   4.783
 4829SOL    HW126518   0.568   6.385   4.854
 4829SOL    HW226519   0.628   6.449   4.716
 4830SOL     OW26520   0.847   4.284   6.437
 4830SOL    HW126521   0.845   4.341   6.519
 4830SOL    HW226522   0.823   4.339   6.357
 4831SOL     OW26523   6.502   4.260   5.466
 4831SOL    HW126524   6.554   4.344   5.482
 4831SOL    HW226525   6.410   4.270   5.505
 4832SOL     OW26526   6.441   2.650   0.360
 4832SOL    HW126527   6.456   2.647   0.262
 4832SOL    HW226528   6.374   2.721   0.382
 4833SOL     OW26529   0.231   5.385   5.974
 4833SOL    HW126530   0.155   5.450   5.967
 4833SOL    HW226531   0.225   5.318   5.901
 4834SOL     OW26532   1.597   5.774   6.130
 4834SOL    HW126533   1.601   5.839   6.054
 4834SOL    HW226534   1.645   5.690   6.105
 4835SOL     OW26535   7.430   8.057   0.966
 4835SOL    HW126536   7.418   8.146   0.922
 4835SOL    HW226537   7.358   8.043   1.034
 4836SOL     OW26538   4.506   6.521   5.583
 4836SOL    HW126539   4.481   6.467   5.503
 4836SOL    HW226540   4.487   6.618   5.566
 4837SOL     OW26541   1.380   1.893   0.026
 4837SOL    HW126542   1.424   1.831   0.091
 4837SOL    HW226543   1.283   1.901   0.048
 4838SOL     OW26544   3.684   2.819   1.286
 4838SOL    HW126545   3.616   2.752   1.316
 4838SOL    HW226546   3.723   2.790   1.199
 4839SOL     OW26547   2.727   3.405   0.958
 4839SOL    HW126548   2.795   3.447   0.898
 4839SOL    HW226549   2.771   3.336   1.016
 4840SOL     OW26550   6.511   8.254   1.421
 4840SOL    HW126551   6.521   8.155   1.431
 4840SOL    HW226552   6.522   8.297   1.510
 4841SOL     OW26553   4.117   5.137   0.396
 4841SOL    HW126554   4.133   5.096   0.306
 4841SOL    HW226555   4.181   5.096   0.462
 4842SOL     OW26556   8.743   8.230   0.520
 4842SOL    HW126557   8.834   8.192   0.501
 4842SOL    HW226558   8.689   8.231   0.436
 4843SOL     OW26559   6.369   5.381   6.644
 4843SOL    HW126560   6.386   5.468   6.691
 4843SOL    HW226561   6.272   5.357   6.653
 4844SOL     OW26562   3.834   6.761   5.514
 4844SOL    HW126563   3.756   6.803   5.561
 4844SOL    HW226564   3.839   6.664   5.538
 4845SOL     OW26565   5.340   0.999   1.137
 4845SOL    HW126566   5.320   1.075   1.199
 4845SOL    HW226567   5.258   0.975   1.085
 4846SOL     OW26568   2.616   6.405   5.630
 4846SOL    HW126569   2.579   6.482   5.579
 4846SOL    HW226570   2.646   6.334   5.567
 4847SOL     OW26571   7.075   5.072   0.261
 4847SOL    HW126572   6.998   5.021   0.222
 4847SOL    HW226573   7.136   5.101   0.187
 4848SOL     OW26574   2.565   1.782   5.991
 4848SOL    HW126575   2.575   1.690   6.029
 4848SOL    HW226576   2.539   1.777   5.895
 4849SOL     OW26577   0.996   7.559   5.327
 4849SOL    HW126578   0.994   7.653   5.293
 4849SOL    HW226579   1.048   7.502   5.263
 4850SOL     OW26580   6.280   0.893   1.876
 4850SOL    HW126581   6.349   0.932   1.815
 4850SOL    HW226582   6.317   0.811   1.919
 4851SOL     OW26583   4.513   6.820   2.122
 4851SOL    HW126584   4.421   6.785   2.141
 4851SOL    HW226585   4.567   6.749   2.078
 4852SOL     OW26586   8.288   1.683   6.612
 4852SOL    HW126587   8.371   1.714   6.658
 4852SOL    HW226588   8.312   1.635   6.528
 4853SOL     OW26589   9.237   5.347   0.967
 4853SOL    HW126590   9.319   5.339   1.023
 4853SOL    HW226591   9.156   5.336   1.025
 4854SOL     OW26592   6.110   5.947   1.304
 4854SOL    HW126593   6.135   5.945   1.401
 4854SOL    HW226594   6.045   6.022   1.288
 4855SOL     OW26595   7.233   5.776   5.269
 4855SOL    HW126596   7.285   5.735   5.194
 4855SOL    HW226597   7.147   5.726   5.281
 4856SOL     OW26598   5.353   1.570   5.695
 4856SOL    HW126599   5.435   1.529   5.654
 4856SOL    HW226600   5.346   1.666   5.665
 4857SOL     OW26601   1.905   7.631   5.011
 4857SOL    HW126602   1.904   7.592   4.919
 4857SOL    HW226603   1.987   7.601   5.060
 4858SOL     OW26604   9.305   6.574   0.195
 4858SOL    HW126605   9.375   6.619   0.139
 4858SOL    HW226606   9.345   6.548   0.283
 4859SOL     OW26607   6.923   6.405   1.135
 4859SOL    HW126608   6.835   6.397   1.089
 4859SOL    HW226609   6.945   6.320   1.182
 4860SOL     OW26610   9.448   1.054   0.148
 4860SOL    HW126611   9.439   1.029   0.244
 4860SOL    HW226612   9.405   1.143   0.132
 4861SOL     OW26613   0.377   0.002   5.435
 4861SOL    HW126614   0.428  -0.025   5.516
 4861SOL    HW226615   0.438   0.051   5.372
 4862SOL     OW26616   0.608   3.962   5.830
 4862SOL    HW126617   0.522   3.951   5.781
 4862SOL    HW226618   0.685   3.945   5.767
 4863SOL     OW26619   5.092   4.898   6.552
 4863SOL    HW126620   5.013   4.860   6.601
 4863SOL    HW226621   5.117   4.836   6.478
 4864SOL     OW26622   3.076   4.171   0.827
 4864SOL    HW126623   3.020   4.162   0.909
 4864SOL    HW226624   3.124   4.085   0.810
 4865SOL     OW26625   5.139   3.498   0.799
 4865SOL    HW126626   5.117   3.427   0.732
 4865SOL    HW226627   5.201   3.460   0.868
 4866SOL     OW26628   2.525   2.431   6.318
 4866SOL    HW126629   2.565   2.474   6.400
 4866SOL    HW226630   2.510   2.334   6.335
 4867SOL     OW26631   7.082   6.058   6.371
 4867SOL    HW126632   7.101   5.987   6.440
 4867SOL    HW226633   7.020   6.126   6.409
 4868SOL     OW26634   5.020   0.410   0.847
 4868SOL    HW126635   5.062   0.500   0.850
 4868SOL    HW226636   4.990   0.384   0.939
 4869SOL     OW26637   3.618   0.931   4.932
 4869SOL    HW126638   3.709   0.940   4.892
 4869SOL    HW226639   3.550   0.930   4.860
 4870SOL     OW26640   8.567   7.676   1.198
 4870SOL    HW126641   8.477   7.632   1.197
 4870SOL    HW226642   8.638   7.608   1.215
 4871SOL     OW26643   7.435   4.248   1.348
 4871SOL    HW126644   7.446   4.204   1.437
 4871SOL    HW226645   7.359   4.313   1.352
 4872SOL     OW26646   3.092   7.173   1.436
 4872SOL    HW126647   3.107   7.247   1.502
 4872SOL    HW226648   3.127   7.201   1.346
 4873SOL     OW26649   7.865   5.284   5.477
 4873SOL    HW126650   7.872   5.284   5.577
 4873SOL    HW226651   7.789   5.343   5.448
 4874SOL     OW26652   4.556   0.799   1.187
 4874SOL    HW126653   4.501   0.836   1.262
 4874SOL    HW226654   4.515   0.824   1.100
 4875SOL     OW26655   8.443   3.431   6.445
 4875SOL    HW126656   8.419   3.527   6.461
 4875SOL    HW226657   8.405   3.403   6.356
 4876SOL     OW26658   3.165   4.294   6.592
 4876SOL    HW126659   3.217   4.230   6.648
 4876SOL    HW226660   3.080   4.252   6.563
 4877SOL     OW26661   2.317   5.287   6.149
 4877SOL    HW126662   2.383   5.228   6.103
 4877SOL    HW226663   2.227   5.243   6.148
 4878SOL     OW26664   4.392   8.429   0.352
 4878SOL    HW126665   4.301   8.389   0.368
 4878SOL    HW226666   4.397   8.518   0.396
 4879SOL     OW26667   1.852   0.068   1.035
 4879SOL    HW126668   1.927   0.007   1.010
 4879SOL    HW226669   1.836   0.063   1.134
 4880SOL     OW26670   4.841   1.672   5.252
 4880SOL    HW126671   4.889   1.760   5.246
 4880SOL    HW226672   4.790   1.656   5.167
 4881SOL     OW26673   6.894   8.270   6.086
 4881SOL    HW126674   6.990   8.242   6.090
 4881SOL    HW226675   6.877   8.339   6.156
 4882SOL     OW26676   9.277   2.179   5.074
 4882SOL    HW126677   9.177   2.170   5.068
 4882SOL    HW226678   9.309   2.242   5.004
 4883SOL     OW26679   3.571   2.714   1.039
 4883SOL    HW126680   3.536   2.626   1.009
 4883SOL    HW226681   3.496   2.769   1.075
 4884SOL     OW26682   6.416   2.485   0.093
 4884SOL    HW126683   6.475   2.498   0.013
 4884SOL    HW226684   6.471   2.456   0.171
 4885SOL     OW26685   3.953   7.806   5.701
 4885SOL    HW126686   4.037   7.861   5.697
 4885SOL    HW226687   3.886   7.853   5.759
 4886SOL     OW26688   2.759   6.662   6.680
 4886SOL    HW126689   2.745   6.727   6.755
 4886SOL    HW226690   2.837   6.693   6.625
 4887SOL     OW26691   8.457   4.572   6.612
 4887SOL    HW126692   8.451   4.645   6.544
 4887SOL    HW226693   8.365   4.538   6.632
 4888SOL     OW26694   1.544   7.340   6.289
 4888SOL    HW126695   1.634   7.319   6.327
 4888SOL    HW226696   1.554   7.395   6.206
 4889SOL     OW26697   1.768   4.738   0.652
 4889SOL    HW126698   1.787   4.641   0.636
 4889SOL    HW226699   1.804   4.792   0.576
 4890SOL     OW26700   3.883   8.118   0.966
 4890SOL    HW126701   3.897   8.088   0.871
 4890SOL    HW226702   3.868   8.038   1.024
 4891SOL     OW26703   8.070   0.326   5.540
 4891SOL    HW126704   8.137   0.399   5.554
 4891SOL    HW226705   8.076   0.260   5.616
 4892SOL     OW26706   3.143   8.249   1.798
 4892SOL    HW126707   3.111   8.321   1.860
 4892SOL    HW226708   3.198   8.182   1.849
 4893SOL     OW26709   4.744   0.304   6.090
 4893SOL    HW126710   4.650   0.295   6.056
 4893SOL    HW226711   4.745   0.364   6.170
 4894SOL     OW26712   6.645   6.671   0.872
 4894SOL    HW126713   6.586   6.610   0.925
 4894SOL    HW226714   6.593   6.750   0.842
 4895SOL     OW26715   4.134   6.574   1.414
 4895SOL    HW126716   4.210   6.513   1.435
 4895SOL    HW226717   4.167   6.648   1.355
 4896SOL     OW26718   1.583   5.446   0.951
 4896SOL    HW126719   1.526   5.417   1.028
 4896SOL    HW226720   1.542   5.414   0.866
 4897SOL     OW26721   3.787   0.637   0.777
 4897SOL    HW126722   3.879   0.634   0.737
 4897SOL    HW226723   3.734   0.710   0.733
 4898SOL     OW26724   0.986   0.957   5.299
 4898SOL    HW126725   0.916   1.028   5.310
 4898SOL    HW226726   1.049   0.983   5.226
 4899SOL     OW26727   8.987   8.322   6.340
 4899SOL    HW126728   8.979   8.224   6.355
 4899SOL    HW226729   8.955   8.371   6.421
 4900SOL     OW26730   1.350   5.792   0.846
 4900SOL    HW126731   1.288   5.839   0.909
 4900SOL    HW226732   1.372   5.702   0.884
 4901SOL     OW26733   9.264   3.652   6.404
 4901SOL    HW126734   9.241   3.748   6.418
 4901SOL    HW226735   9.197   3.610   6.342
 4902SOL     OW26736   6.471   2.082   1.293
 4902SOL    HW126737   6.520   1.996   1.276
 4902SOL    HW226738   6.402   2.096   1.221
 4903SOL     OW26739   0.503   2.470   6.096
 4903SOL    HW126740   0.437   2.447   6.024
 4903SOL    HW226741   0.459   2.530   6.163
 4904SOL     OW26742   7.769   1.400   1.130
 4904SOL    HW126743   7.713   1.382   1.210
 4904SOL    HW226744   7.776   1.317   1.075
 4905SOL     OW26745   9.416   0.700   0.569
 4905SOL    HW126746   9.461   0.786   0.591
 4905SOL    HW226747   9.479   0.641   0.519
 4906SOL     OW26748   3.011   6.178   5.807
 4906SOL    HW126749   3.036   6.186   5.710
 4906SOL    HW226750   2.916   6.207   5.819
 4907SOL     OW26751   1.904   6.616   1.671
 4907SOL    HW126752   1.986   6.671   1.689
 4907SOL    HW226753   1.918   6.524   1.708
 4908SOL     OW26754   3.914   4.319   6.291
 4908SOL    HW126755   3.938   4.289   6.199
 4908SOL    HW226756   3.896   4.418   6.291
 4909SOL     OW26757   7.951   8.333   5.747
 4909SOL    HW126758   7.980   8.317   5.653
 4909SOL    HW226759   7.902   8.420   5.753
 4910SOL     OW26760   4.687   1.422   5.783
 4910SOL    HW126761   4.623   1.454   5.853
 4910SOL    HW226762   4.637   1.377   5.710
 4911SOL     OW26763   3.890   0.578   5.236
 4911SOL    HW126764   3.813   0.641   5.233
 4911SOL    HW226765   3.958   0.604   5.167
 4912SOL     OW26766   6.748   4.542   0.611
 4912SOL    HW126767   6.784   4.481   0.540
 4912SOL    HW226768   6.671   4.498   0.657
 4913SOL     OW26769   8.881   0.560   5.993
 4913SOL    HW126770   8.896   0.655   5.969
 4913SOL    HW226771   8.965   0.521   6.032
 4914SOL     OW26772   3.630   1.181   5.105
 4914SOL    HW126773   3.598   1.271   5.076
 4914SOL    HW226774   3.602   1.113   5.038
 4915SOL     OW26775   7.634   0.613   0.203
 4915SOL    HW126776   7.706   0.554   0.169
 4915SOL    HW226777   7.618   0.593   0.300
 4916SOL     OW26778   2.258   1.274   0.117
 4916SOL    HW126779   2.310   1.344   0.069
 4916SOL    HW226780   2.309   1.245   0.199
 4917SOL     OW26781   7.471   7.278   6.523
 4917SOL    HW126782   7.513   7.249   6.609
 4917SOL    HW226783   7.405   7.209   6.494
 4918SOL     OW26784   1.585   7.522   5.053
 4918SOL    HW126785   1.673   7.475   5.060
 4918SOL    HW226786   1.576   7.562   4.961
 4919SOL     OW26787   8.285   4.830   5.156
 4919SOL    HW126788   8.267   4.823   5.058
 4919SOL    HW226789   8.316   4.922   5.178
 4920SOL     OW26790   4.805   6.901   0.673
 4920SOL    HW126791   4.796   6.860   0.582
 4920SOL    HW226792   4.721   6.885   0.725
 4921SOL     OW26793   7.407   6.751   5.868
 4921SOL    HW126794   7.391   6.738   5.770
 4921SOL    HW226795   7.328   6.718   5.919
 4922SOL     OW26796   0.615   5.748   5.572
 4922SOL    HW126797   0.586   5.709   5.484
 4922SOL    HW226798   0.588   5.844   5.576
 4923SOL     OW26799   3.906   4.716   0.881
 4923SOL    HW126800   3.900   4.666   0.967
 4923SOL    HW226801   3.970   4.792   0.890
 4924SOL     OW26802   3.845   0.764   5.540
 4924SOL    HW126803   3.818   0.734   5.448
 4924SOL    HW226804   3.801   0.852   5.560
 4925SOL     OW26805   8.098   7.147   5.701
 4925SOL    HW126806   8.139   7.145   5.792
 4925SOL    HW226807   8.126   7.231   5.654
 4926SOL     OW26808   1.720   1.172   4.862
 4926SOL    HW126809   1.752   1.077   4.867
 4926SOL    HW226810   1.795   1.231   4.832
 4927SOL     OW26811   9.432   3.031   6.685
 4927SOL    HW126812   9.398   2.938   6.672
 4927SOL    HW226813   9.532   3.032   6.678
 4928SOL     OW26814   4.241   0.399   1.881
 4928SOL    HW126815   4.249   0.490   1.840
 4928SOL    HW226816   4.235   0.407   1.980
 4929SOL     OW26817   0.028   0.077   6.536
 4929SOL    HW126818   0.051   0.144   6.466
 4929SOL    HW226819   0.015  -0.013   6.493
 4930SOL     OW26820   7.776   5.163   6.030
 4930SOL    HW126821   7.766   5.248   5.977
 4930SOL    HW226822   7.864   5.121   6.009
 4931SOL     OW26823   1.632   2.187   6.640
 4931SOL    HW126824   1.588   2.272   6.668
 4931SOL    HW226825   1.575   2.141   6.571
 4932SOL     OW26826   7.092   8.332   6.638
 4932SOL    HW126827   7.128   8.241   6.621
 4932SOL    HW226828   6.992   8.331   6.629
 4933SOL     OW26829   6.372   2.171   0.238
 4933SOL    HW126830   6.367   2.072   0.244
 4933SOL    HW226831   6.468   2.200   0.239
 4934SOL     OW26832   8.405   2.734   0.669
 4934SOL    HW126833   8.382   2.814   0.724
 4934SOL    HW226834   8.478   2.683   0.714
 4935SOL     OW26835   4.000   7.285   1.538
 4935SOL    HW126836   4.078   7.223   1.547
 4935SOL    HW226837   3.978   7.324   1.628
 4936SOL     OW26838   9.025   8.448   5.707
 4936SOL    HW126839   8.996   8.535   5.669
 4936SOL    HW226840   8.979   8.433   5.795
 4937SOL     OW26841   4.793   3.766   0.459
 4937SOL    HW126842   4.841   3.802   0.539
 4937SOL    HW226843   4.814   3.668   0.448
 4938SOL     OW26844   2.158   4.671   0.685
 4938SOL    HW126845   2.096   4.622   0.745
 4938SOL    HW226846   2.129   4.658   0.590
 4939SOL     OW26847   6.421   5.447   5.362
 4939SOL    HW126848   6.457   5.540   5.371
 4939SOL    HW226849   6.340   5.449   5.303
 4940SOL     OW26850   0.493   7.110   1.753
 4940SOL    HW126851   0.543   7.032   1.790
 4940SOL    HW226852   0.495   7.185   1.818
 4941SOL     OW26853   8.851   2.082   0.419
 4941SOL    HW126854   8.848   2.118   0.326
 4941SOL    HW226855   8.905   2.143   0.477
 4942SOL     OW26856   7.277   4.760   6.323
 4942SOL    HW126857   7.197   4.748   6.264
 4942SOL    HW226858   7.273   4.694   6.398
 4943SOL     OW26859   6.442   0.643   1.116
 4943SOL    HW126860   6.462   0.578   1.043
 4943SOL    HW226861   6.502   0.625   1.194
 4944SOL     OW26862   6.760   6.925   0.735
 4944SOL    HW126863   6.661   6.931   0.748
 4944SOL    HW226864   6.789   6.993   0.668
 4945SOL     OW26865   1.405   8.337   0.802
 4945SOL    HW126866   1.474   8.364   0.734
 4945SOL    HW226867   1.444   8.345   0.894
 4946SOL     OW26868   3.899   4.185   1.594
 4946SOL    HW126869   3.823   4.181   1.659
 4946SOL    HW226870   3.985   4.199   1.644
 4947SOL     OW26871   6.958   2.874   0.028
 4947SOL    HW126872   7.056   2.861   0.040
 4947SOL    HW226873   6.930   2.961   0.068
 4948SOL     OW26874   6.792   1.363   0.023
 4948SOL    HW126875   6.802   1.425  -0.055
 4948SOL    HW226876   6.771   1.271  -0.009
 4949SOL     OW26877   8.333   6.025   0.912
 4949SOL    HW126878   8.407   5.992   0.854
 4949SOL    HW226879   8.367   6.098   0.971
 4950SOL     OW26880   5.829   2.807   5.496
 4950SOL    HW126881   5.817   2.738   5.425
 4950SOL    HW226882   5.746   2.814   5.551
 4951SOL     OW26883   3.077   5.623   0.935
 4951SOL    HW126884   3.042   5.709   0.971
 4951SOL    HW226885   3.125   5.573   1.007
 4952SOL     OW26886   2.421   6.668   0.805
 4952SOL    HW126887   2.496   6.724   0.840
 4952SOL    HW226888   2.458   6.581   0.770
 4953SOL     OW26889   1.250   1.142   1.060
 4953SOL    HW126890   1.253   1.183   1.152
 4953SOL    HW226891   1.201   1.056   1.064
 4954SOL     OW26892   0.402   6.055   1.165
 4954SOL    HW126893   0.455   6.083   1.246
 4954SOL    HW226894   0.313   6.022   1.193
 4955SOL     OW26895   3.494   3.822   0.386
 4955SOL    HW126896   3.493   3.919   0.412
 4955SOL    HW226897   3.553   3.811   0.306
 4956SOL     OW26898   0.047   6.085   5.753
 4956SOL    HW126899  -0.043   6.120   5.780
 4956SOL    HW226900   0.043   5.986   5.744
 4957SOL     OW26901   5.992   1.539   5.613
 4957SOL    HW126902   5.938   1.587   5.545
 4957SOL    HW226903   5.984   1.440   5.599
 4958SOL     OW26904   4.215   3.332   5.413
 4958SOL    HW126905   4.286   3.266   5.388
 4958SOL    HW226906   4.166   3.360   5.330
 4959SOL     OW26907   4.023   1.981   5.684
 4959SOL    HW126908   4.072   1.921   5.621
 4959SOL    HW226909   4.087   2.017   5.752
 4960SOL     OW26910   7.826   6.661   0.619
 4960SOL    HW126911   7.867   6.575   0.591
 4960SOL    HW226912   7.785   6.651   0.710
 4961SOL     OW26913   6.564   2.650   1.795
 4961SOL    HW126914   6.563   2.604   1.883
 4961SOL    HW226915   6.653   2.693   1.781
 4962SOL     OW26916   4.555   6.496   5.872
 4962SOL    HW126917   4.543   6.530   5.778
 4962SOL    HW226918   4.489   6.423   5.889
 4963SOL     OW26919   2.702   7.237   5.624
 4963SOL    HW126920   2.744   7.325   5.599
 4963SOL    HW226921   2.630   7.253   5.691
 4964SOL     OW26922   6.268   0.483   0.467
 4964SOL    HW126923   6.175   0.485   0.504
 4964SOL    HW226924   6.326   0.547   0.519
 4965SOL     OW26925   1.412   4.002   1.149
 4965SOL    HW126926   1.431   3.963   1.239
 4965SOL    HW226927   1.321   3.973   1.119
 4966SOL     OW26928   1.006   6.831   0.861
 4966SOL    HW126929   0.957   6.811   0.945
 4966SOL    HW226930   1.101   6.854   0.882
 4967SOL     OW26931   1.675   5.018   5.680
 4967SOL    HW126932   1.609   5.029   5.606
 4967SOL    HW226933   1.765   4.996   5.641
 4968SOL     OW26934   8.971   6.381   0.201
 4968SOL    HW126935   8.996   6.476   0.220
 4968SOL    HW226936   8.909   6.347   0.271
 4969SOL     OW26937   7.392   4.320   6.328
 4969SOL    HW126938   7.392   4.383   6.250
 4969SOL    HW226939   7.405   4.226   6.295
 4970SOL     OW26940   4.063   6.783   5.679
 4970SOL    HW126941   4.113   6.710   5.633
 4970SOL    HW226942   3.973   6.794   5.637
 4971SOL     OW26943   4.920   5.283   1.228
 4971SOL    HW126944   4.988   5.339   1.181
 4971SOL    HW226945   4.861   5.238   1.161
 4972SOL     OW26946   8.274   5.609   0.678
 4972SOL    HW126947   8.352   5.549   0.655
 4972SOL    HW226948   8.207   5.605   0.605
 4973SOL     OW26949   3.411   4.212   1.617
 4973SOL    HW126950   3.463   4.290   1.582
 4973SOL    HW226951   3.314   4.226   1.599
 4974SOL     OW26952   4.720   5.745   0.547
 4974SOL    HW126953   4.721   5.817   0.617
 4974SOL    HW226954   4.737   5.785   0.457
 4975SOL     OW26955   3.035   4.824   5.609
 4975SOL    HW126956   3.104   4.752   5.603
 4975SOL    HW226957   3.062   4.900   5.549
 4976SOL     OW26958   0.307   6.530   5.342
 4976SOL    HW126959   0.339   6.441   5.374
 4976SOL    HW226960   0.211   6.542   5.365
 4977SOL     OW26961   8.921   2.940   5.530
 4977SOL    HW126962   8.984   2.919   5.604
 4977SOL    HW226963   8.866   3.020   5.553
 4978SOL     OW26964   8.564   7.389   5.023
 4978SOL    HW126965   8.578   7.291   5.006
 4978SOL    HW226966   8.593   7.441   4.943
 4979SOL     OW26967   8.772   0.420   0.436
 4979SOL    HW126968   8.833   0.470   0.497
 4979SOL    HW226969   8.782   0.455   0.343
 4980SOL     OW26970   3.329   2.324   1.124
 4980SOL    HW126971   3.395   2.298   1.194
 4980SOL    HW226972   3.243   2.352   1.168
 4981SOL     OW26973   9.422   3.654   0.139
 4981SOL    HW126974   9.354   3.580   0.139
 4981SOL    HW226975   9.511   3.616   0.111
 4982SOL     OW26976   6.569   4.751   6.002
 4982SOL    HW126977   6.635   4.826   6.001
 4982SOL    HW226978   6.513   4.754   5.919
 4983SOL     OW26979   0.638   7.857   0.547
 4983SOL    HW126980   0.672   7.782   0.605
 4983SOL    HW226981   0.707   7.879   0.478
 4984SOL     OW26982   5.059   8.457   6.497
 4984SOL    HW126983   4.966   8.435   6.465
 4984SOL    HW226984   5.086   8.546   6.460
 4985SOL     OW26985   7.451   8.298   6.134
 4985SOL    HW126986   7.506   8.223   6.170
 4985SOL    HW226987   7.510   8.363   6.086
 4986SOL     OW26988   0.766   0.292   6.337
 4986SOL    HW126989   0.741   0.231   6.413
 4986SOL    HW226990   0.843   0.349   6.364
 4987SOL     OW26991   5.673   0.266   0.585
 4987SOL    HW126992   5.681   0.166   0.582
 4987SOL    HW226993   5.655   0.301   0.492
 4988SOL     OW26994   5.331   0.390   6.481
 4988SOL    HW126995   5.291   0.470   6.526
 4988SOL    HW226996   5.353   0.412   6.386
 4989SOL     OW26997   2.798   6.755   0.624
 4989SOL    HW126998   2.838   6.845   0.612
 4989SOL    HW226999   2.868   6.685   0.609
 4990SOL     OW27000   5.629   1.455   0.682
 4990SOL    HW127001   5.634   1.488   0.776
 4990SOL    HW227002   5.709   1.398   0.662
 4991SOL     OW27003   4.736   0.500   6.250
 4991SOL    HW127004   4.672   0.555   6.303
 4991SOL    HW227005   4.819   0.553   6.231
 4992SOL     OW27006   7.522   8.059   5.865
 4992SOL    HW127007   7.457   8.097   5.800
 4992SOL    HW227008   7.615   8.087   5.840
 4993SOL     OW27009   0.470   2.141   0.208
 4993SOL    HW127010   0.423   2.110   0.125
 4993SOL    HW227011   0.550   2.195   0.182
 4994SOL     OW27012   1.939   0.443   1.401
 4994SOL    HW127013   1.864   0.403   1.453
 4994SOL    HW227014   1.927   0.425   1.304
 4995SOL     OW27015   1.837   3.446   0.959
 4995SOL    HW127016   1.823   3.364   1.014
 4995SOL    HW227017   1.919   3.435   0.903
 4996SOL     OW27018   6.759   1.528   1.588
 4996SOL    HW127019   6.798   1.605   1.538
 4996SOL    HW227020   6.715   1.563   1.672
 4997SOL     OW27021   6.095   7.598   5.835
 4997SOL    HW127022   6.024   7.596   5.905
 4997SOL    HW227023   6.072   7.533   5.762
 4998SOL     OW27024   1.736   7.539   0.594
 4998SOL    HW127025   1.695   7.620   0.638
 4998SOL    HW227026   1.832   7.557   0.574
 4999SOL     OW27027   2.280   0.477   5.528
 4999SOL    HW127028   2.281   0.430   5.440
 4999SOL    HW227029   2.327   0.422   5.597
 5000SOL     OW27030   3.328   4.382   5.876
 5000SOL    HW127031   3.352   4.285   5.887
 5000SOL    HW227032   3.229   4.389   5.861
 5001SOL     OW27033   4.395   4.241   6.604
 5001SOL    HW127034   4.457   4.313   6.635
 5001SOL    HW227035   4.313   4.282   6.564
 5002SOL     OW27036   1.275   0.067   0.559
 5002SOL    HW127037   1.365   0.106   0.582
 5002SOL    HW227038   1.228   0.042   0.644
 5003SOL     OW27039   3.972   1.071   1.931
 5003SOL    HW127040   3.910   0.995   1.949
 5003SOL    HW227041   3.922   1.145   1.886
 5004SOL     OW27042   0.426   4.166   0.703
 5004SOL    HW127043   0.358   4.105   0.662
 5004SOL    HW227044   0.493   4.193   0.633
 5005SOL     OW27045   5.848   1.638   0.595
 5005SOL    HW127046   5.749   1.628   0.605
 5005SOL    HW227047   5.875   1.730   0.624
 5006SOL     OW27048   6.501   3.787   0.859
 5006SOL    HW127049   6.531   3.868   0.909
 5006SOL    HW227050   6.473   3.814   0.767
 5007SOL     OW27051   7.189   8.225   6.205
 5007SOL    HW127052   7.282   8.253   6.181
 5007SOL    HW227053   7.154   8.286   6.276
 5008SOL     OW27054   6.293   1.774   6.346
 5008SOL    HW127055   6.202   1.737   6.328
 5008SOL    HW227056   6.285   1.866   6.385
 5009SOL     OW27057   4.709   7.998   0.297
 5009SOL    HW127058   4.610   7.984   0.292
 5009SOL    HW227059   4.750   7.977   0.208
 5010SOL     OW27060   5.959   4.438   0.880
 5010SOL    HW127061   5.967   4.497   0.960
 5010SOL    HW227062   5.889   4.369   0.896
 5011SOL     OW27063   8.821   5.296   6.396
 5011SOL    HW127064   8.819   5.388   6.357
 5011SOL    HW227065   8.872   5.235   6.335
 5012SOL     OW27066   9.366   3.915   0.192
 5012SOL    HW127067   9.439   3.979   0.168
 5012SOL    HW227068   9.396   3.822   0.172
 5013SOL     OW27069   9.292   4.075   0.688
 5013SOL    HW127070   9.217   4.043   0.630
 5013SOL    HW227071   9.310   4.171   0.667
 5014SOL     OW27072   2.658   1.125   1.527
 5014SOL    HW127073   2.743   1.178   1.534
 5014SOL    HW227074   2.680   1.030   1.505
 5015SOL     OW27075   6.220   6.228   1.192
 5015SOL    HW127076   6.225   6.328   1.186
 5015SOL    HW227077   6.230   6.200   1.288
 5016SOL     OW27078   7.195   6.075   0.204
 5016SOL    HW127079   7.178   5.988   0.250
 5016SOL    HW227080   7.293   6.093   0.200
 5017SOL     OW27081   1.682   3.932   0.745
 5017SOL    HW127082   1.699   3.834   0.756
 5017SOL    HW227083   1.632   3.966   0.824
 5018SOL     OW27084   6.729   2.998   6.344
 5018SOL    HW127085   6.694   3.058   6.416
 5018SOL    HW227086   6.761   2.912   6.384
 5019SOL     OW27087   3.978   6.040   6.665
 5019SOL    HW127088   3.948   5.945   6.656
 5019SOL    HW227089   4.073   6.048   6.636
 5020SOL     OW27090   3.218   7.180   0.068
 5020SOL    HW127091   3.291   7.199   0.002
 5020SOL    HW227092   3.162   7.105   0.034
 5021SOL     OW27093   4.155   5.871   0.604
 5021SOL    HW127094   4.192   5.944   0.661
 5021SOL    HW227095   4.188   5.783   0.636
 5022SOL     OW27096   3.090   1.476   6.353
 5022SOL    HW127097   3.128   1.390   6.386
 5022SOL    HW227098   3.134   1.552   6.401
 5023SOL     OW27099   3.744   1.811   0.170
 5023SOL    HW127100   3.735   1.718   0.132
 5023SOL    HW227101   3.688   1.874   0.116
 5024SOL     OW27102   2.668   5.453   0.878
 5024SOL    HW127103   2.608   5.374   0.869
 5024SOL    HW227104   2.737   5.435   0.948
 5025SOL     OW27105   0.626   1.854   6.566
 5025SOL    HW127106   0.527   1.842   6.570
 5025SOL    HW227107   0.661   1.822   6.478
 5026SOL     OW27108   0.736   2.594   0.315
 5026SOL    HW127109   0.819   2.647   0.328
 5026SOL    HW227110   0.742   2.508   0.365
 5027SOL     OW27111   2.642   7.548   0.661
 5027SOL    HW127112   2.558   7.506   0.696
 5027SOL    HW227113   2.713   7.545   0.732
 5028SOL     OW27114   2.386   1.699   5.358
 5028SOL    HW127115   2.379   1.603   5.331
 5028SOL    HW227116   2.314   1.752   5.313
 5029SOL     OW27117   6.895   7.442   0.507
 5029SOL    HW127118   6.962   7.516   0.501
 5029SOL    HW227119   6.839   7.441   0.424
 5030SOL     OW27120   6.153   6.760   0.737
 5030SOL    HW127121   6.173   6.667   0.705
 5030SOL    HW227122   6.145   6.821   0.658
 5031SOL     OW27123   0.304   7.514   5.929
 5031SOL    HW127124   0.366   7.586   5.960
 5031SOL    HW227125   0.346   7.424   5.947
 5032SOL     OW27126   1.938   5.578   5.086
 5032SOL    HW127127   1.874   5.502   5.075
 5032SOL    HW227128   1.948   5.626   4.999
 5033SOL     OW27129   4.410   2.223   0.420
 5033SOL    HW127130   4.372   2.144   0.469
 5033SOL    HW227131   4.352   2.244   0.341
 5034SOL     OW27132   7.185   4.382   0.770
 5034SOL    HW127133   7.123   4.423   0.837
 5034SOL    HW227134   7.222   4.453   0.710
 5035SOL     OW27135   4.704   3.894   0.232
 5035SOL    HW127136   4.735   3.859   0.320
 5035SOL    HW227137   4.658   3.982   0.246
 5036SOL     OW27138   2.189   7.657   0.711
 5036SOL    HW127139   2.139   7.675   0.627
 5036SOL    HW227140   2.159   7.720   0.783
 5037SOL     OW27141   3.703   0.580   6.716
 5037SOL    HW127142   3.782   0.521   6.701
 5037SOL    HW227143   3.624   0.541   6.667
 5038SOL     OW27144   0.291   8.436   0.707
 5038SOL    HW127145   0.283   8.341   0.675
 5038SOL    HW227146   0.256   8.497   0.636
 5039SOL     OW27147   5.045   1.776   0.228
 5039SOL    HW127148   5.007   1.864   0.201
 5039SOL    HW227149   5.040   1.766   0.328
 5040SOL     OW27150   7.072   3.307   6.287
 5040SOL    HW127151   7.144   3.378   6.283
 5040SOL    HW227152   6.990   3.341   6.240
 5041SOL     OW27153   4.958   5.571   0.515
 5041SOL    HW127154   4.998   5.603   0.601
 5041SOL    HW227155   4.875   5.624   0.495
 5042SOL     OW27156   9.156   7.140   1.162
 5042SOL    HW127157   9.083   7.104   1.221
 5042SOL    HW227158   9.206   7.211   1.211
 5043SOL     OW27159   4.460   3.691   0.217
 5043SOL    HW127160   4.401   3.642   0.154
 5043SOL    HW227161   4.532   3.738   0.166
 5044SOL     OW27162   7.519   7.153   0.767
 5044SOL    HW127163   7.588   7.204   0.818
 5044SOL    HW227164   7.442   7.213   0.747
 5045SOL     OW27165   6.026   5.126   0.707
 5045SOL    HW127166   6.042   5.176   0.621
 5045SOL    HW227167   6.109   5.128   0.762
 5046SOL     OW27168   0.110   6.082   4.568
 5046SOL    HW127169   0.118   6.110   4.664
 5046SOL    HW227170   0.077   6.160   4.514
 5047SOL     OW27171   5.036   0.061   1.111
 5047SOL    HW127172   5.124   0.103   1.090
 5047SOL    HW227173   5.030  -0.029   1.067
 5048SOL     OW27174   9.315   4.735   0.320
 5048SOL    HW127175   9.281   4.644   0.295
 5048SOL    HW227176   9.399   4.755   0.270
 5049SOL     OW27177   4.275   4.031   0.924
 5049SOL    HW127178   4.304   4.116   0.880
 5049SOL    HW227179   4.178   4.038   0.949
 5050SOL     OW27180   5.814   7.822   0.543
 5050SOL    HW127181   5.771   7.911   0.524
 5050SOL    HW227182   5.753   7.749   0.516
 5051SOL     OW27183   3.981   7.176   5.141
 5051SOL    HW127184   3.912   7.120   5.095
 5051SOL    HW227185   4.059   7.191   5.080
 5052SOL     OW27186   4.249   6.077   0.750
 5052SOL    HW127187   4.264   6.137   0.829
 5052SOL    HW227188   4.267   6.128   0.666
 5053SOL     OW27189   8.917   1.543   0.668
 5053SOL    HW127190   8.920   1.469   0.736
 5053SOL    HW227191   9.004   1.591   0.668
 5054SOL     OW27192   7.484   7.841   0.764
 5054SOL    HW127193   7.473   7.920   0.824
 5054SOL    HW227194   7.410   7.775   0.783
 5055SOL     OW27195   1.952   0.010   5.606
 5055SOL    HW127196   2.020   0.079   5.630
 5055SOL    HW227197   1.883   0.050   5.546
 5056SOL     OW27198   0.430   3.235   5.241
 5056SOL    HW127199   0.523   3.270   5.249
 5056SOL    HW227200   0.417   3.193   5.152
 5057SOL     OW27201   0.794   8.029   0.011
 5057SOL    HW127202   0.797   7.932  -0.011
 5057SOL    HW227203   0.766   8.041   0.107
 5058SOL     OW27204   0.081   3.405   0.081
 5058SOL    HW127205   0.148   3.433   0.150
 5058SOL    HW227206   0.015   3.342   0.123
 5059SOL     OW27207   1.505   0.618   6.648
 5059SOL    HW127208   1.459   0.687   6.591
 5059SOL    HW227209   1.441   0.587   6.719
 5060SOL     OW27210   3.669   1.261   1.400
 5060SOL    HW127211   3.765   1.232   1.394
 5060SOL    HW227212   3.664   1.353   1.437
 5061SOL     OW27213   0.949   3.496   0.343
 5061SOL    HW127214   0.914   3.432   0.274
 5061SOL    HW227215   1.046   3.512   0.326
 5062SOL     OW27216   7.310   8.089   6.691
 5062SOL    HW127217   7.367   8.049   6.763
 5062SOL    HW227218   7.272   8.015   6.635
 5063SOL     OW27219   2.478   7.591   6.367
 5063SOL    HW127220   2.472   7.561   6.463
 5063SOL    HW227221   2.491   7.511   6.309
 5064SOL     OW27222   4.484   3.307   0.333
 5064SOL    HW127223   4.526   3.367   0.265
 5064SOL    HW227224   4.547   3.233   0.356
 5065SOL     OW27225   4.256   8.090   0.575
 5065SOL    HW127226   4.263   7.990   0.579
 5065SOL    HW227227   4.287   8.129   0.662
 5066SOL     OW27228   1.577   5.963   5.903
 5066SOL    HW127229   1.501   6.026   5.892
 5066SOL    HW227230   1.570   5.891   5.834
 5067SOL     OW27231   2.487   3.276   0.801
 5067SOL    HW127232   2.569   3.315   0.844
 5067SOL    HW227233   2.423   3.349   0.780
 5068SOL     OW27234   1.372   4.465   0.676
 5068SOL    HW127235   1.310   4.466   0.598
 5068SOL    HW227236   1.463   4.436   0.646
 5069SOL     OW27237   1.111   2.605   4.447
 5069SOL    HW127238   1.205   2.625   4.474
 5069SOL    HW227239   1.112   2.549   4.364
 5070SOL     OW27240   3.656   7.875   1.252
 5070SOL    HW127241   3.718   7.945   1.218
 5070SOL    HW227242   3.578   7.918   1.297
 5071SOL     OW27243   9.344   8.191   5.092
 5071SOL    HW127244   9.403   8.163   5.016
 5071SOL    HW227245   9.306   8.281   5.073
 5072SOL     OW27246   7.398   5.222   0.985
 5072SOL    HW127247   7.355   5.259   1.067
 5072SOL    HW227248   7.490   5.188   1.008
 5073SOL     OW27249   5.042   4.656   1.078
 5073SOL    HW127250   5.077   4.655   1.172
 5073SOL    HW227251   5.110   4.615   1.017
 5074SOL     OW27252   5.066   0.745   5.590
 5074SOL    HW127253   5.040   0.778   5.499
 5074SOL    HW227254   5.114   0.657   5.580
 5075SOL     OW27255   5.819   1.900   5.459
 5075SOL    HW127256   5.749   1.956   5.415
 5075SOL    HW227257   5.825   1.811   5.412
 5076SOL     OW27258   2.060   5.850   6.563
 5076SOL    HW127259   2.148   5.892   6.540
 5076SOL    HW227260   2.064   5.813   6.656
 5077SOL     OW27261   6.280   4.701   5.458
 5077SOL    HW127262   6.227   4.706   5.542
 5077SOL    HW227263   6.218   4.703   5.379
 5078SOL     OW27264   0.240   0.539   0.677
 5078SOL    HW127265   0.182   0.552   0.597
 5078SOL    HW227266   0.188   0.562   0.760
 5079SOL     OW27267   8.604   1.845   0.376
 5079SOL    HW127268   8.648   1.765   0.416
 5079SOL    HW227269   8.664   1.884   0.306
 5080SOL     OW27270   7.084   6.036   6.097
 5080SOL    HW127271   7.073   6.024   6.196
 5080SOL    HW227272   7.021   5.975   6.049
 5081SOL     OW27273   6.557   2.503   0.948
 5081SOL    HW127274   6.541   2.600   0.929
 5081SOL    HW227275   6.595   2.458   0.868
 5082SOL     OW27276   4.987   4.059   0.445
 5082SOL    HW127277   5.004   4.054   0.544
 5082SOL    HW227278   4.984   4.155   0.417
 5083SOL     OW27279   3.066   0.950   1.423
 5083SOL    HW127280   3.093   0.890   1.348
 5083SOL    HW227281   2.967   0.968   1.417
 5084SOL     OW27282   2.023   0.244   1.703
 5084SOL    HW127283   2.112   0.229   1.748
 5084SOL    HW227284   1.965   0.298   1.763
 5085SOL     OW27285   2.203   0.704   0.983
 5085SOL    HW127286   2.221   0.737   0.890
 5085SOL    HW227287   2.119   0.744   1.017
 5086SOL     OW27288   2.405   0.304   6.552
 5086SOL    HW127289   2.478   0.292   6.620
 5086SOL    HW227290   2.316   0.293   6.596
 5087SOL     OW27291   5.388   7.838   0.753
 5087SOL    HW127292   5.465   7.895   0.782
 5087SOL    HW227293   5.355   7.786   0.831
 5088SOL     OW27294   7.887   7.597   5.940
 5088SOL    HW127295   7.800   7.628   5.979
 5088SOL    HW227296   7.919   7.665   5.874
 5089SOL     OW27297   7.002   2.692   1.227
 5089SOL    HW127298   6.966   2.607   1.186
 5089SOL    HW227299   7.049   2.670   1.313
 5090SOL     OW27300   7.880   4.755   5.427
 5090SOL    HW127301   7.787   4.744   5.392
 5090SOL    HW227302   7.942   4.694   5.377
 5091SOL     OW27303   1.002   7.422   1.368
 5091SOL    HW127304   1.044   7.394   1.454
 5091SOL    HW227305   0.910   7.383   1.362
 5092SOL     OW27306   5.791   4.620   5.873
 5092SOL    HW127307   5.844   4.680   5.933
 5092SOL    HW227308   5.826   4.527   5.880
 5093SOL     OW27309   0.156   6.256   5.960
 5093SOL    HW127310   0.158   6.169   6.009
 5093SOL    HW227311   0.116   6.241   5.869
 5094SOL     OW27312   8.135   4.793   6.145
 5094SOL    HW127313   8.161   4.721   6.209
 5094SOL    HW227314   8.178   4.879   6.172
 5095SOL     OW27315   7.537   0.175   5.159
 5095SOL    HW127316   7.478   0.116   5.103
 5095SOL    HW227317   7.593   0.232   5.099
 5096SOL     OW27318   0.120   5.014   6.200
 5096SOL    HW127319   0.049   4.977   6.259
 5096SOL    HW227320   0.209   4.976   6.227
 5097SOL     OW27321   1.388   7.480   1.125
 5097SOL    HW127322   1.310   7.449   1.071
 5097SOL    HW227323   1.450   7.532   1.067
 5098SOL     OW27324   3.566   1.922   5.699
 5098SOL    HW127325   3.649   1.931   5.753
 5098SOL    HW227326   3.589   1.917   5.602
 5099SOL     OW27327   6.703   7.445   6.188
 5099SOL    HW127328   6.636   7.373   6.207
 5099SOL    HW227329   6.699   7.514   6.260
 5100SOL     OW27330   4.169   2.086   4.941
 5100SOL    HW127331   4.130   2.095   5.033
 5100SOL    HW227332   4.123   2.149   4.879
 5101SOL     OW27333   8.946   7.989   5.869
 5101SOL    HW127334   8.861   8.034   5.843
 5101SOL    HW227335   9.020   8.023   5.811
 5102SOL     OW27336   9.337   0.113   5.470
 5102SOL    HW127337   9.294   0.024   5.488
 5102SOL    HW227338   9.277   0.168   5.413
 5103SOL     OW27339   6.821   6.061   1.552
 5103SOL    HW127340   6.826   6.034   1.648
 5103SOL    HW227341   6.883   6.004   1.498
 5104SOL     OW27342   3.642   6.469   0.339
 5104SOL    HW127343   3.572   6.505   0.278
 5104SOL    HW227344   3.628   6.506   0.431
 5105SOL     OW27345   4.330   5.373   0.491
 5105SOL    HW127346   4.414   5.425   0.476
 5105SOL    HW227347   4.287   5.353   0.403
 5106SOL     OW27348   6.692   3.821   6.554
 5106SOL    HW127349   6.691   3.906   6.607
 5106SOL    HW227350   6.786   3.785   6.550
 5107SOL     OW27351   8.099   1.590   6.163
 5107SOL    HW127352   8.141   1.673   6.126
 5107SOL    HW227353   8.085   1.524   6.089
 5108SOL     OW27354   2.369   3.269   6.368
 5108SOL    HW127355   2.434   3.270   6.292
 5108SOL    HW227356   2.419   3.277   6.454
 5109SOL     OW27357   6.297   3.221   1.095
 5109SOL    HW127358   6.213   3.219   1.150
 5109SOL    HW227359   6.274   3.251   1.002
 5110SOL     OW27360   8.863   4.965   6.259
 5110SOL    HW127361   8.912   4.970   6.346
 5110SOL    HW227362   8.765   4.961   6.276
 5111SOL     OW27363   1.719   6.549   5.233
 5111SOL    HW127364   1.633   6.498   5.223
 5111SOL    HW227365   1.772   6.540   5.148
 5112SOL     OW27366   3.749   0.707   1.172
 5112SOL    HW127367   3.729   0.789   1.119
 5112SOL    HW227368   3.671   0.645   1.168
 5113SOL     OW27369   6.961   4.865   0.105
 5113SOL    HW127370   6.920   4.798   0.167
 5113SOL    HW227371   7.023   4.818   0.042
 5114SOL     OW27372   0.931   8.085   5.129
 5114SOL    HW127373   0.924   8.098   5.228
 5114SOL    HW227374   0.893   8.164   5.081
 5115SOL     OW27375   4.664   2.103   0.908
 5115SOL    HW127376   4.712   2.176   0.958
 5115SOL    HW227377   4.732   2.043   0.865
 5116SOL     OW27378   4.050   0.949   0.041
 5116SOL    HW127379   4.118   1.015   0.072
 5116SOL    HW227380   3.997   0.916   0.120
 5117SOL     OW27381   3.201   7.093   0.621
 5117SOL    HW127382   3.224   6.997   0.602
 5117SOL    HW227383   3.106   7.109   0.597
 5118SOL     OW27384   5.104   7.789   6.126
 5118SOL    HW127385   5.141   7.725   6.193
 5118SOL    HW227386   5.154   7.875   6.130
 5119SOL     OW27387   4.103   1.302   0.846
 5119SOL    HW127388   4.070   1.314   0.752
 5119SOL    HW227389   4.030   1.329   0.910
 5120SOL     OW27390   4.404   8.228   0.859
 5120SOL    HW127391   4.422   8.271   0.948
 5120SOL    HW227392   4.411   8.128   0.869
 5121SOL     OW27393   0.376   1.029   5.535
 5121SOL    HW127394   0.447   0.988   5.478
 5121SOL    HW227395   0.335   0.958   5.593
 5122SOL     OW27396   3.391   6.254   5.733
 5122SOL    HW127397   3.362   6.158   5.733
 5122SOL    HW227398   3.342   6.304   5.804
 5123SOL     OW27399   0.602   4.890   0.409
 5123SOL    HW127400   0.646   4.913   0.322
 5123SOL    HW227401   0.615   4.793   0.429
 5124SOL     OW27402   2.792   7.661   5.658
 5124SOL    HW127403   2.824   7.570   5.632
 5124SOL    HW227404   2.780   7.717   5.576
 5125SOL     OW27405   4.863   3.149   0.935
 5125SOL    HW127406   4.886   3.066   0.986
 5125SOL    HW227407   4.870   3.229   0.995
 5126SOL     OW27408   6.474   1.562   6.168
 5126SOL    HW127409   6.521   1.479   6.200
 5126SOL    HW227410   6.442   1.614   6.247
 5127SOL     OW27411   5.627   0.557   5.919
 5127SOL    HW127412   5.624   0.521   6.013
 5127SOL    HW227413   5.646   0.483   5.855
 5128SOL     OW27414   2.339   0.274   0.430
 5128SOL    HW127415   2.251   0.238   0.461
 5128SOL    HW227416   2.412   0.213   0.461
 5129SOL     OW27417   8.650   4.719   0.883
 5129SOL    HW127418   8.665   4.637   0.827
 5129SOL    HW227419   8.579   4.701   0.951
 5130SOL     OW27420   7.443   1.487   0.014
 5130SOL    HW127421   7.515   1.417   0.015
 5130SOL    HW227422   7.457   1.549   0.091
 5131SOL     OW27423   7.760   5.826   5.637
 5131SOL    HW127424   7.815   5.854   5.558
 5131SOL    HW227425   7.671   5.793   5.605
 5132SOL     OW27426   6.840   4.113   1.490
 5132SOL    HW127427   6.751   4.149   1.519
 5132SOL    HW227428   6.885   4.181   1.432
 5133SOL     OW27429   0.994   2.423   5.737
 5133SOL    HW127430   1.081   2.420   5.786
 5133SOL    HW227431   1.003   2.376   5.649
 5134SOL     OW27432   7.913   7.511   1.121
 5134SOL    HW127433   7.996   7.484   1.170
 5134SOL    HW227434   7.849   7.553   1.184
 5135SOL     OW27435   6.057   6.982   1.253
 5135SOL    HW127436   6.054   6.996   1.352
 5135SOL    HW227437   6.099   6.893   1.233
 5136SOL     OW27438   2.190   0.057   6.395
 5136SOL    HW127439   2.223   0.116   6.321
 5136SOL    HW227440   2.208  -0.038   6.372
 5137SOL     OW27441   6.076   0.324   0.791
 5137SOL    HW127442   6.136   0.287   0.721
 5137SOL    HW227443   5.986   0.344   0.751
 5138SOL     OW27444   2.448   2.111   6.152
 5138SOL    HW127445   2.529   2.074   6.107
 5138SOL    HW227446   2.366   2.079   6.105
 5139SOL     OW27447   5.441   4.355   1.049
 5139SOL    HW127448   5.516   4.420   1.051
 5139SOL    HW227449   5.358   4.402   1.017
 5140SOL     OW27450   9.249   7.383   5.571
 5140SOL    HW127451   9.229   7.478   5.594
 5140SOL    HW227452   9.325   7.350   5.627
 5141SOL     OW27453   1.129   7.352   1.606
 5141SOL    HW127454   1.118   7.446   1.640
 5141SOL    HW227455   1.096   7.287   1.674
 5142SOL     OW27456   6.275   3.620   1.072
 5142SOL    HW127457   6.286   3.719   1.076
 5142SOL    HW227458   6.354   3.576   1.115
 5143SOL     OW27459   5.259   0.462   5.818
 5143SOL    HW127460   5.187   0.433   5.881
 5143SOL    HW227461   5.297   0.550   5.849
 5144SOL     OW27462   5.871   2.541   1.848
 5144SOL    HW127463   5.921   2.625   1.824
 5144SOL    HW227464   5.806   2.561   1.921
 5145SOL     OW27465   2.663   4.198   6.299
 5145SOL    HW127466   2.575   4.244   6.292
 5145SOL    HW227467   2.726   4.236   6.231
 5146SOL     OW27468   0.982   2.738   1.245
 5146SOL    HW127469   0.964   2.742   1.343
 5146SOL    HW227470   0.915   2.793   1.197
 5147SOL     OW27471   0.707   7.012   0.382
 5147SOL    HW127472   0.804   7.027   0.401
 5147SOL    HW227473   0.669   6.950   0.450
 5148SOL     OW27474   5.128   6.534   6.348
 5148SOL    HW127475   5.109   6.474   6.270
 5148SOL    HW227476   5.227   6.543   6.359
 5149SOL     OW27477   7.084   2.041   1.687
 5149SOL    HW127478   7.152   1.976   1.653
 5149SOL    HW227479   7.025   1.997   1.754
 5150SOL     OW27480   6.901   3.408   6.094
 5150SOL    HW127481   6.835   3.388   6.022
 5150SOL    HW227482   6.865   3.480   6.153
 5151SOL     OW27483   1.647   5.344   5.730
 5151SOL    HW127484   1.728   5.299   5.693
 5151SOL    HW227485   1.672   5.396   5.812
 5152SOL     OW27486   7.118   7.173   5.655
 5152SOL    HW127487   7.181   7.119   5.711
 5152SOL    HW227488   7.087   7.253   5.708
 5153SOL     OW27489   1.746   0.033   0.208
 5153SOL    HW127490   1.805   0.113   0.221
 5153SOL    HW227491   1.672   0.036   0.275
 5154SOL     OW27492   0.190   3.103   0.899
 5154SOL    HW127493   0.120   3.032   0.893
 5154SOL    HW227494   0.226   3.107   0.992
 5155SOL     OW27495   7.444   2.744   5.565
 5155SOL    HW127496   7.399   2.742   5.476
 5155SOL    HW227497   7.443   2.837   5.601
 5156SOL     OW27498   2.581   8.020   5.625
 5156SOL    HW127499   2.650   7.991   5.558
 5156SOL    HW227500   2.547   7.940   5.675
 5157SOL     OW27501   5.694   2.299   0.476
 5157SOL    HW127502   5.763   2.370   0.488
 5157SOL    HW227503   5.606   2.342   0.455
 5158SOL     OW27504   4.321   6.437   0.664
 5158SOL    HW127505   4.402   6.451   0.607
 5158SOL    HW227506   4.256   6.511   0.648
 5159SOL     OW27507   0.400   5.135   5.766
 5159SOL    HW127508   0.469   5.063   5.776
 5159SOL    HW227509   0.382   5.149   5.669
 5160SOL     OW27510   6.451   7.379   0.588
 5160SOL    HW127511   6.521   7.327   0.636
 5160SOL    HW227512   6.494   7.444   0.526
 5161SOL     OW27513   7.652   5.012   0.421
 5161SOL    HW127514   7.591   4.945   0.463
 5161SOL    HW227515   7.652   4.999   0.322
 5162SOL     OW27516   6.265   8.198   6.068
 5162SOL    HW127517   6.221   8.109   6.053
 5162SOL    HW227518   6.313   8.197   6.156
 5163SOL     OW27519   8.092   5.436   0.266
 5163SOL    HW127520   8.097   5.438   0.166
 5163SOL    HW227521   7.996   5.425   0.294
 5164SOL     OW27522   3.389   8.044   5.937
 5164SOL    HW127523   3.395   7.946   5.919
 5164SOL    HW227524   3.462   8.091   5.888
 5165SOL     OW27525   8.688   1.606   0.518
 5165SOL    HW127526   8.777   1.617   0.564
 5165SOL    HW227527   8.650   1.517   0.540
 5166SOL     OW27528   4.730   2.557   5.935
 5166SOL    HW127529   4.819   2.537   5.892
 5166SOL    HW227530   4.733   2.647   5.977
 5167SOL     OW27531   3.130   4.663   0.937
 5167SOL    HW127532   3.177   4.721   0.871
 5167SOL    HW227533   3.118   4.571   0.898
 5168SOL     OW27534   0.736   7.124   0.139
 5168SOL    HW127535   0.671   7.199   0.125
 5168SOL    HW227536   0.709   7.071   0.220
 5169SOL     OW27537   4.472   5.574   1.820
 5169SOL    HW127538   4.549   5.534   1.870
 5169SOL    HW227539   4.390   5.518   1.837
 5170SOL     OW27540   0.486   1.571   6.626
 5170SOL    HW127541   0.471   1.473   6.631
 5170SOL    HW227542   0.483   1.610   6.719
 5171SOL     OW27543   5.955   5.681   1.786
 5171SOL    HW127544   6.000   5.597   1.817
 5171SOL    HW227545   5.861   5.683   1.820
 5172SOL     OW27546   2.269   7.246   0.781
 5172SOL    HW127547   2.230   7.223   0.692
 5172SOL    HW227548   2.205   7.218   0.853
 5173SOL     OW27549   1.109   1.218   5.351
 5173SOL    HW127550   1.149   1.172   5.272
 5173SOL    HW227551   1.066   1.303   5.321
 5174SOL     OW27552   6.009   2.351   5.745
 5174SOL    HW127553   6.025   2.334   5.648
 5174SOL    HW227554   5.922   2.309   5.772
 5175SOL     OW27555   8.007   2.201   0.645
 5175SOL    HW127556   8.098   2.193   0.605
 5175SOL    HW227557   8.010   2.176   0.742
 5176SOL     OW27558   0.181   8.325   5.387
 5176SOL    HW127559   0.112   8.364   5.325
 5176SOL    HW227560   0.260   8.386   5.393
 5177SOL     OW27561   0.758   4.064   6.233
 5177SOL    HW127562   0.711   4.134   6.180
 5177SOL    HW227563   0.856   4.066   6.211
 5178SOL     OW27564   8.114   2.114   6.147
 5178SOL    HW127565   8.174   2.049   6.194
 5178SOL    HW227566   8.147   2.128   6.054
 5179SOL     OW27567   1.808   2.757   1.052
 5179SOL    HW127568   1.873   2.832   1.065
 5179SOL    HW227569   1.778   2.723   1.142
 5180SOL     OW27570   0.708   8.003   6.454
 5180SOL    HW127571   0.720   8.026   6.551
 5180SOL    HW227572   0.798   7.983   6.414
 5181SOL     OW27573   1.071   1.060   5.665
 5181SOL    HW127574   1.050   0.983   5.604
 5181SOL    HW227575   1.080   1.143   5.611
 5182SOL     OW27576   0.014   1.014   1.283
 5182SOL    HW127577  -0.076   0.992   1.245
 5182SOL    HW227578   0.014   0.993   1.381
 5183SOL     OW27579   3.630   5.662   6.651
 5183SOL    HW127580   3.567   5.739   6.654
 5183SOL    HW227581   3.723   5.696   6.634
 5184SOL     OW27582   6.832   3.846   6.306
 5184SOL    HW127583   6.916   3.839   6.251
 5184SOL    HW227584   6.846   3.912   6.379
 5185SOL     OW27585   6.449   2.689   1.445
 5185SOL    HW127586   6.422   2.610   1.500
 5185SOL    HW227587   6.464   2.768   1.505
 5186SOL     OW27588   2.464   5.216   0.328
 5186SOL    HW127589   2.532   5.223   0.255
 5186SOL    HW227590   2.380   5.178   0.292
 5187SOL     OW27591   6.345   7.069   1.115
 5187SOL    HW127592   6.333   7.081   1.016
 5187SOL    HW227593   6.255   7.058   1.158
 5188SOL     OW27594   6.685   3.889   6.066
 5188SOL    HW127595   6.717   3.813   6.009
 5188SOL    HW227596   6.698   3.865   6.163
 5189SOL     OW27597   6.249   4.025   5.603
 5189SOL    HW127598   6.344   3.997   5.592
 5189SOL    HW227599   6.189   3.955   5.563
 5190SOL     OW27600   5.695   7.227   0.010
 5190SOL    HW127601   5.702   7.246   0.108
 5190SOL    HW227602   5.786   7.224  -0.031
 5191SOL     OW27603   4.567   4.089   6.454
 5191SOL    HW127604   4.656   4.113   6.415
 5191SOL    HW227605   4.529   4.168   6.503
 5192SOL     OW27606   2.574   5.740   6.553
 5192SOL    HW127607   2.589   5.677   6.629
 5192SOL    HW227608   2.577   5.834   6.588
 5193SOL     OW27609   3.073   7.740   1.484
 5193SOL    HW127610   3.028   7.652   1.495
 5193SOL    HW227611   3.120   7.743   1.396
 5194SOL     OW27612   7.774   3.877   1.425
 5194SOL    HW127613   7.784   3.836   1.334
 5194SOL    HW227614   7.836   3.955   1.433
 5195SOL     OW27615   0.597   6.775   5.530
 5195SOL    HW127616   0.556   6.687   5.555
 5195SOL    HW227617   0.629   6.771   5.435
 5196SOL     OW27618   1.987   6.818   6.291
 5196SOL    HW127619   1.896   6.781   6.308
 5196SOL    HW227620   1.998   6.837   6.193
 5197SOL     OW27621   1.329   7.733   5.492
 5197SOL    HW127622   1.242   7.780   5.485
 5197SOL    HW227623   1.355   7.696   5.403
 5198SOL     OW27624   6.433   4.274   6.083
 5198SOL    HW127625   6.445   4.175   6.086
 5198SOL    HW227626   6.484   4.311   6.006
 5199SOL     OW27627   1.748   2.623   1.269
 5199SOL    HW127628   1.701   2.566   1.201
 5199SOL    HW227629   1.786   2.564   1.341
 5200SOL     OW27630   3.051   2.288   2.486
 5200SOL    HW127631   3.112   2.323   2.558
 5200SOL    HW227632   2.991   2.362   2.455
 5201SOL     OW27633   6.191   4.420   4.615
 5201SOL    HW127634   6.100   4.455   4.591
 5201SOL    HW227635   6.243   4.492   4.663
 5202SOL     OW27636   0.637   3.093   0.690
 5202SOL    HW127637   0.568   3.162   0.711
 5202SOL    HW227638   0.603   3.033   0.618
 5203SOL     OW27639   2.507   2.118   0.155
 5203SOL    HW127640   2.533   2.170   0.236
 5203SOL    HW227641   2.567   2.039   0.145
 5204SOL     OW27642   1.367   2.688   4.520
 5204SOL    HW127643   1.426   2.610   4.504
 5204SOL    HW227644   1.420   2.763   4.559
 5205SOL     OW27645   3.708   6.904   6.333
 5205SOL    HW127646   3.696   6.842   6.411
 5205SOL    HW227647   3.761   6.983   6.362
 5206SOL     OW27648   7.988   7.208   5.347
 5206SOL    HW127649   7.948   7.289   5.303
 5206SOL    HW227650   8.028   7.149   5.278
 5207SOL     OW27651   4.563   6.692   4.632
 5207SOL    HW127652   4.530   6.779   4.596
 5207SOL    HW227653   4.497   6.620   4.609
 5208SOL     OW27654   7.777   7.875   1.966
 5208SOL    HW127655   7.844   7.817   2.011
 5208SOL    HW227656   7.687   7.832   1.969
 5209SOL     OW27657   8.130   6.815   0.501
 5209SOL    HW127658   8.157   6.868   0.420
 5209SOL    HW227659   8.082   6.732   0.472
 5210SOL     OW27660   4.113   3.789   0.489
 5210SOL    HW127661   4.127   3.731   0.569
 5210SOL    HW227662   4.149   3.744   0.408
 5211SOL     OW27663   8.285   3.323   5.143
 5211SOL    HW127664   8.293   3.399   5.078
 5211SOL    HW227665   8.287   3.236   5.093
 5212SOL     OW27666   3.631   3.817   5.724
 5212SOL    HW127667   3.641   3.839   5.627
 5212SOL    HW227668   3.657   3.722   5.739
 5213SOL     OW27669   2.119   3.925   6.690
 5213SOL    HW127670   2.093   3.828   6.682
 5213SOL    HW227671   2.090   3.960   6.779
 5214SOL     OW27672   7.336   4.699   5.526
 5214SOL    HW127673   7.325   4.601   5.538
 5214SOL    HW227674   7.288   4.728   5.443
 5215SOL     OW27675   1.765   1.193   0.668
 5215SOL    HW127676   1.775   1.095   0.647
 5215SOL    HW227677   1.717   1.204   0.755
 5216SOL     OW27678   2.325   4.691   1.347
 5216SOL    HW127679   2.368   4.648   1.267
 5216SOL    HW227680   2.233   4.723   1.323
 5217SOL     OW27681   0.578   5.145   6.046
 5217SOL    HW127682   0.530   5.058   6.059
 5217SOL    HW227683   0.548   5.187   5.961
 5218SOL     OW27684   3.725   1.586   6.487
 5218SOL    HW127685   3.794   1.643   6.531
 5218SOL    HW227686   3.759   1.554   6.399
 5219SOL     OW27687   5.428   2.993   6.219
 5219SOL    HW127688   5.432   3.071   6.281
 5219SOL    HW227689   5.360   3.010   6.148
 5220SOL     OW27690   6.512   1.845   0.483
 5220SOL    HW127691   6.585   1.816   0.545
 5220SOL    HW227692   6.440   1.776   0.480
 5221SOL     OW27693   0.307   2.092   6.721
 5221SOL    HW127694   0.230   2.109   6.783
 5221SOL    HW227695   0.325   2.175   6.668
 5222SOL     OW27696   9.255   7.280   0.957
 5222SOL    HW127697   9.192   7.247   1.027
 5222SOL    HW227698   9.345   7.295   0.997
 5223SOL     OW27699   5.811   0.375   5.716
 5223SOL    HW127700   5.831   0.305   5.649
 5223SOL    HW227701   5.825   0.465   5.676
 5224SOL     OW27702   1.219   1.379   0.691
 5224SOL    HW127703   1.120   1.367   0.687
 5224SOL    HW227704   1.259   1.311   0.752
 5225SOL     OW27705   6.385   1.860   5.972
 5225SOL    HW127706   6.417   1.871   5.878
 5225SOL    HW227707   6.412   1.770   6.006
 5226SOL     OW27708   0.585   2.882   0.530
 5226SOL    HW127709   0.498   2.852   0.569
 5226SOL    HW227710   0.582   2.874   0.430
 5227SOL     OW27711   6.849   2.932   6.063
 5227SOL    HW127712   6.920   2.991   6.100
 5227SOL    HW227713   6.765   2.943   6.116
 5228SOL     OW27714   2.040   4.032   0.193
 5228SOL    HW127715   2.099   3.965   0.238
 5228SOL    HW227716   1.977   4.072   0.260
 5229SOL     OW27717   9.181   8.194   6.173
 5229SOL    HW127718   9.120   8.271   6.193
 5229SOL    HW227719   9.252   8.224   6.109
 5230SOL     OW27720   0.643   7.136   0.723
 5230SOL    HW127721   0.692   7.105   0.805
 5230SOL    HW227722   0.548   7.108   0.728
 5231SOL     OW27723   2.353   2.016   1.861
 5231SOL    HW127724   2.317   1.997   1.953
 5231SOL    HW227725   2.335   2.112   1.838
 5232SOL     OW27726   1.310   0.516   6.281
 5232SOL    HW127727   1.381   0.452   6.251
 5232SOL    HW227728   1.220   0.475   6.264
 5233SOL     OW27729   2.395   4.993   1.263
 5233SOL    HW127730   2.351   5.068   1.312
 5233SOL    HW227731   2.404   4.914   1.323
 5234SOL     OW27732   9.319   3.135   0.385
 5234SOL    HW127733   9.323   3.035   0.387
 5234SOL    HW227734   9.304   3.169   0.478
 5235SOL     OW27735   2.880   4.646   6.434
 5235SOL    HW127736   2.793   4.654   6.386
 5235SOL    HW227737   2.945   4.712   6.396
 5236SOL     OW27738   5.476   0.544   0.708
 5236SOL    HW127739   5.529   0.525   0.791
 5236SOL    HW227740   5.443   0.638   0.710
 5237SOL     OW27741   1.572   0.822   4.704
 5237SOL    HW127742   1.527   0.734   4.698
 5237SOL    HW227743   1.546   0.878   4.625
 5238SOL     OW27744   8.432   5.516   5.539
 5238SOL    HW127745   8.524   5.554   5.549
 5238SOL    HW227746   8.431   5.451   5.463
 5239SOL     OW27747   0.572   0.345   1.752
 5239SOL    HW127748   0.652   0.395   1.786
 5239SOL    HW227749   0.489   0.380   1.796
 5240SOL     OW27750   1.602   6.517   0.111
 5240SOL    HW127751   1.538   6.515   0.188
 5240SOL    HW227752   1.553   6.543   0.028
 5241SOL     OW27753   9.322   0.193   6.713
 5241SOL    HW127754   9.404   0.160   6.668
 5241SOL    HW227755   9.245   0.188   6.649
 5242SOL     OW27756   1.189   3.614   0.291
 5242SOL    HW127757   1.217   3.709   0.307
 5242SOL    HW227758   1.261   3.565   0.242
 5243SOL     OW27759   4.861   0.551   1.671
 5243SOL    HW127760   4.895   0.462   1.640
 5243SOL    HW227761   4.937   0.611   1.693
 5244SOL     OW27762   5.246   4.289   0.352
 5244SOL    HW127763   5.148   4.307   0.352
 5244SOL    HW227764   5.266   4.213   0.290
 5245SOL     OW27765   9.206   7.601   0.054
 5245SOL    HW127766   9.115   7.594   0.095
 5245SOL    HW227767   9.200   7.650  -0.032
 5246SOL     OW27768   6.576   1.373   1.985
 5246SOL    HW127769   6.589   1.385   2.083
 5246SOL    HW227770   6.574   1.276   1.963
 5247SOL     OW27771   3.331   0.914   0.519
 5247SOL    HW127772   3.420   0.890   0.478
 5247SOL    HW227773   3.331   1.011   0.542
 5248SOL     OW27774   4.722   7.920   1.335
 5248SOL    HW127775   4.717   7.929   1.235
 5248SOL    HW227776   4.799   7.861   1.360
 5249SOL     OW27777   2.668   1.825   1.466
 5249SOL    HW127778   2.760   1.848   1.497
 5249SOL    HW227779   2.654   1.727   1.472
 5250SOL     OW27780   6.439   3.163   6.637
 5250SOL    HW127781   6.355   3.212   6.660
 5250SOL    HW227782   6.442   3.145   6.539
 5251SOL     OW27783   9.106   1.745   0.556
 5251SOL    HW127784   9.093   1.790   0.468
 5251SOL    HW227785   9.065   1.800   0.629
 5252SOL     OW27786   3.264   3.561   1.297
 5252SOL    HW127787   3.295   3.569   1.392
 5252SOL    HW227788   3.318   3.491   1.250
 5253SOL     OW27789   1.712   6.165   6.398
 5253SOL    HW127790   1.774   6.238   6.367
 5253SOL    HW227791   1.726   6.084   6.341
 5254SOL     OW27792   4.729   5.340   0.274
 5254SOL    HW127793   4.659   5.341   0.203
 5254SOL    HW227794   4.810   5.292   0.240
 5255SOL     OW27795   3.738   4.497   5.759
 5255SOL    HW127796   3.791   4.468   5.680
 5255SOL    HW227797   3.745   4.427   5.831
 5256SOL     OW27798   2.264   4.278   0.531
 5256SOL    HW127799   2.354   4.307   0.497
 5256SOL    HW227800   2.215   4.357   0.565
 5257SOL     OW27801   4.000   5.602   5.680
 5257SOL    HW127802   4.050   5.551   5.610
 5257SOL    HW227803   3.913   5.634   5.643
 5258SOL     OW27804   5.099   1.284   6.610
 5258SOL    HW127805   5.103   1.188   6.636
 5258SOL    HW227806   5.190   1.324   6.616
 5259SOL     OW27807   7.720   5.627   6.438
 5259SOL    HW127808   7.661   5.685   6.494
 5259SOL    HW227809   7.687   5.627   6.344
 5260SOL     OW27810   2.428   3.903   5.911
 5260SOL    HW127811   2.355   3.874   5.849
 5260SOL    HW227812   2.389   3.939   5.996
 5261SOL     OW27813   2.054   4.661   5.141
 5261SOL    HW127814   2.034   4.594   5.070
 5261SOL    HW227815   2.144   4.640   5.181
 5262SOL     OW27816   6.146   4.216   1.109
 5262SOL    HW127817   6.206   4.293   1.087
 5262SOL    HW227818   6.105   4.231   1.199
 5263SOL     OW27819   8.611   4.293   0.866
 5263SOL    HW127820   8.533   4.235   0.889
 5263SOL    HW227821   8.696   4.245   0.889
 5264SOL     OW27822   6.914   0.452   5.574
 5264SOL    HW127823   6.928   0.550   5.589
 5264SOL    HW227824   6.844   0.439   5.503
 5265SOL     OW27825   5.354   0.421   5.376
 5265SOL    HW127826   5.283   0.431   5.446
 5265SOL    HW227827   5.377   0.511   5.339
 5266SOL     OW27828   9.047   7.111   5.853
 5266SOL    HW127829   9.074   7.154   5.767
 5266SOL    HW227830   8.948   7.115   5.862
 5267SOL     OW27831   3.324   6.399   0.162
 5267SOL    HW127832   3.367   6.480   0.202
 5267SOL    HW227833   3.238   6.380   0.209
 5268SOL     OW27834   2.579   6.491   1.126
 5268SOL    HW127835   2.579   6.431   1.046
 5268SOL    HW227836   2.620   6.443   1.203
 5269SOL     OW27837   6.133   0.428   6.099
 5269SOL    HW127838   6.111   0.353   6.036
 5269SOL    HW227839   6.227   0.417   6.132
 5270SOL     OW27840   4.824   2.703   6.556
 5270SOL    HW127841   4.758   2.655   6.613
 5270SOL    HW227842   4.880   2.764   6.613
 5271SOL     OW27843   6.766   6.223   0.318
 5271SOL    HW127844   6.863   6.226   0.340
 5271SOL    HW227845   6.740   6.307   0.271
 5272SOL     OW27846   3.707   6.933   1.154
 5272SOL    HW127847   3.692   6.836   1.172
 5272SOL    HW227848   3.685   6.986   1.236
 5273SOL     OW27849   7.195   7.673   5.838
 5273SOL    HW127850   7.275   7.616   5.820
 5273SOL    HW227851   7.128   7.660   5.764
 5274SOL     OW27852   6.958   3.492   6.588
 5274SOL    HW127853   7.037   3.446   6.628
 5274SOL    HW227854   6.958   3.478   6.489
 5275SOL     OW27855   9.352   7.601   5.140
 5275SOL    HW127856   9.350   7.586   5.238
 5275SOL    HW227857   9.335   7.515   5.092
 5276SOL     OW27858   7.832   3.307   6.394
 5276SOL    HW127859   7.753   3.343   6.445
 5276SOL    HW227860   7.913   3.363   6.414
 5277SOL     OW27861   8.543   6.274   6.396
 5277SOL    HW127862   8.574   6.248   6.487
 5277SOL    HW227863   8.573   6.206   6.329
 5278SOL     OW27864   2.118   7.839   1.179
 5278SOL    HW127865   2.029   7.796   1.191
 5278SOL    HW227866   2.166   7.841   1.267
 5279SOL     OW27867   6.043   1.672   6.168
 5279SOL    HW127868   6.029   1.631   6.077
 5279SOL    HW227869   6.040   1.600   6.237
 5280SOL     OW27870   2.065   0.244   0.572
 5280SOL    HW127871   2.019   0.194   0.499
 5280SOL    HW227872   2.059   0.192   0.658
 5281SOL     OW27873   5.962   1.784   1.339
 5281SOL    HW127874   5.989   1.874   1.371
 5281SOL    HW227875   5.918   1.734   1.414
 5282SOL     OW27876   9.172   1.280   1.039
 5282SOL    HW127877   9.141   1.193   1.079
 5282SOL    HW227878   9.229   1.329   1.105
 5283SOL     OW27879   7.789   7.347   6.258
 5283SOL    HW127880   7.844   7.264   6.253
 5283SOL    HW227881   7.815   7.400   6.339
 5284SOL     OW27882   0.576   7.451   0.400
 5284SOL    HW127883   0.498   7.420   0.455
 5284SOL    HW227884   0.569   7.549   0.384
 5285SOL     OW27885   6.583   7.803   0.922
 5285SOL    HW127886   6.653   7.731   0.930
 5285SOL    HW227887   6.575   7.831   0.826
 5286SOL     OW27888   4.920   5.032   0.721
 5286SOL    HW127889   4.843   5.051   0.660
 5286SOL    HW227890   4.895   5.054   0.815
 5287SOL     OW27891   7.961   2.062   1.209
 5287SOL    HW127892   7.967   2.159   1.230
 5287SOL    HW227893   7.930   2.049   1.115
 5288SOL     OW27894   9.096   8.339   1.275
 5288SOL    HW127895   9.022   8.389   1.230
 5288SOL    HW227896   9.168   8.403   1.302
 5289SOL     OW27897   0.674   5.653   4.427
 5289SOL    HW127898   0.766   5.634   4.395
 5289SOL    HW227899   0.678   5.716   4.504
 5290SOL     OW27900   2.216   2.686   0.546
 5290SOL    HW127901   2.212   2.777   0.586
 5290SOL    HW227902   2.292   2.681   0.481
 5291SOL     OW27903   9.052   1.878   0.311
 5291SOL    HW127904   8.968   1.929   0.292
 5291SOL    HW227905   9.129   1.941   0.312
 5292SOL     OW27906   4.839   0.871   0.317
 5292SOL    HW127907   4.799   0.779   0.319
 5292SOL    HW227908   4.768   0.938   0.338
 5293SOL     OW27909   7.096   7.294   6.237
 5293SOL    HW127910   7.038   7.355   6.181
 5293SOL    HW227911   7.158   7.350   6.292
 5294SOL     OW27912   9.385   6.964   5.132
 5294SOL    HW127913   9.394   7.044   5.073
 5294SOL    HW227914   9.391   6.880   5.077
 5295SOL     OW27915   7.606   0.494   0.487
 5295SOL    HW127916   7.560   0.556   0.551
 5295SOL    HW227917   7.704   0.492   0.508
 5296SOL     OW27918   4.275   4.190   0.477
 5296SOL    HW127919   4.196   4.251   0.480
 5296SOL    HW227920   4.257   4.113   0.416
 5297SOL     OW27921   2.712   5.819   0.289
 5297SOL    HW127922   2.636   5.757   0.304
 5297SOL    HW227923   2.764   5.829   0.374
 5298SOL     OW27924   5.236   1.646   0.046
 5298SOL    HW127925   5.170   1.663   0.120
 5298SOL    HW227926   5.224   1.713  -0.026
 5299SOL     OW27927   5.738   6.451   0.132
 5299SOL    HW127928   5.833   6.434   0.156
 5299SOL    HW227929   5.689   6.485   0.213
 5300SOL     OW27930   2.082   2.945   0.146
 5300SOL    HW127931   2.001   2.915   0.196
 5300SOL    HW227932   2.072   2.920   0.050
 5301SOL     OW27933   3.046   6.824   0.941
 5301SOL    HW127934   3.142   6.841   0.919
 5301SOL    HW227935   3.009   6.902   0.992
 5302SOL     OW27936   3.557   1.010   6.138
 5302SOL    HW127937   3.469   1.056   6.150
 5302SOL    HW227938   3.610   1.018   6.223
 5303SOL     OW27939   0.827   3.772   6.079
 5303SOL    HW127940   0.892   3.768   6.155
 5303SOL    HW227941   0.770   3.853   6.087
 5304SOL     OW27942   7.886   8.381   6.187
 5304SOL    HW127943   7.841   8.372   6.276
 5304SOL    HW227944   7.817   8.393   6.115
 5305SOL     OW27945   9.220   0.233   6.314
 5305SOL    HW127946   9.262   0.310   6.361
 5305SOL    HW227947   9.169   0.266   6.234
 5306SOL     OW27948   3.123   3.610   6.218
 5306SOL    HW127949   3.220   3.607   6.241
 5306SOL    HW227950   3.091   3.518   6.194
 5307SOL     OW27951   0.953   4.140   0.133
 5307SOL    HW127952   1.039   4.168   0.089
 5307SOL    HW227953   0.968   4.056   0.185
 5308SOL     OW27954   8.090   5.176   5.121
 5308SOL    HW127955   8.035   5.152   5.040
 5308SOL    HW227956   8.035   5.165   5.203
 5309SOL     OW27957   1.663   1.182   6.564
 5309SOL    HW127958   1.636   1.239   6.642
 5309SOL    HW227959   1.749   1.217   6.526
 5310SOL     OW27960   2.066   0.496   6.486
 5310SOL    HW127961   1.992   0.429   6.482
 5310SOL    HW227962   2.034   0.583   6.450
 5311SOL     OW27963   8.865   6.979   5.104
 5311SOL    HW127964   8.938   7.022   5.051
 5311SOL    HW227965   8.904   6.939   5.187
 5312SOL     OW27966   5.036   7.211   6.297
 5312SOL    HW127967   5.096   7.177   6.225
 5312SOL    HW227968   4.989   7.134   6.340
 5313SOL     OW27969   7.092   5.371   5.568
 5313SOL    HW127970   7.174   5.409   5.525
 5313SOL    HW227971   7.095   5.271   5.564
 5314SOL     OW27972   0.028   0.764   6.193
 5314SOL    HW127973  -0.071   0.764   6.211
 5314SOL    HW227974   0.073   0.705   6.261
 5315SOL     OW27975   3.095   1.531   0.226
 5315SOL    HW127976   3.030   1.529   0.151
 5315SOL    HW227977   3.182   1.493   0.195
 5316SOL     OW27978   2.073   5.486   5.439
 5316SOL    HW127979   2.043   5.580   5.453
 5316SOL    HW227980   2.145   5.463   5.505
 5317SOL     OW27981   3.904   4.457   1.755
 5317SOL    HW127982   3.891   4.553   1.732
 5317SOL    HW227983   3.817   4.409   1.747
 5318SOL     OW27984   5.497   3.542   0.782
 5318SOL    HW127985   5.531   3.519   0.873
 5318SOL    HW227986   5.439   3.623   0.788
 5319SOL     OW27987   1.609   0.909   0.634
 5319SOL    HW127988   1.539   0.930   0.702
 5319SOL    HW227989   1.565   0.872   0.552
 5320SOL     OW27990   3.605   1.354   6.080
 5320SOL    HW127991   3.518   1.399   6.096
 5320SOL    HW227992   3.589   1.260   6.049
 5321SOL     OW27993   2.024   6.803   6.011
 5321SOL    HW127994   1.987   6.881   5.961
 5321SOL    HW227995   2.089   6.754   5.954
 5322SOL     OW27996   5.789   0.920   0.995
 5322SOL    HW127997   5.758   0.826   1.015
 5322SOL    HW227998   5.888   0.922   0.990
 5323SOL     OW27999   3.704   5.743   5.540
 5323SOL    HW128000   3.636   5.670   5.550
 5323SOL    HW228001   3.657   5.830   5.525
 5324SOL     OW28002   7.027   1.987   5.413
 5324SOL    HW128003   7.023   2.084   5.436
 5324SOL    HW228004   6.993   1.973   5.320
 5325SOL     OW28005   4.611   8.312   0.238
 5325SOL    HW128006   4.526   8.350   0.275
 5325SOL    HW228007   4.624   8.345   0.144
 5326SOL     OW28008   4.922   7.813   5.700
 5326SOL    HW128009   4.864   7.763   5.765
 5326SOL    HW228010   5.018   7.791   5.717
 5327SOL     OW28011   2.137   1.765   6.035
 5327SOL    HW128012   2.041   1.777   6.058
 5327SOL    HW228013   2.146   1.740   5.939
 5328SOL     OW28014   4.988   6.762   6.059
 5328SOL    HW128015   4.923   6.700   6.102
 5328SOL    HW228016   4.972   6.855   6.092
 5329SOL     OW28017   9.427   7.968   5.606
 5329SOL    HW128018   9.471   8.058   5.609
 5329SOL    HW228019   9.393   7.951   5.514
 5330SOL     OW28020   1.275   5.954   6.705
 5330SOL    HW128021   1.338   6.029   6.724
 5330SOL    HW228022   1.214   5.979   6.630
 5331SOL     OW28023   0.969   4.126   5.663
 5331SOL    HW128024   0.944   4.180   5.743
 5331SOL    HW228025   1.054   4.160   5.625
 5332SOL     OW28026   8.654   7.446   4.098
 5332SOL    HW128027   8.746   7.459   4.136
 5332SOL    HW228028   8.661   7.397   4.011
 5333SOL     OW28029   3.440   6.083   6.592
 5333SOL    HW128030   3.372   6.117   6.527
 5333SOL    HW228031   3.418   6.116   6.683
 5334SOL     OW28032   3.911   7.845   1.020
 5334SOL    HW128033   3.968   7.823   0.941
 5334SOL    HW228034   3.969   7.865   1.099
 5335SOL     OW28035   7.106   1.630   6.584
 5335SOL    HW128036   7.116   1.593   6.676
 5335SOL    HW228037   7.134   1.561   6.517
 5336SOL     OW28038   8.376   6.411   6.051
 5336SOL    HW128039   8.413   6.459   5.972
 5336SOL    HW228040   8.405   6.456   6.135
 5337SOL     OW28041   0.415   6.285   5.416
 5337SOL    HW128042   0.487   6.323   5.474
 5337SOL    HW228043   0.349   6.237   5.473
 5338SOL     OW28044   5.742   0.853   6.728
 5338SOL    HW128045   5.826   0.799   6.723
 5338SOL    HW228046   5.746   0.928   6.662
 5339SOL     OW28047   0.151   0.429   6.039
 5339SOL    HW128048   0.160   0.528   6.026
 5339SOL    HW228049   0.241   0.386   6.029
 5340SOL     OW28050   8.400   1.148   0.851
 5340SOL    HW128051   8.452   1.170   0.933
 5340SOL    HW228052   8.342   1.226   0.826
 5341SOL     OW28053   0.316   2.268   0.811
 5341SOL    HW128054   0.376   2.190   0.828
 5341SOL    HW228055   0.368   2.353   0.821
 5342SOL     OW28056   4.060   1.376   5.744
 5342SOL    HW128057   3.977   1.402   5.792
 5342SOL    HW228058   4.055   1.405   5.649
 5343SOL     OW28059   1.295   6.434   5.327
 5343SOL    HW128060   1.341   6.383   5.400
 5343SOL    HW228061   1.352   6.431   5.245
 5344SOL     OW28062   3.523   5.016   6.330
 5344SOL    HW128063   3.542   4.970   6.417
 5344SOL    HW228064   3.468   5.098   6.347
 5345SOL     OW28065   1.002   6.939   6.559
 5345SOL    HW128066   1.049   6.881   6.493
 5345SOL    HW228067   0.971   7.023   6.513
 5346SOL     OW28068   2.937   8.127   6.096
 5346SOL    HW128069   2.944   8.227   6.105
 5346SOL    HW228070   2.868   8.093   6.160
 5347SOL     OW28071   6.478   1.306   1.228
 5347SOL    HW128072   6.545   1.252   1.177
 5347SOL    HW228073   6.411   1.245   1.270
 5348SOL     OW28074   5.487   7.268   5.593
 5348SOL    HW128075   5.442   7.179   5.587
 5348SOL    HW228076   5.429   7.338   5.552
 5349SOL     OW28077   9.347   6.734   5.895
 5349SOL    HW128078   9.290   6.667   5.942
 5349SOL    HW228079   9.320   6.826   5.923
 5350SOL     OW28080   5.661   3.039   0.814
 5350SOL    HW128081   5.760   3.037   0.824
 5350SOL    HW228082   5.632   2.973   0.745
 5351SOL     OW28083   7.505   7.506   0.668
 5351SOL    HW128084   7.568   7.449   0.720
 5351SOL    HW228085   7.412   7.471   0.678
 5352SOL     OW28086   2.241   1.397   1.088
 5352SOL    HW128087   2.299   1.476   1.106
 5352SOL    HW228088   2.156   1.405   1.139
 5353SOL     OW28089   4.787   6.584   6.035
 5353SOL    HW128090   4.735   6.592   6.120
 5353SOL    HW228091   4.729   6.545   5.964
 5354SOL     OW28092   5.715   8.192   0.878
 5354SOL    HW128093   5.807   8.190   0.839
 5354SOL    HW228094   5.697   8.281   0.918
 5355SOL     OW28095   2.460   6.011   1.108
 5355SOL    HW128096   2.518   6.088   1.135
 5355SOL    HW228097   2.469   5.937   1.175
 5356SOL     OW28098   6.093   2.194   6.141
 5356SOL    HW128099   6.123   2.136   6.065
 5356SOL    HW228100   6.155   2.272   6.150
 5357SOL     OW28101   3.392   0.142   5.349
 5357SOL    HW128102   3.344   0.226   5.375
 5357SOL    HW228103   3.468   0.125   5.411
 5358SOL     OW28104   0.919   0.188   0.307
 5358SOL    HW128105   0.964   0.265   0.353
 5358SOL    HW228106   0.984   0.144   0.245
 5359SOL     OW28107   4.573   2.973   1.845
 5359SOL    HW128108   4.527   2.974   1.934
 5359SOL    HW228109   4.569   3.065   1.804
 5360SOL     OW28110   8.079   0.026   0.651
 5360SOL    HW128111   8.125  -0.062   0.636
 5360SOL    HW228112   8.086   0.051   0.747
 5361SOL     OW28113   5.549   7.971   6.088
 5361SOL    HW128114   5.475   7.975   6.021
 5361SOL    HW228115   5.577   7.876   6.101
 5362SOL     OW28116   0.666   1.632   0.476
 5362SOL    HW128117   0.575   1.619   0.437
 5362SOL    HW228118   0.661   1.694   0.554
 5363SOL     OW28119   0.913   7.723   4.882
 5363SOL    HW128120   0.851   7.792   4.920
 5363SOL    HW228121   0.997   7.767   4.852
 5364SOL     OW28122   7.873   0.946   6.423
 5364SOL    HW128123   7.785   0.990   6.406
 5364SOL    HW228124   7.869   0.850   6.393
 5365SOL     OW28125   0.400   4.460   5.905
 5365SOL    HW128126   0.310   4.502   5.919
 5365SOL    HW228127   0.443   4.444   5.993
 5366SOL     OW28128   3.560   7.117   0.326
 5366SOL    HW128129   3.656   7.124   0.353
 5366SOL    HW228130   3.507   7.188   0.373
 5367SOL     OW28131   5.991   0.808   1.620
 5367SOL    HW128132   5.966   0.904   1.610
 5367SOL    HW228133   6.028   0.793   1.712
 5368SOL     OW28134   3.079   8.108   5.869
 5368SOL    HW128135   3.175   8.099   5.894
 5368SOL    HW228136   3.025   8.128   5.950
 5369SOL     OW28137   7.270   3.021   1.250
 5369SOL    HW128138   7.263   2.959   1.329
 5369SOL    HW228139   7.226   3.108   1.273
 5370SOL     OW28140   1.710   7.989   0.699
 5370SOL    HW128141   1.700   8.068   0.759
 5370SOL    HW228142   1.675   7.908   0.745
 5371SOL     OW28143   5.678   6.088   0.144
 5371SOL    HW128144   5.693   5.992   0.120
 5371SOL    HW228145   5.743   6.145   0.095
 5372SOL     OW28146   4.555   8.038   6.700
 5372SOL    HW128147   4.628   8.100   6.673
 5372SOL    HW228148   4.561   7.953   6.647
 5373SOL     OW28149   7.928   2.659   1.019
 5373SOL    HW128150   7.870   2.603   1.078
 5373SOL    HW228151   7.993   2.600   0.972
 5374SOL     OW28152   4.595   8.119   6.211
 5374SOL    HW128153   4.671   8.123   6.276
 5374SOL    HW228154   4.577   8.024   6.187
 5375SOL     OW28155   3.018   3.216   0.848
 5375SOL    HW128156   3.070   3.269   0.780
 5375SOL    HW228157   3.057   3.233   0.939
 5376SOL     OW28158   6.268   1.996   1.465
 5376SOL    HW128159   6.341   2.027   1.404
 5376SOL    HW228160   6.295   2.012   1.560
 5377SOL     OW28161   6.845   4.638   0.241
 5377SOL    HW128162   6.759   4.610   0.196
 5377SOL    HW228163   6.871   4.570   0.308
 5378SOL     OW28164   8.709   1.214   6.707
 5378SOL    HW128165   8.689   1.306   6.740
 5378SOL    HW228166   8.648   1.191   6.631
 5379SOL     OW28167   3.477   2.197   5.360
 5379SOL    HW128168   3.448   2.257   5.286
 5379SOL    HW228169   3.453   2.102   5.338
 5380SOL     OW28170   8.186   3.972   6.697
 5380SOL    HW128171   8.255   3.932   6.758
 5380SOL    HW228172   8.229   4.043   6.641
 5381SOL     OW28173   5.551   1.778   0.281
 5381SOL    HW128174   5.559   1.682   0.310
 5381SOL    HW228175   5.472   1.820   0.326
 5382SOL     OW28176   3.148   6.937   5.743
 5382SOL    HW128177   3.101   6.866   5.795
 5382SOL    HW228178   3.096   6.956   5.659
 5383SOL     OW28179   6.612   8.304   5.612
 5383SOL    HW128180   6.520   8.269   5.629
 5383SOL    HW228181   6.673   8.275   5.686
 5384SOL     OW28182   7.874   2.365   0.906
 5384SOL    HW128183   7.905   2.407   0.821
 5384SOL    HW228184   7.776   2.347   0.901
 5385SOL     OW28185   6.488   5.549   5.913
 5385SOL    HW128186   6.404   5.603   5.914
 5385SOL    HW228187   6.501   5.509   5.822
 5386SOL     OW28188   4.284   4.000   0.265
 5386SOL    HW128189   4.327   4.006   0.175
 5386SOL    HW228190   4.307   3.912   0.307
 5387SOL     OW28191   2.084   0.087   6.634
 5387SOL    HW128192   2.114   0.082   6.539
 5387SOL    HW228193   2.097   0.180   6.669
 5388SOL     OW28194   7.476   7.804   6.505
 5388SOL    HW128195   7.472   7.739   6.429
 5388SOL    HW228196   7.384   7.816   6.543
 5389SOL     OW28197   1.434   4.192   6.313
 5389SOL    HW128198   1.446   4.198   6.412
 5389SOL    HW228199   1.488   4.116   6.278
 5390SOL     OW28200   6.396   1.334   0.758
 5390SOL    HW128201   6.347   1.355   0.842
 5390SOL    HW228202   6.477   1.280   0.779
 5391SOL     OW28203   7.333   5.990   1.566
 5391SOL    HW128204   7.311   5.919   1.499
 5391SOL    HW228205   7.431   6.010   1.561
 5392SOL     OW28206   1.634   6.969   6.052
 5392SOL    HW128207   1.542   6.963   6.014
 5392SOL    HW228208   1.682   7.049   6.015
 5393SOL     OW28209   3.397   2.359   1.426
 5393SOL    HW128210   3.316   2.302   1.411
 5393SOL    HW228211   3.422   2.357   1.523
 5394SOL     OW28212   1.266   5.207   6.372
 5394SOL    HW128213   1.254   5.219   6.274
 5394SOL    HW228214   1.312   5.287   6.410
 5395SOL     OW28215   0.457   0.049   5.993
 5395SOL    HW128216   0.444   0.118   6.064
 5395SOL    HW228217   0.545   0.004   6.007
 5396SOL     OW28218   6.702   5.058   0.483
 5396SOL    HW128219   6.604   5.039   0.495
 5396SOL    HW228220   6.755   4.980   0.514
 5397SOL     OW28221   1.560   1.506   5.859
 5397SOL    HW128222   1.599   1.462   5.940
 5397SOL    HW228223   1.525   1.435   5.797
 5398SOL     OW28224   0.294   2.244   0.402
 5398SOL    HW128225   0.338   2.318   0.454
 5398SOL    HW228226   0.359   2.210   0.333
 5399SOL     OW28227   6.263   1.231   6.130
 5399SOL    HW128228   6.175   1.225   6.084
 5399SOL    HW228229   6.255   1.288   6.212
 5400SOL     OW28230   7.287   4.193   1.090
 5400SOL    HW128231   7.193   4.167   1.113
 5400SOL    HW228232   7.335   4.219   1.174
 5401SOL     OW28233   2.774   6.007   0.095
 5401SOL    HW128234   2.733   5.956   0.171
 5401SOL    HW228235   2.864   6.041   0.124
 5402SOL     OW28236   5.395   8.127   6.443
 5402SOL    HW128237   5.474   8.124   6.382
 5402SOL    HW228238   5.408   8.198   6.512
 5403SOL     OW28239   0.181   6.410   5.036
 5403SOL    HW128240   0.159   6.456   5.122
 5403SOL    HW228241   0.148   6.465   4.960
 5404SOL     OW28242   5.190   4.472   6.105
 5404SOL    HW128243   5.226   4.379   6.091
 5404SOL    HW228244   5.261   4.538   6.082
 5405SOL     OW28245   4.866   6.725   5.177
 5405SOL    HW128246   4.897   6.637   5.211
 5405SOL    HW228247   4.867   6.725   5.077
 5406SOL     OW28248   0.289   4.542   5.080
 5406SOL    HW128249   0.213   4.498   5.032
 5406SOL    HW228250   0.347   4.472   5.121
 5407SOL     OW28251   0.853   5.774   4.787
 5407SOL    HW128252   0.786   5.707   4.820
 5407SOL    HW228253   0.824   5.809   4.698
 5408SOL     OW28254   0.104   5.719   6.473
 5408SOL    HW128255   0.098   5.620   6.488
 5408SOL    HW228256   0.043   5.766   6.537
 5409SOL     OW28257   7.247   5.139   0.046
 5409SOL    HW128258   7.295   5.053   0.060
 5409SOL    HW228259   7.301   5.197  -0.016
 5410SOL     OW28260   1.252   1.071   6.019
 5410SOL    HW128261   1.297   1.023   6.095
 5410SOL    HW228262   1.313   1.074   5.940
 5411SOL     OW28263   8.892   2.352   6.053
 5411SOL    HW128264   8.938   2.364   5.965
 5411SOL    HW228265   8.796   2.378   6.043
 5412SOL     OW28266   5.512   0.984   6.429
 5412SOL    HW128267   5.563   0.979   6.343
 5412SOL    HW228268   5.574   1.006   6.504
 5413SOL     OW28269   4.392   5.710   0.682
 5413SOL    HW128270   4.374   5.617   0.713
 5413SOL    HW228271   4.491   5.728   0.687
 5414SOL     OW28272   3.332   6.577   5.747
 5414SOL    HW128273   3.250   6.531   5.711
 5414SOL    HW228274   3.363   6.530   5.830
 5415SOL     OW28275   6.715   0.676   0.471
 5415SOL    HW128276   6.619   0.669   0.498
 5415SOL    HW228277   6.733   0.612   0.397
 5416SOL     OW28278   5.678   3.487   6.693
 5416SOL    HW128279   5.778   3.489   6.699
 5416SOL    HW228280   5.651   3.501   6.597
 5417SOL     OW28281   7.207   7.939   1.209
 5417SOL    HW128282   7.148   7.892   1.275
 5417SOL    HW228283   7.295   7.960   1.251
 5418SOL     OW28284   7.230   2.256   0.974
 5418SOL    HW128285   7.255   2.348   0.943
 5418SOL    HW228286   7.290   2.189   0.931
 5419SOL     OW28287   6.763   8.102   0.323
 5419SOL    HW128288   6.792   8.150   0.405
 5419SOL    HW228289   6.843   8.075   0.269
 5420SOL     OW28290   1.400   1.874   0.742
 5420SOL    HW128291   1.472   1.907   0.803
 5420SOL    HW228292   1.364   1.787   0.777
 5421SOL     OW28293   0.507   6.073   5.284
 5421SOL    HW128294   0.480   6.169   5.279
 5421SOL    HW228295   0.525   6.038   5.192
 5422SOL     OW28296   4.871   1.932   6.661
 5422SOL    HW128297   4.787   1.902   6.707
 5422SOL    HW228298   4.896   1.864   6.592
 5423SOL     OW28299   5.998   5.867   5.404
 5423SOL    HW128300   6.035   5.839   5.493
 5423SOL    HW228301   5.939   5.947   5.416
 5424SOL     OW28302   3.372   2.918   6.102
 5424SOL    HW128303   3.335   2.912   6.194
 5424SOL    HW228304   3.353   2.833   6.053
 5425SOL     OW28305   1.291   2.433   0.974
 5425SOL    HW128306   1.241   2.480   0.901
 5425SOL    HW228307   1.245   2.449   1.061
 5426SOL     OW28308   1.906   2.415   6.659
 5426SOL    HW128309   1.982   2.413   6.594
 5426SOL    HW228310   1.868   2.323   6.669
 5427SOL     OW28311   1.825   4.238   0.947
 5427SOL    HW128312   1.726   4.236   0.934
 5427SOL    HW228313   1.870   4.197   0.868
 5428SOL     OW28314   7.335   6.561   6.606
 5428SOL    HW128315   7.269   6.511   6.550
 5428SOL    HW228316   7.287   6.628   6.662
 5429SOL     OW28317   7.673   6.184   0.759
 5429SOL    HW128318   7.674   6.090   0.794
 5429SOL    HW228319   7.685   6.248   0.834
 5430SOL     OW28320   6.464   2.612   6.599
 5430SOL    HW128321   6.379   2.582   6.556
 5430SOL    HW228322   6.466   2.711   6.605
 5431SOL     OW28323   8.525   5.501   6.323
 5431SOL    HW128324   8.625   5.493   6.327
 5431SOL    HW228325   8.495   5.574   6.384
 5432SOL     OW28326   4.474   7.992   1.790
 5432SOL    HW128327   4.437   8.004   1.882
 5432SOL    HW228328   4.538   7.915   1.790
 5433SOL     OW28329   2.713   3.351   5.851
 5433SOL    HW128330   2.670   3.260   5.852
 5433SOL    HW228331   2.669   3.408   5.920
 5434SOL     OW28332   0.466   0.633   5.675
 5434SOL    HW128333   0.385   0.598   5.722
 5434SOL    HW228334   0.450   0.632   5.576
 5435SOL     OW28335   4.818   0.547   1.212
 5435SOL    HW128336   4.869   0.461   1.203
 5435SOL    HW228337   4.720   0.527   1.214
 5436SOL     OW28338   0.254   7.700   1.111
 5436SOL    HW128339   0.193   7.777   1.090
 5436SOL    HW228340   0.269   7.696   1.210
 5437SOL     OW28341   6.188   1.944   6.699
 5437SOL    HW128342   6.258   1.915   6.764
 5437SOL    HW228343   6.183   2.044   6.698
 5438SOL     OW28344   0.411   3.209   1.131
 5438SOL    HW128345   0.466   3.240   1.208
 5438SOL    HW228346   0.336   3.151   1.165
 5439SOL     OW28347   1.707   2.814   5.986
 5439SOL    HW128348   1.789   2.759   6.001
 5439SOL    HW228349   1.635   2.756   5.948
 5440SOL     OW28350   7.432   6.770   5.601
 5440SOL    HW128351   7.397   6.782   5.508
 5440SOL    HW228352   7.518   6.821   5.611
 5441SOL     OW28353   2.968   1.491   5.942
 5441SOL    HW128354   2.989   1.587   5.920
 5441SOL    HW228355   2.929   1.447   5.861
 5442SOL     OW28356   1.338   1.013   5.738
 5442SOL    HW128357   1.260   0.952   5.751
 5442SOL    HW228358   1.335   1.054   5.648
 5443SOL     OW28359   6.829   8.242   5.816
 5443SOL    HW128360   6.870   8.152   5.805
 5443SOL    HW228361   6.808   8.258   5.912
 5444SOL     OW28362   5.279   1.822   5.617
 5444SOL    HW128363   5.278   1.849   5.520
 5444SOL    HW228364   5.287   1.904   5.674
 5445SOL     OW28365   6.740   1.782   0.986
 5445SOL    HW128366   6.706   1.872   1.016
 5445SOL    HW228367   6.833   1.769   1.019
 5446SOL     OW28368   3.935   6.119   0.954
 5446SOL    HW128369   3.904   6.063   1.031
 5446SOL    HW228370   3.929   6.066   0.869
 5447SOL     OW28371   6.735   1.485   6.499
 5447SOL    HW128372   6.769   1.575   6.471
 5447SOL    HW228373   6.760   1.417   6.430
 5448SOL     OW28374   5.170   0.944   5.796
 5448SOL    HW128375   5.199   0.864   5.743
 5448SOL    HW228376   5.184   1.027   5.743
 5449SOL     OW28377   3.915   3.992   6.173
 5449SOL    HW128378   4.000   4.029   6.135
 5449SOL    HW228379   3.919   3.997   6.273
 5450SOL     OW28380   8.210   5.630   1.557
 5450SOL    HW128381   8.186   5.558   1.491
 5450SOL    HW228382   8.174   5.606   1.647
 5451SOL     OW28383   2.313   2.284   1.794
 5451SOL    HW128384   2.392   2.339   1.769
 5451SOL    HW228385   2.229   2.338   1.781
 5452SOL     OW28386   5.300   4.987   0.322
 5452SOL    HW128387   5.285   4.889   0.308
 5452SOL    HW228388   5.230   5.022   0.385
 5453SOL     OW28389   8.865   8.435   6.122
 5453SOL    HW128390   8.903   8.388   6.202
 5453SOL    HW228391   8.789   8.382   6.086
 5454SOL     OW28392   6.485   5.543   0.980
 5454SOL    HW128393   6.458   5.488   1.058
 5454SOL    HW228394   6.556   5.496   0.928
 5455SOL     OW28395   8.800   6.567   5.066
 5455SOL    HW128396   8.706   6.584   5.037
 5455SOL    HW228397   8.833   6.482   5.024
 5456SOL     OW28398   3.423   1.850   0.219
 5456SOL    HW128399   3.384   1.814   0.134
 5456SOL    HW228400   3.448   1.946   0.206
 5457SOL     OW28401   5.595   5.807   0.163
 5457SOL    HW128402   5.672   5.767   0.213
 5457SOL    HW228403   5.529   5.844   0.228
 5458SOL     OW28404   2.837   1.753   6.083
 5458SOL    HW128405   2.805   1.658   6.079
 5458SOL    HW228406   2.759   1.814   6.094
 5459SOL     OW28407   0.581   2.262   6.281
 5459SOL    HW128408   0.601   2.257   6.379
 5459SOL    HW228409   0.546   2.353   6.259
 5460SOL     OW28410   6.004   4.906   6.379
 5460SOL    HW128411   5.995   4.881   6.475
 5460SOL    HW228412   6.064   4.987   6.371
 5461SOL     OW28413   8.797   5.002   0.332
 5461SOL    HW128414   8.739   4.925   0.304
 5461SOL    HW228415   8.773   5.029   0.426
 5462SOL     OW28416   6.972   4.873   5.445
 5462SOL    HW128417   7.011   4.799   5.389
 5462SOL    HW228418   6.923   4.937   5.385
 5463SOL     OW28419   7.638   1.225   0.074
 5463SOL    HW128420   7.571   1.234  -0.000
 5463SOL    HW228421   7.614   1.146   0.131
 5464SOL     OW28422   4.515   0.636   6.345
 5464SOL    HW128423   4.469   0.621   6.257
 5464SOL    HW228424   4.454   0.684   6.407
 5465SOL     OW28425   5.678   7.245   0.799
 5465SOL    HW128426   5.716   7.332   0.768
 5465SOL    HW228427   5.750   7.188   0.838
 5466SOL     OW28428   4.558   0.810   1.926
 5466SOL    HW128429   4.528   0.866   2.004
 5466SOL    HW228430   4.650   0.776   1.943
 5467SOL     OW28431   6.743   0.778   0.189
 5467SOL    HW128432   6.717   0.752   0.282
 5467SOL    HW228433   6.691   0.724   0.123
 5468SOL     OW28434   6.839   6.778   0.042
 5468SOL    HW128435   6.778   6.853   0.015
 5468SOL    HW228436   6.835   6.705  -0.025
 5469SOL     OW28437   1.318   6.527   6.286
 5469SOL    HW128438   1.255   6.502   6.360
 5469SOL    HW228439   1.342   6.446   6.233
 5470SOL     OW28440   5.513   2.507   1.100
 5470SOL    HW128441   5.559   2.509   1.011
 5470SOL    HW228442   5.578   2.532   1.172
 5471SOL     OW28443   0.152   7.928   0.992
 5471SOL    HW128444   0.197   7.987   1.059
 5471SOL    HW228445   0.059   7.959   0.976
 5472SOL     OW28446   6.864   0.654   5.844
 5472SOL    HW128447   6.787   0.716   5.858
 5472SOL    HW228448   6.933   0.699   5.787
 5473SOL     OW28449   5.174   0.011   5.802
 5473SOL    HW128450   5.077   0.004   5.777
 5473SOL    HW228451   5.205  -0.078   5.836
 5474SOL     OW28452   7.954   4.482   6.533
 5474SOL    HW128453   7.955   4.395   6.583
 5474SOL    HW228454   7.901   4.472   6.449
 5475SOL     OW28455   4.262   5.464   5.877
 5475SOL    HW128456   4.190   5.397   5.857
 5475SOL    HW228457   4.223   5.556   5.880
 5476SOL     OW28458   7.686   0.490   0.975
 5476SOL    HW128459   7.748   0.437   1.032
 5476SOL    HW228460   7.593   0.453   0.983
 5477SOL     OW28461   6.064   0.866   1.048
 5477SOL    HW128462   6.145   0.876   0.991
 5477SOL    HW228463   6.080   0.795   1.116
 5478SOL     OW28464   0.109   3.471   5.335
 5478SOL    HW128465   0.074   3.507   5.249
 5478SOL    HW228466   0.068   3.381   5.353
 5479SOL     OW28467   7.783   8.075   1.138
 5479SOL    HW128468   7.733   8.091   1.223
 5479SOL    HW228469   7.739   8.002   1.086
 5480SOL     OW28470   4.552   0.523   1.234
 5480SOL    HW128471   4.542   0.615   1.196
 5480SOL    HW228472   4.476   0.466   1.203
 5481SOL     OW28473   1.591   7.071   5.614
 5481SOL    HW128474   1.573   7.028   5.702
 5481SOL    HW228475   1.509   7.120   5.583
 5482SOL     OW28476   2.324   5.288   6.607
 5482SOL    HW128477   2.346   5.286   6.509
 5482SOL    HW228478   2.407   5.301   6.660
 5483SOL     OW28479   0.424   6.773   0.705
 5483SOL    HW128480   0.519   6.785   0.677
 5483SOL    HW228481   0.373   6.729   0.631
 5484SOL     OW28482   4.717   6.523   0.685
 5484SOL    HW128483   4.808   6.535   0.645
 5484SOL    HW228484   4.647   6.547   0.616
 5485SOL     OW28485   3.911   2.375   5.887
 5485SOL    HW128486   3.950   2.341   5.801
 5485SOL    HW228487   3.840   2.441   5.868
 5486SOL     OW28488   5.156   4.586   6.341
 5486SOL    HW128489   5.071   4.638   6.333
 5486SOL    HW228490   5.177   4.542   6.254
 5487SOL     OW28491   6.442   0.672   5.912
 5487SOL    HW128492   6.367   0.676   5.977
 5487SOL    HW228493   6.460   0.763   5.874
 5488SOL     OW28494   0.126   5.989   5.149
 5488SOL    HW128495   0.223   6.002   5.171
 5488SOL    HW228496   0.092   6.071   5.103
 5489SOL     OW28497   5.846   7.327   5.943
 5489SOL    HW128498   5.838   7.231   5.967
 5489SOL    HW228499   5.941   7.348   5.918
 5490SOL     OW28500   4.250   2.180   1.988
 5490SOL    HW128501   4.193   2.254   2.022
 5490SOL    HW228502   4.259   2.188   1.888
 5491SOL     OW28503   5.554   1.577   6.235
 5491SOL    HW128504   5.608   1.591   6.317
 5491SOL    HW228505   5.510   1.487   6.239
 5492SOL     OW28506   2.671   1.036   2.230
 5492SOL    HW128507   2.609   1.044   2.152
 5492SOL    HW228508   2.681   0.939   2.254
 5493SOL     OW28509   5.998   1.203   6.051
 5493SOL    HW128510   5.990   1.130   5.983
 5493SOL    HW228511   5.940   1.181   6.130
 5494SOL     OW28512   1.597   2.931   4.900
 5494SOL    HW128513   1.605   3.022   4.940
 5494SOL    HW228514   1.688   2.888   4.897
 5495SOL     OW28515   4.034   3.893   0.099
 5495SOL    HW128516   3.939   3.883   0.069
 5495SOL    HW228517   4.076   3.970   0.051
 5496SOL     OW28518   9.473   5.651   6.152
 5496SOL    HW128519   9.477   5.597   6.236
 5496SOL    HW228520   9.385   5.697   6.145
 5497SOL     OW28521   7.790   1.397   1.422
 5497SOL    HW128522   7.709   1.350   1.459
 5497SOL    HW228523   7.803   1.483   1.471
 5498SOL     OW28524   8.311   3.681   6.554
 5498SOL    HW128525   8.348   3.774   6.546
 5498SOL    HW228526   8.212   3.684   6.537
 5499SOL     OW28527   6.497   2.239   6.575
 5499SOL    HW128528   6.590   2.273   6.588
 5499SOL    HW228529   6.460   2.277   6.490
 5500SOL     OW28530   4.953   6.196   1.140
 5500SOL    HW128531   5.004   6.113   1.120
 5500SOL    HW228532   4.874   6.174   1.198
 5501SOL     OW28533   7.825   6.457   5.996
 5501SOL    HW128534   7.843   6.359   5.994
 5501SOL    HW228535   7.745   6.478   5.940
 5502SOL     OW28536   9.382   1.854   6.205
 5502SOL    HW128537   9.377   1.921   6.279
 5502SOL    HW228538   9.474   1.851   6.168
 5503SOL     OW28539   2.661   0.586   0.817
 5503SOL    HW128540   2.709   0.664   0.777
 5503SOL    HW228541   2.563   0.594   0.798
 5504SOL     OW28542   8.527   6.514   5.847
 5504SOL    HW128543   8.563   6.529   5.755
 5504SOL    HW228544   8.572   6.436   5.889
 5505SOL     OW28545   6.237   3.699   0.423
 5505SOL    HW128546   6.192   3.610   0.434
 5505SOL    HW228547   6.204   3.744   0.340
 5506SOL     OW28548   6.514   5.079   5.727
 5506SOL    HW128549   6.452   5.112   5.657
 5506SOL    HW228550   6.602   5.056   5.685
 5507SOL     OW28551   4.154   6.373   5.773
 5507SOL    HW128552   4.120   6.372   5.867
 5507SOL    HW228553   4.093   6.320   5.714
 5508SOL     OW28554   4.755   7.331   0.931
 5508SOL    HW128555   4.786   7.239   0.958
 5508SOL    HW228556   4.684   7.361   0.994
 5509SOL     OW28557   1.199   0.760   5.779
 5509SOL    HW128558   1.106   0.738   5.749
 5509SOL    HW228559   1.207   0.743   5.877
 5510SOL     OW28560   8.481   0.247   6.048
 5510SOL    HW128561   8.440   0.335   6.073
 5510SOL    HW228562   8.426   0.173   6.088
 5511SOL     OW28563   6.501   1.127   0.062
 5511SOL    HW128564   6.595   1.098   0.079
 5511SOL    HW228565   6.450   1.127   0.148
 5512SOL     OW28566   1.058   5.999   4.733
 5512SOL    HW128567   1.007   6.048   4.663
 5512SOL    HW228568   1.110   5.925   4.691
 5513SOL     OW28569   0.969   3.975   5.393
 5513SOL    HW128570   0.945   3.960   5.297
 5513SOL    HW228571   0.947   4.070   5.418
 5514SOL     OW28572   5.111   5.989   1.144
 5514SOL    HW128573   5.179   5.985   1.217
 5514SOL    HW228574   5.036   5.925   1.165
 5515SOL     OW28575   8.477   4.406   5.718
 5515SOL    HW128576   8.475   4.457   5.632
 5515SOL    HW228577   8.568   4.367   5.732
 5516SOL     OW28578   4.848   1.378   0.562
 5516SOL    HW128579   4.816   1.405   0.471
 5516SOL    HW228580   4.793   1.301   0.595
 5517SOL     OW28581   6.472   7.006   6.507
 5517SOL    HW128582   6.548   7.058   6.469
 5517SOL    HW228583   6.443   6.936   6.443
 5518SOL     OW28584   4.830   6.514   1.390
 5518SOL    HW128585   4.907   6.556   1.438
 5518SOL    HW228586   4.834   6.415   1.401
 5519SOL     OW28587   8.566   4.426   6.008
 5519SOL    HW128588   8.533   4.520   5.999
 5519SOL    HW228589   8.657   4.426   6.050
 5520SOL     OW28590   3.077   3.584   1.093
 5520SOL    HW128591   3.132   3.570   1.176
 5520SOL    HW228592   2.980   3.575   1.116
 5521SOL     OW28593   8.674   3.850   0.004
 5521SOL    HW128594   8.688   3.755  -0.024
 5521SOL    HW228595   8.754   3.883   0.054
 5522SOL     OW28596   6.891   6.704   0.599
 5522SOL    HW128597   6.841   6.752   0.672
 5522SOL    HW228598   6.873   6.749   0.512
 5523SOL     OW28599   3.352   6.722   6.351
 5523SOL    HW128600   3.356   6.796   6.418
 5523SOL    HW228601   3.440   6.674   6.348
 5524SOL     OW28602   0.553   6.914   1.257
 5524SOL    HW128603   0.514   6.943   1.344
 5524SOL    HW228604   0.650   6.894   1.269
 5525SOL     OW28605   4.857   3.054   6.512
 5525SOL    HW128606   4.865   3.024   6.417
 5525SOL    HW228607   4.904   2.989   6.572
 5526SOL     OW28608   6.847   6.329   5.997
 5526SOL    HW128609   6.912   6.299   5.927
 5526SOL    HW228610   6.767   6.269   5.996
 5527SOL     OW28611   2.086   3.560   0.365
 5527SOL    HW128612   2.130   3.594   0.282
 5527SOL    HW228613   2.150   3.565   0.442
 5528SOL     OW28614   0.416   3.765   0.769
 5528SOL    HW128615   0.477   3.788   0.693
 5528SOL    HW228616   0.368   3.680   0.748
 5529SOL     OW28617   7.402   3.774   1.911
 5529SOL    HW128618   7.395   3.698   1.975
 5529SOL    HW228619   7.334   3.844   1.935
 5530SOL     OW28620   5.457   5.310   6.044
 5530SOL    HW128621   5.478   5.226   5.994
 5530SOL    HW228622   5.364   5.305   6.080
 5531SOL     OW28623   3.417   1.567   0.857
 5531SOL    HW128624   3.439   1.494   0.922
 5531SOL    HW228625   3.366   1.639   0.904
 5532SOL     OW28626   7.106   6.084   0.939
 5532SOL    HW128627   7.057   6.071   1.026
 5532SOL    HW228628   7.054   6.147   0.881
 5533SOL     OW28629   6.947   1.719   1.164
 5533SOL    HW128630   6.941   1.791   1.233
 5533SOL    HW228631   7.015   1.651   1.194
 5534SOL     OW28632   2.781   7.707   0.235
 5534SOL    HW128633   2.830   7.794   0.226
 5534SOL    HW228634   2.834   7.644   0.291
 5535SOL     OW28635   0.735   4.299   0.122
 5535SOL    HW128636   0.642   4.263   0.117
 5535SOL    HW228637   0.799   4.223   0.130
 5536SOL     OW28638   0.495   4.866   6.090
 5536SOL    HW128639   0.438   4.785   6.105
 5536SOL    HW228640   0.538   4.861   6.000
 5537SOL     OW28641   6.730   5.488   0.807
 5537SOL    HW128642   6.781   5.420   0.859
 5537SOL    HW228643   6.718   5.457   0.712
 5538SOL     OW28644   0.947   3.093   0.054
 5538SOL    HW128645   0.858   3.059   0.022
 5538SOL    HW228646   0.996   3.019   0.100
 5539SOL     OW28647   1.062   7.760   6.175
 5539SOL    HW128648   1.130   7.833   6.184
 5539SOL    HW228649   1.010   7.752   6.259
 5540SOL     OW28650   3.555   6.855   5.083
 5540SOL    HW128651   3.584   6.951   5.079
 5540SOL    HW228652   3.635   6.797   5.094
 5541SOL     OW28653   7.144   6.020   5.166
 5541SOL    HW128654   7.192   6.062   5.089
 5541SOL    HW228655   7.184   5.931   5.185
 5542SOL     OW28656   6.565   1.010   6.420
 5542SOL    HW128657   6.554   1.077   6.493
 5542SOL    HW228658   6.487   1.015   6.357
 5543SOL     OW28659   7.690   7.913   6.128
 5543SOL    HW128660   7.789   7.918   6.118
 5543SOL    HW228661   7.655   7.839   6.070
 5544SOL     OW28662   2.577   5.609   4.933
 5544SOL    HW128663   2.588   5.572   5.025
 5544SOL    HW228664   2.667   5.625   4.892
 5545SOL     OW28665   4.083   0.648   5.652
 5545SOL    HW128666   4.021   0.639   5.730
 5545SOL    HW228667   4.044   0.712   5.586
 5546SOL     OW28668   3.435   7.441   0.171
 5546SOL    HW128669   3.340   7.466   0.188
 5546SOL    HW228670   3.476   7.404   0.254
 5547SOL     OW28671   7.956   7.240   4.927
 5547SOL    HW128672   7.921   7.315   4.871
 5547SOL    HW228673   7.897   7.228   5.007
 5548SOL     OW28674   0.669   3.128   1.118
 5548SOL    HW128675   0.709   3.220   1.121
 5548SOL    HW228676   0.574   3.135   1.088
 5549SOL     OW28677   3.595   5.040   5.764
 5549SOL    HW128678   3.595   4.954   5.817
 5549SOL    HW228679   3.680   5.090   5.782
 5550SOL     OW28680   4.337   4.544   6.565
 5550SOL    HW128681   4.398   4.620   6.542
 5550SOL    HW228682   4.260   4.543   6.501
 5551SOL     OW28683   4.764   1.787   0.516
 5551SOL    HW128684   4.729   1.698   0.546
 5551SOL    HW228685   4.857   1.776   0.480
 5552SOL     OW28686   5.225   8.148   5.406
 5552SOL    HW128687   5.215   8.235   5.453
 5552SOL    HW228688   5.171   8.150   5.321
 5553SOL     OW28689   6.532   4.035   4.958
 5553SOL    HW128690   6.480   4.088   4.891
 5553SOL    HW228691   6.503   3.940   4.955
 5554SOL     OW28692   7.712   6.316   6.480
 5554SOL    HW128693   7.670   6.385   6.420
 5554SOL    HW228694   7.804   6.345   6.505
 5555SOL     OW28695   1.201   0.884   5.454
 5555SOL    HW128696   1.178   0.794   5.490
 5555SOL    HW228697   1.129   0.914   5.391
 5556SOL     OW28698   4.937   1.351   5.616
 5556SOL    HW128699   4.914   1.379   5.523
 5556SOL    HW228700   4.853   1.336   5.668
 5557SOL     OW28701   3.934   6.459   1.514
 5557SOL    HW128702   4.014   6.503   1.473
 5557SOL    HW228703   3.942   6.360   1.504
 5558SOL     OW28704   3.759   5.929   6.456
 5558SOL    HW128705   3.771   6.005   6.520
 5558SOL    HW228706   3.849   5.892   6.432
 5559SOL     OW28707   4.270   0.949   1.099
 5559SOL    HW128708   4.187   0.941   1.044
 5559SOL    HW228709   4.246   0.951   1.196
 5560SOL     OW28710   1.858   5.004   5.881
 5560SOL    HW128711   1.784   5.012   5.814
 5560SOL    HW228712   1.944   5.032   5.838
 5561SOL     OW28713   0.727   5.402   5.264
 5561SOL    HW128714   0.773   5.327   5.312
 5561SOL    HW228715   0.651   5.366   5.209
 5562SOL     OW28716   0.220   7.098   5.728
 5562SOL    HW128717   0.313   7.075   5.699
 5562SOL    HW228718   0.171   7.142   5.653
 5563SOL     OW28719   6.098   1.315   1.016
 5563SOL    HW128720   6.193   1.345   1.025
 5563SOL    HW228721   6.042   1.357   1.088
 5564SOL     OW28722   1.595   8.388   0.594
 5564SOL    HW128723   1.540   8.422   0.518
 5564SOL    HW228724   1.643   8.465   0.638
 5565SOL     OW28725   2.170   4.939   6.374
 5565SOL    HW128726   2.266   4.923   6.395
 5565SOL    HW228727   2.163   5.006   6.299
 5566SOL     OW28728   1.302   0.166   4.830
 5566SOL    HW128729   1.383   0.108   4.828
 5566SOL    HW228730   1.244   0.141   4.907
 5567SOL     OW28731   4.005   0.270   0.950
 5567SOL    HW128732   4.045   0.256   1.041
 5567SOL    HW228733   3.956   0.357   0.948
 5568SOL     OW28734   3.290   2.099   0.259
 5568SOL    HW128735   3.358   2.100   0.332
 5568SOL    HW228736   3.230   2.178   0.268
 5569SOL     OW28737   3.943   2.462   0.577
 5569SOL    HW128738   3.991   2.445   0.491
 5569SOL    HW228739   3.954   2.558   0.602
 5570SOL     OW28740   2.669   1.201   6.309
 5570SOL    HW128741   2.577   1.184   6.274
 5570SOL    HW228742   2.718   1.263   6.247
 5571SOL     OW28743   2.321   6.482   6.077
 5571SOL    HW128744   2.401   6.427   6.105
 5571SOL    HW228745   2.315   6.564   6.133
 5572SOL     OW28746   7.843   7.278   4.556
 5572SOL    HW128747   7.781   7.200   4.553
 5572SOL    HW228748   7.791   7.362   4.538
 5573SOL     OW28749   5.687   8.161   0.049
 5573SOL    HW128750   5.733   8.229  -0.008
 5573SOL    HW228751   5.689   8.072   0.003
 5574SOL     OW28752   0.063   1.970   1.400
 5574SOL    HW128753   0.000   1.942   1.473
 5574SOL    HW228754   0.156   1.976   1.437
 5575SOL     OW28755   4.544   6.736   6.305
 5575SOL    HW128756   4.582   6.828   6.305
 5575SOL    HW228757   4.619   6.669   6.305
 5576SOL     OW28758   0.829   3.913   1.352
 5576SOL    HW128759   0.732   3.920   1.328
 5576SOL    HW228760   0.842   3.840   1.419
 5577SOL     OW28761   8.267   6.505   4.847
 5577SOL    HW128762   8.202   6.550   4.786
 5577SOL    HW228763   8.343   6.469   4.793
 5578SOL     OW28764   3.000   1.453   6.644
 5578SOL    HW128765   2.993   1.419   6.550
 5578SOL    HW228766   3.088   1.426   6.683
 5579SOL     OW28767   9.133   8.147   5.722
 5579SOL    HW128768   9.227   8.172   5.700
 5579SOL    HW228769   9.074   8.227   5.712
 5580SOL     OW28770   0.558   3.357   6.074
 5580SOL    HW128771   0.487   3.317   6.133
 5580SOL    HW228772   0.599   3.284   6.018
 5581SOL     OW28773   0.851   2.928   0.808
 5581SOL    HW128774   0.938   2.945   0.762
 5581SOL    HW228775   0.782   2.991   0.773
 5582SOL     OW28776   0.699   4.589   0.934
 5582SOL    HW128777   0.650   4.629   1.011
 5582SOL    HW228778   0.640   4.524   0.886
 5583SOL     OW28779   5.608   2.666   1.298
 5583SOL    HW128780   5.509   2.674   1.286
 5583SOL    HW228781   5.648   2.757   1.307
 5584SOL     OW28782   9.486   4.654   5.126
 5584SOL    HW128783   9.517   4.594   5.052
 5584SOL    HW228784   9.401   4.699   5.098
 5585SOL     OW28785   7.021   1.934   1.361
 5585SOL    HW128786   6.990   2.016   1.314
 5585SOL    HW228787   7.113   1.949   1.397
 5586SOL     OW28788   3.378   7.138   6.402
 5586SOL    HW128789   3.313   7.213   6.413
 5586SOL    HW228790   3.424   7.145   6.314
 5587SOL     OW28791   0.593   1.457   0.254
 5587SOL    HW128792   0.569   1.522   0.182
 5587SOL    HW228793   0.691   1.465   0.274
 5588SOL     OW28794   0.819   3.345   0.101
 5588SOL    HW128795   0.853   3.281   0.032
 5588SOL    HW228796   0.771   3.295   0.173
 5589SOL     OW28797   7.683   5.365   5.868
 5589SOL    HW128798   7.585   5.384   5.881
 5589SOL    HW228799   7.733   5.450   5.858
 5590SOL     OW28800   3.421   6.466   5.985
 5590SOL    HW128801   3.395   6.501   6.075
 5590SOL    HW228802   3.488   6.393   5.996
 5591SOL     OW28803   7.231   3.975   1.563
 5591SOL    HW128804   7.206   3.911   1.635
 5591SOL    HW228805   7.307   4.032   1.594
 5592SOL     OW28806   5.943   3.394   0.731
 5592SOL    HW128807   5.848   3.371   0.710
 5592SOL    HW228808   5.971   3.474   0.679
 5593SOL     OW28809   0.685   4.704   0.674
 5593SOL    HW128810   0.673   4.640   0.750
 5593SOL    HW228811   0.783   4.715   0.655
 5594SOL     OW28812   9.260   3.175   0.653
 5594SOL    HW128813   9.231   3.115   0.728
 5594SOL    HW228814   9.359   3.184   0.653
 5595SOL     OW28815   4.689   3.675   6.148
 5595SOL    HW128816   4.665   3.584   6.115
 5595SOL    HW228817   4.730   3.667   6.239
 5596SOL     OW28818   5.739   4.563   0.632
 5596SOL    HW128819   5.710   4.500   0.703
 5596SOL    HW228820   5.817   4.616   0.664
 5597SOL     OW28821   4.722   2.621   1.299
 5597SOL    HW128822   4.754   2.670   1.380
 5597SOL    HW228823   4.756   2.527   1.301
 5598SOL     OW28824   2.606   8.323   0.968
 5598SOL    HW128825   2.642   8.242   0.921
 5598SOL    HW228826   2.678   8.364   1.023
 5599SOL     OW28827   3.949   4.180   1.954
 5599SOL    HW128828   4.018   4.115   1.920
 5599SOL    HW228829   3.970   4.203   2.049
 5600SOL     OW28830   1.834   5.941   0.232
 5600SOL    HW128831   1.827   6.031   0.189
 5600SOL    HW228832   1.746   5.894   0.225
 5601SOL     OW28833   2.585   7.080   6.530
 5601SOL    HW128834   2.491   7.104   6.506
 5601SOL    HW228835   2.646   7.113   6.458
 5602SOL     OW28836   6.532   6.564   5.791
 5602SOL    HW128837   6.475   6.646   5.786
 5602SOL    HW228838   6.503   6.508   5.868
 5603SOL     OW28839   8.781   5.208   5.644
 5603SOL    HW128840   8.812   5.129   5.697
 5603SOL    HW228841   8.697   5.185   5.595
 5604SOL     OW28842   1.759   7.319   0.261
 5604SOL    HW128843   1.835   7.376   0.229
 5604SOL    HW228844   1.715   7.364   0.339
 5605SOL     OW28845   0.504   6.951   1.508
 5605SOL    HW128846   0.561   6.877   1.545
 5605SOL    HW228847   0.494   7.022   1.578
 5606SOL     OW28848   4.580   0.712   0.834
 5606SOL    HW128849   4.491   0.668   0.850
 5606SOL    HW228850   4.653   0.654   0.871
 5607SOL     OW28851   0.653   5.075   5.139
 5607SOL    HW128852   0.731   5.026   5.178
 5607SOL    HW228853   0.671   5.095   5.043
 5608SOL     OW28854   7.951   0.957   5.523
 5608SOL    HW128855   8.031   0.910   5.559
 5608SOL    HW228856   7.969   0.989   5.430
 5609SOL     OW28857   4.501   0.468   2.009
 5609SOL    HW128858   4.565   0.410   2.060
 5609SOL    HW228859   4.413   0.469   2.055
 5610SOL     OW28860   0.439   6.379   0.941
 5610SOL    HW128861   0.465   6.403   1.035
 5610SOL    HW228862   0.413   6.283   0.938
 5611SOL     OW28863   1.598   2.657   6.595
 5611SOL    HW128864   1.547   2.654   6.509
 5611SOL    HW228865   1.656   2.738   6.596
 5612SOL     OW28866   7.806   2.754   5.620
 5612SOL    HW128867   7.889   2.707   5.592
 5612SOL    HW228868   7.738   2.748   5.546
 5613SOL     OW28869   0.282   7.836   5.646
 5613SOL    HW128870   0.251   7.920   5.600
 5613SOL    HW228871   0.339   7.861   5.724
 5614SOL     OW28872   2.156   0.336   6.700
 5614SOL    HW128873   2.139   0.395   6.779
 5614SOL    HW228874   2.152   0.391   6.616
 5615SOL     OW28875   0.226   8.187   5.756
 5615SOL    HW128876   0.172   8.268   5.732
 5615SOL    HW228877   0.218   8.169   5.854
 5616SOL     OW28878   2.907   4.198   1.034
 5616SOL    HW128879   2.877   4.248   1.114
 5616SOL    HW228880   2.828   4.153   0.991
 5617SOL     OW28881   3.556   4.923   1.372
 5617SOL    HW128882   3.623   4.967   1.432
 5617SOL    HW228883   3.492   4.992   1.338
 5618SOL     OW28884   8.254   7.407   6.208
 5618SOL    HW128885   8.162   7.446   6.200
 5618SOL    HW228886   8.253   7.313   6.174
 5619SOL     OW28887   7.300   0.540   5.944
 5619SOL    HW128888   7.211   0.500   5.920
 5619SOL    HW228889   7.306   0.548   6.044
 5620SOL     OW28890   5.915   2.767   0.497
 5620SOL    HW128891   5.925   2.761   0.398
 5620SOL    HW228892   5.993   2.816   0.535
 5621SOL     OW28893   4.031   2.902   5.100
 5621SOL    HW128894   4.085   2.885   5.183
 5621SOL    HW228895   4.001   2.998   5.099
 5622SOL     OW28896   2.765   4.929   5.679
 5622SOL    HW128897   2.805   5.021   5.674
 5622SOL    HW228898   2.823   4.865   5.630
 5623SOL     OW28899   1.328   7.697   0.743
 5623SOL    HW128900   1.252   7.639   0.771
 5623SOL    HW228901   1.330   7.704   0.643
 5624SOL     OW28902   0.953   8.460   6.176
 5624SOL    HW128903   0.928   8.446   6.272
 5624SOL    HW228904   1.050   8.484   6.170
 5625SOL     OW28905   9.406   8.263   5.643
 5625SOL    HW128906   9.333   8.307   5.591
 5625SOL    HW228907   9.485   8.325   5.647
 5626SOL     OW28908   2.437   3.129   6.717
 5626SOL    HW128909   2.446   3.147   6.815
 5626SOL    HW228910   2.365   3.062   6.702
 5627SOL     OW28911   1.991   5.283   1.020
 5627SOL    HW128912   2.068   5.303   1.080
 5627SOL    HW228913   1.956   5.191   1.040
 5628SOL     OW28914   2.564   3.346   1.498
 5628SOL    HW128915   2.495   3.327   1.568
 5628SOL    HW228916   2.601   3.438   1.513
 5629SOL     OW28917   2.640   5.712   6.292
 5629SOL    HW128918   2.593   5.721   6.380
 5629SOL    HW228919   2.616   5.790   6.234
 5630SOL     OW28920   6.603   2.553   0.682
 5630SOL    HW128921   6.518   2.529   0.635
 5630SOL    HW228922   6.625   2.649   0.663
 5631SOL     OW28923   7.740   3.536   0.636
 5631SOL    HW128924   7.758   3.582   0.549
 5631SOL    HW228925   7.642   3.516   0.644
 5632SOL     OW28926   7.164   1.831   0.335
 5632SOL    HW128927   7.237   1.844   0.268
 5632SOL    HW228928   7.110   1.915   0.343
 5633SOL     OW28929   8.788   0.858   6.605
 5633SOL    HW128930   8.719   0.840   6.535
 5633SOL    HW228931   8.839   0.774   6.624
 5634SOL     OW28932   5.207   5.108   0.594
 5634SOL    HW128933   5.137   5.167   0.553
 5634SOL    HW228934   5.162   5.038   0.649
 5635SOL     OW28935   0.851   6.910   0.657
 5635SOL    HW128936   0.918   6.914   0.582
 5635SOL    HW228937   0.898   6.885   0.742
 5636SOL     OW28938   0.495   5.697   4.868
 5636SOL    HW128939   0.533   5.604   4.863
 5636SOL    HW228940   0.533   5.743   4.948
 5637SOL     OW28941   5.173   5.355   0.002
 5637SOL    HW128942   5.235   5.433   0.005
 5637SOL    HW228943   5.211   5.284  -0.057
 5638SOL     OW28944   7.424   2.967   0.088
 5638SOL    HW128945   7.412   3.036   0.159
 5638SOL    HW228946   7.436   3.011  -0.000
 5639SOL     OW28947   2.484   2.731   5.358
 5639SOL    HW128948   2.485   2.818   5.307
 5639SOL    HW228949   2.403   2.678   5.332
 5640SOL     OW28950   8.126   8.270   5.127
 5640SOL    HW128951   8.138   8.318   5.040
 5640SOL    HW228952   8.078   8.183   5.110
 5641SOL     OW28953   5.579   5.148   0.572
 5641SOL    HW128954   5.619   5.144   0.663
 5641SOL    HW228955   5.496   5.204   0.574
 5642SOL     OW28956   1.686   6.457   6.537
 5642SOL    HW128957   1.645   6.548   6.544
 5642SOL    HW228958   1.614   6.388   6.547
 5643SOL     OW28959   7.631   1.559   6.486
 5643SOL    HW128960   7.683   1.643   6.502
 5643SOL    HW228961   7.668   1.486   6.544
 5644SOL     OW28962   8.207   5.945   5.563
 5644SOL    HW128963   8.143   5.947   5.486
 5644SOL    HW228964   8.158   5.966   5.648
 5645SOL     OW28965   0.609   7.151   6.157
 5645SOL    HW128966   0.609   7.173   6.254
 5645SOL    HW228967   0.703   7.130   6.128
 5646SOL     OW28968   7.221   5.274   4.859
 5646SOL    HW128969   7.258   5.272   4.766
 5646SOL    HW228970   7.221   5.182   4.897
 5647SOL     OW28971   3.116   2.237   1.397
 5647SOL    HW128972   3.078   2.330   1.390
 5647SOL    HW228973   3.055   2.173   1.350
 5648SOL     OW28974   4.991   6.490   0.637
 5648SOL    HW128975   5.081   6.531   0.629
 5648SOL    HW228976   4.983   6.442   0.724
 5649SOL     OW28977   8.272   7.197   5.111
 5649SOL    HW128978   8.285   7.116   5.054
 5649SOL    HW228979   8.313   7.276   5.066
 5650SOL     OW28980   8.558   1.374   0.591
 5650SOL    HW128981   8.600   1.339   0.675
 5650SOL    HW228982   8.548   1.299   0.526
 5651SOL     OW28983   0.491   7.374   4.713
 5651SOL    HW128984   0.461   7.397   4.620
 5651SOL    HW228985   0.591   7.364   4.714
 5652SOL     OW28986   1.746   5.440   0.413
 5652SOL    HW128987   1.821   5.434   0.479
 5652SOL    HW228988   1.780   5.421   0.321
 5653SOL     OW28989   3.342   4.803   6.296
 5653SOL    HW128990   3.398   4.730   6.257
 5653SOL    HW228991   3.398   4.885   6.308
 5654SOL     OW28992   8.308   0.552   5.852
 5654SOL    HW128993   8.386   0.556   5.789
 5654SOL    HW228994   8.238   0.617   5.821
 5655SOL     OW28995   1.855   5.180   1.408
 5655SOL    HW128996   1.928   5.123   1.446
 5655SOL    HW228997   1.814   5.133   1.329
 5656SOL     OW28998   2.649   5.603   5.805
 5656SOL    HW128999   2.694   5.597   5.894
 5656SOL    HW229000   2.718   5.600   5.732
 5657SOL     OW29001   2.658   2.582   5.899
 5657SOL    HW129002   2.575   2.526   5.899
 5657SOL    HW229003   2.738   2.523   5.895
 5658SOL     OW29004   1.310   2.606   5.309
 5658SOL    HW129005   1.387   2.635   5.252
 5658SOL    HW229006   1.305   2.506   5.309
 5659SOL     OW29007   1.384   6.182   0.752
 5659SOL    HW129008   1.470   6.133   0.767
 5659SOL    HW229009   1.386   6.225   0.662
 5660SOL     OW29010   0.885   8.093   6.161
 5660SOL    HW129011   0.954   8.131   6.100
 5660SOL    HW229012   0.923   8.083   6.253
 5661SOL     OW29013   2.781   1.913   1.213
 5661SOL    HW129014   2.746   1.900   1.120
 5661SOL    HW229015   2.711   1.887   1.279
 5662SOL     OW29016   4.252   3.161   6.315
 5662SOL    HW129017   4.332   3.192   6.263
 5662SOL    HW229018   4.276   3.080   6.368
 5663SOL     OW29019   4.530   6.983   1.638
 5663SOL    HW129020   4.464   7.032   1.694
 5663SOL    HW229021   4.577   6.914   1.694
 5664SOL     OW29022   7.374   7.443   5.781
 5664SOL    HW129023   7.379   7.417   5.878
 5664SOL    HW229024   7.446   7.396   5.731
 5665SOL     OW29025   3.472   0.437   1.309
 5665SOL    HW129026   3.518   0.460   1.223
 5665SOL    HW229027   3.518   0.483   1.385
 5666SOL     OW29028   4.388   3.587   0.651
 5666SOL    HW129029   4.432   3.658   0.595
 5666SOL    HW229030   4.300   3.620   0.684
 5667SOL     OW29031   3.339   1.767   1.695
 5667SOL    HW129032   3.329   1.788   1.792
 5667SOL    HW229033   3.360   1.670   1.684
 5668SOL     OW29034   2.262   6.025   6.411
 5668SOL    HW129035   2.196   6.100   6.405
 5668SOL    HW229036   2.332   6.047   6.479
 5669SOL     OW29037   2.649   6.978   0.873
 5669SOL    HW129038   2.620   6.908   0.939
 5669SOL    HW229039   2.569   7.009   0.822
 5670SOL     OW29040   0.390   7.656   6.531
 5670SOL    HW129041   0.459   7.699   6.590
 5670SOL    HW229042   0.301   7.658   6.576
 5671SOL     OW29043   3.737   2.457   1.048
 5671SOL    HW129044   3.736   2.423   1.142
 5671SOL    HW229045   3.676   2.401   0.992
 5672SOL     OW29046   7.601   2.294   0.884
 5672SOL    HW129047   7.505   2.315   0.868
 5672SOL    HW229048   7.640   2.249   0.804
 5673SOL     OW29049   5.834   6.847   5.410
 5673SOL    HW129050   5.782   6.782   5.465
 5673SOL    HW229051   5.789   6.860   5.322
 5674SOL     OW29052   6.063   7.908   1.085
 5674SOL    HW129053   6.096   7.905   1.180
 5674SOL    HW229054   6.067   8.002   1.051
 5675SOL     OW29055   0.643   4.189   6.014
 5675SOL    HW129056   0.643   4.100   5.968
 5675SOL    HW229057   0.550   4.212   6.043
 5676SOL     OW29058   0.845   5.556   1.071
 5676SOL    HW129059   0.820   5.532   1.165
 5676SOL    HW229060   0.925   5.616   1.072
 5677SOL     OW29061   1.020   1.336   1.100
 5677SOL    HW129062   1.094   1.282   1.061
 5677SOL    HW229063   0.951   1.275   1.139
 5678SOL     OW29064   2.695   6.413   0.017
 5678SOL    HW129065   2.689   6.511  -0.002
 5678SOL    HW229066   2.791   6.387   0.029
 5679SOL     OW29067   5.481   2.824   0.699
 5679SOL    HW129068   5.424   2.884   0.643
 5679SOL    HW229069   5.422   2.761   0.750
 5680SOL     OW29070   1.714   1.418   1.079
 5680SOL    HW129071   1.779   1.487   1.046
 5680SOL    HW229072   1.686   1.441   1.172
 5681SOL     OW29073   2.190   8.484   0.602
 5681SOL    HW129074   2.215   8.388   0.613
 5681SOL    HW229075   2.170   8.524   0.691
 5682SOL     OW29076   3.824   0.280   5.769
 5682SOL    HW129077   3.817   0.380   5.771
 5682SOL    HW229078   3.742   0.242   5.728
 5683SOL     OW29079   4.239   1.974   6.329
 5683SOL    HW129080   4.309   2.046   6.328
 5683SOL    HW229081   4.282   1.886   6.307
 5684SOL     OW29082   5.983   6.723   2.008
 5684SOL    HW129083   6.081   6.736   2.022
 5684SOL    HW229084   5.947   6.664   2.080
 5685SOL     OW29085   8.721   6.918   1.460
 5685SOL    HW129086   8.637   6.928   1.513
 5685SOL    HW229087   8.715   6.836   1.403
 5686SOL     OW29088   4.300   4.858   5.522
 5686SOL    HW129089   4.331   4.765   5.503
 5686SOL    HW229090   4.235   4.887   5.452
 5687SOL     OW29091   9.060   8.384   0.145
 5687SOL    HW129092   9.035   8.480   0.161
 5687SOL    HW229093   9.141   8.361   0.199
 5688SOL     OW29094   3.032   6.482   1.217
 5688SOL    HW129095   2.981   6.399   1.195
 5688SOL    HW229096   2.979   6.562   1.188
 5689SOL     OW29097   4.795   2.792   6.075
 5689SOL    HW129098   4.866   2.845   6.028
 5689SOL    HW229099   4.838   2.733   6.143
 5690SOL     OW29100   2.946   3.421   5.961
 5690SOL    HW129101   2.937   3.520   5.953
 5690SOL    HW229102   2.873   3.376   5.910
 5691SOL     OW29103   5.945   0.404   1.836
 5691SOL    HW129104   6.008   0.481   1.845
 5691SOL    HW229105   5.934   0.359   1.925
 5692SOL     OW29106   4.632   3.439   0.095
 5692SOL    HW129107   4.676   3.388   0.022
 5692SOL    HW229108   4.640   3.537   0.077
 5693SOL     OW29109   5.137   1.006   6.689
 5693SOL    HW129110   5.179   0.916   6.704
 5693SOL    HW229111   5.093   1.037   6.773
 5694SOL     OW29112   0.203   2.787   6.726
 5694SOL    HW129113   0.133   2.756   6.662
 5694SOL    HW229114   0.250   2.867   6.688
 5695SOL     OW29115   1.376   1.932   1.180
 5695SOL    HW129116   1.439   1.859   1.154
 5695SOL    HW229117   1.427   2.018   1.188
 5696SOL     OW29118   3.755   5.035   1.520
 5696SOL    HW129119   3.842   4.995   1.491
 5696SOL    HW229120   3.722   4.987   1.601
 5697SOL     OW29121   1.353   2.647   6.444
 5697SOL    HW129122   1.278   2.630   6.509
 5697SOL    HW229123   1.357   2.745   6.423
 5698SOL     OW29124   4.514   7.450   6.041
 5698SOL    HW129125   4.563   7.444   5.954
 5698SOL    HW229126   4.578   7.438   6.117
 5699SOL     OW29127   1.300   2.010   5.274
 5699SOL    HW129128   1.244   2.076   5.325
 5699SOL    HW229129   1.340   2.055   5.195
 5700SOL     OW29130   5.647   8.038   1.981
 5700SOL    HW129131   5.718   7.976   2.017
 5700SOL    HW229132   5.561   7.987   1.971
 5701SOL     OW29133   5.925   3.041   0.934
 5701SOL    HW129134   5.973   3.124   0.964
 5701SOL    HW229135   5.975   3.000   0.858
 5702SOL     OW29136   7.972   2.873   0.444
 5702SOL    HW129137   8.061   2.917   0.460
 5702SOL    HW229138   7.899   2.937   0.467
 5703SOL     OW29139   3.649   1.799   6.144
 5703SOL    HW129140   3.550   1.791   6.157
 5703SOL    HW229141   3.679   1.732   6.076
 5704SOL     OW29142   3.383   1.420   1.294
 5704SOL    HW129143   3.374   1.495   1.228
 5704SOL    HW229144   3.450   1.444   1.363
 5705SOL     OW29145   7.110   6.720   0.257
 5705SOL    HW129146   7.102   6.634   0.207
 5705SOL    HW229147   7.165   6.707   0.339
 5706SOL     OW29148   4.856   1.516   1.642
 5706SOL    HW129149   4.839   1.453   1.717
 5706SOL    HW229150   4.853   1.610   1.676
 5707SOL     OW29151   1.062   1.553   6.682
 5707SOL    HW129152   1.079   1.618   6.756
 5707SOL    HW229153   1.148   1.531   6.637
 5708SOL     OW29154   5.438   7.771   0.289
 5708SOL    HW129155   5.498   7.836   0.243
 5708SOL    HW229156   5.478   7.744   0.376
 5709SOL     OW29157   2.429   0.925   1.068
 5709SOL    HW129158   2.514   0.875   1.087
 5709SOL    HW229159   2.354   0.884   1.120
 5710SOL     OW29160   2.146   6.859   6.632
 5710SOL    HW129161   2.163   6.953   6.605
 5710SOL    HW229162   2.141   6.801   6.550
 5711SOL     OW29163   8.581   4.178   6.569
 5711SOL    HW129164   8.607   4.160   6.664
 5711SOL    HW229165   8.660   4.213   6.519
 5712SOL     OW29166   8.520   1.971   1.383
 5712SOL    HW129167   8.533   2.066   1.355
 5712SOL    HW229168   8.538   1.962   1.481
 5713SOL     OW29169   5.640   8.114   6.308
 5713SOL    HW129170   5.739   8.129   6.318
 5713SOL    HW229171   5.621   8.067   6.222
 5714SOL     OW29172   3.756   7.356   0.409
 5714SOL    HW129173   3.785   7.262   0.423
 5714SOL    HW229174   3.836   7.417   0.412
 5715SOL     OW29175   5.654   4.229   1.450
 5715SOL    HW129176   5.700   4.165   1.511
 5715SOL    HW229177   5.555   4.223   1.462
 5716SOL     OW29178   6.054   0.608   0.571
 5716SOL    HW129179   6.008   0.680   0.519
 5716SOL    HW229180   5.994   0.575   0.644
 5717SOL     OW29181   5.603   2.161   0.905
 5717SOL    HW129182   5.588   2.087   0.840
 5717SOL    HW229183   5.566   2.246   0.867
 5718SOL     OW29184   0.220   1.906   0.850
 5718SOL    HW129185   0.203   1.815   0.888
 5718SOL    HW229186   0.268   1.961   0.917
 5719SOL     OW29187   7.802   5.530   4.917
 5719SOL    HW129188   7.863   5.534   4.839
 5719SOL    HW229189   7.707   5.527   4.885
 5720SOL     OW29190   5.718   6.709   0.634
 5720SOL    HW129191   5.670   6.728   0.720
 5720SOL    HW229192   5.749   6.796   0.594
 5721SOL     OW29193   4.222   6.573   5.551
 5721SOL    HW129194   4.219   6.494   5.612
 5721SOL    HW229195   4.191   6.545   5.460
 5722SOL     OW29196   7.808   5.368   0.369
 5722SOL    HW129197   7.852   5.281   0.350
 5722SOL    HW229198   7.724   5.353   0.421
 5723SOL     OW29199   6.102   4.266   0.266
 5723SOL    HW129200   6.051   4.276   0.351
 5723SOL    HW229201   6.149   4.351   0.244
 5724SOL     OW29202   8.893   2.111   6.178
 5724SOL    HW129203   8.926   2.106   6.272
 5724SOL    HW229204   8.878   2.207   6.154
 5725SOL     OW29205   4.592   7.958   5.290
 5725SOL    HW129206   4.518   7.892   5.275
 5725SOL    HW229207   4.648   7.927   5.367
 5726SOL     OW29208   0.159   7.297   0.965
 5726SOL    HW129209   0.130   7.202   0.951
 5726SOL    HW229210   0.104   7.338   1.038
 5727SOL     OW29211   6.671   4.212   1.192
 5727SOL    HW129212   6.625   4.256   1.116
 5727SOL    HW229213   6.641   4.253   1.278
 5728SOL     OW29214   2.388   6.632   6.367
 5728SOL    HW129215   2.434   6.703   6.420
 5728SOL    HW229216   2.305   6.603   6.414
 5729SOL     OW29217   5.601   0.260   6.468
 5729SOL    HW129218   5.607   0.356   6.441
 5729SOL    HW229219   5.574   0.253   6.564
 5730SOL     OW29220   0.424   1.298   6.551
 5730SOL    HW129221   0.499   1.304   6.486
 5730SOL    HW229222   0.341   1.334   6.509
 5731SOL     OW29223   7.861   3.780   1.196
 5731SOL    HW129224   7.812   3.811   1.115
 5731SOL    HW229225   7.930   3.712   1.169
 5732SOL     OW29226   3.608   7.441   2.168
 5732SOL    HW129227   3.663   7.444   2.251
 5732SOL    HW229228   3.651   7.381   2.101
 5733SOL     OW29229   2.895   3.049   6.637
 5733SOL    HW129230   2.904   2.977   6.568
 5733SOL    HW229231   2.911   3.138   6.595
 5734SOL     OW29232   8.496   8.225   0.649
 5734SOL    HW129233   8.590   8.205   0.619
 5734SOL    HW229234   8.432   8.185   0.584
 5735SOL     OW29235   7.678   4.961   6.575
 5735SOL    HW129236   7.692   4.975   6.477
 5735SOL    HW229237   7.649   4.866   6.592
 5736SOL     OW29238   5.324   8.090   1.542
 5736SOL    HW129239   5.386   8.144   1.485
 5736SOL    HW229240   5.346   8.104   1.638
 5737SOL     OW29241   1.030   3.517   0.010
 5737SOL    HW129242   1.021   3.617   0.009
 5737SOL    HW229243   0.952   3.477   0.057
 5738SOL     OW29244   5.804   1.265   0.574
 5738SOL    HW129245   5.893   1.274   0.620
 5738SOL    HW229246   5.814   1.206   0.494
 5739SOL     OW29247   5.419   8.272   1.379
 5739SOL    HW129248   5.379   8.358   1.411
 5739SOL    HW229249   5.386   8.252   1.286
 5740SOL     OW29250   5.508   8.191   0.283
 5740SOL    HW129251   5.596   8.179   0.236
 5740SOL    HW229252   5.524   8.217   0.378
 5741SOL     OW29253   3.760   4.737   1.388
 5741SOL    HW129254   3.670   4.779   1.374
 5741SOL    HW229255   3.779   4.730   1.486
 5742SOL     OW29256   4.984   7.068   5.566
 5742SOL    HW129257   4.925   7.047   5.488
 5742SOL    HW229258   4.965   7.005   5.641
 5743SOL     OW29259   5.994   1.515   6.398
 5743SOL    HW129260   6.063   1.448   6.369
 5743SOL    HW229261   6.010   1.540   6.493
 5744SOL     OW29262   8.786   7.183   6.234
 5744SOL    HW129263   8.700   7.167   6.185
 5744SOL    HW229264   8.774   7.165   6.331
 5745SOL     OW29265   0.574   0.933   5.360
 5745SOL    HW129266   0.589   0.925   5.261
 5745SOL    HW229267   0.661   0.928   5.408
 5746SOL     OW29268   8.059   3.452   6.423
 5746SOL    HW129269   8.117   3.474   6.345
 5746SOL    HW229270   8.071   3.521   6.494
 5747SOL     OW29271   9.329   3.120   6.245
 5747SOL    HW129272   9.303   3.152   6.336
 5747SOL    HW229273   9.264   3.051   6.214
 5748SOL     OW29274   9.440   4.931   1.023
 5748SOL    HW129275   9.507   4.957   1.094
 5748SOL    HW229276   9.407   4.839   1.041
 5749SOL     OW29277   4.851   1.477   6.165
 5749SOL    HW129278   4.872   1.443   6.257
 5749SOL    HW229279   4.829   1.574   6.170
 5750SOL     OW29280   0.377   7.067   0.743
 5750SOL    HW129281   0.390   7.045   0.840
 5750SOL    HW229282   0.352   6.983   0.694
 5751SOL     OW29283   2.027   2.869   6.625
 5751SOL    HW129284   2.049   2.782   6.667
 5751SOL    HW229285   2.098   2.892   6.558
 5752SOL     OW29286   8.874   3.955   0.128
 5752SOL    HW129287   8.893   4.050   0.151
 5752SOL    HW229288   8.945   3.896   0.166
 5753SOL     OW29289   1.006   6.625   0.054
 5753SOL    HW129290   0.986   6.585   0.143
 5753SOL    HW229291   0.972   6.719   0.051
 5754SOL     OW29292   1.183   8.347   0.463
 5754SOL    HW129293   1.210   8.440   0.488
 5754SOL    HW229294   1.143   8.301   0.542
 5755SOL     OW29295   6.979   4.289   1.335
 5755SOL    HW129296   7.072   4.321   1.354
 5755SOL    HW229297   6.983   4.199   1.291
 5756SOL     OW29298   1.423   4.899   6.166
 5756SOL    HW129299   1.415   4.807   6.127
 5756SOL    HW229300   1.508   4.942   6.133
 5757SOL     OW29301   7.879   7.502   6.467
 5757SOL    HW129302   7.921   7.588   6.437
 5757SOL    HW229303   7.813   7.521   6.540
 5758SOL     OW29304   7.098   5.631   1.005
 5758SOL    HW129305   7.107   5.636   0.906
 5758SOL    HW229306   7.155   5.557   1.040
 5759SOL     OW29307   0.513   5.708   5.843
 5759SOL    HW129308   0.566   5.717   5.759
 5759SOL    HW229309   0.551   5.634   5.898
 5760SOL     OW29310   4.998   6.273   5.942
 5760SOL    HW129311   5.016   6.309   6.033
 5760SOL    HW229312   5.079   6.227   5.907
 5761SOL     OW29313   4.040   5.533   2.031
 5761SOL    HW129314   4.003   5.619   2.067
 5761SOL    HW229315   3.969   5.463   2.034
 5762SOL     OW29316   3.499   6.309   0.905
 5762SOL    HW129317   3.509   6.324   1.003
 5762SOL    HW229318   3.436   6.233   0.889
 5763SOL     OW29319   2.199   5.606   0.932
 5763SOL    HW129320   2.207   5.645   1.023
 5763SOL    HW229321   2.115   5.638   0.888
 5764SOL     OW29322   3.402   4.716   1.486
 5764SOL    HW129323   3.375   4.735   1.581
 5764SOL    HW229324   3.439   4.799   1.445
 5765SOL     OW29325   6.685   6.298   1.527
 5765SOL    HW129326   6.741   6.217   1.542
 5765SOL    HW229327   6.642   6.325   1.613
 5766SOL     OW29328   0.980   0.868   0.825
 5766SOL    HW129329   1.029   0.932   0.765
 5766SOL    HW229330   0.914   0.918   0.880
 5767SOL     OW29331   8.930   3.346   6.732
 5767SOL    HW129332   8.985   3.266   6.712
 5767SOL    HW229333   8.947   3.417   6.662
 5768SOL     OW29334   8.903   7.436   1.103
 5768SOL    HW129335   8.970   7.508   1.117
 5768SOL    HW229336   8.847   7.424   1.185
 5769SOL     OW29337   2.086   4.127   1.909
 5769SOL    HW129338   2.015   4.187   1.946
 5769SOL    HW229339   2.051   4.079   1.828
 5770SOL     OW29340   1.247   6.673   0.161
 5770SOL    HW129341   1.159   6.632   0.139
 5770SOL    HW229342   1.305   6.673   0.080
 5771SOL     OW29343   1.861   2.756   0.558
 5771SOL    HW129344   1.804   2.731   0.636
 5771SOL    HW229345   1.957   2.741   0.580
 5772SOL     OW29346   5.927   3.125   1.487
 5772SOL    HW129347   5.924   3.067   1.568
 5772SOL    HW229348   5.834   3.151   1.461
 5773SOL     OW29349   4.137   0.859   1.459
 5773SOL    HW129350   4.143   0.901   1.550
 5773SOL    HW229351   4.050   0.885   1.416
 5774SOL     OW29352   0.589   1.920   0.141
 5774SOL    HW129353   0.637   1.973   0.071
 5774SOL    HW229354   0.535   1.981   0.198
 5775SOL     OW29355   0.792   7.643   5.973
 5775SOL    HW129356   0.880   7.685   5.953
 5775SOL    HW229357   0.743   7.698   6.041
 5776SOL     OW29358   4.531   6.523   0.471
 5776SOL    HW129359   4.533   6.601   0.409
 5776SOL    HW229360   4.553   6.439   0.421
 5777SOL     OW29361   3.973   3.100   6.200
 5777SOL    HW129362   4.006   3.027   6.141
 5777SOL    HW229363   4.047   3.134   6.257
 5778SOL     OW29364   8.914   4.007   6.083
 5778SOL    HW129365   8.947   4.101   6.082
 5778SOL    HW229366   8.817   4.005   6.062
 5779SOL     OW29367   2.684   7.523   5.886
 5779SOL    HW129368   2.741   7.540   5.805
 5779SOL    HW229369   2.587   7.527   5.860
 5780SOL     OW29370   6.787   0.915   5.818
 5780SOL    HW129371   6.775   0.958   5.729
 5780SOL    HW229372   6.871   0.951   5.861
 5781SOL     OW29373   7.324   6.007   0.576
 5781SOL    HW129374   7.372   5.956   0.647
 5781SOL    HW229375   7.242   5.958   0.549
 5782SOL     OW29376   6.455   1.923   0.149
 5782SOL    HW129377   6.499   1.901   0.237
 5782SOL    HW229378   6.522   1.963   0.087
 5783SOL     OW29379   4.941   1.317   5.932
 5783SOL    HW129380   4.875   1.361   5.994
 5783SOL    HW229381   5.030   1.361   5.942
 5784SOL     OW29382   5.215   2.244   5.592
 5784SOL    HW129383   5.201   2.210   5.499
 5784SOL    HW229384   5.193   2.341   5.596
 5785SOL     OW29385   4.151   2.016   5.962
 5785SOL    HW129386   4.120   1.921   5.969
 5785SOL    HW229387   4.229   2.030   6.023
 5786SOL     OW29388   3.345   6.930   1.432
 5786SOL    HW129389   3.401   6.940   1.514
 5786SOL    HW229390   3.401   6.890   1.359
 5787SOL     OW29391   8.791   6.751   5.629
 5787SOL    HW129392   8.863   6.795   5.575
 5787SOL    HW229393   8.824   6.663   5.663
 5788SOL     OW29394   0.488   7.091   5.113
 5788SOL    HW129395   0.389   7.076   5.121
 5788SOL    HW229396   0.508   7.189   5.119
 5789SOL     OW29397   0.583   6.532   1.427
 5789SOL    HW129398   0.527   6.578   1.495
 5789SOL    HW229399   0.680   6.547   1.448
 5790SOL     OW29400   3.541   8.360   1.312
 5790SOL    HW129401   3.578   8.326   1.226
 5790SOL    HW229402   3.547   8.288   1.381
 5791SOL     OW29403   4.664   4.770   0.794
 5791SOL    HW129404   4.588   4.713   0.762
 5791SOL    HW229405   4.685   4.747   0.889
 5792SOL     OW29406   1.180   2.835   5.259
 5792SOL    HW129407   1.197   2.740   5.287
 5792SOL    HW229408   1.246   2.896   5.302
 5793SOL     OW29409   6.052   0.660   1.887
 5793SOL    HW129410   5.992   0.737   1.909
 5793SOL    HW229411   6.138   0.669   1.938
 5794SOL     OW29412   8.168   7.678   0.193
 5794SOL    HW129413   8.205   7.622   0.267
 5794SOL    HW229414   8.243   7.728   0.149
 5795SOL     OW29415   9.044   6.861   1.392
 5795SOL    HW129416   8.976   6.811   1.338
 5795SOL    HW229417   9.063   6.810   1.476
 5796SOL     OW29418   1.243   4.288   5.627
 5796SOL    HW129419   1.341   4.272   5.643
 5796SOL    HW229420   1.226   4.295   5.529
 5797SOL     OW29421   4.837   4.596   6.581
 5797SOL    HW129422   4.815   4.549   6.495
 5797SOL    HW229423   4.849   4.529   6.654
 5798SOL     OW29424   9.115   7.669   0.993
 5798SOL    HW129425   9.139   7.604   0.920
 5798SOL    HW229426   9.178   7.657   1.070
 5799SOL     OW29427   4.608   5.730   1.558
 5799SOL    HW129428   4.550   5.776   1.491
 5799SOL    HW229429   4.597   5.775   1.647
 5800SOL     OW29430   1.904   6.439   5.033
 5800SOL    HW129431   1.895   6.363   4.969
 5800SOL    HW229432   2.000   6.452   5.056
 5801SOL     OW29433   5.495   5.823   1.053
 5801SOL    HW129434   5.588   5.845   1.023
 5801SOL    HW229435   5.429   5.869   0.994
 5802SOL     OW29436   3.257   5.821   5.825
 5802SOL    HW129437   3.354   5.845   5.834
 5802SOL    HW229438   3.212   5.831   5.914
 5803SOL     OW29439   7.175   5.618   0.747
 5803SOL    HW129440   7.274   5.607   0.758
 5803SOL    HW229441   7.151   5.715   0.760
 5804SOL     OW29442   1.755   4.744   6.262
 5804SOL    HW129443   1.741   4.766   6.358
 5804SOL    HW229444   1.758   4.828   6.208
 5805SOL     OW29445   0.118   3.062   6.160
 5805SOL    HW129446   0.022   3.084   6.176
 5805SOL    HW229447   0.124   2.976   6.109
 5806SOL     OW29448   6.568   4.038   0.949
 5806SOL    HW129449   6.548   4.130   0.984
 5806SOL    HW229450   6.621   4.045   0.864
 5807SOL     OW29451   0.023   0.207   1.505
 5807SOL    HW129452   0.055   0.269   1.434
 5807SOL    HW229453   0.014   0.257   1.591
 5808SOL     OW29454   4.335   2.852   1.354
 5808SOL    HW129455   4.388   2.892   1.429
 5808SOL    HW229456   4.252   2.905   1.339
 5809SOL     OW29457   4.992   0.700   0.551
 5809SOL    HW129458   4.997   0.604   0.522
 5809SOL    HW229459   4.897   0.731   0.547
 5810SOL     OW29460   8.892   2.606   0.566
 5810SOL    HW129461   8.837   2.682   0.600
 5810SOL    HW229462   8.848   2.519   0.591
 5811SOL     OW29463   6.881   5.822   6.676
 5811SOL    HW129464   6.902   5.920   6.681
 5811SOL    HW229465   6.864   5.797   6.581
 5812SOL     OW29466   7.025   2.984   0.459
 5812SOL    HW129467   7.124   2.968   0.464
 5812SOL    HW229468   6.979   2.899   0.437
 5813SOL     OW29469   1.940   4.427   0.218
 5813SOL    HW129470   2.029   4.385   0.199
 5813SOL    HW229471   1.891   4.443   0.132
 5814SOL     OW29472   1.935   2.621   4.778
 5814SOL    HW129473   1.866   2.549   4.777
 5814SOL    HW229474   1.895   2.706   4.811
 5815SOL     OW29475   8.080   4.677   6.683
 5815SOL    HW129476   8.019   4.612   6.639
 5815SOL    HW229477   8.031   4.763   6.699
 5816SOL     OW29478   8.093   6.016   6.546
 5816SOL    HW129479   8.066   5.942   6.607
 5816SOL    HW229480   8.181   5.995   6.504
 5817SOL     OW29481   8.305   6.801   5.705
 5817SOL    HW129482   8.309   6.710   5.665
 5817SOL    HW229483   8.252   6.861   5.645
 5818SOL     OW29484   1.743   0.291   1.513
 5818SOL    HW129485   1.758   0.199   1.551
 5818SOL    HW229486   1.659   0.329   1.551
 5819SOL     OW29487   3.412   2.458   6.195
 5819SOL    HW129488   3.323   2.458   6.242
 5819SOL    HW229489   3.485   2.471   6.263
 5820SOL     OW29490   9.336   2.361   6.153
 5820SOL    HW129491   9.249   2.389   6.194
 5820SOL    HW229492   9.325   2.357   6.053
 5821SOL     OW29493   4.856   0.714   5.296
 5821SOL    HW129494   4.815   0.748   5.212
 5821SOL    HW229495   4.947   0.754   5.307
 5822SOL     OW29496   4.886   6.088   0.316
 5822SOL    HW129497   4.904   6.069   0.413
 5822SOL    HW229498   4.960   6.050   0.261
 5823SOL     OW29499   0.324   6.567   4.390
 5823SOL    HW129500   0.399   6.511   4.354
 5823SOL    HW229501   0.270   6.602   4.313
 5824SOL     OW29502   3.600   2.397   1.870
 5824SOL    HW129503   3.609   2.486   1.914
 5824SOL    HW229504   3.607   2.325   1.940
 5825SOL     OW29505   4.624   5.815   1.203
 5825SOL    HW129506   4.699   5.847   1.262
 5825SOL    HW229507   4.600   5.721   1.227
 5826SOL     OW29508   7.400   5.422   0.781
 5826SOL    HW129509   7.404   5.339   0.837
 5826SOL    HW229510   7.329   5.411   0.711
 5827SOL     OW29511   1.616   2.324   5.925
 5827SOL    HW129512   1.616   2.413   5.970
 5827SOL    HW229513   1.544   2.321   5.856
 5828SOL     OW29514   5.137   4.852   0.742
 5828SOL    HW129515   5.043   4.884   0.751
 5828SOL    HW229516   5.187   4.871   0.827
 5829SOL     OW29517   4.026   1.267   0.563
 5829SOL    HW129518   4.064   1.336   0.502
 5829SOL    HW229519   4.087   1.188   0.566
 5830SOL     OW29520   8.885   7.399   5.089
 5830SOL    HW129521   8.829   7.334   5.140
 5830SOL    HW229522   8.831   7.439   5.015
 5831SOL     OW29523   6.356   1.557   1.985
 5831SOL    HW129524   6.365   1.606   2.071
 5831SOL    HW229525   6.433   1.494   1.974
 5832SOL     OW29526   3.410   5.624   6.287
 5832SOL    HW129527   3.425   5.714   6.246
 5832SOL    HW229528   3.315   5.595   6.272
 5833SOL     OW29529   7.468   0.696   6.713
 5833SOL    HW129530   7.553   0.680   6.763
 5833SOL    HW229531   7.488   0.699   6.615
 5834SOL     OW29532   8.720   4.728   6.025
 5834SOL    HW129533   8.800   4.760   5.974
 5834SOL    HW229534   8.750   4.684   6.110
 5835SOL     OW29535   2.717   5.188   0.517
 5835SOL    HW129536   2.621   5.163   0.531
 5835SOL    HW229537   2.771   5.154   0.594
 5836SOL     OW29538   7.203   6.741   0.523
 5836SOL    HW129539   7.146   6.811   0.565
 5836SOL    HW229540   7.247   6.686   0.595
 5837SOL     OW29541   7.882   1.854   0.691
 5837SOL    HW129542   7.909   1.900   0.775
 5837SOL    HW229543   7.963   1.818   0.645
 5838SOL     OW29544   2.659   1.230   5.991
 5838SOL    HW129545   2.602   1.155   6.022
 5838SOL    HW229546   2.755   1.204   5.996
 5839SOL     OW29547   5.101   6.797   0.091
 5839SOL    HW129548   5.142   6.855   0.161
 5839SOL    HW229549   5.060   6.854   0.020
 5840SOL     OW29550   5.837   5.383   6.684
 5840SOL    HW129551   5.741   5.379   6.659
 5840SOL    HW229552   5.847   5.368   6.783
 5841SOL     OW29553   3.286   0.309   6.662
 5841SOL    HW129554   3.340   0.226   6.673
 5841SOL    HW229555   3.204   0.304   6.717
 5842SOL     OW29556   6.933   7.458   6.069
 5842SOL    HW129557   6.957   7.553   6.085
 5842SOL    HW229558   6.846   7.437   6.113
 5843SOL     OW29559   9.253   3.121   1.242
 5843SOL    HW129560   9.181   3.104   1.309
 5843SOL    HW229561   9.343   3.117   1.287
 5844SOL     OW29562   4.899   4.921   0.325
 5844SOL    HW129563   4.951   4.959   0.249
 5844SOL    HW229564   4.802   4.916   0.300
 5845SOL     OW29565   3.667   2.179   5.971
 5845SOL    HW129566   3.672   2.086   5.933
 5845SOL    HW229567   3.760   2.210   5.991
 5846SOL     OW29568   9.170   4.434   6.716
 5846SOL    HW129569   9.248   4.492   6.693
 5846SOL    HW229570   9.166   4.356   6.654
 5847SOL     OW29571   8.086   7.673   5.217
 5847SOL    HW129572   8.055   7.730   5.141
 5847SOL    HW229573   8.166   7.620   5.189
 5848SOL     OW29574   2.242   2.219   6.567
 5848SOL    HW129575   2.216   2.306   6.525
 5848SOL    HW229576   2.164   2.156   6.563
 5849SOL     OW29577   6.098   0.554   6.436
 5849SOL    HW129578   6.198   0.561   6.437
 5849SOL    HW229579   6.072   0.461   6.410
 5850SOL     OW29580   9.046   5.030   6.068
 5850SOL    HW129581   8.983   5.015   6.144
 5850SOL    HW229582   9.054   4.946   6.014
 5851SOL     OW29583   7.462   5.514   4.835
 5851SOL    HW129584   7.516   5.571   4.772
 5851SOL    HW229585   7.365   5.521   4.812
 5852SOL     OW29586   7.445   2.230   0.323
 5852SOL    HW129587   7.359   2.223   0.273
 5852SOL    HW229588   7.496   2.310   0.289
 5853SOL     OW29589   9.166   5.565   0.778
 5853SOL    HW129590   9.166   5.498   0.853
 5853SOL    HW229591   9.183   5.656   0.815
 5854SOL     OW29592   3.967   5.337   0.704
 5854SOL    HW129593   3.878   5.303   0.735
 5854SOL    HW229594   3.994   5.416   0.760
 5855SOL     OW29595   7.487   7.782   5.787
 5855SOL    HW129596   7.466   7.752   5.694
 5855SOL    HW229597   7.495   7.881   5.790
 5856SOL     OW29598   2.040   5.602   0.275
 5856SOL    HW129599   1.999   5.580   0.364
 5856SOL    HW229600   2.071   5.518   0.231
 5857SOL     OW29601   7.231   6.939   0.953
 5857SOL    HW129602   7.243   6.880   1.032
 5857SOL    HW229603   7.222   7.034   0.983
 5858SOL     OW29604   1.950   3.748   5.356
 5858SOL    HW129605   1.967   3.805   5.276
 5858SOL    HW229606   1.909   3.661   5.327
 5859SOL     OW29607   1.945   2.367   6.046
 5859SOL    HW129608   1.887   2.427   6.101
 5859SOL    HW229609   1.889   2.314   5.983
 5860SOL     OW29610   1.169   6.805   6.379
 5860SOL    HW129611   1.247   6.866   6.392
 5860SOL    HW229612   1.201   6.716   6.345
 5861SOL     OW29613   8.147   6.693   5.282
 5861SOL    HW129614   8.203   6.773   5.302
 5861SOL    HW229615   8.101   6.662   5.365
 5862SOL     OW29616   2.841   1.333   0.429
 5862SOL    HW129617   2.901   1.380   0.493
 5862SOL    HW229618   2.847   1.234   0.444
 5863SOL     OW29619   8.276   7.535   5.779
 5863SOL    HW129620   8.373   7.512   5.781
 5863SOL    HW229621   8.222   7.452   5.766
 5864SOL     OW29622   6.814   7.195   1.126
 5864SOL    HW129623   6.846   7.172   1.218
 5864SOL    HW229624   6.806   7.111   1.072
 5865SOL     OW29625   0.287   7.718   0.813
 5865SOL    HW129626   0.281   7.703   0.911
 5865SOL    HW229627   0.318   7.812   0.796
 5866SOL     OW29628   7.630   3.560   1.156
 5866SOL    HW129629   7.649   3.652   1.121
 5866SOL    HW229630   7.680   3.546   1.242
 5867SOL     OW29631   7.760   6.036   1.017
 5867SOL    HW129632   7.761   5.955   1.076
 5867SOL    HW229633   7.688   6.099   1.049
 5868SOL     OW29634   4.512   0.366   5.735
 5868SOL    HW129635   4.576   0.435   5.769
 5868SOL    HW229636   4.529   0.349   5.638
 5869SOL     OW29637   7.805   0.062   5.742
 5869SOL    HW129638   7.708   0.078   5.729
 5869SOL    HW229639   7.857   0.140   5.708
 5870SOL     OW29640   5.665   4.711   0.183
 5870SOL    HW129641   5.706   4.795   0.218
 5870SOL    HW229642   5.732   4.636   0.187
 5871SOL     OW29643   8.079   5.188   0.746
 5871SOL    HW129644   8.002   5.133   0.714
 5871SOL    HW229645   8.160   5.168   0.691
 5872SOL     OW29646   1.530   5.774   5.704
 5872SOL    HW129647   1.582   5.761   5.620
 5872SOL    HW229648   1.516   5.686   5.749
 5873SOL     OW29649   4.582   7.590   5.126
 5873SOL    HW129650   4.651   7.577   5.055
 5873SOL    HW229651   4.497   7.621   5.084
 5874SOL     OW29652   2.278   5.527   5.681
 5874SOL    HW129653   2.298   5.620   5.713
 5874SOL    HW229654   2.324   5.460   5.740
 5875SOL     OW29655   2.164   4.781   5.659
 5875SOL    HW129656   2.155   4.765   5.757
 5875SOL    HW229657   2.245   4.733   5.625
 5876SOL     OW29658   2.483   3.622   5.708
 5876SOL    HW129659   2.567   3.569   5.721
 5876SOL    HW229660   2.507   3.717   5.688
 5877SOL     OW29661   5.418   6.938   0.645
 5877SOL    HW129662   5.368   6.962   0.562
 5877SOL    HW229663   5.421   7.016   0.706
 5878SOL     OW29664   2.906   0.135   0.539
 5878SOL    HW129665   2.813   0.142   0.573
 5878SOL    HW229666   2.906   0.086   0.451
 5879SOL     OW29667   5.649   8.287   2.125
 5879SOL    HW129668   5.644   8.189   2.105
 5879SOL    HW229669   5.745   8.314   2.132
 5880SOL     OW29670   6.478   8.035   5.837
 5880SOL    HW129671   6.422   7.955   5.858
 5880SOL    HW229672   6.435   8.088   5.764
 5881SOL     OW29673   8.871   2.779   0.253
 5881SOL    HW129674   8.950   2.784   0.191
 5881SOL    HW229675   8.793   2.825   0.211
 5882SOL     OW29676   3.198   8.424   6.355
 5882SOL    HW129677   3.205   8.361   6.278
 5882SOL    HW229678   3.117   8.482   6.344
 5883SOL     OW29679   2.482   2.416   1.092
 5883SOL    HW129680   2.430   2.478   1.033
 5883SOL    HW229681   2.483   2.325   1.052
 5884SOL     OW29682   1.608   7.727   0.754
 5884SOL    HW129683   1.653   7.703   0.840
 5884SOL    HW229684   1.509   7.713   0.763
 5885SOL     OW29685   1.982   4.686   5.449
 5885SOL    HW129686   1.997   4.683   5.351
 5885SOL    HW229687   2.065   4.720   5.495
 5886SOL     OW29688   2.709   1.953   0.089
 5886SOL    HW129689   2.744   1.879   0.147
 5886SOL    HW229690   2.732   1.934  -0.007
 5887SOL     OW29691   8.801   6.280   0.385
 5887SOL    HW129692   8.799   6.181   0.398
 5887SOL    HW229693   8.806   6.326   0.474
 5888SOL     OW29694   5.676   1.175   1.062
 5888SOL    HW129695   5.703   1.210   1.152
 5888SOL    HW229696   5.718   1.086   1.047
 5889SOL     OW29697   6.264   2.258   0.471
 5889SOL    HW129698   6.283   2.254   0.373
 5889SOL    HW229699   6.180   2.207   0.492
 5890SOL     OW29700   1.936   6.274   1.370
 5890SOL    HW129701   2.004   6.201   1.378
 5890SOL    HW229702   1.863   6.244   1.308
 5891SOL     OW29703   3.288   6.762   5.080
 5891SOL    HW129704   3.226   6.834   5.112
 5891SOL    HW229705   3.380   6.799   5.072
 5892SOL     OW29706   7.169   5.451   5.061
 5892SOL    HW129707   7.187   5.420   4.968
 5892SOL    HW229708   7.079   5.495   5.065
 5893SOL     OW29709   6.156   3.714   6.115
 5893SOL    HW129710   6.251   3.683   6.125
 5893SOL    HW229711   6.132   3.716   6.018
 5894SOL     OW29712   6.557   5.807   0.284
 5894SOL    HW129713   6.620   5.730   0.282
 5894SOL    HW229714   6.592   5.877   0.347
 5895SOL     OW29715   0.732   5.525   4.904
 5895SOL    HW129716   0.784   5.553   4.986
 5895SOL    HW229717   0.663   5.458   4.930
 5896SOL     OW29718   4.131   5.738   5.900
 5896SOL    HW129719   4.137   5.833   5.870
 5896SOL    HW229720   4.073   5.686   5.836
 5897SOL     OW29721   0.170   2.105   5.224
 5897SOL    HW129722   0.217   2.118   5.312
 5897SOL    HW229723   0.236   2.111   5.150
 5898SOL     OW29724   9.157   6.623   6.090
 5898SOL    HW129725   9.156   6.544   6.152
 5898SOL    HW229726   9.091   6.691   6.122
 5899SOL     OW29727   1.253   6.102   0.340
 5899SOL    HW129728   1.157   6.105   0.311
 5899SOL    HW229729   1.312   6.098   0.259
 5900SOL     OW29730   1.091   7.071   6.124
 5900SOL    HW129731   1.121   7.166   6.120
 5900SOL    HW229732   1.170   7.010   6.120
 5901SOL     OW29733   7.875   2.005   6.225
 5901SOL    HW129734   7.841   2.082   6.279
 5901SOL    HW229735   7.954   2.036   6.171
 5902SOL     OW29736   6.213   7.480   0.697
 5902SOL    HW129737   6.281   7.451   0.630
 5902SOL    HW229738   6.149   7.544   0.654
 5903SOL     OW29739   7.482   6.361   0.642
 5903SOL    HW129740   7.455   6.319   0.556
 5903SOL    HW229741   7.515   6.290   0.705
 5904SOL     OW29742   4.327   7.889   1.332
 5904SOL    HW129743   4.400   7.896   1.400
 5904SOL    HW229744   4.362   7.840   1.251
 5905SOL     OW29745   9.127   1.511   0.911
 5905SOL    HW129746   9.039   1.555   0.924
 5905SOL    HW229747   9.124   1.418   0.946
 5906SOL     OW29748   1.591   0.995   0.098
 5906SOL    HW129749   1.667   1.057   0.117
 5906SOL    HW229750   1.528   1.039   0.034
 5907SOL     OW29751   9.361   6.659   5.237
 5907SOL    HW129752   9.385   6.752   5.264
 5907SOL    HW229753   9.426   6.595   5.279
 5908SOL     OW29754   2.531   6.432   0.710
 5908SOL    HW129755   2.493   6.358   0.655
 5908SOL    HW229756   2.628   6.443   0.688
 5909SOL     OW29757   2.598   7.488   0.381
 5909SOL    HW129758   2.540   7.565   0.356
 5909SOL    HW229759   2.639   7.504   0.470
 5910SOL     OW29760   4.918   2.912   0.186
 5910SOL    HW129761   4.908   2.815   0.205
 5910SOL    HW229762   4.861   2.937   0.107
 5911SOL     OW29763   1.284   6.901   0.907
 5911SOL    HW129764   1.296   6.803   0.893
 5911SOL    HW229765   1.285   6.921   1.005
 5912SOL     OW29766   3.257   8.203   6.636
 5912SOL    HW129767   3.193   8.189   6.560
 5912SOL    HW229768   3.274   8.301   6.648
 5913SOL     OW29769   7.491   3.925   1.136
 5913SOL    HW129770   7.538   4.004   1.175
 5913SOL    HW229771   7.394   3.927   1.163
 5914SOL     OW29772   2.865   6.677   1.152
 5914SOL    HW129773   2.852   6.656   1.055
 5914SOL    HW229774   2.887   6.774   1.163
 5915SOL     OW29775   4.859   3.892   6.164
 5915SOL    HW129776   4.787   3.831   6.132
 5915SOL    HW229777   4.933   3.895   6.097
 5916SOL     OW29778   7.860   5.057   0.578
 5916SOL    HW129779   7.831   5.046   0.673
 5916SOL    HW229780   7.784   5.034   0.518
 5917SOL     OW29781   3.087   1.857   0.444
 5917SOL    HW129782   3.172   1.870   0.495
 5917SOL    HW229783   3.101   1.885   0.349
 5918SOL     OW29784   0.863   1.500   0.297
 5918SOL    HW129785   0.853   1.557   0.216
 5918SOL    HW229786   0.842   1.554   0.378
 5919SOL     OW29787   3.687   0.383   0.807
 5919SOL    HW129788   3.722   0.471   0.773
 5919SOL    HW229789   3.588   0.380   0.795
 5920SOL     OW29790   3.022   7.356   6.540
 5920SOL    HW129791   3.085   7.396   6.474
 5920SOL    HW229792   3.034   7.399   6.629
 5921SOL     OW29793   3.253   2.760   1.059
 5921SOL    HW129794   3.169   2.775   1.112
 5921SOL    HW229795   3.254   2.667   1.024
 5922SOL     OW29796   1.018   3.677   0.715
 5922SOL    HW129797   0.960   3.602   0.685
 5922SOL    HW229798   1.053   3.658   0.807
 5923SOL     OW29799   5.741   1.916   0.410
 5923SOL    HW129800   5.684   1.872   0.341
 5923SOL    HW229801   5.685   1.943   0.488
 5924SOL     OW29802   8.207   3.017   0.503
 5924SOL    HW129803   8.254   3.093   0.459
 5924SOL    HW229804   8.239   3.008   0.597
 5925SOL     OW29805   9.403   1.619   0.000
 5925SOL    HW129806   9.393   1.535   0.054
 5925SOL    HW229807   9.480   1.610  -0.062
 5926SOL     OW29808   5.317   0.214   5.708
 5926SOL    HW129809   5.276   0.296   5.749
 5926SOL    HW229810   5.261   0.134   5.731
 5927SOL     OW29811   3.918   3.512   6.629
 5927SOL    HW129812   3.952   3.445   6.695
 5927SOL    HW229813   3.834   3.478   6.587
 5928SOL     OW29814   5.598   5.588   0.430
 5928SOL    HW129815   5.502   5.560   0.431
 5928SOL    HW229816   5.641   5.562   0.517
 5929SOL     OW29817   5.905   5.592   6.354
 5929SOL    HW129818   5.993   5.545   6.360
 5929SOL    HW229819   5.834   5.536   6.396
 5930SOL     OW29820   5.082   6.428   1.206
 5930SOL    HW129821   5.030   6.343   1.209
 5930SOL    HW229822   5.023   6.502   1.175
 5931SOL     OW29823   4.378   5.124   6.535
 5931SOL    HW129824   4.328   5.209   6.521
 5931SOL    HW229825   4.314   5.051   6.560
 5932SOL     OW29826   2.258   4.211   0.816
 5932SOL    HW129827   2.277   4.246   0.724
 5932SOL    HW229828   2.255   4.288   0.880
 5933SOL     OW29829   4.107   0.737   6.289
 5933SOL    HW129830   4.057   0.819   6.315
 5933SOL    HW229831   4.062   0.656   6.328
 5934SOL     OW29832   2.024   6.856   0.599
 5934SOL    HW129833   1.934   6.869   0.641
 5934SOL    HW229834   2.087   6.816   0.665
 5935SOL     OW29835   8.279   6.380   0.028
 5935SOL    HW129836   8.283   6.369   0.127
 5935SOL    HW229837   8.187   6.407   0.000
 5936SOL     OW29838   3.486   3.103   0.082
 5936SOL    HW129839   3.508   3.065   0.172
 5936SOL    HW229840   3.548   3.179   0.062
 5937SOL     OW29841   1.332   6.339   0.117
 5937SOL    HW129842   1.393   6.264   0.142
 5937SOL    HW229843   1.301   6.386   0.199
 5938SOL     OW29844   1.218   7.175   5.329
 5938SOL    HW129845   1.160   7.185   5.410
 5938SOL    HW229846   1.175   7.113   5.265
 5939SOL     OW29847   3.886   5.148   5.775
 5939SOL    HW129848   3.833   5.211   5.718
 5939SOL    HW229849   3.982   5.176   5.775
 5940SOL     OW29850   0.354   6.816   4.185
 5940SOL    HW129851   0.334   6.893   4.125
 5940SOL    HW229852   0.321   6.837   4.277
 5941SOL     OW29853   1.221   3.320   5.688
 5941SOL    HW129854   1.123   3.333   5.703
 5941SOL    HW229855   1.270   3.403   5.715
 5942SOL     OW29856   4.362   1.755   6.245
 5942SOL    HW129857   4.418   1.720   6.320
 5942SOL    HW229858   4.421   1.777   6.168
 5943SOL     OW29859   7.097   6.053   1.858
 5943SOL    HW129860   7.011   6.028   1.815
 5943SOL    HW229861   7.140   6.128   1.807
 5944SOL     OW29862   4.471   6.775   0.384
 5944SOL    HW129863   4.455   6.827   0.467
 5944SOL    HW229864   4.433   6.824   0.306
 5945SOL     OW29865   3.488   3.794   6.702
 5945SOL    HW129866   3.520   3.778   6.795
 5945SOL    HW229867   3.526   3.880   6.668
 5946SOL     OW29868   2.217   8.249   0.708
 5946SOL    HW129869   2.316   8.246   0.694
 5946SOL    HW229870   2.193   8.207   0.795
 5947SOL     OW29871   7.187   5.328   0.636
 5947SOL    HW129872   7.103   5.308   0.586
 5947SOL    HW229873   7.171   5.405   0.699
 5948SOL     OW29874   0.429   8.021   6.391
 5948SOL    HW129875   0.526   8.012   6.412
 5948SOL    HW229876   0.389   7.930   6.378
 5949SOL     OW29877   5.362   4.431   6.471
 5949SOL    HW129878   5.289   4.469   6.413
 5949SOL    HW229879   5.418   4.368   6.416
 5950SOL     OW29880   0.091   0.313   6.301
 5950SOL    HW129881   0.054   0.390   6.352
 5950SOL    HW229882   0.109   0.341   6.207
 5951SOL     OW29883   2.920   2.458   1.442
 5951SOL    HW129884   2.919   2.387   1.512
 5951SOL    HW229885   2.874   2.540   1.477
 5952SOL     OW29886   4.998   4.244   1.468
 5952SOL    HW129887   4.939   4.163   1.473
 5952SOL    HW229888   5.062   4.233   1.392
 5953SOL     OW29889   2.079   0.135   0.811
 5953SOL    HW129890   2.054   0.217   0.862
 5953SOL    HW229891   2.074   0.055   0.872
 5954SOL     OW29892   3.520   5.602   5.885
 5954SOL    HW129893   3.609   5.557   5.893
 5954SOL    HW229894   3.532   5.701   5.892
 5955SOL     OW29895   7.436   4.133   1.629
 5955SOL    HW129896   7.508   4.086   1.679
 5955SOL    HW229897   7.443   4.232   1.646
 5956SOL     OW29898   6.667   4.107   6.267
 5956SOL    HW129899   6.714   4.064   6.345
 5956SOL    HW229900   6.672   4.046   6.188
 5957SOL     OW29901   3.812   7.359   5.971
 5957SOL    HW129902   3.872   7.436   5.992
 5957SOL    HW229903   3.801   7.303   6.053
 5958SOL     OW29904   4.719   8.300   0.860
 5958SOL    HW129905   4.634   8.305   0.912
 5958SOL    HW229906   4.796   8.325   0.919
 5959SOL     OW29907   3.962   0.811   5.840
 5959SOL    HW129908   4.006   0.883   5.786
 5959SOL    HW229909   3.910   0.852   5.915
 5960SOL     OW29910   3.986   6.220   5.614
 5960SOL    HW129911   3.942   6.262   5.534
 5960SOL    HW229912   3.998   6.122   5.597
 5961SOL     OW29913   2.775   4.450   0.790
 5961SOL    HW129914   2.873   4.470   0.789
 5961SOL    HW229915   2.750   4.400   0.707
 5962SOL     OW29916   5.031   3.503   6.121
 5962SOL    HW129917   5.041   3.599   6.147
 5962SOL    HW229918   4.985   3.497   6.032
 5963SOL     OW29919   7.986   0.664   0.639
 5963SOL    HW129920   8.053   0.737   0.632
 5963SOL    HW229921   7.922   0.685   0.713
 5964SOL     OW29922   3.113   2.660   0.406
 5964SOL    HW129923   3.121   2.629   0.311
 5964SOL    HW229924   3.200   2.702   0.434
 5965SOL     OW29925   2.650   2.561   0.753
 5965SOL    HW129926   2.684   2.596   0.665
 5965SOL    HW229927   2.612   2.637   0.806
 5966SOL     OW29928   1.410   4.984   6.458
 5966SOL    HW129929   1.358   5.069   6.452
 5966SOL    HW229930   1.430   4.950   6.366
 5967SOL     OW29931   4.532   5.116   5.436
 5967SOL    HW129932   4.529   5.055   5.516
 5967SOL    HW229933   4.539   5.061   5.353
 5968SOL     OW29934   2.562   4.346   5.490
 5968SOL    HW129935   2.555   4.405   5.410
 5968SOL    HW229936   2.562   4.250   5.462
 5969SOL     OW29937   3.361   6.764   1.229
 5969SOL    HW129938   3.289   6.799   1.169
 5969SOL    HW229939   3.324   6.689   1.284
 5970SOL     OW29940   6.069   1.835   1.709
 5970SOL    HW129941   6.040   1.796   1.622
 5970SOL    HW229942   6.150   1.892   1.695
 5971SOL     OW29943   6.149   6.228   1.971
 5971SOL    HW129944   6.088   6.189   2.040
 5971SOL    HW229945   6.233   6.260   2.016
 5972SOL     OW29946   2.032   7.831   0.232
 5972SOL    HW129947   1.961   7.777   0.186
 5972SOL    HW229948   2.121   7.810   0.191
 5973SOL     OW29949   2.610   2.458   5.218
 5973SOL    HW129950   2.584   2.539   5.165
 5973SOL    HW229951   2.563   2.378   5.181
 5974SOL     OW29952   0.406   0.707   5.365
 5974SOL    HW129953   0.492   0.755   5.351
 5974SOL    HW229954   0.330   0.765   5.334
 5975SOL     OW29955   8.154   0.973   0.856
 5975SOL    HW129956   8.101   1.043   0.905
 5975SOL    HW229957   8.243   1.011   0.831
 5976SOL     OW29958   7.776   2.064   1.445
 5976SOL    HW129959   7.749   2.140   1.385
 5976SOL    HW229960   7.843   2.007   1.397
 5977SOL     OW29961   5.141   2.955   0.776
 5977SOL    HW129962   5.237   2.967   0.803
 5977SOL    HW229963   5.091   2.911   0.850
 5978SOL     OW29964   4.617   5.297   1.798
 5978SOL    HW129965   4.655   5.222   1.743
 5978SOL    HW229966   4.627   5.275   1.895
 5979SOL     OW29967   8.149   6.983   5.468
 5979SOL    HW129968   8.096   7.056   5.511
 5979SOL    HW229969   8.124   6.975   5.372
 5980SOL     OW29970   0.269   1.917   6.515
 5980SOL    HW129971   0.294   1.976   6.592
 5980SOL    HW229972   0.312   1.951   6.432
 5981SOL     OW29973   4.826   0.300   6.582
 5981SOL    HW129974   4.873   0.320   6.667
 5981SOL    HW229975   4.747   0.241   6.600
 5982SOL     OW29976   1.280   1.623   6.572
 5982SOL    HW129977   1.349   1.555   6.547
 5982SOL    HW229978   1.302   1.710   6.529
 5983SOL     OW29979   3.944   1.111   1.389
 5983SOL    HW129980   3.913   1.047   1.320
 5983SOL    HW229981   4.042   1.129   1.377
 5984SOL     OW29982   2.731   0.111   6.605
 5984SOL    HW129983   2.715   0.149   6.514
 5984SOL    HW229984   2.659   0.140   6.667
 5985SOL     OW29985   8.580   2.235   1.340
 5985SOL    HW129986   8.612   2.302   1.272
 5985SOL    HW229987   8.602   2.268   1.432
 5986SOL     OW29988   5.012   6.084   5.135
 5986SOL    HW129989   4.975   6.170   5.170
 5986SOL    HW229990   5.091   6.103   5.077
 5987SOL     OW29991   7.470   5.827   6.324
 5987SOL    HW129992   7.501   5.919   6.345
 5987SOL    HW229993   7.423   5.789   6.404
 5988SOL     OW29994   0.605   8.052   5.174
 5988SOL    HW129995   0.640   7.962   5.147
 5988SOL    HW229996   0.644   8.076   5.263
 5989SOL     OW29997   2.467   6.206   6.529
 5989SOL    HW129998   2.492   6.248   6.442
 5989SOL    HW229999   2.487   6.269   6.604
 5990SOL     OW30000   2.281   6.772   5.218
 5990SOL    HW130001   2.302   6.870   5.209
 5990SOL    HW230002   2.259   6.734   5.128
 5991SOL     OW30003   7.197   7.535   6.395
 5991SOL    HW130004   7.114   7.578   6.359
 5991SOL    HW230005   7.277   7.586   6.364
 5992SOL     OW30006   4.641   3.431   6.060
 5992SOL    HW130007   4.716   3.432   5.994
 5992SOL    HW230008   4.570   3.368   6.029
 5993SOL     OW30009   5.809   6.419   5.444
 5993SOL    HW130010   5.885   6.425   5.379
 5993SOL    HW230011   5.765   6.508   5.452
 5994SOL     OW30012   3.519   6.153   4.889
 5994SOL    HW130013   3.541   6.058   4.914
 5994SOL    HW230014   3.601   6.209   4.897
 5995SOL     OW30015   9.486   6.186   4.991
 5995SOL    HW130016   9.547   6.265   4.987
 5995SOL    HW230017   9.394   6.213   4.962
 5996SOL     OW30018   0.586   4.894   0.862
 5996SOL    HW130019   0.659   4.955   0.893
 5996SOL    HW230020   0.621   4.832   0.792
 5997SOL     OW30021   3.619   4.508   1.031
 5997SOL    HW130022   3.530   4.479   0.996
 5997SOL    HW230023   3.677   4.428   1.045
 5998SOL     OW30024   5.173   2.340   0.833
 5998SOL    HW130025   5.161   2.425   0.782
 5998SOL    HW230026   5.100   2.331   0.901
 5999SOL     OW30027   1.295   0.561   0.907
 5999SOL    HW130028   1.319   0.480   0.854
 5999SOL    HW230029   1.219   0.540   0.968
 6000SOL     OW30030   1.655   5.649   4.779
 6000SOL    HW130031   1.603   5.703   4.714
 6000SOL    HW230032   1.600   5.571   4.810
 6001SOL     OW30033   0.471   6.925   6.473
 6001SOL    HW130034   0.422   6.870   6.540
 6001SOL    HW230035   0.412   7.000   6.442
 6002SOL     OW30036   5.206   0.020   6.150
 6002SOL    HW130037   5.196  -0.065   6.099
 6002SOL    HW230038   5.120   0.070   6.150
 6003SOL     OW30039   2.338   0.538   0.477
 6003SOL    HW130040   2.332   0.548   0.577
 6003SOL    HW230041   2.328   0.441   0.453
 6004SOL     OW30042   4.125   3.065   0.397
 6004SOL    HW130043   4.178   3.116   0.330
 6004SOL    HW230044   4.187   3.012   0.455
 6005SOL     OW30045   2.964   6.550   0.547
 6005SOL    HW130046   2.910   6.487   0.603
 6005SOL    HW230047   3.061   6.535   0.564
 6006SOL     OW30048   2.673   1.556   0.523
 6006SOL    HW130049   2.763   1.593   0.548
 6006SOL    HW230050   2.685   1.477   0.463
 6007SOL     OW30051   1.359   0.655   4.700
 6007SOL    HW130052   1.311   0.569   4.717
 6007SOL    HW230053   1.310   0.706   4.629
 6008SOL     OW30054   6.466   4.346   0.187
 6008SOL    HW130055   6.441   4.292   0.107
 6008SOL    HW230056   6.445   4.294   0.270
 6009SOL     OW30057   3.698   2.574   5.196
 6009SOL    HW130058   3.734   2.667   5.184
 6009SOL    HW230059   3.699   2.527   5.108
 6010SOL     OW30060   5.306   6.182   6.325
 6010SOL    HW130061   5.404   6.181   6.345
 6010SOL    HW230062   5.257   6.129   6.394
 6011SOL     OW30063   4.020   7.506   0.408
 6011SOL    HW130064   4.095   7.565   0.437
 6011SOL    HW230065   4.057   7.425   0.363
 6012SOL     OW30066   6.852   2.343   0.202
 6012SOL    HW130067   6.775   2.370   0.261
 6012SOL    HW230068   6.938   2.359   0.250
 6013SOL     OW30069   3.411   0.632   5.546
 6013SOL    HW130070   3.390   0.720   5.588
 6013SOL    HW230071   3.478   0.584   5.602
 6014SOL     OW30072   3.351   7.749   6.564
 6014SOL    HW130073   3.285   7.762   6.638
 6014SOL    HW230074   3.397   7.661   6.577
 6015SOL     OW30075   3.793   1.142   5.831
 6015SOL    HW130076   3.830   1.088   5.907
 6015SOL    HW230077   3.693   1.130   5.827
 6016SOL     OW30078   1.154   2.510   1.221
 6016SOL    HW130079   1.088   2.572   1.180
 6016SOL    HW230080   1.128   2.491   1.316
 6017SOL     OW30081   1.411   2.448   6.247
 6017SOL    HW130082   1.392   2.534   6.295
 6017SOL    HW230083   1.343   2.380   6.274
 6018SOL     OW30084   2.733   2.978   6.260
 6018SOL    HW130085   2.724   3.073   6.289
 6018SOL    HW230086   2.649   2.928   6.284
 6019SOL     OW30087   8.483   0.452   0.088
 6019SOL    HW130088   8.397   0.402   0.104
 6019SOL    HW230089   8.504   0.450  -0.010
 6020SOL     OW30090   6.354   5.212   5.551
 6020SOL    HW130091   6.299   5.145   5.501
 6020SOL    HW230092   6.402   5.271   5.487
 6021SOL     OW30093   5.708   0.113   6.279
 6021SOL    HW130094   5.650   0.158   6.348
 6021SOL    HW230095   5.800   0.102   6.316
 6022SOL     OW30096   2.065   3.969   5.887
 6022SOL    HW130097   2.133   3.940   5.820
 6022SOL    HW230098   2.019   3.888   5.924
 6023SOL     OW30099   1.409   7.230   5.515
 6023SOL    HW130100   1.402   7.324   5.549
 6023SOL    HW230101   1.363   7.223   5.426
 6024SOL     OW30102   2.417   0.910   5.727
 6024SOL    HW130103   2.409   0.976   5.652
 6024SOL    HW230104   2.488   0.941   5.790
 6025SOL     OW30105   5.646   1.204   1.378
 6025SOL    HW130106   5.588   1.276   1.416
 6025SOL    HW230107   5.595   1.118   1.378
 6026SOL     OW30108   5.913   5.082   1.706
 6026SOL    HW130109   5.959   5.169   1.690
 6026SOL    HW230110   5.908   5.065   1.805
 6027SOL     OW30111   8.087   8.254   5.515
 6027SOL    HW130112   8.186   8.267   5.516
 6027SOL    HW230113   8.048   8.298   5.434
 6028SOL     OW30114   6.891   2.449   1.134
 6028SOL    HW130115   6.919   2.427   1.041
 6028SOL    HW230116   6.806   2.401   1.156
 6029SOL     OW30117   6.656   7.836   0.422
 6029SOL    HW130118   6.566   7.879   0.432
 6029SOL    HW230119   6.724   7.906   0.405
 6030SOL     OW30120   2.342   2.534   6.107
 6030SOL    HW130121   2.288   2.473   6.164
 6030SOL    HW230122   2.429   2.555   6.154
 6031SOL     OW30123   8.673   6.757   4.578
 6031SOL    HW130124   8.727   6.788   4.499
 6031SOL    HW230125   8.643   6.663   4.564
 6032SOL     OW30126   8.364   7.663   6.149
 6032SOL    HW130127   8.366   7.587   6.084
 6032SOL    HW230128   8.315   7.635   6.232
 6033SOL     OW30129   6.898   1.239   5.889
 6033SOL    HW130130   6.979   1.266   5.836
 6033SOL    HW230131   6.831   1.197   5.827
 6034SOL     OW30132   1.111   0.942   0.397
 6034SOL    HW130133   1.070   1.018   0.346
 6034SOL    HW230134   1.196   0.914   0.352
 6035SOL     OW30135   6.902   4.322   5.268
 6035SOL    HW130136   6.908   4.339   5.169
 6035SOL    HW230137   6.879   4.227   5.284
 6036SOL     OW30138   9.287   4.141   6.259
 6036SOL    HW130139   9.211   4.195   6.296
 6036SOL    HW230140   9.273   4.126   6.161
 6037SOL     OW30141   7.789   5.490   6.701
 6037SOL    HW130142   7.799   5.540   6.615
 6037SOL    HW230143   7.879   5.475   6.741
 6038SOL     OW30144   2.347   4.953   4.957
 6038SOL    HW130145   2.441   4.933   4.928
 6038SOL    HW230146   2.284   4.894   4.906
 6039SOL     OW30147   9.225   6.292   4.912
 6039SOL    HW130148   9.273   6.318   4.828
 6039SOL    HW230149   9.129   6.272   4.891
 6040SOL     OW30150   0.896   4.908   5.105
 6040SOL    HW130151   0.981   4.863   5.130
 6040SOL    HW230152   0.862   4.870   5.019
 6041SOL     OW30153   4.497   0.203   1.936
 6041SOL    HW130154   4.447   0.283   1.904
 6041SOL    HW230155   4.569   0.232   1.999
 6042SOL     OW30156   4.951   6.488   5.284
 6042SOL    HW130157   5.035   6.440   5.309
 6042SOL    HW230158   4.893   6.427   5.229
 6043SOL     OW30159   0.560   4.614   1.201
 6043SOL    HW130160   0.591   4.549   1.271
 6043SOL    HW230161   0.593   4.705   1.224
 6044SOL     OW30162   3.890   7.458   5.119
 6044SOL    HW130163   3.898   7.495   5.027
 6044SOL    HW230164   3.907   7.360   5.117
 6045SOL     OW30165   2.117   4.655   6.037
 6045SOL    HW130166   2.076   4.655   6.128
 6045SOL    HW230167   2.146   4.748   6.013
 6046SOL     OW30168   7.905   1.807   1.425
 6046SOL    HW130169   7.889   1.726   1.483
 6046SOL    HW230170   7.977   1.863   1.465
 6047SOL     OW30171   7.756   1.858   6.015
 6047SOL    HW130172   7.763   1.929   6.085
 6047SOL    HW230173   7.754   1.768   6.060
 6048SOL     OW30174   6.610   7.313   0.094
 6048SOL    HW130175   6.651   7.222   0.088
 6048SOL    HW230176   6.549   7.327   0.016
 6049SOL     OW30177   5.982   1.841   6.567
 6049SOL    HW130178   6.063   1.881   6.611
 6049SOL    HW230179   5.977   1.872   6.472
 6050SOL     OW30180   5.633   5.985   0.883
 6050SOL    HW130181   5.601   6.077   0.862
 6050SOL    HW230182   5.725   5.989   0.922
 6051SOL     OW30183   3.154   4.306   0.177
 6051SOL    HW130184   3.217   4.381   0.158
 6051SOL    HW230185   3.073   4.315   0.119
 6052SOL     OW30186   6.985   2.102   6.192
 6052SOL    HW130187   6.982   2.038   6.269
 6052SOL    HW230188   7.009   2.053   6.108
 6053SOL     OW30189   0.893   3.210   6.331
 6053SOL    HW130190   0.906   3.112   6.344
 6053SOL    HW230191   0.822   3.243   6.395
 6054SOL     OW30192   5.693   7.170   5.309
 6054SOL    HW130193   5.690   7.249   5.247
 6054SOL    HW230194   5.789   7.147   5.327
 6055SOL     OW30195   1.459   4.847   0.251
 6055SOL    HW130196   1.439   4.833   0.154
 6055SOL    HW230197   1.541   4.903   0.260
 6056SOL     OW30198   4.059   7.051   1.197
 6056SOL    HW130199   4.002   6.985   1.149
 6056SOL    HW230200   4.072   7.132   1.140
 6057SOL     OW30201   4.132   1.814   5.513
 6057SOL    HW130202   4.201   1.752   5.475
 6057SOL    HW230203   4.059   1.827   5.446
 6058SOL     OW30204   4.146   7.197   6.700
 6058SOL    HW130205   4.232   7.149   6.683
 6058SOL    HW230206   4.111   7.234   6.614
 6059SOL     OW30207   2.296   0.206   1.828
 6059SOL    HW130208   2.264   0.261   1.905
 6059SOL    HW230209   2.328   0.118   1.861
 6060SOL     OW30210   0.176   5.941   0.119
 6060SOL    HW130211   0.131   5.857   0.089
 6060SOL    HW230212   0.272   5.923   0.138
 6061SOL     OW30213   1.211   7.382   0.952
 6061SOL    HW130214   1.177   7.342   1.037
 6061SOL    HW230215   1.135   7.392   0.887
 6062SOL     OW30216   6.100   5.304   0.507
 6062SOL    HW130217   6.135   5.314   0.413
 6062SOL    HW230218   6.079   5.394   0.544
 6063SOL     OW30219   7.538   6.991   0.572
 6063SOL    HW130220   7.507   7.026   0.660
 6063SOL    HW230221   7.631   6.956   0.581
 6064SOL     OW30222   7.410   8.316   0.877
 6064SOL    HW130223   7.362   8.343   0.961
 6064SOL    HW230224   7.371   8.365   0.799
 6065SOL     OW30225   1.074   1.810   1.770
 6065SOL    HW130226   1.055   1.845   1.678
 6065SOL    HW230227   1.132   1.875   1.819
 6066SOL     OW30228   5.576   3.831   0.259
 6066SOL    HW130229   5.663   3.784   0.271
 6066SOL    HW230230   5.508   3.767   0.223
 6067SOL     OW30231   1.051   1.977   5.945
 6067SOL    HW130232   1.075   2.066   5.984
 6067SOL    HW230233   1.090   1.969   5.853
 6068SOL     OW30234   4.714   3.185   0.408
 6068SOL    HW130235   4.712   3.159   0.504
 6068SOL    HW230236   4.777   3.261   0.395
 6069SOL     OW30237   6.924   6.275   6.418
 6069SOL    HW130238   6.932   6.295   6.516
 6069SOL    HW230239   6.829   6.255   6.396
 6070SOL     OW30240   7.422   0.356   6.375
 6070SOL    HW130241   7.323   0.354   6.359
 6070SOL    HW230242   7.454   0.264   6.399
 6071SOL     OW30243   2.358   7.034   5.218
 6071SOL    HW130244   2.299   7.109   5.190
 6071SOL    HW230245   2.436   7.027   5.155
 6072SOL     OW30246   5.998   1.263   5.540
 6072SOL    HW130247   5.933   1.204   5.491
 6072SOL    HW230248   6.087   1.217   5.546
 6073SOL     OW30249   3.216   0.532   0.292
 6073SOL    HW130250   3.148   0.462   0.313
 6073SOL    HW230251   3.264   0.507   0.208
 6074SOL     OW30252   5.938   3.055   5.524
 6074SOL    HW130253   5.891   2.967   5.515
 6074SOL    HW230254   5.899   3.120   5.458
 6075SOL     OW30255   8.032   2.628   6.264
 6075SOL    HW130256   8.094   2.638   6.187
 6075SOL    HW230257   8.071   2.674   6.344
 6076SOL     OW30258   0.533   0.876   0.719
 6076SOL    HW130259   0.587   0.936   0.660
 6076SOL    HW230260   0.482   0.811   0.662
 6077SOL     OW30261   6.731   5.601   0.293
 6077SOL    HW130262   6.705   5.521   0.348
 6077SOL    HW230263   6.764   5.571   0.204
 6078SOL     OW30264   6.572   0.163   0.824
 6078SOL    HW130265   6.649   0.157   0.887
 6078SOL    HW230266   6.543   0.071   0.798
 6079SOL     OW30267   1.040   6.396   5.296
 6079SOL    HW130268   1.135   6.423   5.308
 6079SOL    HW230269   1.027   6.304   5.333
 6080SOL     OW30270   1.038   7.459   0.757
 6080SOL    HW130271   0.948   7.416   0.756
 6080SOL    HW230272   1.065   7.482   0.663
 6081SOL     OW30273   5.801   1.781   2.031
 6081SOL    HW130274   5.861   1.706   2.056
 6081SOL    HW230275   5.706   1.750   2.032
 6082SOL     OW30276   2.704   0.180   6.305
 6082SOL    HW130277   2.681   0.117   6.231
 6082SOL    HW230278   2.731   0.268   6.265
 6083SOL     OW30279   0.856   5.191   0.978
 6083SOL    HW130280   0.923   5.182   1.052
 6083SOL    HW230281   0.898   5.162   0.892
 6084SOL     OW30282   8.884   1.593   1.035
 6084SOL    HW130283   8.857   1.689   1.042
 6084SOL    HW230284   8.808   1.534   1.063
 6085SOL     OW30285   2.929   2.857   6.442
 6085SOL    HW130286   2.857   2.893   6.382
 6085SOL    HW230287   2.988   2.795   6.390
 6086SOL     OW30288   9.423   7.788   6.399
 6086SOL    HW130289   9.378   7.818   6.483
 6086SOL    HW230290   9.432   7.866   6.336
 6087SOL     OW30291   0.789   4.550   0.278
 6087SOL    HW130292   0.725   4.548   0.355
 6087SOL    HW230293   0.781   4.465   0.227
 6088SOL     OW30294   5.459   7.900   5.812
 6088SOL    HW130295   5.385   7.937   5.756
 6088SOL    HW230296   5.529   7.971   5.825
 6089SOL     OW30297   3.340   8.293   0.969
 6089SOL    HW130298   3.248   8.299   1.008
 6089SOL    HW230299   3.371   8.384   0.941
 6090SOL     OW30300   0.841   1.411   6.479
 6090SOL    HW130301   0.817   1.502   6.443
 6090SOL    HW230302   0.939   1.395   6.466
 6091SOL     OW30303   1.177   2.471   0.499
 6091SOL    HW130304   1.175   2.570   0.515
 6091SOL    HW230305   1.267   2.435   0.524
 6092SOL     OW30306   3.246   2.188   0.917
 6092SOL    HW130307   3.237   2.257   0.846
 6092SOL    HW230308   3.264   2.232   1.005
 6093SOL     OW30309   2.787   7.508   0.938
 6093SOL    HW130310   2.852   7.466   1.002
 6093SOL    HW230311   2.726   7.569   0.988
 6094SOL     OW30312   0.995   6.077   0.254
 6094SOL    HW130313   0.928   6.119   0.315
 6094SOL    HW230314   0.968   6.090   0.159
 6095SOL     OW30315   1.444   8.388   0.143
 6095SOL    HW130316   1.370   8.387   0.076
 6095SOL    HW230317   1.426   8.319   0.214
 6096SOL     OW30318   6.555   7.992   1.508
 6096SOL    HW130319   6.610   7.910   1.495
 6096SOL    HW230320   6.528   8.001   1.604
 6097SOL     OW30321   2.824   5.536   5.553
 6097SOL    HW130322   2.821   5.511   5.457
 6097SOL    HW230323   2.885   5.473   5.602
 6098SOL     OW30324   9.351   7.557   4.848
 6098SOL    HW130325   9.352   7.641   4.902
 6098SOL    HW230326   9.257   7.522   4.842
 6099SOL     OW30327   8.065   6.572   0.366
 6099SOL    HW130328   8.052   6.495   0.429
 6099SOL    HW230329   8.011   6.556   0.283
 6100SOL     OW30330   1.061   7.974   1.154
 6100SOL    HW130331   1.044   7.995   1.250
 6100SOL    HW230332   1.124   7.896   1.148
 6101SOL     OW30333   3.906   6.382   1.095
 6101SOL    HW130334   3.849   6.312   1.139
 6101SOL    HW230335   3.998   6.345   1.079
 6102SOL     OW30336   6.002   7.734   5.538
 6102SOL    HW130337   5.926   7.672   5.558
 6102SOL    HW230338   6.013   7.742   5.439
 6103SOL     OW30339   2.081   8.073   0.404
 6103SOL    HW130340   2.070   7.983   0.361
 6103SOL    HW230341   2.177   8.100   0.399
 6104SOL     OW30342   0.431   0.657   6.534
 6104SOL    HW130343   0.523   0.696   6.539
 6104SOL    HW230344   0.400   0.633   6.626
 6105SOL     OW30345   4.900   8.181   4.952
 6105SOL    HW130346   4.846   8.265   4.966
 6105SOL    HW230347   4.842   8.101   4.966
 6106SOL     OW30348   5.265   7.245   6.460
 6106SOL    HW130349   5.276   7.155   6.501
 6106SOL    HW230350   5.171   7.256   6.429
 6107SOL     OW30351   4.959   5.531   5.490
 6107SOL    HW130352   4.954   5.462   5.417
 6107SOL    HW230353   4.998   5.615   5.454
 6108SOL     OW30354   7.674   4.916   0.140
 6108SOL    HW130355   7.750   4.856   0.165
 6108SOL    HW230356   7.694   4.962   0.054
 6109SOL     OW30357   7.832   0.610   5.984
 6109SOL    HW130358   7.837   0.511   5.968
 6109SOL    HW230359   7.751   0.647   5.939
 6110SOL     OW30360   4.214   0.425   6.279
 6110SOL    HW130361   4.148   0.355   6.251
 6110SOL    HW230362   4.265   0.457   6.199
 6111SOL     OW30363   2.636   1.077   0.062
 6111SOL    HW130364   2.620   1.126   0.148
 6111SOL    HW230365   2.548   1.046   0.025
 6112SOL     OW30366   0.872   6.466   0.890
 6112SOL    HW130367   0.800   6.495   0.826
 6112SOL    HW230368   0.889   6.538   0.957
 6113SOL     OW30369   0.483   7.493   4.427
 6113SOL    HW130370   0.531   7.581   4.429
 6113SOL    HW230371   0.410   7.497   4.359
 6114SOL     OW30372   6.239   7.006   0.854
 6114SOL    HW130373   6.191   6.920   0.837
 6114SOL    HW230374   6.209   7.074   0.787
 6115SOL     OW30375   6.974   7.225   6.566
 6115SOL    HW130376   6.948   7.321   6.560
 6115SOL    HW230377   6.999   7.203   6.661
 6116SOL     OW30378   5.504   5.336   6.423
 6116SOL    HW130379   5.512   5.361   6.519
 6116SOL    HW230380   5.517   5.237   6.413
 6117SOL     OW30381   5.190   7.486   1.258
 6117SOL    HW130382   5.257   7.487   1.332
 6117SOL    HW230383   5.139   7.400   1.260
 6118SOL     OW30384   7.139   1.638   5.908
 6118SOL    HW130385   7.060   1.631   5.847
 6118SOL    HW230386   7.220   1.658   5.854
 6119SOL     OW30387   1.118   1.752   0.175
 6119SOL    HW130388   1.038   1.723   0.228
 6119SOL    HW230389   1.161   1.831   0.220
 6120SOL     OW30390   5.412   6.650   2.080
 6120SOL    HW130391   5.345   6.718   2.110
 6120SOL    HW230392   5.503   6.678   2.110
 6121SOL     OW30393   6.888   4.223   1.001
 6121SOL    HW130394   6.823   4.237   1.075
 6121SOL    HW230395   6.914   4.311   0.961
 6122SOL     OW30396   5.350   1.393   6.676
 6122SOL    HW130397   5.351   1.338   6.759
 6122SOL    HW230398   5.314   1.484   6.697
 6123SOL     OW30399   5.217   0.254   1.354
 6123SOL    HW130400   5.212   0.345   1.395
 6123SOL    HW230401   5.208   0.185   1.425
 6124SOL     OW30402   8.661   1.552   5.716
 6124SOL    HW130403   8.594   1.512   5.777
 6124SOL    HW230404   8.615   1.590   5.636
 6125SOL     OW30405   1.120   1.839   0.554
 6125SOL    HW130406   1.146   1.834   0.458
 6125SOL    HW230407   1.189   1.793   0.610
 6126SOL     OW30408   3.491   8.387   5.899
 6126SOL    HW130409   3.424   8.426   5.963
 6126SOL    HW230410   3.581   8.386   5.943
 6127SOL     OW30411   6.335   6.573   6.391
 6127SOL    HW130412   6.301   6.497   6.446
 6127SOL    HW230413   6.418   6.544   6.342
 6128SOL     OW30414   9.420   5.845   6.694
 6128SOL    HW130415   9.443   5.943   6.689
 6128SOL    HW230416   9.404   5.820   6.790
 6129SOL     OW30417   4.650   4.368   0.644
 6129SOL    HW130418   4.714   4.360   0.720
 6129SOL    HW230419   4.689   4.428   0.574
 6130SOL     OW30420   7.170   6.688   1.780
 6130SOL    HW130421   7.231   6.626   1.830
 6130SOL    HW230422   7.116   6.741   1.845
 6131SOL     OW30423   4.810   7.694   0.434
 6131SOL    HW130424   4.883   7.673   0.499
 6131SOL    HW230425   4.826   7.784   0.393
 6132SOL     OW30426   2.648   4.730   0.251
 6132SOL    HW130427   2.720   4.662   0.240
 6132SOL    HW230428   2.639   4.783   0.166
 6133SOL     OW30429   2.986   5.367   5.676
 6133SOL    HW130430   3.026   5.275   5.667
 6133SOL    HW230431   3.026   5.413   5.755
 6134SOL     OW30432   2.612   2.819   5.984
 6134SOL    HW130433   2.618   2.739   5.923
 6134SOL    HW230434   2.587   2.789   6.076
 6135SOL     OW30435   1.899   4.860   0.445
 6135SOL    HW130436   1.927   4.827   0.355
 6135SOL    HW230437   1.858   4.951   0.436
 6136SOL     OW30438   8.981   6.840   0.679
 6136SOL    HW130439   8.906   6.895   0.715
 6136SOL    HW230440   9.068   6.881   0.707
 6137SOL     OW30441   0.689   7.336   1.036
 6137SOL    HW130442   0.685   7.398   0.957
 6137SOL    HW230443   0.597   7.302   1.056
 6138SOL     OW30444   5.296   4.013   0.437
 6138SOL    HW130445   5.276   3.979   0.345
 6138SOL    HW230446   5.210   4.033   0.485
 6139SOL     OW30447   5.185   2.538   6.459
 6139SOL    HW130448   5.276   2.519   6.494
 6139SOL    HW230449   5.120   2.470   6.494
 6140SOL     OW30450   2.503   4.750   1.118
 6140SOL    HW130451   2.454   4.724   1.035
 6140SOL    HW230452   2.471   4.839   1.150
 6141SOL     OW30453   2.051   5.124   6.179
 6141SOL    HW130454   2.010   5.215   6.180
 6141SOL    HW230455   2.009   5.069   6.107
 6142SOL     OW30456   2.968   7.031   1.095
 6142SOL    HW130457   3.040   7.099   1.109
 6142SOL    HW230458   2.930   7.005   1.184
 6143SOL     OW30459   4.367   1.286   0.450
 6143SOL    HW130460   4.435   1.316   0.383
 6143SOL    HW230461   4.288   1.348   0.448
 6144SOL     OW30462   9.474   5.546   4.721
 6144SOL    HW130463   9.542   5.580   4.785
 6144SOL    HW230464   9.512   5.544   4.628
 6145SOL     OW30465   5.294   6.985   6.622
 6145SOL    HW130466   5.276   6.907   6.562
 6145SOL    HW230467   5.392   6.990   6.642
 6146SOL     OW30468   6.089   8.143   6.595
 6146SOL    HW130469   6.048   8.053   6.610
 6146SOL    HW230470   6.166   8.155   6.657
 6147SOL     OW30471   9.435   2.240   5.281
 6147SOL    HW130472   9.376   2.229   5.201
 6147SOL    HW230473   9.516   2.181   5.272
 6148SOL     OW30474   3.672   4.199   0.201
 6148SOL    HW130475   3.583   4.155   0.214
 6148SOL    HW230476   3.667   4.261   0.123
 6149SOL     OW30477   2.309   5.674   4.941
 6149SOL    HW130478   2.402   5.665   4.904
 6149SOL    HW230479   2.293   5.770   4.966
 6150SOL     OW30480   2.513   6.300   6.045
 6150SOL    HW130481   2.495   6.340   5.955
 6150SOL    HW230482   2.467   6.212   6.052
 6151SOL     OW30483   2.799   7.274   1.623
 6151SOL    HW130484   2.808   7.330   1.541
 6151SOL    HW230485   2.764   7.331   1.698
 6152SOL     OW30486   3.125   2.349   5.637
 6152SOL    HW130487   3.121   2.259   5.594
 6152SOL    HW230488   3.118   2.420   5.566
 6153SOL     OW30489   4.741   0.359   0.854
 6153SOL    HW130490   4.812   0.415   0.811
 6153SOL    HW230491   4.657   0.365   0.800
 6154SOL     OW30492   9.301   0.865   0.785
 6154SOL    HW130493   9.282   0.859   0.883
 6154SOL    HW230494   9.292   0.774   0.744
 6155SOL     OW30495   4.145   4.638   6.383
 6155SOL    HW130496   4.108   4.701   6.314
 6155SOL    HW230497   4.072   4.612   6.447
 6156SOL     OW30498   3.361   6.080   0.981
 6156SOL    HW130499   3.336   6.124   1.068
 6156SOL    HW230500   3.298   6.107   0.910
 6157SOL     OW30501   3.098   2.965   1.380
 6157SOL    HW130502   3.044   2.946   1.462
 6157SOL    HW230503   3.195   2.950   1.400
 6158SOL     OW30504   7.083   4.699   0.471
 6158SOL    HW130505   6.990   4.727   0.448
 6158SOL    HW230506   7.147   4.739   0.405
 6159SOL     OW30507   7.319   6.537   5.008
 6159SOL    HW130508   7.386   6.570   4.943
 6159SOL    HW230509   7.237   6.507   4.959
 6160SOL     OW30510   2.080   6.172   0.424
 6160SOL    HW130511   2.093   6.135   0.331
 6160SOL    HW230512   2.150   6.241   0.442
 6161SOL     OW30513   6.834   5.259   5.131
 6161SOL    HW130514   6.832   5.341   5.187
 6161SOL    HW230515   6.906   5.268   5.061
 6162SOL     OW30516   4.158   7.642   6.607
 6162SOL    HW130517   4.082   7.577   6.617
 6162SOL    HW230518   4.153   7.711   6.679
 6163SOL     OW30519   1.789   8.454   1.275
 6163SOL    HW130520   1.876   8.405   1.274
 6163SOL    HW230521   1.714   8.387   1.267
 6164SOL     OW30522   0.707   3.295   5.716
 6164SOL    HW130523   0.776   3.290   5.789
 6164SOL    HW230524   0.704   3.207   5.668
 6165SOL     OW30525   0.578   7.375   3.898
 6165SOL    HW130526   0.674   7.377   3.926
 6165SOL    HW230527   0.527   7.445   3.948
 6166SOL     OW30528   5.402   1.891   1.595
 6166SOL    HW130529   5.351   1.975   1.574
 6166SOL    HW230530   5.338   1.814   1.597
 6167SOL     OW30531   3.580   2.494   5.982
 6167SOL    HW130532   3.515   2.474   6.055
 6167SOL    HW230533   3.555   2.442   5.900
 6168SOL     OW30534   2.663   4.404   0.221
 6168SOL    HW130535   2.595   4.354   0.276
 6168SOL    HW230536   2.621   4.430   0.134
 6169SOL     OW30537   6.373   2.664   5.897
 6169SOL    HW130538   6.292   2.605   5.895
 6169SOL    HW230539   6.454   2.612   5.872
 6170SOL     OW30540   5.863   4.910   0.558
 6170SOL    HW130541   5.901   4.995   0.594
 6170SOL    HW230542   5.883   4.835   0.620
 6171SOL     OW30543   5.986   8.440   0.686
 6171SOL    HW130544   5.898   8.485   0.670
 6171SOL    HW230545   5.971   8.345   0.711
 6172SOL     OW30546   5.305   1.540   0.906
 6172SOL    HW130547   5.316   1.441   0.910
 6172SOL    HW230548   5.352   1.576   0.826
 6173SOL     OW30549   1.073   2.494   6.419
 6173SOL    HW130550   1.085   2.504   6.518
 6173SOL    HW230551   1.136   2.424   6.385
 6174SOL     OW30552   1.694   4.644   5.896
 6174SOL    HW130553   1.621   4.663   5.961
 6174SOL    HW230554   1.670   4.682   5.806
 6175SOL     OW30555   3.441   7.484   6.529
 6175SOL    HW130556   3.363   7.456   6.473
 6175SOL    HW230557   3.454   7.418   6.603
 6176SOL     OW30558   1.170   2.859   0.024
 6176SOL    HW130559   1.204   2.917  -0.050
 6176SOL    HW230560   1.244   2.802   0.058
 6177SOL     OW30561   3.042   7.848   5.307
 6177SOL    HW130562   3.133   7.890   5.306
 6177SOL    HW230563   3.002   7.855   5.216
 6178SOL     OW30564   2.907   7.141   0.477
 6178SOL    HW130565   2.932   7.075   0.407
 6178SOL    HW230566   2.816   7.120   0.513
 6179SOL     OW30567   0.252   2.417   5.512
 6179SOL    HW130568   0.203   2.342   5.556
 6179SOL    HW230569   0.347   2.392   5.499
 6180SOL     OW30570   0.260   8.176   0.637
 6180SOL    HW130571   0.240   8.189   0.540
 6180SOL    HW230572   0.243   8.081   0.662
 6181SOL     OW30573   1.815   3.521   5.293
 6181SOL    HW130574   1.837   3.479   5.381
 6181SOL    HW230575   1.831   3.455   5.220
 6182SOL     OW30576   7.726   1.615   0.153
 6182SOL    HW130577   7.639   1.664   0.142
 6182SOL    HW230578   7.798   1.679   0.178
 6183SOL     OW30579   3.027   4.352   5.916
 6183SOL    HW130580   3.052   4.315   6.006
 6183SOL    HW230581   3.043   4.282   5.846
 6184SOL     OW30582   3.126   4.203   6.150
 6184SOL    HW130583   3.063   4.134   6.184
 6184SOL    HW230584   3.149   4.267   6.223
 6185SOL     OW30585   5.179   3.267   1.426
 6185SOL    HW130586   5.152   3.305   1.514
 6185SOL    HW230587   5.265   3.218   1.436
 6186SOL     OW30588   1.830   2.212   6.355
 6186SOL    HW130589   1.785   2.280   6.298
 6186SOL    HW230590   1.833   2.243   6.450
 6187SOL     OW30591   3.904   6.773   1.384
 6187SOL    HW130592   3.908   6.697   1.449
 6187SOL    HW230593   3.916   6.737   1.291
 6188SOL     OW30594   1.142   5.376   0.419
 6188SOL    HW130595   1.168   5.307   0.487
 6188SOL    HW230596   1.092   5.450   0.463
 6189SOL     OW30597   7.527   0.885   0.489
 6189SOL    HW130598   7.593   0.819   0.526
 6189SOL    HW230599   7.548   0.976   0.524
 6190SOL     OW30600   5.255   2.406   1.918
 6190SOL    HW130601   5.349   2.397   1.952
 6190SOL    HW230602   5.192   2.414   1.995
 6191SOL     OW30603   2.470   2.953   5.589
 6191SOL    HW130604   2.461   2.917   5.496
 6191SOL    HW230605   2.558   3.000   5.598
 6192SOL     OW30606   3.264   3.650   0.713
 6192SOL    HW130607   3.250   3.623   0.617
 6192SOL    HW230608   3.361   3.649   0.734
 6193SOL     OW30609   5.141   8.188   6.499
 6193SOL    HW130610   5.234   8.175   6.465
 6193SOL    HW230611   5.115   8.284   6.488
 6194SOL     OW30612   5.194   4.954   5.547
 6194SOL    HW130613   5.236   5.042   5.570
 6194SOL    HW230614   5.101   4.968   5.513
 6195SOL     OW30615   8.205   1.097   6.645
 6195SOL    HW130616   8.265   1.036   6.593
 6195SOL    HW230617   8.237   1.100   6.740
 6196SOL     OW30618   8.278   3.751   0.131
 6196SOL    HW130619   8.237   3.718   0.216
 6196SOL    HW230620   8.298   3.673   0.071
 6197SOL     OW30621   3.321   0.432   0.525
 6197SOL    HW130622   3.308   0.334   0.513
 6197SOL    HW230623   3.277   0.481   0.450
 6198SOL     OW30624   3.246   7.776   6.317
 6198SOL    HW130625   3.281   7.753   6.408
 6198SOL    HW230626   3.195   7.698   6.281
 6199SOL     OW30627   6.468   7.271   5.272
 6199SOL    HW130628   6.372   7.251   5.294
 6199SOL    HW230629   6.499   7.209   5.200
 6200SOL     OW30630   3.586   5.322   1.330
 6200SOL    HW130631   3.621   5.415   1.317
 6200SOL    HW230632   3.563   5.308   1.426
 6201SOL     OW30633   5.310   6.432   5.936
 6201SOL    HW130634   5.229   6.486   5.955
 6201SOL    HW230635   5.286   6.335   5.937
 6202SOL     OW30636   8.972   2.172   5.063
 6202SOL    HW130637   8.877   2.187   5.038
 6202SOL    HW230638   8.990   2.212   5.153
 6203SOL     OW30639   6.349   8.239   6.321
 6203SOL    HW130640   6.276   8.295   6.361
 6203SOL    HW230641   6.437   8.270   6.356
 6204SOL     OW30642   2.234   0.704   5.764
 6204SOL    HW130643   2.227   0.655   5.677
 6204SOL    HW230644   2.314   0.764   5.762
 6205SOL     OW30645   4.142   3.825   6.480
 6205SOL    HW130646   4.172   3.735   6.511
 6205SOL    HW230647   4.170   3.840   6.385
 6206SOL     OW30648   2.449   2.691   5.037
 6206SOL    HW130649   2.548   2.703   5.040
 6206SOL    HW230650   2.411   2.743   4.960
 6207SOL     OW30651   1.913   0.074   6.245
 6207SOL    HW130652   1.947   0.137   6.314
 6207SOL    HW230653   1.981   0.065   6.172
 6208SOL     OW30654   5.371   8.306   2.109
 6208SOL    HW130655   5.470   8.311   2.120
 6208SOL    HW230656   5.330   8.394   2.132
 6209SOL     OW30657   9.013   2.925   0.489
 6209SOL    HW130658   8.979   3.019   0.486
 6209SOL    HW230659   8.956   2.868   0.429
 6210SOL     OW30660   3.404   6.855   5.784
 6210SOL    HW130661   3.386   6.758   5.768
 6210SOL    HW230662   3.324   6.909   5.758
 6211SOL     OW30663   5.243   2.097   0.742
 6211SOL    HW130664   5.223   2.183   0.789
 6211SOL    HW230665   5.249   2.023   0.810
 6212SOL     OW30666   6.616   1.862   1.595
 6212SOL    HW130667   6.602   1.864   1.693
 6212SOL    HW230668   6.539   1.816   1.551
 6213SOL     OW30669   6.345   3.486   6.425
 6213SOL    HW130670   6.374   3.581   6.417
 6213SOL    HW230671   6.425   3.427   6.436
 6214SOL     OW30672   2.122   6.646   6.457
 6214SOL    HW130673   2.067   6.708   6.401
 6214SOL    HW230674   2.062   6.579   6.501
 6215SOL     OW30675   4.020   0.525   0.248
 6215SOL    HW130676   4.115   0.548   0.229
 6215SOL    HW230677   4.004   0.429   0.225
 6216SOL     OW30678   6.832   7.203   1.713
 6216SOL    HW130679   6.792   7.113   1.698
 6216SOL    HW230680   6.908   7.196   1.779
 6217SOL     OW30681   8.192   4.378   5.657
 6217SOL    HW130682   8.134   4.297   5.646
 6217SOL    HW230683   8.279   4.351   5.697
 6218SOL     OW30684   1.248   7.982   6.257
 6218SOL    HW130685   1.281   7.996   6.164
 6218SOL    HW230686   1.303   7.911   6.301
 6219SOL     OW30687   6.007   7.609   6.646
 6219SOL    HW130688   5.980   7.554   6.725
 6219SOL    HW230689   5.990   7.556   6.562
 6220SOL     OW30690   5.205   0.989   6.426
 6220SOL    HW130691   5.303   1.009   6.431
 6220SOL    HW230692   5.169   0.978   6.519
 6221SOL     OW30693   2.682   5.021   6.401
 6221SOL    HW130694   2.715   4.988   6.490
 6221SOL    HW230695   2.649   5.115   6.410
 6222SOL     OW30696   6.320   3.912   1.056
 6222SOL    HW130697   6.362   3.992   1.015
 6222SOL    HW230698   6.239   3.886   1.004
 6223SOL     OW30699   4.284   3.208   0.737
 6223SOL    HW130700   4.257   3.243   0.827
 6223SOL    HW230701   4.217   3.237   0.669
 6224SOL     OW30702   6.595   0.602   1.330
 6224SOL    HW130703   6.678   0.547   1.331
 6224SOL    HW230704   6.551   0.600   1.419
 6225SOL     OW30705   5.962   4.480   1.320
 6225SOL    HW130706   6.012   4.527   1.393
 6225SOL    HW230707   5.983   4.382   1.324
 6226SOL     OW30708   3.190   2.576   5.812
 6226SOL    HW130709   3.138   2.493   5.791
 6226SOL    HW230710   3.176   2.643   5.739
 6227SOL     OW30711   1.304   3.233   6.485
 6227SOL    HW130712   1.331   3.171   6.411
 6227SOL    HW230713   1.224   3.197   6.532
 6228SOL     OW30714   1.680   4.629   0.157
 6228SOL    HW130715   1.725   4.699   0.100
 6228SOL    HW230716   1.621   4.674   0.224
 6229SOL     OW30717   0.383   5.839   0.790
 6229SOL    HW130718   0.417   5.851   0.697
 6229SOL    HW230719   0.459   5.814   0.850
 6230SOL     OW30720   8.180   1.153   0.485
 6230SOL    HW130721   8.092   1.187   0.451
 6230SOL    HW230722   8.227   1.226   0.534
 6231SOL     OW30723   4.448   1.613   0.248
 6231SOL    HW130724   4.377   1.682   0.257
 6231SOL    HW230725   4.535   1.658   0.224
 6232SOL     OW30726   8.471   3.301   5.735
 6232SOL    HW130727   8.405   3.233   5.702
 6232SOL    HW230728   8.502   3.276   5.826
 6233SOL     OW30729   2.277   5.049   0.254
 6233SOL    HW130730   2.210   5.053   0.180
 6233SOL    HW230731   2.249   4.979   0.320
 6234SOL     OW30732   0.579   0.884   5.104
 6234SOL    HW130733   0.568   0.966   5.049
 6234SOL    HW230734   0.520   0.811   5.067
 6235SOL     OW30735   1.751   2.677   5.190
 6235SOL    HW130736   1.753   2.593   5.137
 6235SOL    HW230737   1.806   2.747   5.144
 6236SOL     OW30738   9.066   7.160   6.178
 6236SOL    HW130739   9.087   7.126   6.086
 6236SOL    HW230740   8.975   7.201   6.178
 6237SOL     OW30741   6.779   4.284   0.178
 6237SOL    HW130742   6.760   4.188   0.200
 6237SOL    HW230743   6.698   4.325   0.135
 6238SOL     OW30744   7.348   5.859   6.059
 6238SOL    HW130745   7.273   5.920   6.085
 6238SOL    HW230746   7.393   5.824   6.141
 6239SOL     OW30747   0.651   2.562   6.593
 6239SOL    HW130748   0.561   2.583   6.556
 6239SOL    HW230749   0.660   2.601   6.685
 6240SOL     OW30750   8.247   8.039   6.592
 6240SOL    HW130751   8.188   8.085   6.525
 6240SOL    HW230752   8.330   8.006   6.546
 6241SOL     OW30753   8.171   3.584   5.965
 6241SOL    HW130754   8.178   3.516   5.893
 6241SOL    HW230755   8.128   3.667   5.929
 6242SOL     OW30756   2.186   3.932   0.799
 6242SOL    HW130757   2.153   4.026   0.810
 6242SOL    HW230758   2.186   3.908   0.702
 6243SOL     OW30759   0.649   2.353   0.991
 6243SOL    HW130760   0.621   2.270   1.040
 6243SOL    HW230761   0.583   2.426   1.009
 6244SOL     OW30762   5.191   7.106   0.990
 6244SOL    HW130763   5.281   7.095   0.947
 6244SOL    HW230764   5.121   7.117   0.919
 6245SOL     OW30765   3.519   3.031   0.352
 6245SOL    HW130766   3.609   2.996   0.377
 6245SOL    HW230767   3.491   3.100   0.419
 6246SOL     OW30768   8.383   6.371   0.555
 6246SOL    HW130769   8.382   6.471   0.556
 6246SOL    HW230770   8.476   6.339   0.574
 6247SOL     OW30771   2.408   5.976   0.835
 6247SOL    HW130772   2.424   5.885   0.797
 6247SOL    HW230773   2.442   5.980   0.929
 6248SOL     OW30774   6.230   4.299   5.541
 6248SOL    HW130775   6.268   4.360   5.611
 6248SOL    HW230776   6.241   4.204   5.570
 6249SOL     OW30777   3.011   0.665   5.836
 6249SOL    HW130778   3.024   0.581   5.889
 6249SOL    HW230779   3.077   0.734   5.865
 6250SOL     OW30780   6.249   2.073   5.947
 6250SOL    HW130781   6.281   1.980   5.968
 6250SOL    HW230782   6.324   2.124   5.905
 6251SOL     OW30783   6.500   3.753   0.226
 6251SOL    HW130784   6.452   3.724   0.309
 6251SOL    HW230785   6.462   3.840   0.194
 6252SOL     OW30786   3.203   0.809   5.935
 6252SOL    HW130787   3.298   0.810   5.967
 6252SOL    HW230788   3.144   0.848   6.006
 6253SOL     OW30789   3.738   0.081   6.287
 6253SOL    HW130790   3.788   0.002   6.321
 6253SOL    HW230791   3.729   0.075   6.187
 6254SOL     OW30792   7.740   7.784   6.667
 6254SOL    HW130793   7.777   7.757   6.757
 6254SOL    HW230794   7.668   7.852   6.680
 6255SOL     OW30795   2.385   1.439   5.584
 6255SOL    HW130796   2.325   1.511   5.549
 6255SOL    HW230797   2.395   1.367   5.515
 6256SOL     OW30798   4.314   4.866   1.857
 6256SOL    HW130799   4.400   4.816   1.845
 6256SOL    HW230800   4.329   4.943   1.920
 6257SOL     OW30801   7.439   6.091   5.876
 6257SOL    HW130802   7.375   6.101   5.800
 6257SOL    HW230803   7.407   6.019   5.937
 6258SOL     OW30804   3.358   2.509   0.933
 6258SOL    HW130805   3.361   2.432   0.998
 6258SOL    HW230806   3.298   2.486   0.857
 6259SOL     OW30807   7.823   4.727   1.087
 6259SOL    HW130808   7.901   4.665   1.081
 6259SOL    HW230809   7.804   4.748   1.183
 6260SOL     OW30810   4.492   3.813   6.508
 6260SOL    HW130811   4.425   3.761   6.454
 6260SOL    HW230812   4.497   3.906   6.473
 6261SOL     OW30813   5.508   5.058   6.492
 6261SOL    HW130814   5.493   4.988   6.422
 6261SOL    HW230815   5.531   5.014   6.579
 6262SOL     OW30816   3.767   3.885   6.724
 6262SOL    HW130817   3.700   3.958   6.726
 6262SOL    HW230818   3.756   3.832   6.639
 6263SOL     OW30819   5.638   2.230   0.074
 6263SOL    HW130820   5.724   2.270   0.105
 6263SOL    HW230821   5.644   2.130   0.080
 6264SOL     OW30822   5.702   4.526   6.631
 6264SOL    HW130823   5.619   4.581   6.618
 6264SOL    HW230824   5.732   4.533   6.726
 6265SOL     OW30825   8.117   0.245   0.469
 6265SOL    HW130826   8.097   0.176   0.539
 6265SOL    HW230827   8.051   0.319   0.476
 6266SOL     OW30828   7.084   1.333   5.707
 6266SOL    HW130829   7.104   1.299   5.615
 6266SOL    HW230830   7.053   1.428   5.701
 6267SOL     OW30831   3.908   7.546   6.325
 6267SOL    HW130832   3.868   7.552   6.234
 6267SOL    HW230833   3.836   7.558   6.394
 6268SOL     OW30834   8.793   6.360   6.158
 6268SOL    HW130835   8.701   6.398   6.171
 6268SOL    HW230836   8.838   6.350   6.247
 6269SOL     OW30837   0.912   0.088   6.708
 6269SOL    HW130838   0.886   0.185   6.703
 6269SOL    HW230839   0.981   0.068   6.638
 6270SOL     OW30840   0.142   5.864   6.099
 6270SOL    HW130841   0.172   5.807   6.022
 6270SOL    HW230842   0.068   5.817   6.148
 6271SOL     OW30843   5.807   0.983   0.735
 6271SOL    HW130844   5.761   0.951   0.817
 6271SOL    HW230845   5.851   1.071   0.754
 6272SOL     OW30846   2.670   3.736   5.922
 6272SOL    HW130847   2.619   3.818   5.947
 6272SOL    HW230848   2.768   3.752   5.935
 6273SOL     OW30849   5.262   4.227   6.075
 6273SOL    HW130850   5.227   4.140   6.109
 6273SOL    HW230851   5.267   4.224   5.975
 6274SOL     OW30852   2.601   7.801   6.238
 6274SOL    HW130853   2.558   7.732   6.297
 6274SOL    HW230854   2.530   7.862   6.201
 6275SOL     OW30855   1.649   7.160   0.676
 6275SOL    HW130856   1.594   7.183   0.756
 6275SOL    HW230857   1.618   7.072   0.639
 6276SOL     OW30858   3.928   3.309   5.751
 6276SOL    HW130859   3.848   3.302   5.692
 6276SOL    HW230860   3.994   3.237   5.727
 6277SOL     OW30861   0.949   4.506   0.957
 6277SOL    HW130862   0.945   4.450   1.040
 6277SOL    HW230863   0.869   4.565   0.954
 6278SOL     OW30864   2.888   5.859   6.541
 6278SOL    HW130865   2.918   5.930   6.605
 6278SOL    HW230866   2.800   5.885   6.501
 6279SOL     OW30867   3.785   4.082   5.754
 6279SOL    HW130868   3.738   3.994   5.751
 6279SOL    HW230869   3.734   4.150   5.702
 6280SOL     OW30870   7.430   1.780   0.472
 6280SOL    HW130871   7.435   1.728   0.557
 6280SOL    HW230872   7.509   1.842   0.467
 6281SOL     OW30873   6.154   5.425   6.310
 6281SOL    HW130874   6.166   5.408   6.212
 6281SOL    HW230875   6.180   5.343   6.362
 6282SOL     OW30876   6.119   0.980   0.059
 6282SOL    HW130877   6.033   1.031   0.061
 6282SOL    HW230878   6.106   0.895   0.009
 6283SOL     OW30879   1.230   6.629   5.507
 6283SOL    HW130880   1.198   6.704   5.448
 6283SOL    HW230881   1.265   6.555   5.450
 6284SOL     OW30882   1.464   5.507   1.454
 6284SOL    HW130883   1.496   5.575   1.520
 6284SOL    HW230884   1.508   5.419   1.472
 6285SOL     OW30885   0.856   5.188   5.396
 6285SOL    HW130886   0.906   5.273   5.417
 6285SOL    HW230887   0.909   5.110   5.428
 6286SOL     OW30888   5.113   3.712   6.279
 6286SOL    HW130889   5.203   3.753   6.291
 6286SOL    HW230890   5.068   3.702   6.368
 6287SOL     OW30891   3.861   0.958   1.666
 6287SOL    HW130892   3.960   0.949   1.661
 6287SOL    HW230893   3.828   0.920   1.752
 6288SOL     OW30894   4.117   1.066   6.021
 6288SOL    HW130895   4.110   1.107   6.112
 6288SOL    HW230896   4.207   1.085   5.982
 6289SOL     OW30897   8.464   2.181   5.615
 6289SOL    HW130898   8.411   2.190   5.698
 6289SOL    HW230899   8.414   2.125   5.549
 6290SOL     OW30900   1.736   0.895   4.929
 6290SOL    HW130901   1.675   0.873   4.853
 6290SOL    HW230902   1.807   0.825   4.936
 6291SOL     OW30903   5.788   6.876   6.555
 6291SOL    HW130904   5.788   6.785   6.594
 6291SOL    HW230905   5.752   6.873   6.462
 6292SOL     OW30906   6.275   5.767   5.333
 6292SOL    HW130907   6.229   5.695   5.281
 6292SOL    HW230908   6.221   5.788   5.414
 6293SOL     OW30909   5.700   0.183   0.860
 6293SOL    HW130910   5.685   0.213   0.766
 6293SOL    HW230911   5.664   0.251   0.923
 6294SOL     OW30912   7.789   5.382   5.149
 6294SOL    HW130913   7.821   5.292   5.119
 6294SOL    HW230914   7.785   5.443   5.070
 6295SOL     OW30915   1.723   5.585   6.342
 6295SOL    HW130916   1.709   5.562   6.245
 6295SOL    HW230917   1.800   5.648   6.350
 6296SOL     OW30918   0.882   7.428   0.199
 6296SOL    HW130919   0.909   7.351   0.142
 6296SOL    HW230920   0.868   7.397   0.293
 6297SOL     OW30921   2.998   0.306   1.429
 6297SOL    HW130922   2.902   0.321   1.404
 6297SOL    HW230923   3.027   0.216   1.397
 6298SOL     OW30924   6.000   3.560   1.115
 6298SOL    HW130925   6.097   3.580   1.101
 6298SOL    HW230926   5.978   3.568   1.212
 6299SOL     OW30927   9.028   4.273   1.089
 6299SOL    HW130928   8.940   4.267   1.041
 6299SOL    HW230929   9.088   4.338   1.041
 6300SOL     OW30930   2.807   3.114   0.729
 6300SOL    HW130931   2.772   3.163   0.649
 6300SOL    HW230932   2.867   3.174   0.782
 6301SOL     OW30933   2.042   0.557   0.141
 6301SOL    HW130934   2.095   0.615   0.203
 6301SOL    HW230935   2.047   0.595   0.049
 6302SOL     OW30936   3.062   0.837   2.238
 6302SOL    HW130937   3.160   0.834   2.257
 6302SOL    HW230938   3.018   0.904   2.298
 6303SOL     OW30939   3.225   6.520   6.210
 6303SOL    HW130940   3.127   6.512   6.224
 6303SOL    HW230941   3.259   6.600   6.259
 6304SOL     OW30942   6.043   7.567   1.658
 6304SOL    HW130943   6.133   7.552   1.698
 6304SOL    HW230944   5.977   7.588   1.731
 6305SOL     OW30945   7.975   6.929   1.474
 6305SOL    HW130946   7.988   7.028   1.470
 6305SOL    HW230947   7.892   6.908   1.527
 6306SOL     OW30948   3.737   3.718   6.511
 6306SOL    HW130949   3.735   3.621   6.531
 6306SOL    HW230950   3.831   3.745   6.487
 6307SOL     OW30951   2.560   0.621   5.786
 6307SOL    HW130952   2.475   0.569   5.775
 6307SOL    HW230953   2.556   0.704   5.730
 6308SOL     OW30954   4.603   4.999   1.072
 6308SOL    HW130955   4.680   4.934   1.078
 6308SOL    HW230956   4.639   5.092   1.067
 6309SOL     OW30957   0.259   7.409   6.508
 6309SOL    HW130958   0.178   7.430   6.453
 6309SOL    HW230959   0.322   7.486   6.506
 6310SOL     OW30960   1.237   4.010   0.822
 6310SOL    HW130961   1.230   4.109   0.837
 6310SOL    HW230962   1.202   3.962   0.903
 6311SOL     OW30963   7.435   7.139   5.920
 6311SOL    HW130964   7.518   7.185   5.951
 6311SOL    HW230965   7.372   7.128   5.997
 6312SOL     OW30966   5.672   5.322   1.102
 6312SOL    HW130967   5.687   5.411   1.057
 6312SOL    HW230968   5.656   5.336   1.199
 6313SOL     OW30969   5.873   7.517   5.357
 6313SOL    HW130970   5.788   7.519   5.304
 6313SOL    HW230971   5.941   7.576   5.313
 6314SOL     OW30972   3.493   4.898   6.004
 6314SOL    HW130973   3.466   4.847   5.922
 6314SOL    HW230974   3.411   4.932   6.051
 6315SOL     OW30975   3.807   6.310   6.295
 6315SOL    HW130976   3.894   6.302   6.247
 6315SOL    HW230977   3.814   6.268   6.385
 6316SOL     OW30978   2.643   4.578   5.748
 6316SOL    HW130979   2.736   4.560   5.717
 6316SOL    HW230980   2.599   4.492   5.774
 6317SOL     OW30981   8.437   7.353   5.457
 6317SOL    HW130982   8.431   7.450   5.436
 6317SOL    HW230983   8.519   7.314   5.415
 6318SOL     OW30984   2.447   0.350   1.035
 6318SOL    HW130985   2.428   0.321   0.941
 6318SOL    HW230986   2.373   0.409   1.067
 6319SOL     OW30987   3.651   2.405   4.944
 6319SOL    HW130988   3.695   2.365   4.864
 6319SOL    HW230989   3.553   2.414   4.926
 6320SOL     OW30990   3.075   0.270   5.273
 6320SOL    HW130991   3.126   0.309   5.350
 6320SOL    HW230992   3.079   0.171   5.278
 6321SOL     OW30993   0.055   6.650   0.767
 6321SOL    HW130994   0.105   6.701   0.837
 6321SOL    HW230995   0.095   6.559   0.757
 6322SOL     OW30996   5.052   7.884   0.361
 6322SOL    HW130997   5.092   7.792   0.367
 6322SOL    HW230998   5.120   7.948   0.328
 6323SOL     OW30999   0.698   2.922   0.000
 6323SOL    HW131000   0.650   2.834   0.004
 6323SOL    HW231001   0.721   2.951   0.093
 6324SOL     OW31002   5.906   5.184   6.075
 6324SOL    HW131003   5.877   5.143   6.162
 6324SOL    HW231004   5.860   5.137   6.000
 6325SOL     OW31005   8.657   3.156   0.986
 6325SOL    HW131006   8.697   3.073   0.947
 6325SOL    HW231007   8.717   3.191   1.058
 6326SOL     OW31008   8.320   5.330   0.344
 6326SOL    HW131009   8.398   5.389   0.323
 6326SOL    HW231010   8.236   5.375   0.316
 6327SOL     OW31011   3.981   3.751   5.921
 6327SOL    HW131012   4.028   3.665   5.901
 6327SOL    HW231013   4.044   3.812   5.970
 6328SOL     OW31014   0.258   6.453   6.609
 6328SOL    HW131015   0.267   6.459   6.708
 6328SOL    HW231016   0.173   6.497   6.581
 6329SOL     OW31017   8.278   8.409   6.413
 6329SOL    HW131018   8.241   8.405   6.320
 6329SOL    HW231019   8.286   8.504   6.441
 6330SOL     OW31020   1.488   7.890   1.138
 6330SOL    HW131021   1.547   7.956   1.092
 6330SOL    HW231022   1.469   7.921   1.231
 6331SOL     OW31023   3.590   8.292   0.536
 6331SOL    HW131024   3.504   8.311   0.488
 6331SOL    HW231025   3.623   8.201   0.512
 6332SOL     OW31026   1.686   2.933   0.413
 6332SOL    HW131027   1.745   3.010   0.388
 6332SOL    HW231028   1.733   2.874   0.479
 6333SOL     OW31029   8.974   5.765   5.526
 6333SOL    HW131030   8.986   5.864   5.527
 6333SOL    HW231031   9.026   5.725   5.602
 6334SOL     OW31032   2.760   1.465   0.049
 6334SOL    HW131033   2.848   1.462   0.003
 6334SOL    HW231034   2.706   1.384   0.024
 6335SOL     OW31035   2.183   5.072   5.117
 6335SOL    HW131036   2.112   5.002   5.112
 6335SOL    HW231037   2.259   5.047   5.056
 6336SOL     OW31038   2.458   4.215   1.411
 6336SOL    HW131039   2.399   4.134   1.421
 6336SOL    HW231040   2.553   4.187   1.405
 6337SOL     OW31041   6.401   7.103   5.836
 6337SOL    HW131042   6.385   7.135   5.929
 6337SOL    HW231043   6.493   7.129   5.807
 6338SOL     OW31044   7.349   0.142   0.587
 6338SOL    HW131045   7.360   0.044   0.603
 6338SOL    HW231046   7.435   0.188   0.607
 6339SOL     OW31047   0.387   0.056   0.063
 6339SOL    HW131048   0.328   0.011  -0.004
 6339SOL    HW231049   0.332   0.121   0.117
 6340SOL     OW31050   8.734   6.147   4.726
 6340SOL    HW131051   8.811   6.206   4.703
 6340SOL    HW231052   8.763   6.080   4.795
 6341SOL     OW31053   8.080   1.563   0.014
 6341SOL    HW131054   8.018   1.513  -0.046
 6341SOL    HW231055   8.156   1.600  -0.040
 6342SOL     OW31056   6.222   1.738   5.604
 6342SOL    HW131057   6.182   1.828   5.587
 6342SOL    HW231058   6.148   1.670   5.611
 6343SOL     OW31059   4.477   2.713   6.248
 6343SOL    HW131060   4.422   2.675   6.174
 6343SOL    HW231061   4.552   2.768   6.210
 6344SOL     OW31062   2.832   4.412   5.605
 6344SOL    HW131063   2.760   4.362   5.557
 6344SOL    HW231064   2.920   4.369   5.586
 6345SOL     OW31065   7.172   4.758   0.924
 6345SOL    HW131066   7.181   4.681   0.987
 6345SOL    HW231067   7.258   4.808   0.920
 6346SOL     OW31068   3.429   5.311   0.035
 6346SOL    HW131069   3.437   5.404   0.070
 6346SOL    HW231070   3.341   5.300  -0.010
 6347SOL     OW31071   4.525   7.106   0.905
 6347SOL    HW131072   4.459   7.155   0.962
 6347SOL    HW231073   4.489   7.015   0.885
 6348SOL     OW31074   0.456   1.664   0.140
 6348SOL    HW131075   0.414   1.669   0.231
 6348SOL    HW231076   0.506   1.749   0.122
 6349SOL     OW31077   7.156   7.958   5.427
 6349SOL    HW131078   7.226   8.025   5.455
 6349SOL    HW231079   7.127   7.979   5.334
 6350SOL     OW31080   1.905   0.779   6.520
 6350SOL    HW131081   1.885   0.869   6.557
 6350SOL    HW231082   1.890   0.779   6.421
 6351SOL     OW31083   7.220   6.208   1.670
 6351SOL    HW131084   7.268   6.121   1.668
 6351SOL    HW231085   7.271   6.276   1.617
 6352SOL     OW31086   7.304   0.567   0.414
 6352SOL    HW131087   7.231   0.612   0.465
 6352SOL    HW231088   7.390   0.614   0.432
 6353SOL     OW31089   7.814   5.655   6.115
 6353SOL    HW131090   7.829   5.559   6.138
 6353SOL    HW231091   7.776   5.662   6.023
 6354SOL     OW31092   4.645   4.099   0.844
 6354SOL    HW131093   4.717   4.138   0.786
 6354SOL    HW231094   4.596   4.028   0.792
 6355SOL     OW31095   6.034   2.866   0.759
 6355SOL    HW131096   6.108   2.798   0.756
 6355SOL    HW231097   5.947   2.820   0.776
 6356SOL     OW31098   5.706   2.436   1.439
 6356SOL    HW131099   5.654   2.353   1.459
 6356SOL    HW231100   5.647   2.502   1.392
 6357SOL     OW31101   7.220   7.093   6.087
 6357SOL    HW131102   7.152   7.147   6.137
 6357SOL    HW231103   7.243   7.011   6.139
 6358SOL     OW31104   0.091   7.375   5.238
 6358SOL    HW131105   0.008   7.361   5.292
 6358SOL    HW231106   0.103   7.299   5.175
 6359SOL     OW31107   8.958   3.588   6.296
 6359SOL    HW131108   8.890   3.662   6.292
 6359SOL    HW231109   8.996   3.574   6.205
 6360SOL     OW31110   9.355   7.323   5.344
 6360SOL    HW131111   9.283   7.354   5.282
 6360SOL    HW231112   9.336   7.356   5.436
 6361SOL     OW31113   2.679   4.869   5.142
 6361SOL    HW131114   2.637   4.884   5.052
 6361SOL    HW231115   2.769   4.913   5.144
 6362SOL     OW31116   0.142   4.871   0.429
 6362SOL    HW131117   0.061   4.868   0.489
 6362SOL    HW231118   0.123   4.820   0.345
 6363SOL     OW31119   6.486   7.297   6.237
 6363SOL    HW131120   6.441   7.234   6.173
 6363SOL    HW231121   6.456   7.276   6.330
 6364SOL     OW31122   4.423   8.332   6.732
 6364SOL    HW131123   4.397   8.237   6.750
 6364SOL    HW231124   4.458   8.339   6.638
 6365SOL     OW31125   7.354   4.900   0.594
 6365SOL    HW131126   7.405   4.853   0.666
 6365SOL    HW231127   7.323   4.989   0.627
 6366SOL     OW31128   4.729   6.846   5.929
 6366SOL    HW131129   4.745   6.763   5.982
 6366SOL    HW231130   4.638   6.841   5.886
 6367SOL     OW31131   8.548   7.843   5.013
 6367SOL    HW131132   8.613   7.906   5.053
 6367SOL    HW231133   8.596   7.783   4.948
 6368SOL     OW31134   2.361   1.089   6.168
 6368SOL    HW131135   2.380   0.995   6.140
 6368SOL    HW231136   2.313   1.089   6.256
 6369SOL     OW31137   9.081   1.925   6.683
 6369SOL    HW131138   8.996   1.881   6.652
 6369SOL    HW231139   9.063   2.020   6.707
 6370SOL     OW31140   2.921   1.101   6.055
 6370SOL    HW131141   3.009   1.148   6.045
 6370SOL    HW231142   2.931   1.024   6.117
 6371SOL     OW31143   2.962   4.712   1.341
 6371SOL    HW131144   2.888   4.760   1.294
 6371SOL    HW231145   2.925   4.667   1.423
 6372SOL     OW31146   7.748   6.148   0.108
 6372SOL    HW131147   7.721   6.232   0.154
 6372SOL    HW231148   7.808   6.169   0.031
 6373SOL     OW31149   8.364   2.045   1.724
 6373SOL    HW131150   8.458   2.018   1.703
 6373SOL    HW231151   8.341   2.016   1.817
 6374SOL     OW31152   0.833   1.022   0.984
 6374SOL    HW131153   0.815   1.059   1.076
 6374SOL    HW231154   0.770   1.064   0.919
 6375SOL     OW31155   1.893   7.090   0.312
 6375SOL    HW131156   1.840   7.174   0.310
 6375SOL    HW231157   1.852   7.026   0.378
 6376SOL     OW31158   4.760   4.789   1.369
 6376SOL    HW131159   4.856   4.778   1.397
 6376SOL    HW231160   4.700   4.759   1.444
 6377SOL     OW31161   8.211   1.794   6.065
 6377SOL    HW131162   8.126   1.843   6.045
 6377SOL    HW231163   8.249   1.757   5.980
 6378SOL     OW31164   8.406   6.142   6.712
 6378SOL    HW131165   8.491   6.137   6.764
 6378SOL    HW231166   8.358   6.227   6.736
 6379SOL     OW31167   1.174   8.486   5.639
 6379SOL    HW131168   1.211   8.471   5.548
 6379SOL    HW231169   1.152   8.583   5.651
 6380SOL     OW31170   8.706   3.062   0.351
 6380SOL    HW131171   8.798   3.101   0.352
 6380SOL    HW231172   8.669   3.065   0.258
 6381SOL     OW31173   6.433   6.378   6.014
 6381SOL    HW131174   6.337   6.378   5.987
 6381SOL    HW231175   6.475   6.291   5.990
 6382SOL     OW31176   4.992   2.656   1.438
 6382SOL    HW131177   4.903   2.700   1.448
 6382SOL    HW231178   5.039   2.655   1.526
 6383SOL     OW31179   7.411   0.427   0.995
 6383SOL    HW131180   7.327   0.443   1.048
 6383SOL    HW231181   7.438   0.331   1.005
 6384SOL     OW31182   8.811   0.191   6.715
 6384SOL    HW131183   8.819   0.121   6.645
 6384SOL    HW231184   8.737   0.254   6.692
 6385SOL     OW31185   4.592   4.122   0.500
 6385SOL    HW131186   4.530   4.070   0.559
 6385SOL    HW231187   4.602   4.215   0.534
 6386SOL     OW31188   2.042   3.743   5.622
 6386SOL    HW131189   1.993   3.768   5.539
 6386SOL    HW231190   1.981   3.753   5.701
 6387SOL     OW31191   6.966   7.769   0.672
 6387SOL    HW131192   6.978   7.750   0.769
 6387SOL    HW231193   7.032   7.716   0.619
 6388SOL     OW31194   0.449   2.948   0.295
 6388SOL    HW131195   0.437   2.868   0.236
 6388SOL    HW231196   0.505   3.016   0.250
 6389SOL     OW31197   6.236   1.375   6.394
 6389SOL    HW131198   6.316   1.430   6.417
 6389SOL    HW231199   6.239   1.288   6.444
 6390SOL     OW31200   5.646   0.486   5.495
 6390SOL    HW131201   5.628   0.392   5.524
 6390SOL    HW231202   5.582   0.511   5.422
 6391SOL     OW31203   0.521   5.832   6.196
 6391SOL    HW131204   0.601   5.773   6.192
 6391SOL    HW231205   0.439   5.775   6.207
 6392SOL     OW31206   3.914   0.595   6.410
 6392SOL    HW131207   3.870   0.507   6.393
 6392SOL    HW231208   3.921   0.611   6.509
 6393SOL     OW31209   7.082   1.591   1.515
 6393SOL    HW131210   7.169   1.627   1.480
 6393SOL    HW231211   7.015   1.664   1.520
 6394SOL     OW31212   4.450   0.307   6.369
 6394SOL    HW131213   4.364   0.349   6.341
 6394SOL    HW231214   4.522   0.331   6.303
 6395SOL     OW31215   3.640   8.259   1.051
 6395SOL    HW131216   3.549   8.233   1.018
 6395SOL    HW231217   3.710   8.208   1.001
 6396SOL     OW31218   6.350   2.363   6.383
 6396SOL    HW131219   6.395   2.357   6.294
 6396SOL    HW231220   6.294   2.446   6.387
 6397SOL     OW31221   2.764   2.915   0.923
 6397SOL    HW131222   2.773   2.956   0.832
 6397SOL    HW231223   2.679   2.864   0.929
 6398SOL     OW31224   6.269   5.212   5.191
 6398SOL    HW131225   6.205   5.233   5.116
 6398SOL    HW231226   6.316   5.126   5.171
 6399SOL     OW31227   1.250   8.465   5.391
 6399SOL    HW131228   1.174   8.448   5.328
 6399SOL    HW231229   1.303   8.381   5.402
 6400SOL     OW31230   9.282   0.797   1.256
 6400SOL    HW131231   9.334   0.712   1.245
 6400SOL    HW231232   9.185   0.775   1.265
 6401SOL     OW31233   4.034   5.365   6.246
 6401SOL    HW131234   3.990   5.317   6.170
 6401SOL    HW231235   4.102   5.429   6.210
 6402SOL     OW31236   0.579   3.733   0.513
 6402SOL    HW131237   0.638   3.718   0.433
 6402SOL    HW231238   0.616   3.684   0.592
 6403SOL     OW31239   4.791   6.939   5.317
 6403SOL    HW131240   4.734   6.906   5.392
 6403SOL    HW231241   4.814   6.863   5.256
 6404SOL     OW31242   7.875   4.047   1.697
 6404SOL    HW131243   7.891   4.062   1.600
 6404SOL    HW231244   7.910   3.956   1.723
 6405SOL     OW31245   3.364   5.531   1.058
 6405SOL    HW131246   3.444   5.524   1.118
 6405SOL    HW231247   3.384   5.595   0.983
 6406SOL     OW31248   6.680   3.652   0.545
 6406SOL    HW131249   6.658   3.566   0.590
 6406SOL    HW231250   6.614   3.722   0.573
 6407SOL     OW31251   3.690   3.653   1.050
 6407SOL    HW131252   3.755   3.579   1.067
 6407SOL    HW231253   3.640   3.673   1.134
 6408SOL     OW31254   3.496   3.102   5.945
 6408SOL    HW131255   3.458   3.029   6.002
 6408SOL    HW231256   3.479   3.081   5.849
 6409SOL     OW31257   7.303   6.551   0.826
 6409SOL    HW131258   7.353   6.489   0.766
 6409SOL    HW231259   7.345   6.641   0.823
 6410SOL     OW31260   1.846   5.339   0.191
 6410SOL    HW131261   1.754   5.359   0.158
 6410SOL    HW231262   1.857   5.240   0.202
 6411SOL     OW31263   5.069   3.341   0.562
 6411SOL    HW131264   5.159   3.297   0.570
 6411SOL    HW231265   4.998   3.271   0.561
 6412SOL     OW31266   4.819   8.100   6.407
 6412SOL    HW131267   4.826   8.161   6.486
 6412SOL    HW231268   4.886   8.027   6.416
 6413SOL     OW31269   7.369   8.328   0.132
 6413SOL    HW131270   7.312   8.332   0.214
 6413SOL    HW231271   7.338   8.253   0.074
 6414SOL     OW31272   1.748   0.851   5.462
 6414SOL    HW131273   1.835   0.827   5.504
 6414SOL    HW231274   1.756   0.848   5.363
 6415SOL     OW31275   2.335   7.966   4.429
 6415SOL    HW131276   2.405   8.013   4.375
 6415SOL    HW231277   2.340   7.868   4.413
 6416SOL     OW31278   3.793   2.728   1.736
 6416SOL    HW131279   3.810   2.644   1.786
 6416SOL    HW231280   3.746   2.794   1.795
 6417SOL     OW31281   4.905   3.825   6.428
 6417SOL    HW131282   4.916   3.846   6.331
 6417SOL    HW231283   4.934   3.904   6.482
 6418SOL     OW31284   9.052   2.162   6.393
 6418SOL    HW131285   9.039   2.232   6.463
 6418SOL    HW231286   9.148   2.160   6.365
 6419SOL     OW31287   5.567   7.005   6.676
 6419SOL    HW131288   5.605   7.096   6.695
 6419SOL    HW231289   5.632   6.953   6.621
 6420SOL     OW31290   7.982   5.500   6.443
 6420SOL    HW131291   8.051   5.543   6.385
 6420SOL    HW231292   7.908   5.463   6.385
 6421SOL     OW31293   7.490   3.962   5.766
 6421SOL    HW131294   7.421   3.974   5.695
 6421SOL    HW231295   7.551   3.887   5.741
 6422SOL     OW31296   0.173   4.058   0.669
 6422SOL    HW131297   0.163   3.968   0.627
 6422SOL    HW231298   0.109   4.065   0.747
 6423SOL     OW31299   4.914   3.551   0.088
 6423SOL    HW131300   4.874   3.503   0.166
 6423SOL    HW231301   4.892   3.648   0.093
 6424SOL     OW31302   2.458   7.042   6.027
 6424SOL    HW131303   2.384   7.098   5.990
 6424SOL    HW231304   2.421   6.957   6.064
 6425SOL     OW31305   1.142   0.091   6.546
 6425SOL    HW131306   1.200   0.055   6.619
 6425SOL    HW231307   1.182   0.176   6.511
 6426SOL     OW31308   5.717   1.885   6.437
 6426SOL    HW131309   5.815   1.883   6.459
 6426SOL    HW231310   5.697   1.969   6.385
 6427SOL     OW31311   6.255   2.214   6.723
 6427SOL    HW131312   6.330   2.244   6.665
 6427SOL    HW231313   6.290   2.190   6.814
 6428SOL     OW31314   3.166   6.126   1.923
 6428SOL    HW131315   3.072   6.158   1.923
 6428SOL    HW231316   3.176   6.053   1.991
 6429SOL     OW31317   6.554   4.727   5.509
 6429SOL    HW131318   6.459   4.696   5.505
 6429SOL    HW231319   6.571   4.794   5.437
 6430SOL     OW31320   4.496   1.565   6.409
 6430SOL    HW131321   4.434   1.549   6.486
 6430SOL    HW231322   4.589   1.579   6.444
 6431SOL     OW31323   5.565   6.118   1.850
 6431SOL    HW131324   5.593   6.207   1.886
 6431SOL    HW231325   5.647   6.064   1.829
 6432SOL     OW31326   2.850   7.310   0.131
 6432SOL    HW131327   2.792   7.236   0.099
 6432SOL    HW231328   2.886   7.360   0.052
 6433SOL     OW31329   2.742   2.094   0.512
 6433SOL    HW131330   2.768   2.069   0.605
 6433SOL    HW231331   2.726   2.012   0.458
 6434SOL     OW31332   3.984   4.858   5.766
 6434SOL    HW131333   4.063   4.851   5.826
 6434SOL    HW231334   3.959   4.954   5.753
 6435SOL     OW31335   6.654   0.519   5.986
 6435SOL    HW131336   6.732   0.555   6.038
 6435SOL    HW231337   6.583   0.590   5.981
 6436SOL     OW31338   1.636   6.894   6.705
 6436SOL    HW131339   1.735   6.889   6.690
 6436SOL    HW231340   1.597   6.967   6.648
 6437SOL     OW31341   7.540   2.737   0.198
 6437SOL    HW131342   7.520   2.827   0.160
 6437SOL    HW231343   7.568   2.746   0.293
 6438SOL     OW31344   9.369   5.050   5.602
 6438SOL    HW131345   9.319   5.018   5.522
 6438SOL    HW231346   9.346   5.145   5.620
 6439SOL     OW31347   1.274   7.096   6.626
 6439SOL    HW131348   1.183   7.130   6.602
 6439SOL    HW231349   1.274   7.062   6.720
 6440SOL     OW31350   5.563   5.006   1.345
 6440SOL    HW131351   5.608   4.968   1.426
 6440SOL    HW231352   5.525   5.096   1.366
 6441SOL     OW31353   8.779   6.281   1.060
 6441SOL    HW131354   8.745   6.192   1.091
 6441SOL    HW231355   8.757   6.351   1.128
 6442SOL     OW31356   3.411   7.147   6.094
 6442SOL    HW131357   3.311   7.140   6.090
 6442SOL    HW231358   3.451   7.072   6.042
 6443SOL     OW31359   2.710   8.104   0.014
 6443SOL    HW131360   2.707   8.204   0.015
 6443SOL    HW231361   2.653   8.069  -0.061
 6444SOL     OW31362   6.360   8.169   5.625
 6444SOL    HW131363   6.396   8.194   5.534
 6444SOL    HW231364   6.268   8.207   5.636
 6445SOL     OW31365   2.100   7.130   0.564
 6445SOL    HW131366   2.018   7.178   0.597
 6445SOL    HW231367   2.085   7.032   0.568
 6446SOL     OW31368   7.779   0.793   0.533
 6446SOL    HW131369   7.757   0.864   0.601
 6446SOL    HW231370   7.837   0.723   0.576
 6447SOL     OW31371   0.859   0.370   0.795
 6447SOL    HW131372   0.839   0.279   0.758
 6447SOL    HW231373   0.956   0.377   0.818
 6448SOL     OW31374   3.849   5.976   6.137
 6448SOL    HW131375   3.773   5.927   6.179
 6448SOL    HW231376   3.929   5.972   6.197
 6449SOL     OW31377   3.999   7.264   1.076
 6449SOL    HW131378   3.951   7.242   1.161
 6449SOL    HW231379   3.980   7.358   1.050
 6450SOL     OW31380   3.510   6.369   1.171
 6450SOL    HW131381   3.542   6.423   1.249
 6450SOL    HW231382   3.452   6.294   1.203
 6451SOL     OW31383   8.991   0.261   0.452
 6451SOL    HW131384   9.063   0.330   0.449
 6451SOL    HW231385   8.902   0.306   0.458
 6452SOL     OW31386   4.783   2.077   5.427
 6452SOL    HW131387   4.694   2.032   5.435
 6452SOL    HW231388   4.798   2.137   5.505
 6453SOL     OW31389   0.302   2.818   5.978
 6453SOL    HW131390   0.205   2.833   5.961
 6453SOL    HW231391   0.352   2.904   5.967
 6454SOL     OW31392   1.504   0.029   0.371
 6454SOL    HW131393   1.472  -0.007   0.283
 6454SOL    HW231394   1.459   0.117   0.388
 6455SOL     OW31395   0.710   0.313   0.215
 6455SOL    HW131396   0.697   0.349   0.308
 6455SOL    HW231397   0.756   0.224   0.221
 6456SOL     OW31398   0.960   3.822   6.357
 6456SOL    HW131399   0.949   3.915   6.392
 6456SOL    HW231400   1.057   3.798   6.358
 6457SOL     OW31401   7.288   3.988   5.582
 6457SOL    HW131402   7.272   4.065   5.521
 6457SOL    HW231403   7.235   3.909   5.551
 6458SOL     OW31404   1.817   6.037   6.612
 6458SOL    HW131405   1.884   5.971   6.576
 6458SOL    HW231406   1.794   6.103   6.541
 6459SOL     OW31407   3.042   7.511   5.764
 6459SOL    HW131408   3.070   7.498   5.859
 6459SOL    HW231409   3.041   7.609   5.743
 6460SOL     OW31410   6.470   7.966   6.377
 6460SOL    HW131411   6.429   7.879   6.351
 6460SOL    HW231412   6.413   8.042   6.344
 6461SOL     OW31413   1.306   3.038   0.235
 6461SOL    HW131414   1.306   2.996   0.326
 6461SOL    HW231415   1.367   2.987   0.175
 6462SOL     OW31416   0.417   1.285   6.134
 6462SOL    HW131417   0.319   1.265   6.125
 6462SOL    HW231418   0.468   1.223   6.074
 6463SOL     OW31419   2.690   1.181   1.088
 6463SOL    HW131420   2.689   1.276   1.056
 6463SOL    HW231421   2.599   1.157   1.123
 6464SOL     OW31422   4.388   4.793   1.065
 6464SOL    HW131423   4.430   4.718   1.013
 6464SOL    HW231424   4.457   4.861   1.088
 6465SOL     OW31425   7.373   6.396   6.263
 6465SOL    HW131426   7.408   6.371   6.172
 6465SOL    HW231427   7.434   6.461   6.306
 6466SOL     OW31428   5.739   1.354   0.079
 6466SOL    HW131429   5.698   1.387  -0.006
 6466SOL    HW231430   5.747   1.254   0.076
 6467SOL     OW31431   6.105   8.137   0.350
 6467SOL    HW131432   6.018   8.138   0.399
 6467SOL    HW231433   6.145   8.046   0.356
 6468SOL     OW31434   8.100   4.726   1.316
 6468SOL    HW131435   8.067   4.715   1.409
 6468SOL    HW231436   8.116   4.823   1.298
 6469SOL     OW31437   6.812   0.644   6.524
 6469SOL    HW131438   6.716   0.669   6.510
 6469SOL    HW231439   6.817   0.552   6.564
 6470SOL     OW31440   4.961   6.525   6.592
 6470SOL    HW131441   4.987   6.615   6.625
 6470SOL    HW231442   5.008   6.506   6.506
 6471SOL     OW31443   0.645   0.184   5.612
 6471SOL    HW131444   0.654   0.099   5.665
 6471SOL    HW231445   0.624   0.162   5.517
 6472SOL     OW31446   7.280   5.101   6.000
 6472SOL    HW131447   7.372   5.062   6.004
 6472SOL    HW231448   7.281   5.184   5.946
 6473SOL     OW31449   0.229   8.020   1.300
 6473SOL    HW131450   0.322   8.038   1.332
 6473SOL    HW231451   0.177   7.974   1.372
 6474SOL     OW31452   3.621   4.513   6.646
 6474SOL    HW131453   3.609   4.559   6.734
 6474SOL    HW231454   3.533   4.482   6.611
 6475SOL     OW31455   6.751   0.377   5.372
 6475SOL    HW131456   6.677   0.379   5.305
 6475SOL    HW231457   6.775   0.282   5.392
 6476SOL     OW31458   0.387   4.290   5.178
 6476SOL    HW131459   0.334   4.210   5.152
 6476SOL    HW231460   0.485   4.272   5.165
 6477SOL     OW31461   4.913   4.693   6.256
 6477SOL    HW131462   4.850   4.756   6.299
 6477SOL    HW231463   4.948   4.733   6.171
 6478SOL     OW31464   3.190   6.337   6.599
 6478SOL    HW131465   3.239   6.326   6.513
 6478SOL    HW231466   3.255   6.354   6.673
 6479SOL     OW31467   2.750   8.150   0.811
 6479SOL    HW131468   2.761   8.050   0.805
 6479SOL    HW231469   2.819   8.195   0.755
 6480SOL     OW31470   4.813   5.091   6.048
 6480SOL    HW131471   4.763   5.131   6.125
 6480SOL    HW231472   4.857   5.006   6.077
 6481SOL     OW31473   1.275   0.401   4.709
 6481SOL    HW131474   1.216   0.392   4.628
 6481SOL    HW231475   1.301   0.310   4.741
 6482SOL     OW31476   8.017   6.003   5.373
 6482SOL    HW131477   8.013   6.088   5.427
 6482SOL    HW231478   7.927   5.984   5.334
 6483SOL     OW31479   6.718   0.853   1.289
 6483SOL    HW131480   6.672   0.784   1.345
 6483SOL    HW231481   6.807   0.874   1.329
 6484SOL     OW31482   3.568   2.619   0.730
 6484SOL    HW131483   3.501   2.595   0.800
 6484SOL    HW231484   3.586   2.717   0.733
 6485SOL     OW31485   4.253   7.458   6.103
 6485SOL    HW131486   4.225   7.520   6.176
 6485SOL    HW231487   4.352   7.461   6.093
 6486SOL     OW31488   3.223   5.551   6.534
 6486SOL    HW131489   3.322   5.553   6.530
 6486SOL    HW231490   3.192   5.460   6.562
 6487SOL     OW31491   3.125   7.557   0.822
 6487SOL    HW131492   3.085   7.619   0.755
 6487SOL    HW231493   3.080   7.468   0.818
 6488SOL     OW31494   8.938   0.126   0.761
 6488SOL    HW131495   8.875   0.113   0.684
 6488SOL    HW231496   9.024   0.079   0.741
 6489SOL     OW31497   0.408   7.225   5.981
 6489SOL    HW131498   0.384   7.175   5.898
 6489SOL    HW231499   0.495   7.190   6.016
 6490SOL     OW31500   4.221   0.195   4.612
 6490SOL    HW131501   4.302   0.166   4.560
 6490SOL    HW231502   4.140   0.191   4.553
 6491SOL     OW31503   1.422   3.162   6.191
 6491SOL    HW131504   1.342   3.215   6.162
 6491SOL    HW231505   1.447   3.097   6.120
 6492SOL     OW31506   1.182   5.889   5.440
 6492SOL    HW131507   1.086   5.867   5.457
 6492SOL    HW231508   1.212   5.958   5.506
 6493SOL     OW31509   3.616   7.627   0.085
 6493SOL    HW131510   3.706   7.586   0.070
 6493SOL    HW231511   3.562   7.568   0.146
 6494SOL     OW31512   4.558   1.841   6.059
 6494SOL    HW131513   4.652   1.865   6.085
 6494SOL    HW231514   4.516   1.918   6.011
 6495SOL     OW31515   3.674   2.760   6.379
 6495SOL    HW131516   3.717   2.820   6.311
 6495SOL    HW231517   3.670   2.807   6.467
 6496SOL     OW31518   3.412   4.394   5.621
 6496SOL    HW131519   3.372   4.380   5.711
 6496SOL    HW231520   3.349   4.447   5.564
 6497SOL     OW31521   7.271   7.617   4.946
 6497SOL    HW131522   7.253   7.712   4.973
 6497SOL    HW231523   7.334   7.616   4.868
 6498SOL     OW31524   5.464   4.120   6.650
 6498SOL    HW131525   5.524   4.047   6.619
 6498SOL    HW231526   5.506   4.209   6.630
 6499SOL     OW31527   8.614   0.800   5.970
 6499SOL    HW131528   8.518   0.821   5.992
 6499SOL    HW231529   8.647   0.865   5.901
 6500SOL     OW31530   3.614   0.137   1.290
 6500SOL    HW131531   3.594   0.039   1.283
 6500SOL    HW231532   3.534   0.190   1.262
 6501SOL     OW31533   3.854   3.681   0.778
 6501SOL    HW131534   3.787   3.610   0.799
 6501SOL    HW231535   3.808   3.754   0.727
 6502SOL     OW31536   8.162   4.360   0.934
 6502SOL    HW131537   8.173   4.364   0.835
 6502SOL    HW231538   8.236   4.305   0.974
 6503SOL     OW31539   4.257   1.885   0.968
 6503SOL    HW131540   4.266   1.804   1.025
 6503SOL    HW231541   4.162   1.917   0.970
 6504SOL     OW31542   3.772   0.802   6.282
 6504SOL    HW131543   3.821   0.717   6.304
 6504SOL    HW231544   3.680   0.798   6.321
 6505SOL     OW31545   2.433   8.182   6.092
 6505SOL    HW131546   2.500   8.204   6.163
 6505SOL    HW231547   2.478   8.186   6.002
 6506SOL     OW31548   4.413   8.125   1.160
 6506SOL    HW131549   4.340   8.116   1.092
 6506SOL    HW231550   4.407   8.050   1.225
 6507SOL     OW31551   2.753   3.709   6.278
 6507SOL    HW131552   2.694   3.783   6.247
 6507SOL    HW231553   2.846   3.723   6.244
 6508SOL     OW31554   3.922   2.297   5.602
 6508SOL    HW131555   3.825   2.275   5.598
 6508SOL    HW231556   3.968   2.264   5.520
 6509SOL     OW31557   5.191   4.703   1.315
 6509SOL    HW131558   5.209   4.796   1.283
 6509SOL    HW231559   5.126   4.706   1.391
 6510SOL     OW31560   4.134   7.501   1.299
 6510SOL    HW131561   4.207   7.519   1.364
 6510SOL    HW231562   4.058   7.455   1.345
 6511SOL     OW31563   6.688   1.456   1.328
 6511SOL    HW131564   6.603   1.404   1.318
 6511SOL    HW231565   6.708   1.467   1.425
 6512SOL     OW31566   1.275   0.849   0.161
 6512SOL    HW131567   1.282   0.750   0.160
 6512SOL    HW231568   1.301   0.886   0.072
 6513SOL     OW31569   7.349   2.346   6.511
 6513SOL    HW131570   7.441   2.349   6.470
 6513SOL    HW231571   7.348   2.277   6.584
 6514SOL     OW31572   8.040   3.127   0.241
 6514SOL    HW131573   8.086   3.061   0.300
 6514SOL    HW231574   7.942   3.125   0.258
 6515SOL     OW31575   4.017   1.910   0.046
 6515SOL    HW131576   4.032   1.845   0.120
 6515SOL    HW231577   3.958   1.983   0.077
 6516SOL     OW31578   6.277   6.197   0.390
 6516SOL    HW131579   6.303   6.151   0.305
 6516SOL    HW231580   6.356   6.244   0.428
 6517SOL     OW31581   3.041   1.124   2.049
 6517SOL    HW131582   2.962   1.175   2.016
 6517SOL    HW231583   3.084   1.076   1.972
 6518SOL     OW31584   0.078   7.385   4.871
 6518SOL    HW131585  -0.001   7.442   4.849
 6518SOL    HW231586   0.128   7.363   4.787
 6519SOL     OW31587   2.261   7.878   5.794
 6519SOL    HW131588   2.357   7.892   5.816
 6519SOL    HW231589   2.214   7.966   5.790
 6520SOL     OW31590   4.191   3.344   0.260
 6520SOL    HW131591   4.191   3.419   0.193
 6520SOL    HW231592   4.286   3.319   0.281
 6521SOL     OW31593   7.606   0.243   0.616
 6521SOL    HW131594   7.685   0.265   0.674
 6521SOL    HW231595   7.582   0.323   0.561
 6522SOL     OW31596   7.899   0.169   0.087
 6522SOL    HW131597   7.819   0.131   0.041
 6522SOL    HW231598   7.971   0.187   0.019
 6523SOL     OW31599   0.715   4.449   6.249
 6523SOL    HW131600   0.746   4.429   6.156
 6523SOL    HW231601   0.713   4.548   6.263
 6524SOL     OW31602   6.098   5.510   1.456
 6524SOL    HW131603   6.087   5.450   1.535
 6524SOL    HW231604   6.129   5.601   1.486
 6525SOL     OW31605   1.625   0.249   1.921
 6525SOL    HW131606   1.535   0.293   1.917
 6525SOL    HW231607   1.653   0.223   1.829
 6526SOL     OW31608   0.644   6.792   0.581
 6526SOL    HW131609   0.718   6.834   0.632
 6526SOL    HW231610   0.652   6.692   0.588
 6527SOL     OW31611   0.392   2.420   5.840
 6527SOL    HW131612   0.363   2.494   5.780
 6527SOL    HW231613   0.334   2.339   5.825
 6528SOL     OW31614   2.537   0.733   0.394
 6528SOL    HW131615   2.465   0.664   0.396
 6528SOL    HW231616   2.623   0.691   0.367
 6529SOL     OW31617   0.713   6.435   5.404
 6529SOL    HW131618   0.792   6.496   5.411
 6529SOL    HW231619   0.744   6.342   5.383
 6530SOL     OW31620   6.008   7.670   0.659
 6530SOL    HW131621   6.060   7.715   0.730
 6530SOL    HW231622   5.938   7.733   0.623
 6531SOL     OW31623   3.347   0.739   0.868
 6531SOL    HW131624   3.364   0.829   0.910
 6531SOL    HW231625   3.249   0.721   0.868
 6532SOL     OW31626   9.274   4.062   6.002
 6532SOL    HW131627   9.363   4.058   5.955
 6532SOL    HW231628   9.225   3.976   5.986
 6533SOL     OW31629   1.877   3.255   6.511
 6533SOL    HW131630   1.855   3.306   6.594
 6533SOL    HW231631   1.977   3.244   6.505
 6534SOL     OW31632   0.981   5.041   0.777
 6534SOL    HW131633   1.002   5.006   0.686
 6534SOL    HW231634   0.950   4.966   0.836
 6535SOL     OW31635   8.009   0.085   6.342
 6535SOL    HW131636   7.954   0.001   6.349
 6535SOL    HW231637   7.952   0.159   6.306
 6536SOL     OW31638   5.965   2.816   0.143
 6536SOL    HW131639   6.064   2.803   0.139
 6536SOL    HW231640   5.945   2.910   0.174
 6537SOL     OW31641   1.542   5.736   0.670
 6537SOL    HW131642   1.468   5.762   0.733
 6537SOL    HW231643   1.525   5.778   0.581
 6538SOL     OW31644   6.779   8.376   0.914
 6538SOL    HW131645   6.696   8.362   0.859
 6538SOL    HW231646   6.858   8.338   0.866
 6539SOL     OW31647   6.501   7.433   5.041
 6539SOL    HW131648   6.555   7.367   4.989
 6539SOL    HW231649   6.466   7.389   5.123
 6540SOL     OW31650   5.204   5.304   6.123
 6540SOL    HW131651   5.114   5.295   6.080
 6540SOL    HW231652   5.195   5.290   6.221
 6541SOL     OW31653   4.541   4.369   6.275
 6541SOL    HW131654   4.463   4.427   6.248
 6541SOL    HW231655   4.600   4.420   6.337
 6542SOL     OW31656   2.680   2.551   6.496
 6542SOL    HW131657   2.697   2.601   6.581
 6542SOL    HW231658   2.766   2.511   6.464
 6543SOL     OW31659   5.494   6.409   6.683
 6543SOL    HW131660   5.430   6.481   6.712
 6543SOL    HW231661   5.576   6.412   6.740
 6544SOL     OW31662   0.100   0.875   5.424
 6544SOL    HW131663   0.080   0.781   5.396
 6544SOL    HW231664   0.154   0.874   5.508
 6545SOL     OW31665   2.454   1.608   1.110
 6545SOL    HW131666   2.399   1.677   1.063
 6545SOL    HW231667   2.439   1.615   1.209
 6546SOL     OW31668   7.595   6.089   1.301
 6546SOL    HW131669   7.605   6.043   1.389
 6546SOL    HW231670   7.640   6.178   1.305
 6547SOL     OW31671   8.794   7.447   0.011
 6547SOL    HW131672   8.846   7.369  -0.022
 6547SOL    HW231673   8.857   7.519   0.040
 6548SOL     OW31674   8.741   3.334   0.781
 6548SOL    HW131675   8.681   3.314   0.858
 6548SOL    HW231676   8.797   3.254   0.760
 6549SOL     OW31677   6.275   1.529   6.732
 6549SOL    HW131678   6.336   1.608   6.733
 6549SOL    HW231679   6.181   1.560   6.716
 6550SOL     OW31680   8.020   7.200   1.400
 6550SOL    HW131681   8.056   7.216   1.492
 6550SOL    HW231682   8.054   7.271   1.338
 6551SOL     OW31683   2.470   5.853   0.077
 6551SOL    HW131684   2.512   5.851   0.168
 6551SOL    HW231685   2.529   5.905   0.015
 6552SOL     OW31686   6.284   5.643   0.796
 6552SOL    HW131687   6.333   5.652   0.883
 6552SOL    HW231688   6.341   5.595   0.730
 6553SOL     OW31689   1.989   0.420   5.649
 6553SOL    HW131690   1.945   0.509   5.654
 6553SOL    HW231691   2.080   0.429   5.608
 6554SOL     OW31692   8.311   1.799   1.360
 6554SOL    HW131693   8.383   1.867   1.345
 6554SOL    HW231694   8.352   1.715   1.397
 6555SOL     OW31695   3.199   1.256   6.458
 6555SOL    HW131696   3.134   1.183   6.478
 6555SOL    HW231697   3.233   1.295   6.543
 6556SOL     OW31698   5.839   4.483   0.173
 6556SOL    HW131699   5.849   4.402   0.116
 6556SOL    HW231700   5.809   4.457   0.264
 6557SOL     OW31701   7.073   8.363   5.727
 6557SOL    HW131702   7.099   8.420   5.649
 6557SOL    HW231703   6.985   8.319   5.708
 6558SOL     OW31704   4.347   6.285   0.905
 6558SOL    HW131705   4.320   6.353   0.837
 6558SOL    HW231706   4.278   6.281   0.977
 6559SOL     OW31707   7.247   2.866   6.468
 6559SOL    HW131708   7.179   2.939   6.472
 6559SOL    HW231709   7.246   2.814   6.553
 6560SOL     OW31710   5.078   8.080   5.896
 6560SOL    HW131711   5.140   8.007   5.867
 6560SOL    HW231712   5.131   8.156   5.933
 6561SOL     OW31713   7.316   6.999   5.729
 6561SOL    HW131714   7.355   7.029   5.816
 6561SOL    HW231715   7.379   6.935   5.684
 6562SOL     OW31716   1.025   3.432   6.251
 6562SOL    HW131717   1.087   3.459   6.325
 6562SOL    HW231718   0.959   3.365   6.285
 6563SOL     OW31719   7.746   7.396   5.803
 6563SOL    HW131720   7.710   7.329   5.867
 6563SOL    HW231721   7.793   7.469   5.854
 6564SOL     OW31722   3.910   2.140   2.096
 6564SOL    HW131723   3.933   2.117   2.191
 6564SOL    HW231724   3.967   2.217   2.066
 6565SOL     OW31725   6.860   4.066   6.482
 6565SOL    HW131726   6.793   4.060   6.556
 6565SOL    HW231727   6.949   4.033   6.515
 6566SOL     OW31728   3.103   3.185   1.092
 6566SOL    HW131729   3.159   3.112   1.130
 6566SOL    HW231730   3.006   3.166   1.110
 6567SOL     OW31731   4.766   5.926   0.764
 6567SOL    HW131732   4.758   6.026   0.767
 6567SOL    HW231733   4.720   5.887   0.844
 6568SOL     OW31734   7.742   1.254   6.328
 6568SOL    HW131735   7.819   1.228   6.269
 6568SOL    HW231736   7.684   1.175   6.344
 6569SOL     OW31737   3.989   3.159   5.191
 6569SOL    HW131738   3.963   3.139   5.285
 6569SOL    HW231739   3.910   3.147   5.131
 6570SOL     OW31740   7.511   7.392   1.151
 6570SOL    HW131741   7.575   7.451   1.101
 6570SOL    HW231742   7.560   7.341   1.222
 6571SOL     OW31743   0.878   4.791   1.205
 6571SOL    HW131744   0.937   4.738   1.266
 6571SOL    HW231745   0.792   4.811   1.251
 6572SOL     OW31746   1.433   4.302   0.443
 6572SOL    HW131747   1.335   4.312   0.457
 6572SOL    HW231748   1.450   4.276   0.348
 6573SOL     OW31749   8.012   2.360   6.148
 6573SOL    HW131750   8.049   2.426   6.214
 6573SOL    HW231751   8.060   2.273   6.157
 6574SOL     OW31752   6.215   4.698   1.039
 6574SOL    HW131753   6.121   4.680   1.070
 6574SOL    HW231754   6.213   4.750   0.954
 6575SOL     OW31755   7.428   5.466   5.901
 6575SOL    HW131756   7.448   5.470   5.999
 6575SOL    HW231757   7.343   5.415   5.887
 6576SOL     OW31758   8.722   4.515   6.489
 6576SOL    HW131759   8.626   4.534   6.510
 6576SOL    HW231760   8.758   4.586   6.428
 6577SOL     OW31761   9.273   3.462   5.447
 6577SOL    HW131762   9.331   3.439   5.369
 6577SOL    HW231763   9.210   3.536   5.421
 6578SOL     OW31764   7.755   5.014   6.283
 6578SOL    HW131765   7.742   5.093   6.223
 6578SOL    HW231766   7.776   4.933   6.229
 6579SOL     OW31767   2.109   8.420   5.235
 6579SOL    HW131768   2.056   8.348   5.191
 6579SOL    HW231769   2.161   8.470   5.165
 6580SOL     OW31770   2.463   4.355   5.753
 6580SOL    HW131771   2.489   4.330   5.659
 6580SOL    HW231772   2.517   4.301   5.817
 6581SOL     OW31773   0.422   1.056   6.703
 6581SOL    HW131774   0.481   0.998   6.646
 6581SOL    HW231775   0.406   1.143   6.656
 6582SOL     OW31776   6.773   2.338   0.702
 6582SOL    HW131777   6.831   2.304   0.628
 6582SOL    HW231778   6.745   2.433   0.681
 6583SOL     OW31779   7.035   1.750   0.834
 6583SOL    HW131780   7.075   1.836   0.864
 6583SOL    HW231781   6.952   1.768   0.781
 6584SOL     OW31782   2.160   2.210   5.818
 6584SOL    HW131783   2.150   2.274   5.742
 6584SOL    HW231784   2.104   2.242   5.895
 6585SOL     OW31785   8.162   4.995   1.275
 6585SOL    HW131786   8.120   5.071   1.325
 6585SOL    HW231787   8.226   5.031   1.207
 6586SOL     OW31788   0.718   2.249   0.134
 6586SOL    HW131789   0.742   2.221   0.227
 6586SOL    HW231790   0.801   2.274   0.084
 6587SOL     OW31791   3.949   0.541   0.982
 6587SOL    HW131792   3.941   0.559   1.080
 6587SOL    HW231793   3.866   0.572   0.936
 6588SOL     OW31794   0.077   2.444   6.279
 6588SOL    HW131795  -0.010   2.434   6.229
 6588SOL    HW231796   0.080   2.377   6.354
 6589SOL     OW31797   4.612   6.925   1.333
 6589SOL    HW131798   4.590   6.918   1.430
 6589SOL    HW231799   4.657   6.840   1.303
 6590SOL     OW31800   4.199   3.416   0.545
 6590SOL    HW131801   4.281   3.471   0.561
 6590SOL    HW231802   4.187   3.402   0.447
 6591SOL     OW31803   2.100   3.161   6.157
 6591SOL    HW131804   2.075   3.250   6.119
 6591SOL    HW231805   2.018   3.104   6.167
 6592SOL     OW31806   2.355   5.453   0.245
 6592SOL    HW131807   2.280   5.425   0.186
 6592SOL    HW231808   2.386   5.375   0.299
 6593SOL     OW31809   2.608   3.547   6.092
 6593SOL    HW131810   2.669   3.563   6.169
 6593SOL    HW231811   2.605   3.628   6.033
 6594SOL     OW31812   1.682   0.587   6.189
 6594SOL    HW131813   1.625   0.649   6.135
 6594SOL    HW231814   1.768   0.633   6.212
 6595SOL     OW31815   1.479   4.181   0.889
 6595SOL    HW131816   1.468   4.185   0.988
 6595SOL    HW231817   1.396   4.144   0.847
 6596SOL     OW31818   0.969   2.091   6.411
 6596SOL    HW131819   0.964   1.996   6.442
 6596SOL    HW231820   0.899   2.107   6.341
 6597SOL     OW31821   4.096   5.478   5.467
 6597SOL    HW131822   4.116   5.498   5.371
 6597SOL    HW231823   4.105   5.380   5.484
 6598SOL     OW31824   5.072   6.561   5.897
 6598SOL    HW131825   4.979   6.526   5.887
 6598SOL    HW231826   5.074   6.631   5.968
 6599SOL     OW31827   1.006   6.625   0.623
 6599SOL    HW131828   1.104   6.609   0.611
 6599SOL    HW231829   0.978   6.599   0.716
 6600SOL     OW31830   0.877   1.773   0.308
 6600SOL    HW131831   0.800   1.770   0.371
 6600SOL    HW231832   0.843   1.782   0.214
 6601SOL     OW31833   1.495   2.946   0.006
 6601SOL    HW131834   1.460   2.861   0.045
 6601SOL    HW231835   1.570   2.925  -0.057
 6602SOL     OW31836   3.569   5.862   6.267
 6602SOL    HW131837   3.517   5.944   6.244
 6602SOL    HW231838   3.630   5.882   6.344
 6603SOL     OW31839   1.586   3.856   0.983
 6603SOL    HW131840   1.515   3.901   1.037
 6603SOL    HW231841   1.613   3.770   1.027
 6604SOL     OW31842   8.717   6.392   5.356
 6604SOL    HW131843   8.697   6.298   5.327
 6604SOL    HW231844   8.805   6.420   5.317
 6605SOL     OW31845   2.180   1.908   6.722
 6605SOL    HW131846   2.260   1.893   6.780
 6605SOL    HW231847   2.121   1.977   6.764
 6606SOL     OW31848   3.131   3.784   1.679
 6606SOL    HW131849   3.135   3.882   1.658
 6606SOL    HW231850   3.049   3.745   1.637
 6607SOL     OW31851   6.037   1.523   0.424
 6607SOL    HW131852   6.013   1.523   0.327
 6607SOL    HW231853   5.959   1.555   0.478
 6608SOL     OW31854   4.479   7.163   1.301
 6608SOL    HW131855   4.505   7.066   1.302
 6608SOL    HW231856   4.454   7.192   1.393
 6609SOL     OW31857   6.606   1.542   2.204
 6609SOL    HW131858   6.522   1.597   2.212
 6609SOL    HW231859   6.682   1.601   2.176
 6610SOL     OW31860   2.944   2.067   6.270
 6610SOL    HW131861   2.892   1.987   6.240
 6610SOL    HW231862   2.921   2.089   6.365
 6611SOL     OW31863   5.172   1.791   0.927
 6611SOL    HW131864   5.220   1.704   0.941
 6611SOL    HW231865   5.090   1.775   0.871
 6612SOL     OW31866   8.727   8.392   6.543
 6612SOL    HW131867   8.637   8.365   6.507
 6612SOL    HW231868   8.749   8.335   6.622
 6613SOL     OW31869   4.262   0.873   5.345
 6613SOL    HW131870   4.343   0.870   5.286
 6613SOL    HW231871   4.228   0.780   5.358
 6614SOL     OW31872   6.176   6.713   5.388
 6614SOL    HW131873   6.227   6.628   5.405
 6614SOL    HW231874   6.082   6.690   5.360
 6615SOL     OW31875   2.423   8.282   6.548
 6615SOL    HW131876   2.334   8.320   6.521
 6615SOL    HW231877   2.448   8.318   6.639
 6616SOL     OW31878   1.699   5.527   6.076
 6616SOL    HW131879   1.780   5.538   6.018
 6616SOL    HW231880   1.670   5.431   6.076
 6617SOL     OW31881   3.074   1.961   0.108
 6617SOL    HW131882   3.172   1.981   0.106
 6617SOL    HW231883   3.061   1.862   0.119
 6618SOL     OW31884   5.785   5.054   6.286
 6618SOL    HW131885   5.860   4.992   6.307
 6618SOL    HW231886   5.727   5.064   6.367
 6619SOL     OW31887   3.846   8.449   1.223
 6619SOL    HW131888   3.806   8.416   1.137
 6619SOL    HW231889   3.808   8.539   1.245
 6620SOL     OW31890   5.258   6.555   0.628
 6620SOL    HW131891   5.254   6.562   0.728
 6620SOL    HW231892   5.314   6.477   0.602
 6621SOL     OW31893   2.492   7.804   0.785
 6621SOL    HW131894   2.540   7.720   0.812
 6621SOL    HW231895   2.394   7.794   0.803
 6622SOL     OW31896   3.050   4.105   0.533
 6622SOL    HW131897   3.070   4.118   0.630
 6622SOL    HW231898   3.067   4.191   0.483
 6623SOL     OW31899   9.392   4.166   6.642
 6623SOL    HW131900   9.445   4.240   6.683
 6623SOL    HW231901   9.419   4.078   6.682
 6624SOL     OW31902   1.740   3.734   6.271
 6624SOL    HW131903   1.825   3.781   6.294
 6624SOL    HW231904   1.759   3.655   6.213
 6625SOL     OW31905   7.430   7.686   6.279
 6625SOL    HW131906   7.428   7.765   6.217
 6625SOL    HW231907   7.448   7.603   6.226
 6626SOL     OW31908   4.537   7.677   0.368
 6626SOL    HW131909   4.624   7.689   0.416
 6626SOL    HW231910   4.547   7.704   0.273
 6627SOL     OW31911   7.169   3.762   5.849
 6627SOL    HW131912   7.163   3.825   5.771
 6627SOL    HW231913   7.253   3.708   5.841
 6628SOL     OW31914   1.673   0.571   5.528
 6628SOL    HW131915   1.690   0.662   5.565
 6628SOL    HW231916   1.684   0.503   5.600
 6629SOL     OW31917   8.043   1.042   5.274
 6629SOL    HW131918   8.014   0.974   5.207
 6629SOL    HW231919   8.143   1.046   5.276
 6630SOL     OW31920   3.027   5.778   5.407
 6630SOL    HW131921   2.957   5.839   5.368
 6630SOL    HW231922   3.062   5.819   5.491
 6631SOL     OW31923   2.783   0.551   0.380
 6631SOL    HW131924   2.808   0.526   0.474
 6631SOL    HW231925   2.761   0.468   0.329
 6632SOL     OW31926   2.697   7.172   5.331
 6632SOL    HW131927   2.689   7.195   5.428
 6632SOL    HW231928   2.769   7.104   5.319
 6633SOL     OW31929   8.525   4.481   1.261
 6633SOL    HW131930   8.427   4.498   1.250
 6633SOL    HW231931   8.559   4.529   1.342
 6634SOL     OW31932   8.491   7.435   6.359
 6634SOL    HW131933   8.425   7.423   6.286
 6634SOL    HW231934   8.453   7.495   6.430
 6635SOL     OW31935   0.048   6.330   6.204
 6635SOL    HW131936  -0.051   6.335   6.210
 6635SOL    HW231937   0.075   6.309   6.110
 6636SOL     OW31938   0.859   1.262   6.198
 6636SOL    HW131939   0.922   1.316   6.254
 6636SOL    HW231940   0.853   1.303   6.107
 6637SOL     OW31941   1.030   8.387   5.225
 6637SOL    HW131942   1.022   8.294   5.260
 6637SOL    HW231943   0.963   8.445   5.271
 6638SOL     OW31944   2.882   4.109   6.499
 6638SOL    HW131945   2.816   4.063   6.558
 6638SOL    HW231946   2.844   4.120   6.407
 6639SOL     OW31947   4.061   4.287   0.681
 6639SOL    HW131948   4.069   4.189   0.662
 6639SOL    HW231949   4.119   4.310   0.759
 6640SOL     OW31950   0.413   0.347   6.053
 6640SOL    HW131951   0.384   0.295   6.134
 6640SOL    HW231952   0.511   0.368   6.061
 6641SOL     OW31953   9.210   3.822   1.213
 6641SOL    HW131954   9.249   3.763   1.283
 6641SOL    HW231955   9.202   3.915   1.249
 6642SOL     OW31956   3.170   5.464   4.661
 6642SOL    HW131957   3.207   5.377   4.693
 6642SOL    HW231958   3.078   5.477   4.699
 6643SOL     OW31959   7.716   4.588   0.392
 6643SOL    HW131960   7.765   4.659   0.341
 6643SOL    HW231961   7.760   4.575   0.481
 6644SOL     OW31962   9.351   5.246   0.087
 6644SOL    HW131963   9.286   5.197   0.145
 6644SOL    HW231964   9.305   5.326   0.046
 6645SOL     OW31965   6.553   3.680   1.823
 6645SOL    HW131966   6.456   3.699   1.805
 6645SOL    HW231967   6.566   3.661   1.920
 6646SOL     OW31968   4.340   7.899   5.988
 6646SOL    HW131969   4.361   7.883   5.892
 6646SOL    HW231970   4.425   7.899   6.041
 6647SOL     OW31971   0.041   4.298   6.299
 6647SOL    HW131972  -0.038   4.238   6.289
 6647SOL    HW231973   0.103   4.285   6.222
 6648SOL     OW31974   0.047   7.107   0.296
 6648SOL    HW131975   0.100   7.070   0.372
 6648SOL    HW231976   0.089   7.192   0.264
 6649SOL     OW31977   2.504   6.959   0.247
 6649SOL    HW131978   2.459   6.901   0.179
 6649SOL    HW231979   2.506   6.911   0.335
 6650SOL     OW31980   1.151   7.270   1.205
 6650SOL    HW131981   1.141   7.345   1.270
 6650SOL    HW231982   1.234   7.218   1.227
 6651SOL     OW31983   5.360   2.698   0.945
 6651SOL    HW131984   5.388   2.620   1.001
 6651SOL    HW231985   5.420   2.776   0.963
 6652SOL     OW31986   5.722   4.381   1.245
 6652SOL    HW131987   5.803   4.423   1.285
 6652SOL    HW231988   5.699   4.297   1.295
 6653SOL     OW31989   4.072   1.569   0.026
 6653SOL    HW131990   4.165   1.536   0.013
 6653SOL    HW231991   4.037   1.604  -0.061
 6654SOL     OW31992   7.057   3.073   6.460
 6654SOL    HW131993   7.070   3.166   6.427
 6654SOL    HW231994   6.978   3.032   6.415
 6655SOL     OW31995   7.754   3.000   1.329
 6655SOL    HW131996   7.675   3.008   1.389
 6655SOL    HW231997   7.838   3.006   1.383
 6656SOL     OW31998   4.103   6.207   1.342
 6656SOL    HW131999   4.187   6.176   1.386
 6656SOL    HW232000   4.026   6.151   1.373
 6657SOL     OW32001   8.329   6.927   6.492
 6657SOL    HW132002   8.252   6.935   6.555
 6657SOL    HW232003   8.371   7.017   6.480
 6658SOL     OW32004   3.485   8.349   0.103
 6658SOL    HW132005   3.494   8.261   0.056
 6658SOL    HW232006   3.537   8.419   0.053
 6659SOL     OW32007   4.224   3.483   6.146
 6659SOL    HW132008   4.153   3.490   6.076
 6659SOL    HW232009   4.187   3.510   6.234
 6660SOL     OW32010   8.437   4.750   6.023
 6660SOL    HW132011   8.437   4.714   6.116
 6660SOL    HW232012   8.526   4.790   6.002
 6661SOL     OW32013   7.792   8.130   1.851
 6661SOL    HW132014   7.789   8.041   1.897
 6661SOL    HW232015   7.758   8.200   1.913
 6662SOL     OW32016   1.405   5.590   5.935
 6662SOL    HW132017   1.461   5.573   6.016
 6662SOL    HW232018   1.395   5.505   5.883
 6663SOL     OW32019   4.947   5.652   0.232
 6663SOL    HW132020   4.859   5.699   0.228
 6663SOL    HW232021   4.954   5.603   0.319
 6664SOL     OW32022   8.539   5.088   5.590
 6664SOL    HW132023   8.509   5.166   5.536
 6664SOL    HW232024   8.472   5.069   5.661
 6665SOL     OW32025   7.486   5.887   5.586
 6665SOL    HW132026   7.407   5.948   5.574
 6665SOL    HW232027   7.474   5.833   5.669
 6666SOL     OW32028   5.372   0.475   6.191
 6666SOL    HW132029   5.403   0.383   6.166
 6666SOL    HW232030   5.352   0.527   6.107
 6667SOL     OW32031   4.041   8.459   5.494
 6667SOL    HW132032   4.117   8.411   5.449
 6667SOL    HW232033   4.050   8.558   5.477
 6668SOL     OW32034   0.828   7.378   0.509
 6668SOL    HW132035   0.741   7.403   0.466
 6668SOL    HW232036   0.814   7.298   0.568
 6669SOL     OW32037   3.240   2.869   0.169
 6669SOL    HW132038   3.218   2.957   0.212
 6669SOL    HW232039   3.220   2.874   0.071
 6670SOL     OW32040   1.142   1.775   1.199
 6670SOL    HW132041   1.140   1.692   1.144
 6670SOL    HW232042   1.225   1.827   1.180
 6671SOL     OW32043   4.095   7.123   6.318
 6671SOL    HW132044   4.170   7.059   6.335
 6671SOL    HW232045   4.024   7.079   6.263
 6672SOL     OW32046   1.553   4.740   5.353
 6672SOL    HW132047   1.546   4.805   5.278
 6672SOL    HW232048   1.499   4.658   5.331
 6673SOL     OW32049   3.193   0.528   1.290
 6673SOL    HW132050   3.290   0.505   1.288
 6673SOL    HW232051   3.154   0.500   1.377
 6674SOL     OW32052   5.965   0.552   1.063
 6674SOL    HW132053   5.957   0.603   0.977
 6674SOL    HW232054   6.049   0.579   1.110
 6675SOL     OW32055   8.488   7.554   4.319
 6675SOL    HW132056   8.485   7.462   4.356
 6675SOL    HW232057   8.534   7.553   4.230
 6676SOL     OW32058   6.874   5.175   0.985
 6676SOL    HW132059   6.960   5.125   0.988
 6676SOL    HW232060   6.885   5.262   1.034
 6677SOL     OW32061   8.343   5.848   5.785
 6677SOL    HW132062   8.439   5.818   5.791
 6677SOL    HW232063   8.323   5.874   5.690
 6678SOL     OW32064   9.200   7.284   6.438
 6678SOL    HW132065   9.182   7.240   6.350
 6678SOL    HW232066   9.226   7.379   6.424
 6679SOL     OW32067   6.671   1.521   5.803
 6679SOL    HW132068   6.648   1.558   5.712
 6679SOL    HW232069   6.671   1.421   5.799
 6680SOL     OW32070   9.104   3.717   0.759
 6680SOL    HW132071   9.155   3.763   0.832
 6680SOL    HW232072   9.015   3.687   0.795
 6681SOL     OW32073   0.263   3.886   5.888
 6681SOL    HW132074   0.314   3.910   5.805
 6681SOL    HW232075   0.284   3.792   5.914
 6682SOL     OW32076   9.350   1.892   0.011
 6682SOL    HW132077   9.253   1.916   0.005
 6682SOL    HW232078   9.359   1.793   0.005
 6683SOL     OW32079   0.598   2.662   0.100
 6683SOL    HW132080   0.657   2.632   0.175
 6683SOL    HW232081   0.511   2.614   0.105
 6684SOL     OW32082   5.201   0.800   6.209
 6684SOL    HW132083   5.197   0.862   6.287
 6684SOL    HW232084   5.252   0.844   6.135
 6685SOL     OW32085   0.600   6.557   0.814
 6685SOL    HW132086   0.545   6.480   0.847
 6685SOL    HW232087   0.600   6.630   0.882
 6686SOL     OW32088   1.770   4.648   0.947
 6686SOL    HW132089   1.754   4.687   0.856
 6686SOL    HW232090   1.719   4.700   1.015
 6687SOL     OW32091   1.233   3.341   6.109
 6687SOL    HW132092   1.158   3.394   6.149
 6687SOL    HW232093   1.239   3.360   6.011
 6688SOL     OW32094   5.338   7.210   5.859
 6688SOL    HW132095   5.301   7.149   5.789
 6688SOL    HW232096   5.437   7.215   5.849
 6689SOL     OW32097   8.973   6.413   5.952
 6689SOL    HW132098   9.061   6.451   5.979
 6689SOL    HW232099   8.908   6.422   6.027
 6690SOL     OW32100   4.740   2.691   0.491
 6690SOL    HW132101   4.802   2.769   0.483
 6690SOL    HW232102   4.676   2.706   0.566
 6691SOL     OW32103   5.871   6.394   4.929
 6691SOL    HW132104   5.806   6.323   4.904
 6691SOL    HW232105   5.826   6.462   4.987
 6692SOL     OW32106   6.288   4.310   6.456
 6692SOL    HW132107   6.247   4.273   6.540
 6692SOL    HW232108   6.215   4.334   6.392
 6693SOL     OW32109   3.248   1.226   1.163
 6693SOL    HW132110   3.294   1.300   1.213
 6693SOL    HW232111   3.317   1.170   1.117
 6694SOL     OW32112   1.920   8.304   0.274
 6694SOL    HW132113   1.842   8.284   0.215
 6694SOL    HW232114   1.982   8.226   0.275
 6695SOL     OW32115   7.828   1.373   0.189
 6695SOL    HW132116   7.810   1.467   0.158
 6695SOL    HW232117   7.768   1.310   0.141
 6696SOL     OW32118   1.873   5.630   0.080
 6696SOL    HW132119   1.837   5.722   0.098
 6696SOL    HW232120   1.921   5.596   0.161
 6697SOL     OW32121   8.675   8.268   6.014
 6697SOL    HW132122   8.616   8.241   6.090
 6697SOL    HW232123   8.642   8.225   5.930
 6698SOL     OW32124   2.102   1.212   0.925
 6698SOL    HW132125   2.034   1.166   0.982
 6698SOL    HW232126   2.157   1.272   0.982
 6699SOL     OW32127   2.898   0.781   0.273
 6699SOL    HW132128   2.895   0.683   0.291
 6699SOL    HW232129   2.983   0.819   0.310
 6700SOL     OW32130   2.455   7.350   6.175
 6700SOL    HW132131   2.377   7.388   6.125
 6700SOL    HW232132   2.424   7.284   6.243
 6701SOL     OW32133   8.941   1.186   0.153
 6701SOL    HW132134   8.859   1.188   0.095
 6701SOL    HW232135   8.978   1.093   0.153
 6702SOL     OW32136   7.071   7.374   1.280
 6702SOL    HW132137   7.094   7.280   1.305
 6702SOL    HW232138   7.011   7.413   1.351
 6703SOL     OW32139   3.588   4.062   6.638
 6703SOL    HW132140   3.640   4.134   6.593
 6703SOL    HW232141   3.493   4.093   6.651
 6704SOL     OW32142   5.876   0.902   5.390
 6704SOL    HW132143   5.778   0.904   5.369
 6704SOL    HW232144   5.923   0.969   5.333
 6705SOL     OW32145   3.534   0.436   6.562
 6705SOL    HW132146   3.457   0.410   6.619
 6705SOL    HW232147   3.508   0.431   6.466
 6706SOL     OW32148   8.904   7.412   5.808
 6706SOL    HW132149   8.837   7.424   5.881
 6706SOL    HW232150   8.986   7.466   5.827
 6707SOL     OW32151   1.415   4.752   5.806
 6707SOL    HW132152   1.316   4.763   5.811
 6707SOL    HW232153   1.460   4.823   5.860
 6708SOL     OW32154   2.059   4.797   1.261
 6708SOL    HW132155   2.040   4.862   1.188
 6708SOL    HW232156   2.051   4.842   1.350
 6709SOL     OW32157   2.439   3.210   0.269
 6709SOL    HW132158   2.364   3.167   0.319
 6709SOL    HW232159   2.524   3.198   0.320
 6710SOL     OW32160   7.158   8.074   0.790
 6710SOL    HW132161   7.236   8.055   0.730
 6710SOL    HW232162   7.127   7.988   0.831
 6711SOL     OW32163   6.744   3.424   1.135
 6711SOL    HW132164   6.657   3.452   1.093
 6711SOL    HW232165   6.786   3.502   1.181
 6712SOL     OW32166   7.799   1.201   5.333
 6712SOL    HW132167   7.866   1.129   5.312
 6712SOL    HW232168   7.731   1.206   5.260
 6713SOL     OW32169   8.433   0.511   6.097
 6713SOL    HW132170   8.474   0.577   6.161
 6713SOL    HW232171   8.433   0.550   6.005
 6714SOL     OW32172   1.911   3.160   0.588
 6714SOL    HW132173   2.007   3.173   0.563
 6714SOL    HW232174   1.905   3.135   0.685
 6715SOL     OW32175   2.035   1.056   0.306
 6715SOL    HW132176   1.991   1.047   0.217
 6715SOL    HW232177   2.135   1.051   0.294
 6716SOL     OW32178   3.118   1.312   1.692
 6716SOL    HW132179   3.182   1.388   1.678
 6716SOL    HW232180   3.033   1.348   1.731
 6717SOL     OW32181   6.107   6.187   6.195
 6717SOL    HW132182   6.201   6.178   6.228
 6717SOL    HW232183   6.096   6.275   6.149
 6718SOL     OW32184   7.400   1.615   0.254
 6718SOL    HW132185   7.411   1.655   0.345
 6718SOL    HW232186   7.345   1.676   0.196
 6719SOL     OW32187   0.732   0.735   0.549
 6719SOL    HW132188   0.643   0.695   0.526
 6719SOL    HW232189   0.720   0.805   0.619
 6720SOL     OW32190   3.601   4.859   1.737
 6720SOL    HW132191   3.512   4.885   1.774
 6720SOL    HW232192   3.657   4.818   1.809
 6721SOL     OW32193   5.988   3.952   0.430
 6721SOL    HW132194   5.924   3.973   0.356
 6721SOL    HW232195   6.001   3.853   0.436
 6722SOL     OW32196   9.430   5.308   1.127
 6722SOL    HW132197   9.428   5.394   1.179
 6722SOL    HW232198   9.520   5.266   1.135
 6723SOL     OW32199   0.865   2.894   6.059
 6723SOL    HW132200   0.809   2.844   6.125
 6723SOL    HW232201   0.806   2.947   5.998
 6724SOL     OW32202   6.879   7.479   6.505
 6724SOL    HW132203   6.944   7.510   6.435
 6724SOL    HW232204   6.838   7.559   6.550
 6725SOL     OW32205   4.252   0.905   0.358
 6725SOL    HW132206   4.167   0.866   0.323
 6725SOL    HW232207   4.327   0.842   0.340
 6726SOL     OW32208   8.174   2.275   6.413
 6726SOL    HW132209   8.193   2.180   6.435
 6726SOL    HW232210   8.146   2.324   6.495
 6727SOL     OW32211   7.272   7.629   0.847
 6727SOL    HW132212   7.211   7.695   0.892
 6727SOL    HW232213   7.270   7.543   0.899
 6728SOL     OW32214   4.627   0.836   6.138
 6728SOL    HW132215   4.686   0.909   6.172
 6728SOL    HW232216   4.600   0.777   6.213
 6729SOL     OW32217   7.648   5.446   5.408
 6729SOL    HW132218   7.675   5.444   5.312
 6729SOL    HW232219   7.607   5.535   5.429
 6730SOL     OW32220   4.031   1.280   1.621
 6730SOL    HW132221   3.975   1.284   1.703
 6730SOL    HW232222   4.009   1.197   1.569
 6731SOL     OW32223   6.870   1.886   1.823
 6731SOL    HW132224   6.873   1.893   1.723
 6731SOL    HW232225   6.798   1.821   1.850
 6732SOL     OW32226   3.907   5.719   0.533
 6732SOL    HW132227   3.986   5.777   0.555
 6732SOL    HW232228   3.925   5.668   0.449
 6733SOL     OW32229   6.045   5.320   5.538
 6733SOL    HW132230   5.965   5.320   5.598
 6733SOL    HW232231   6.124   5.359   5.587
 6734SOL     OW32232   4.300   1.725   1.380
 6734SOL    HW132233   4.334   1.814   1.409
 6734SOL    HW232234   4.212   1.735   1.335
 6735SOL     OW32235   6.079   7.468   5.019
 6735SOL    HW132236   5.995   7.519   5.035
 6735SOL    HW232237   6.157   7.531   5.020
 6736SOL     OW32238   4.819   6.027   5.594
 6736SOL    HW132239   4.843   5.985   5.506
 6736SOL    HW232240   4.721   6.050   5.593
 6737SOL     OW32241   8.836   6.671   6.521
 6737SOL    HW132242   8.737   6.675   6.506
 6737SOL    HW232243   8.883   6.676   6.433
 6738SOL     OW32244   7.746   3.306   0.366
 6738SOL    HW132245   7.808   3.384   0.361
 6738SOL    HW232246   7.662   3.334   0.412
 6739SOL     OW32247   6.311   6.942   5.440
 6739SOL    HW132248   6.406   6.929   5.469
 6739SOL    HW232249   6.263   6.854   5.441
 6740SOL     OW32250   5.666   3.309   0.733
 6740SOL    HW132251   5.670   3.229   0.794
 6740SOL    HW232252   5.595   3.371   0.765
 6741SOL     OW32253   7.053   2.320   1.728
 6741SOL    HW132254   7.067   2.223   1.708
 6741SOL    HW232255   6.974   2.330   1.789
 6742SOL     OW32256   0.546   7.367   0.120
 6742SOL    HW132257   0.450   7.385   0.101
 6742SOL    HW232258   0.563   7.376   0.218
 6743SOL     OW32259   0.805   5.188   4.798
 6743SOL    HW132260   0.818   5.270   4.742
 6743SOL    HW232261   0.796   5.108   4.739
 6744SOL     OW32262   4.030   4.428   0.056
 6744SOL    HW132263   4.059   4.346   0.106
 6744SOL    HW232264   4.068   4.427  -0.036
 6745SOL     OW32265   1.045   7.618   4.059
 6745SOL    HW132266   1.123   7.613   3.997
 6745SOL    HW232267   0.995   7.703   4.044
 6746SOL     OW32268   7.395   0.104   6.039
 6746SOL    HW132269   7.410   0.095   6.138
 6746SOL    HW232270   7.320   0.043   6.011
 6747SOL     OW32271   2.982   1.148   5.735
 6747SOL    HW132272   3.032   1.099   5.663
 6747SOL    HW232273   2.940   1.083   5.797
 6748SOL     OW32274   6.519   1.384   0.369
 6748SOL    HW132275   6.576   1.426   0.440
 6748SOL    HW232276   6.423   1.393   0.395
 6749SOL     OW32277   2.086   5.522   6.364
 6749SOL    HW132278   2.026   5.513   6.443
 6749SOL    HW232279   2.178   5.546   6.394
 6750SOL     OW32280   4.321   7.532   1.511
 6750SOL    HW132281   4.335   7.434   1.523
 6750SOL    HW232282   4.404   7.582   1.538
 6751SOL     OW32283   3.813   5.456   0.114
 6751SOL    HW132284   3.848   5.473   0.022
 6751SOL    HW232285   3.730   5.510   0.129
 6752SOL     OW32286   6.502   8.409   0.784
 6752SOL    HW132287   6.543   8.321   0.760
 6752SOL    HW232288   6.422   8.425   0.727
 6753SOL     OW32289   1.062   7.867   5.463
 6753SOL    HW132290   0.987   7.847   5.526
 6753SOL    HW232291   1.028   7.867   5.369
 6754SOL     OW32292   1.608   0.475   0.400
 6754SOL    HW132293   1.656   0.563   0.394
 6754SOL    HW232294   1.512   0.491   0.424
 6755SOL     OW32295   3.671   4.144   1.746
 6755SOL    HW132296   3.690   4.172   1.840
 6755SOL    HW232297   3.580   4.176   1.720
 6756SOL     OW32298   9.164   5.526   0.482
 6756SOL    HW132299   9.222   5.445   0.475
 6756SOL    HW232300   9.174   5.566   0.574
 6757SOL     OW32301   0.282   0.957   1.294
 6757SOL    HW132302   0.185   0.978   1.277
 6757SOL    HW232303   0.290   0.903   1.378
 6758SOL     OW32304   9.029   1.848   0.784
 6758SOL    HW132305   8.954   1.894   0.736
 6758SOL    HW232306   9.027   1.873   0.881
 6759SOL     OW32307   1.777   4.885   4.608
 6759SOL    HW132308   1.736   4.920   4.524
 6759SOL    HW232309   1.727   4.805   4.639
 6760SOL     OW32310   2.383   7.632   1.178
 6760SOL    HW132311   2.302   7.618   1.120
 6760SOL    HW232312   2.355   7.675   1.264
 6761SOL     OW32313   6.862   7.143   5.989
 6761SOL    HW132314   6.785   7.162   5.928
 6761SOL    HW232315   6.937   7.205   5.969
 6762SOL     OW32316   6.078   8.314   1.512
 6762SOL    HW132317   6.118   8.331   1.601
 6762SOL    HW232318   6.145   8.336   1.440
 6763SOL     OW32319   3.076   4.303   5.550
 6763SOL    HW132320   3.114   4.249   5.475
 6763SOL    HW232321   3.124   4.281   5.635
 6764SOL     OW32322   2.719   0.922   6.338
 6764SOL    HW132323   2.670   0.895   6.421
 6764SOL    HW232324   2.729   1.021   6.335
 6765SOL     OW32325   2.898   1.770   6.386
 6765SOL    HW132326   2.867   1.683   6.424
 6765SOL    HW232327   2.833   1.800   6.315
 6766SOL     OW32328   3.007   6.927   6.363
 6766SOL    HW132329   2.948   7.005   6.381
 6766SOL    HW232330   3.091   6.959   6.319
 6767SOL     OW32331   4.362   4.162   6.240
 6767SOL    HW132332   4.347   4.178   6.142
 6767SOL    HW232333   4.434   4.223   6.273
 6768SOL     OW32334   4.628   1.834   0.052
 6768SOL    HW132335   4.626   1.850   0.151
 6768SOL    HW232336   4.562   1.894   0.007
 6769SOL     OW32337   0.079   6.205   0.084
 6769SOL    HW132338   0.148   6.134   0.096
 6769SOL    HW232339   0.011   6.175   0.017
 6770SOL     OW32340   6.932   7.043   5.495
 6770SOL    HW132341   6.964   7.115   5.556
 6770SOL    HW232342   7.011   6.994   5.457
 6771SOL     OW32343   5.805   7.788   1.223
 6771SOL    HW132344   5.836   7.759   1.313
 6771SOL    HW232345   5.824   7.885   1.211
 6772SOL     OW32346   7.378   4.919   0.900
 6772SOL    HW132347   7.304   4.961   0.847
 6772SOL    HW232348   7.406   4.982   0.972
 6773SOL     OW32349   6.502   5.853   0.657
 6773SOL    HW132350   6.447   5.903   0.724
 6773SOL    HW232351   6.535   5.917   0.588
 6774SOL     OW32352   4.064   0.246   6.140
 6774SOL    HW132353   4.087   0.177   6.210
 6774SOL    HW232354   4.116   0.228   6.057
 6775SOL     OW32355   0.514   3.427   0.409
 6775SOL    HW132356   0.498   3.517   0.368
 6775SOL    HW232357   0.428   3.393   0.447
 6776SOL     OW32358   0.126   1.404   5.862
 6776SOL    HW132359   0.186   1.404   5.782
 6776SOL    HW232360   0.146   1.485   5.918
 6777SOL     OW32361   3.924   3.957   6.440
 6777SOL    HW132362   3.898   4.034   6.498
 6777SOL    HW232363   4.009   3.917   6.474
 6778SOL     OW32364   4.972   4.351   0.486
 6778SOL    HW132365   4.913   4.415   0.437
 6778SOL    HW232366   5.017   4.398   0.562
 6779SOL     OW32367   7.062   3.502   0.488
 6779SOL    HW132368   7.085   3.429   0.552
 6779SOL    HW232369   7.145   3.551   0.461
 6780SOL     OW32370   4.510   6.164   5.931
 6780SOL    HW132371   4.473   6.158   6.024
 6780SOL    HW232372   4.600   6.121   5.927
 6781SOL     OW32373   8.100   2.226   0.952
 6781SOL    HW132374   8.188   2.267   0.931
 6781SOL    HW232375   8.030   2.297   0.960
 6782SOL     OW32376   0.772   3.426   0.555
 6782SOL    HW132377   0.842   3.450   0.488
 6782SOL    HW232378   0.682   3.447   0.519
 6783SOL     OW32379   2.228   0.214   5.822
 6783SOL    HW132380   2.149   0.186   5.766
 6783SOL    HW232381   2.220   0.311   5.845
 6784SOL     OW32382   3.071   7.832   5.956
 6784SOL    HW132383   2.980   7.854   5.922
 6784SOL    HW232384   3.137   7.897   5.917
 6785SOL     OW32385   4.114   6.903   0.392
 6785SOL    HW132386   4.064   6.886   0.308
 6785SOL    HW232387   4.095   6.830   0.458
 6786SOL     OW32388   1.374   2.704   0.150
 6786SOL    HW132389   1.457   2.707   0.204
 6786SOL    HW232390   1.324   2.619   0.169
 6787SOL     OW32391   3.033   3.693   5.648
 6787SOL    HW132392   3.052   3.613   5.591
 6787SOL    HW232393   3.024   3.774   5.591
 6788SOL     OW32394   2.145   1.559   6.323
 6788SOL    HW132395   2.134   1.525   6.229
 6788SOL    HW232396   2.059   1.550   6.372
 6789SOL     OW32397   1.712   4.276   5.937
 6789SOL    HW132398   1.626   4.299   5.892
 6789SOL    HW232399   1.776   4.352   5.929
 6790SOL     OW32400   4.836   7.256   0.422
 6790SOL    HW132401   4.933   7.277   0.411
 6790SOL    HW232402   4.814   7.247   0.519
 6791SOL     OW32403   1.572   7.272   1.175
 6791SOL    HW132404   1.529   7.198   1.226
 6791SOL    HW232405   1.510   7.350   1.171
 6792SOL     OW32406   7.042   7.061   0.063
 6792SOL    HW132407   7.115   6.994   0.051
 6792SOL    HW232408   7.073   7.135   0.122
 6793SOL     OW32409   9.488   8.086   4.869
 6793SOL    HW132410   9.581   8.081   4.905
 6793SOL    HW232411   9.475   8.175   4.825
 6794SOL     OW32412   0.038   6.539   5.421
 6794SOL    HW132413   0.022   6.620   5.476
 6794SOL    HW232414   0.020   6.457   5.475
 6795SOL     OW32415   8.693   3.857   5.672
 6795SOL    HW132416   8.614   3.889   5.620
 6795SOL    HW232417   8.760   3.816   5.610
 6796SOL     OW32418   5.796   8.463   1.807
 6796SOL    HW132419   5.727   8.393   1.824
 6796SOL    HW232420   5.814   8.513   1.892
 6797SOL     OW32421   7.238   0.341   1.228
 6797SOL    HW132422   7.281   0.260   1.268
 6797SOL    HW232423   7.146   0.353   1.268
 6798SOL     OW32424   6.485   2.763   6.291
 6798SOL    HW132425   6.453   2.809   6.208
 6798SOL    HW232426   6.555   2.820   6.336
 6799SOL     OW32427   1.972   3.727   5.950
 6799SOL    HW132428   1.910   3.695   5.878
 6799SOL    HW232429   1.935   3.703   6.040
 6800SOL     OW32430   6.144   6.114   6.625
 6800SOL    HW132431   6.063   6.057   6.633
 6800SOL    HW232432   6.194   6.089   6.541
 6801SOL     OW32433   3.588   3.036   0.984
 6801SOL    HW132434   3.504   3.056   0.933
 6801SOL    HW232435   3.633   2.956   0.945
 6802SOL     OW32436   1.051   8.287   6.009
 6802SOL    HW132437   1.001   8.338   6.079
 6802SOL    HW232438   1.139   8.330   5.993
 6803SOL     OW32439   7.199   5.373   5.849
 6803SOL    HW132440   7.125   5.381   5.916
 6803SOL    HW232441   7.164   5.331   5.766
 6804SOL     OW32442   9.105   1.592   5.724
 6804SOL    HW132443   9.064   1.682   5.709
 6804SOL    HW232444   9.204   1.598   5.715
 6805SOL     OW32445   6.726   7.398   5.213
 6805SOL    HW132446   6.701   7.306   5.244
 6805SOL    HW232447   6.681   7.417   5.126
 6806SOL     OW32448   1.340   6.921   6.108
 6806SOL    HW132449   1.355   6.982   6.186
 6806SOL    HW232450   1.382   6.832   6.127
 6807SOL     OW32451   2.441   1.805   0.803
 6807SOL    HW132452   2.433   1.707   0.790
 6807SOL    HW232453   2.354   1.842   0.836
 6808SOL     OW32454   8.383   1.183   5.763
 6808SOL    HW132455   8.429   1.107   5.717
 6808SOL    HW232456   8.293   1.197   5.722
 6809SOL     OW32457   2.862   5.946   6.160
 6809SOL    HW132458   2.879   6.044   6.151
 6809SOL    HW232459   2.906   5.912   6.244
 6810SOL     OW32460   3.282   1.396   1.948
 6810SOL    HW132461   3.284   1.296   1.954
 6810SOL    HW232462   3.358   1.434   2.000
 6811SOL     OW32463   4.538   6.056   1.620
 6811SOL    HW132464   4.604   6.009   1.679
 6811SOL    HW232465   4.585   6.092   1.540
 6812SOL     OW32466   1.087   4.582   0.372
 6812SOL    HW132467   0.988   4.585   0.357
 6812SOL    HW232468   1.134   4.565   0.286
 6813SOL     OW32469   1.463   0.738   5.770
 6813SOL    HW132470   1.451   0.837   5.771
 6813SOL    HW232471   1.374   0.693   5.772
 6814SOL     OW32472   6.205   7.531   0.341
 6814SOL    HW132473   6.180   7.439   0.309
 6814SOL    HW232474   6.122   7.583   0.361
 6815SOL     OW32475   1.301   0.267   5.743
 6815SOL    HW132476   1.293   0.339   5.812
 6815SOL    HW232477   1.391   0.224   5.750
 6816SOL     OW32478   3.391   2.984   1.423
 6816SOL    HW132479   3.387   2.993   1.323
 6816SOL    HW232480   3.484   3.006   1.454
 6817SOL     OW32481   2.846   3.493   0.333
 6817SOL    HW132482   2.895   3.415   0.372
 6817SOL    HW232483   2.886   3.518   0.245
 6818SOL     OW32484   0.036   3.242   0.659
 6818SOL    HW132485   0.019   3.338   0.680
 6818SOL    HW232486   0.094   3.202   0.731
 6819SOL     OW32487   5.171   3.467   0.132
 6819SOL    HW132488   5.166   3.385   0.075
 6819SOL    HW232489   5.079   3.501   0.150
 6820SOL     OW32490   6.702   4.983   5.952
 6820SOL    HW132491   6.723   4.982   5.855
 6820SOL    HW232492   6.720   5.074   5.990
 6821SOL     OW32493   2.779   5.620   6.033
 6821SOL    HW132494   2.784   5.709   6.079
 6821SOL    HW232495   2.871   5.582   6.024
 6822SOL     OW32496   3.531   7.914   6.469
 6822SOL    HW132497   3.519   7.997   6.415
 6822SOL    HW232498   3.444   7.865   6.474
 6823SOL     OW32499   6.917   4.009   0.567
 6823SOL    HW132500   6.932   4.014   0.468
 6823SOL    HW232501   6.993   4.052   0.615
 6824SOL     OW32502   4.231   0.588   6.526
 6824SOL    HW132503   4.228   0.521   6.452
 6824SOL    HW232504   4.253   0.678   6.490
 6825SOL     OW32505   6.235   6.049   0.610
 6825SOL    HW132506   6.241   6.100   0.524
 6825SOL    HW232507   6.318   6.066   0.664
 6826SOL     OW32508   0.721   0.803   5.671
 6826SOL    HW132509   0.724   0.903   5.679
 6826SOL    HW232510   0.626   0.772   5.680
 6827SOL     OW32511   8.111   6.155   0.376
 6827SOL    HW132512   8.132   6.204   0.460
 6827SOL    HW232513   8.013   6.137   0.371
 6828SOL     OW32514   4.316   0.078   0.995
 6828SOL    HW132515   4.381   0.013   1.033
 6828SOL    HW232516   4.225   0.037   0.995
 6829SOL     OW32517   3.141   7.400   1.593
 6829SOL    HW132518   3.063   7.447   1.552
 6829SOL    HW232519   3.162   7.441   1.682
 6830SOL     OW32520   4.522   5.495   5.239
 6830SOL    HW132521   4.470   5.450   5.166
 6830SOL    HW232522   4.605   5.534   5.201
 6831SOL     OW32523   2.987   7.309   5.347
 6831SOL    HW132524   2.976   7.210   5.343
 6831SOL    HW232525   3.048   7.339   5.274
 6832SOL     OW32526   9.354   7.335   6.057
 6832SOL    HW132527   9.412   7.412   6.086
 6832SOL    HW232528   9.406   7.250   6.063
 6833SOL     OW32529   2.740   0.871   1.436
 6833SOL    HW132530   2.779   0.792   1.482
 6833SOL    HW232531   2.641   0.860   1.428
 6834SOL     OW32532   4.727   3.270   6.646
 6834SOL    HW132533   4.646   3.226   6.608
 6834SOL    HW232534   4.809   3.231   6.605
 6835SOL     OW32535   8.115   4.734   0.544
 6835SOL    HW132536   8.177   4.679   0.488
 6835SOL    HW232537   8.021   4.722   0.511
 6836SOL     OW32538   2.291   2.638   0.999
 6836SOL    HW132539   2.217   2.572   1.012
 6836SOL    HW232540   2.275   2.717   1.058
 6837SOL     OW32541   8.570   3.504   0.204
 6837SOL    HW132542   8.471   3.494   0.208
 6837SOL    HW232543   8.603   3.468   0.116
 6838SOL     OW32544   4.752   0.750   4.744
 6838SOL    HW132545   4.672   0.808   4.754
 6838SOL    HW232546   4.821   0.796   4.689
 6839SOL     OW32547   8.124   6.697   4.679
 6839SOL    HW132548   8.049   6.693   4.745
 6839SOL    HW232549   8.113   6.623   4.613
 6840SOL     OW32550   0.192   5.713   4.818
 6840SOL    HW132551   0.170   5.702   4.915
 6840SOL    HW232552   0.290   5.727   4.807
 6841SOL     OW32553   5.370   5.268   1.228
 6841SOL    HW132554   5.428   5.257   1.309
 6841SOL    HW232555   5.428   5.281   1.147
 6842SOL     OW32556   0.066   3.699   6.476
 6842SOL    HW132557  -0.020   3.648   6.471
 6842SOL    HW232558   0.070   3.764   6.399
 6843SOL     OW32559   1.648   6.873   4.980
 6843SOL    HW132560   1.732   6.820   4.994
 6843SOL    HW232561   1.631   6.882   4.881
 6844SOL     OW32562   4.312   3.026   0.152
 6844SOL    HW132563   4.256   2.947   0.126
 6844SOL    HW232564   4.300   3.099   0.084
 6845SOL     OW32565   2.426   2.390   0.806
 6845SOL    HW132566   2.404   2.333   0.727
 6845SOL    HW232567   2.480   2.469   0.777
 6846SOL     OW32568   7.138   4.120   0.734
 6846SOL    HW132569   7.171   4.055   0.802
 6846SOL    HW232570   7.156   4.213   0.766
 6847SOL     OW32571   0.569   6.087   6.707
 6847SOL    HW132572   0.562   6.045   6.616
 6847SOL    HW232573   0.487   6.065   6.759
 6848SOL     OW32574   1.600   7.372   0.462
 6848SOL    HW132575   1.558   7.303   0.521
 6848SOL    HW232576   1.667   7.424   0.515
 6849SOL     OW32577   0.437   0.643   0.059
 6849SOL    HW132578   0.498   0.722   0.057
 6849SOL    HW232579   0.383   0.644   0.144
 6850SOL     OW32580   5.187   6.545   5.076
 6850SOL    HW132581   5.097   6.575   5.047
 6850SOL    HW232582   5.214   6.464   5.023
 6851SOL     OW32583   1.365   1.169   0.824
 6851SOL    HW132584   1.328   1.157   0.916
 6851SOL    HW232585   1.369   1.080   0.778
 6852SOL     OW32586   6.423   5.998   6.561
 6852SOL    HW132587   6.386   5.906   6.549
 6852SOL    HW232588   6.486   5.999   6.638
 6853SOL     OW32589   3.742   2.937   6.162
 6853SOL    HW132590   3.729   2.921   6.064
 6853SOL    HW232591   3.807   3.011   6.176
 6854SOL     OW32592   8.322   2.691   6.119
 6854SOL    HW132593   8.295   2.685   6.023
 6854SOL    HW232594   8.361   2.603   6.148
 6855SOL     OW32595   0.763   7.233   1.419
 6855SOL    HW132596   0.713   7.309   1.461
 6855SOL    HW232597   0.772   7.159   1.485
 6856SOL     OW32598   5.673   0.556   0.914
 6856SOL    HW132599   5.650   0.479   0.973
 6856SOL    HW232600   5.757   0.535   0.864
 6857SOL     OW32601   8.720   7.143   6.508
 6857SOL    HW132602   8.788   7.181   6.570
 6857SOL    HW232603   8.629   7.174   6.535
 6858SOL     OW32604   0.043   1.629   6.308
 6858SOL    HW132605  -0.056   1.635   6.316
 6858SOL    HW232606   0.085   1.653   6.395
 6859SOL     OW32607   9.244   2.338   5.903
 6859SOL    HW132608   9.296   2.259   5.871
 6859SOL    HW232609   9.152   2.335   5.863
 6860SOL     OW32610   2.171   7.192   5.455
 6860SOL    HW132611   2.183   7.222   5.361
 6860SOL    HW232612   2.213   7.102   5.467
 6861SOL     OW32613   1.074   6.983   4.523
 6861SOL    HW132614   1.149   6.955   4.463
 6861SOL    HW232615   1.080   6.934   4.610
 6862SOL     OW32616   9.334   0.296   0.692
 6862SOL    HW132617   9.278   0.223   0.653
 6862SOL    HW232618   9.430   0.277   0.674
 6863SOL     OW32619   1.834   7.834   0.908
 6863SOL    HW132620   1.857   7.759   0.970
 6863SOL    HW232621   1.865   7.813   0.816
 6864SOL     OW32622   3.664   7.192   1.015
 6864SOL    HW132623   3.718   7.145   1.085
 6864SOL    HW232624   3.673   7.291   1.027
 6865SOL     OW32625   5.523   7.417   6.624
 6865SOL    HW132626   5.462   7.409   6.545
 6865SOL    HW232627   5.572   7.331   6.637
 6866SOL     OW32628   8.777   3.897   0.841
 6866SOL    HW132629   8.773   3.803   0.875
 6866SOL    HW232630   8.867   3.935   0.862
 6867SOL     OW32631   9.348   2.864   0.368
 6867SOL    HW132632   9.364   2.822   0.278
 6867SOL    HW232633   9.422   2.839   0.430
 6868SOL     OW32634   6.460   0.643   0.590
 6868SOL    HW132635   6.441   0.739   0.567
 6868SOL    HW232636   6.398   0.614   0.663
 6869SOL     OW32637   9.454   1.373   0.571
 6869SOL    HW132638   9.379   1.437   0.589
 6869SOL    HW232639   9.540   1.412   0.604
 6870SOL     OW32640   7.864   3.659   1.817
 6870SOL    HW132641   7.815   3.679   1.901
 6870SOL    HW232642   7.874   3.560   1.808
 6871SOL     OW32643   6.058   1.051   6.502
 6871SOL    HW132644   6.108   1.020   6.421
 6871SOL    HW232645   6.122   1.069   6.576
 6872SOL     OW32646   3.876   4.599   0.498
 6872SOL    HW132647   3.931   4.681   0.511
 6872SOL    HW232648   3.804   4.595   0.568
 6873SOL     OW32649   6.607   1.621   5.545
 6873SOL    HW132650   6.546   1.595   5.470
 6873SOL    HW232651   6.669   1.693   5.515
 6874SOL     OW32652   0.186   0.263   0.409
 6874SOL    HW132653   0.153   0.170   0.425
 6874SOL    HW232654   0.278   0.272   0.448
 6875SOL     OW32655   4.274   4.756   0.542
 6875SOL    HW132656   4.254   4.716   0.453
 6875SOL    HW232657   4.189   4.773   0.591
 6876SOL     OW32658   5.963   6.660   0.962
 6876SOL    HW132659   6.019   6.686   0.884
 6876SOL    HW232660   5.917   6.574   0.943
 6877SOL     OW32661   7.703   2.425   5.991
 6877SOL    HW132662   7.738   2.332   6.002
 6877SOL    HW232663   7.738   2.482   6.065
 6878SOL     OW32664   4.536   3.149   6.506
 6878SOL    HW132665   4.504   3.060   6.472
 6878SOL    HW232666   4.582   3.198   6.432
 6879SOL     OW32667   9.133   5.456   6.379
 6879SOL    HW132668   9.231   5.442   6.371
 6879SOL    HW232669   9.115   5.537   6.435
 6880SOL     OW32670   8.958   3.912   6.526
 6880SOL    HW132671   8.949   3.908   6.625
 6880SOL    HW232672   8.979   4.005   6.497
 6881SOL     OW32673   9.354   8.431   0.669
 6881SOL    HW132674   9.390   8.477   0.750
 6881SOL    HW232675   9.282   8.487   0.628
 6882SOL     OW32676   6.549   2.520   1.268
 6882SOL    HW132677   6.483   2.507   1.194
 6882SOL    HW232678   6.515   2.589   1.332
 6883SOL     OW32679   5.498   4.738   1.277
 6883SOL    HW132680   5.513   4.833   1.304
 6883SOL    HW232681   5.476   4.684   1.358
 6884SOL     OW32682   0.519   7.094   3.873
 6884SOL    HW132683   0.608   7.051   3.887
 6884SOL    HW232684   0.531   7.193   3.866
 6885SOL     OW32685   7.629   1.959   0.596
 6885SOL    HW132686   7.700   1.911   0.648
 6885SOL    HW232687   7.649   2.057   0.594
 6886SOL     OW32688   4.971   0.759   1.178
 6886SOL    HW132689   5.047   0.766   1.242
 6886SOL    HW232690   4.908   0.688   1.209
 6887SOL     OW32691   8.944   4.297   5.875
 6887SOL    HW132692   9.027   4.248   5.848
 6887SOL    HW232693   8.867   4.264   5.820
 6888SOL     OW32694   7.665   7.249   6.044
 6888SOL    HW132695   7.705   7.296   6.123
 6888SOL    HW232696   7.693   7.153   6.046
 6889SOL     OW32697   5.527   5.140   0.129
 6889SOL    HW132698   5.467   5.081   0.183
 6889SOL    HW232699   5.611   5.156   0.179
 6890SOL     OW32700   7.789   3.285   0.034
 6890SOL    HW132701   7.799   3.382   0.057
 6890SOL    HW232702   7.709   3.248   0.081
 6891SOL     OW32703   7.565   2.482   5.613
 6891SOL    HW132704   7.527   2.569   5.583
 6891SOL    HW232705   7.665   2.487   5.611
 6892SOL     OW32706   6.730   3.412   5.859
 6892SOL    HW132707   6.736   3.391   5.761
 6892SOL    HW232708   6.636   3.402   5.889
 6893SOL     OW32709   7.602   4.701   6.611
 6893SOL    HW132710   7.508   4.735   6.613
 6893SOL    HW232711   7.615   4.636   6.686
 6894SOL     OW32712   7.744   2.207   0.610
 6894SOL    HW132713   7.744   2.272   0.534
 6894SOL    HW232714   7.833   2.209   0.656
 6895SOL     OW32715   6.306   4.187   4.805
 6895SOL    HW132716   6.264   4.240   4.732
 6895SOL    HW232717   6.250   4.194   4.888
 6896SOL     OW32718   2.691   2.487   0.050
 6896SOL    HW132719   2.668   2.411  -0.010
 6896SOL    HW232720   2.614   2.507   0.110
 6897SOL     OW32721   1.546   6.369   1.164
 6897SOL    HW132722   1.635   6.333   1.138
 6897SOL    HW232723   1.523   6.338   1.257
 6898SOL     OW32724   8.550   7.843   6.051
 6898SOL    HW132725   8.555   7.846   5.951
 6898SOL    HW232726   8.492   7.767   6.080
 6899SOL     OW32727   0.796   7.774   6.668
 6899SOL    HW132728   0.776   7.676   6.670
 6899SOL    HW232729   0.885   7.791   6.711
 6900SOL     OW32730   3.084   6.458   5.935
 6900SOL    HW132731   3.080   6.418   5.843
 6900SOL    HW232732   3.163   6.421   5.983
 6901SOL     OW32733   2.420   4.629   5.557
 6901SOL    HW132734   2.451   4.566   5.485
 6901SOL    HW232735   2.491   4.636   5.627
 6902SOL     OW32736   0.050   8.446   0.897
 6902SOL    HW132737   0.133   8.449   0.842
 6902SOL    HW232738   0.019   8.351   0.904
 6903SOL     OW32739   0.256   4.548   0.517
 6903SOL    HW132740   0.182   4.484   0.540
 6903SOL    HW232741   0.270   4.549   0.418
 6904SOL     OW32742   4.688   0.348   0.198
 6904SOL    HW132743   4.753   0.302   0.259
 6904SOL    HW232744   4.622   0.281   0.163
 6905SOL     OW32745   4.947   1.026   0.587
 6905SOL    HW132746   4.865   1.082   0.588
 6905SOL    HW232747   4.924   0.934   0.555
 6906SOL     OW32748   0.151   4.285   6.032
 6906SOL    HW132749   0.133   4.377   5.999
 6906SOL    HW232750   0.242   4.256   6.004
 6907SOL     OW32751   6.803   5.039   5.321
 6907SOL    HW132752   6.717   4.987   5.320
 6907SOL    HW232753   6.808   5.097   5.240
 6908SOL     OW32754   8.386   7.479   0.952
 6908SOL    HW132755   8.369   7.574   0.926
 6908SOL    HW232756   8.484   7.462   0.955
 6909SOL     OW32757   3.720   3.439   0.589
 6909SOL    HW132758   3.719   3.415   0.492
 6909SOL    HW232759   3.690   3.533   0.601
 6910SOL     OW32760   7.333   5.082   1.285
 6910SOL    HW132761   7.304   5.075   1.381
 6910SOL    HW232762   7.410   5.021   1.270
 6911SOL     OW32763   8.067   6.636   6.121
 6911SOL    HW132764   7.996   6.617   6.054
 6911SOL    HW232765   8.139   6.691   6.079
 6912SOL     OW32766   0.829   6.838   1.315
 6912SOL    HW132767   0.878   6.925   1.304
 6912SOL    HW232768   0.875   6.783   1.384
 6913SOL     OW32769   0.947   7.670   0.891
 6913SOL    HW132770   0.976   7.595   0.832
 6913SOL    HW232771   0.983   7.655   0.984
 6914SOL     OW32772   4.973   0.192   6.368
 6914SOL    HW132773   4.918   0.246   6.430
 6914SOL    HW232774   5.039   0.251   6.321
 6915SOL     OW32775   4.480   2.173   0.717
 6915SOL    HW132776   4.449   2.084   0.685
 6915SOL    HW232777   4.549   2.161   0.789
 6916SOL     OW32778   6.723   6.755   6.132
 6916SOL    HW132779   6.750   6.742   6.036
 6916SOL    HW232780   6.779   6.697   6.190
 6917SOL     OW32781   4.866   4.406   0.856
 6917SOL    HW132782   4.933   4.481   0.851
 6917SOL    HW232783   4.906   4.324   0.815
 6918SOL     OW32784   8.297   3.131   5.624
 6918SOL    HW132785   8.282   3.163   5.530
 6918SOL    HW232786   8.283   3.032   5.628
 6919SOL     OW32787   8.567   0.619   0.281
 6919SOL    HW132788   8.637   0.570   0.333
 6919SOL    HW232789   8.519   0.556   0.221
 6920SOL     OW32790   3.274   8.494   6.607
 6920SOL    HW132791   3.187   8.522   6.648
 6920SOL    HW232792   3.262   8.483   6.508
 6921SOL     OW32793   8.324   6.665   1.432
 6921SOL    HW132794   8.315   6.612   1.516
 6921SOL    HW232795   8.236   6.668   1.384
 6922SOL     OW32796   0.637   0.612   0.276
 6922SOL    HW132797   0.656   0.585   0.370
 6922SOL    HW232798   0.679   0.546   0.213
 6923SOL     OW32799   6.412   3.100   6.374
 6923SOL    HW132800   6.318   3.135   6.371
 6923SOL    HW232801   6.462   3.134   6.294
 6924SOL     OW32802   2.160   2.340   6.203
 6924SOL    HW132803   2.175   2.242   6.207
 6924SOL    HW232804   2.081   2.359   6.144
 6925SOL     OW32805   7.178   7.966   5.800
 6925SOL    HW132806   7.188   7.866   5.798
 6925SOL    HW232807   7.086   7.989   5.831
 6926SOL     OW32808   4.688   3.788   1.449
 6926SOL    HW132809   4.589   3.792   1.454
 6926SOL    HW232810   4.725   3.773   1.541
 6927SOL     OW32811   5.043   2.066   0.240
 6927SOL    HW132812   4.981   2.127   0.289
 6927SOL    HW232813   5.125   2.116   0.214
 6928SOL     OW32814   3.211   6.464   0.539
 6928SOL    HW132815   3.242   6.519   0.616
 6928SOL    HW232816   3.261   6.378   0.536
 6929SOL     OW32817   4.727   6.836   5.588
 6929SOL    HW132818   4.728   6.751   5.641
 6929SOL    HW232819   4.645   6.888   5.611
 6930SOL     OW32820   5.048   4.607   0.207
 6930SOL    HW132821   5.142   4.606   0.242
 6930SOL    HW232822   5.014   4.701   0.205
 6931SOL     OW32823   8.165   2.319   5.387
 6931SOL    HW132824   8.086   2.271   5.349
 6931SOL    HW232825   8.247   2.296   5.334
 6932SOL     OW32826   1.440   6.703   6.694
 6932SOL    HW132827   1.514   6.769   6.707
 6932SOL    HW232828   1.430   6.684   6.596
 6933SOL     OW32829   7.703   7.208   1.615
 6933SOL    HW132830   7.723   7.110   1.617
 6933SOL    HW232831   7.750   7.253   1.691
 6934SOL     OW32832   3.710   0.545   1.462
 6934SOL    HW132833   3.660   0.556   1.548
 6934SOL    HW232834   3.799   0.589   1.469
 6935SOL     OW32835   3.111   8.127   0.559
 6935SOL    HW132836   3.113   8.027   0.553
 6935SOL    HW232837   3.201   8.161   0.584
 6936SOL     OW32838   6.976   4.520   5.422
 6936SOL    HW132839   7.052   4.575   5.388
 6936SOL    HW232840   6.968   4.436   5.368
 6937SOL     OW32841   3.133   6.925   6.727
 6937SOL    HW132842   3.099   6.831   6.729
 6937SOL    HW232843   3.225   6.926   6.689
 6938SOL     OW32844   3.874   8.217   5.662
 6938SOL    HW132845   3.877   8.311   5.628
 6938SOL    HW232846   3.964   8.191   5.697
 6939SOL     OW32847   5.240   7.669   0.160
 6939SOL    HW132848   5.185   7.753   0.162
 6939SOL    HW232849   5.326   7.685   0.208
 6940SOL     OW32850   2.126   6.268   6.410
 6940SOL    HW132851   2.103   6.291   6.316
 6940SOL    HW232852   2.144   6.352   6.462
 6941SOL     OW32853   7.176   0.929   6.572
 6941SOL    HW132854   7.217   0.881   6.650
 6941SOL    HW232855   7.157   0.864   6.498
 6942SOL     OW32856   5.149   3.130   6.446
 6942SOL    HW132857   5.071   3.172   6.400
 6942SOL    HW232858   5.140   3.030   6.442
 6943SOL     OW32859   7.743   4.784   0.809
 6943SOL    HW132860   7.762   4.880   0.790
 6943SOL    HW232861   7.720   4.773   0.906
 6944SOL     OW32862   3.691   8.034   0.556
 6944SOL    HW132863   3.618   8.030   0.488
 6944SOL    HW232864   3.660   7.988   0.639
 6945SOL     OW32865   1.951   8.301   1.675
 6945SOL    HW132866   2.048   8.292   1.699
 6945SOL    HW232867   1.919   8.216   1.634
 6946SOL     OW32868   9.329   0.510   5.834
 6946SOL    HW132869   9.330   0.531   5.736
 6946SOL    HW232870   9.405   0.448   5.856
 6947SOL     OW32871   4.157   4.208   0.138
 6947SOL    HW132872   4.181   4.136   0.203
 6947SOL    HW232873   4.173   4.175   0.045
 6948SOL     OW32874   0.201   0.894   0.235
 6948SOL    HW132875   0.138   0.963   0.200
 6948SOL    HW232876   0.256   0.934   0.308
 6949SOL     OW32877   5.893   0.299   1.166
 6949SOL    HW132878   5.966   0.242   1.129
 6949SOL    HW232879   5.891   0.386   1.118
 6950SOL     OW32880   6.162   7.963   5.638
 6950SOL    HW132881   6.100   7.885   5.628
 6950SOL    HW232882   6.181   8.002   5.548
 6951SOL     OW32883   3.282   5.995   0.227
 6951SOL    HW132884   3.356   6.047   0.186
 6951SOL    HW232885   3.196   6.016   0.180
 6952SOL     OW32886   4.162   7.520   5.464
 6952SOL    HW132887   4.138   7.598   5.406
 6952SOL    HW232888   4.079   7.475   5.495
 6953SOL     OW32889   1.508   1.808   6.530
 6953SOL    HW132890   1.513   1.893   6.478
 6953SOL    HW232891   1.437   1.815   6.600
 6954SOL     OW32892   7.509   5.034   4.849
 6954SOL    HW132893   7.595   4.982   4.849
 6954SOL    HW232894   7.519   5.114   4.908
 6955SOL     OW32895   8.238   1.372   0.831
 6955SOL    HW132896   8.234   1.393   0.733
 6955SOL    HW232897   8.149   1.338   0.861
 6956SOL     OW32898   0.312   0.672   0.295
 6956SOL    HW132899   0.265   0.597   0.342
 6956SOL    HW232900   0.249   0.748   0.282
 6957SOL     OW32901   8.700   6.100   5.642
 6957SOL    HW132902   8.612   6.080   5.599
 6957SOL    HW232903   8.774   6.077   5.579
 6958SOL     OW32904   7.445   0.008   6.671
 6958SOL    HW132905   7.420  -0.058   6.742
 6958SOL    HW232906   7.410   0.098   6.696
 6959SOL     OW32907   2.265   0.416   6.340
 6959SOL    HW132908   2.323   0.380   6.412
 6959SOL    HW232909   2.177   0.445   6.379
 6960SOL     OW32910   9.310   5.542   5.887
 6960SOL    HW132911   9.260   5.516   5.969
 6960SOL    HW232912   9.400   5.579   5.914
 6961SOL     OW32913   6.392   4.636   6.165
 6961SOL    HW132914   6.466   4.675   6.110
 6961SOL    HW232915   6.425   4.554   6.212
 6962SOL     OW32916   6.321   7.742   6.537
 6962SOL    HW132917   6.263   7.760   6.616
 6962SOL    HW232918   6.269   7.753   6.453
 6963SOL     OW32919   2.842   3.548   0.742
 6963SOL    HW132920   2.920   3.572   0.685
 6963SOL    HW232921   2.806   3.630   0.786
 6964SOL     OW32922   7.169   2.152   0.206
 6964SOL    HW132923   7.095   2.111   0.260
 6964SOL    HW232924   7.141   2.155   0.110
 6965SOL     OW32925   4.122   3.376   0.902
 6965SOL    HW132926   4.038   3.329   0.927
 6965SOL    HW232927   4.102   3.443   0.830
 6966SOL     OW32928   3.678   4.966   0.580
 6966SOL    HW132929   3.622   5.038   0.539
 6966SOL    HW232930   3.775   4.985   0.564
 6967SOL     OW32931   3.947   1.417   1.266
 6967SOL    HW132932   4.021   1.351   1.255
 6967SOL    HW232933   3.963   1.472   1.348
 6968SOL     OW32934   2.747   8.427   5.724
 6968SOL    HW132935   2.743   8.527   5.718
 6968SOL    HW232936   2.842   8.397   5.725
 6969SOL     OW32937   7.838   0.349   5.933
 6969SOL    HW132938   7.790   0.344   5.846
 6969SOL    HW232939   7.937   0.341   5.918
 6970SOL     OW32940   1.923   4.513   5.838
 6970SOL    HW132941   1.834   4.557   5.849
 6970SOL    HW232942   1.992   4.564   5.890
 6971SOL     OW32943   3.903   0.934   1.200
 6971SOL    HW132944   3.930   0.962   1.108
 6971SOL    HW232945   3.863   0.842   1.197
 6972SOL     OW32946   7.614   0.817   4.748
 6972SOL    HW132947   7.682   0.880   4.786
 6972SOL    HW232948   7.560   0.864   4.678
 6973SOL     OW32949   5.895   7.692   6.272
 6973SOL    HW132950   5.813   7.671   6.326
 6973SOL    HW232951   5.884   7.657   6.179
 6974SOL     OW32952   1.495   2.756   5.159
 6974SOL    HW132953   1.588   2.720   5.159
 6974SOL    HW232954   1.497   2.854   5.139
 6975SOL     OW32955   5.648   8.209   5.494
 6975SOL    HW132956   5.612   8.238   5.405
 6975SOL    HW232957   5.734   8.159   5.480
 6976SOL     OW32958   6.928   3.728   0.436
 6976SOL    HW132959   6.989   3.656   0.470
 6976SOL    HW232960   6.834   3.707   0.462
 6977SOL     OW32961   1.535   2.561   6.013
 6977SOL    HW132962   1.475   2.522   6.083
 6977SOL    HW232963   1.482   2.623   5.955
 6978SOL     OW32964   5.726   2.303   1.733
 6978SOL    HW132965   5.780   2.384   1.710
 6978SOL    HW232966   5.686   2.265   1.649
 6979SOL     OW32967   3.351   6.924   5.398
 6979SOL    HW132968   3.256   6.955   5.401
 6979SOL    HW232969   3.401   6.975   5.327
 6980SOL     OW32970   0.040   2.891   0.913
 6980SOL    HW132971   0.117   2.831   0.935
 6980SOL    HW232972  -0.031   2.838   0.866
 6981SOL     OW32973   6.654   2.591   6.119
 6981SOL    HW132974   6.617   2.651   6.190
 6981SOL    HW232975   6.701   2.646   6.050
 6982SOL     OW32976   6.880   5.814   0.533
 6982SOL    HW132977   6.857   5.810   0.630
 6982SOL    HW232978   6.863   5.725   0.491
 6983SOL     OW32979   0.714   7.120   4.923
 6983SOL    HW132980   0.629   7.109   4.975
 6983SOL    HW232981   0.751   7.030   4.901
 6984SOL     OW32982   7.369   5.142   6.320
 6984SOL    HW132983   7.292   5.191   6.362
 6984SOL    HW232984   7.382   5.055   6.367
 6985SOL     OW32985   9.169   0.778   0.514
 6985SOL    HW132986   9.242   0.722   0.552
 6985SOL    HW232987   9.085   0.724   0.508
 6986SOL     OW32988   1.022   7.000   5.773
 6986SOL    HW132989   0.931   6.963   5.752
 6986SOL    HW232990   1.089   6.926   5.767
 6987SOL     OW32991   5.715   2.898   1.334
 6987SOL    HW132992   5.692   2.918   1.429
 6987SOL    HW232993   5.722   2.983   1.282
 6988SOL     OW32994   7.652   4.155   1.838
 6988SOL    HW132995   7.731   4.111   1.798
 6988SOL    HW232996   7.642   4.247   1.800
 6989SOL     OW32997   4.357   6.198   5.701
 6989SOL    HW132998   4.299   6.277   5.719
 6989SOL    HW232999   4.423   6.187   5.776
 6990SOL     OW33000   8.313   0.642   6.615
 6990SOL    HW133001   8.303   0.670   6.710
 6990SOL    HW233002   8.239   0.579   6.590
 6991SOL     OW33003   0.418   2.892   5.190
 6991SOL    HW133004   0.403   2.972   5.131
 6991SOL    HW233005   0.414   2.809   5.135
 6992SOL     OW33006   7.304   4.738   5.996
 6992SOL    HW133007   7.381   4.763   6.056
 6992SOL    HW233008   7.225   4.713   6.053
 6993SOL     OW33009   3.545   5.875   5.869
 6993SOL    HW133010   3.603   5.922   5.802
 6993SOL    HW233011   3.505   5.943   5.931
 6994SOL     OW33012   0.798   2.067   6.632
 6994SOL    HW133013   0.854   2.110   6.562
 6994SOL    HW233014   0.758   1.982   6.596
 6995SOL     OW33015   1.769   5.052   0.913
 6995SOL    HW133016   1.682   5.004   0.904
 6995SOL    HW233017   1.790   5.098   0.827
 6996SOL     OW33018   7.852   8.221   0.067
 6996SOL    HW133019   7.855   8.299   0.130
 6996SOL    HW233020   7.856   8.136   0.120
 6997SOL     OW33021   2.756   5.269   5.836
 6997SOL    HW133022   2.756   5.230   5.928
 6997SOL    HW233023   2.843   5.249   5.791
 6998SOL     OW33024   3.705   7.604   6.496
 6998SOL    HW133025   3.613   7.567   6.482
 6998SOL    HW233026   3.737   7.579   6.587
 6999SOL     OW33027   0.681   6.461   6.579
 6999SOL    HW133028   0.645   6.544   6.537
 6999SOL    HW233029   0.781   6.460   6.568
 7000SOL     OW33030   6.270   2.703   0.744
 7000SOL    HW133031   6.317   2.620   0.714
 7000SOL    HW233032   6.305   2.730   0.834
 7001SOL     OW33033   1.425   5.336   1.209
 7001SOL    HW133034   1.481   5.394   1.269
 7001SOL    HW233035   1.432   5.241   1.240
 7002SOL     OW33036   1.371   1.947   4.847
 7002SOL    HW133037   1.458   1.994   4.838
 7002SOL    HW233038   1.362   1.879   4.774
 7003SOL     OW33039   9.457   4.563   6.170
 7003SOL    HW133040   9.517   4.607   6.238
 7003SOL    HW233041   9.473   4.464   6.171
 7004SOL     OW33042   2.594   5.999   6.631
 7004SOL    HW133043   2.540   6.071   6.588
 7004SOL    HW233044   2.641   6.035   6.711
 7005SOL     OW33045   5.312   1.705   6.292
 7005SOL    HW133046   5.388   1.664   6.242
 7005SOL    HW233047   5.226   1.672   6.253
 7006SOL     OW33048   4.902   4.298   5.281
 7006SOL    HW133049   4.982   4.259   5.235
 7006SOL    HW233050   4.823   4.237   5.267
 7007SOL     OW33051   6.982   1.318   1.565
 7007SOL    HW133052   7.053   1.387   1.547
 7007SOL    HW233053   6.900   1.363   1.601
 7008SOL     OW33054   8.206   2.057   6.618
 7008SOL    HW133055   8.302   2.047   6.590
 7008SOL    HW233056   8.149   1.996   6.563
 7009SOL     OW33057   1.687   6.925   0.457
 7009SOL    HW133058   1.656   6.833   0.481
 7009SOL    HW233059   1.665   6.944   0.361
 7010SOL     OW33060   5.273   7.124   0.422
 7010SOL    HW133061   5.335   7.144   0.345
 7010SOL    HW233062   5.198   7.066   0.390
 7011SOL     OW33063   5.916   5.476   4.992
 7011SOL    HW133064   5.869   5.544   4.935
 7011SOL    HW233065   6.013   5.500   4.998
 7012SOL     OW33066   2.118   6.856   0.303
 7012SOL    HW133067   2.077   6.832   0.392
 7012SOL    HW233068   2.098   6.951   0.282
 7013SOL     OW33069   0.105   7.857   4.713
 7013SOL    HW133070   0.084   7.938   4.768
 7013SOL    HW233071   0.204   7.851   4.699
 7014SOL     OW33072   3.960   2.063   2.359
 7014SOL    HW133073   3.878   2.038   2.410
 7014SOL    HW233074   3.970   2.162   2.357
 7015SOL     OW33075   4.585   6.126   5.567
 7015SOL    HW133076   4.496   6.161   5.595
 7015SOL    HW233077   4.596   6.136   5.468
 7016SOL     OW33078   6.361   0.030   6.733
 7016SOL    HW133079   6.293   0.082   6.681
 7016SOL    HW233080   6.355   0.055   6.830
 7017SOL     OW33081   1.768   5.926   6.283
 7017SOL    HW133082   1.847   5.874   6.249
 7017SOL    HW233083   1.688   5.906   6.226
 7018SOL     OW33084   4.393   4.457   5.761
 7018SOL    HW133085   4.391   4.358   5.749
 7018SOL    HW233086   4.321   4.499   5.704
 7019SOL     OW33087   3.540   7.898   0.183
 7019SOL    HW133088   3.570   7.977   0.129
 7019SOL    HW233089   3.565   7.814   0.136
 7020SOL     OW33090   2.966   5.236   0.839
 7020SOL    HW133091   2.941   5.331   0.820
 7020SOL    HW233092   2.973   5.221   0.937
 7021SOL     OW33093   9.071   6.172   6.459
 7021SOL    HW133094   9.094   6.160   6.556
 7021SOL    HW233095   8.988   6.228   6.451
 7022SOL     OW33096   8.742   7.064   5.443
 7022SOL    HW133097   8.743   6.965   5.425
 7022SOL    HW233098   8.826   7.090   5.491
 7023SOL     OW33099   3.037   0.331   0.358
 7023SOL    HW133100   3.061   0.306   0.451
 7023SOL    HW233101   2.949   0.291   0.334
 7024SOL     OW33102   6.656   2.805   0.563
 7024SOL    HW133103   6.749   2.811   0.525
 7024SOL    HW233104   6.599   2.877   0.522
 7025SOL     OW33105   2.134   5.689   4.716
 7025SOL    HW133106   2.152   5.716   4.622
 7025SOL    HW233107   2.213   5.709   4.773
 7026SOL     OW33108   8.328   8.035   1.402
 7026SOL    HW133109   8.303   7.982   1.483
 7026SOL    HW233110   8.313   8.132   1.419
 7027SOL     OW33111   8.744   0.504   6.229
 7027SOL    HW133112   8.764   0.406   6.234
 7027SOL    HW233113   8.763   0.537   6.136
 7028SOL     OW33114   4.200   3.920   5.947
 7028SOL    HW133115   4.169   3.992   5.885
 7028SOL    HW233116   4.262   3.859   5.898
 7029SOL     OW33117   3.309   3.337   6.166
 7029SOL    HW133118   3.344   3.259   6.218
 7029SOL    HW233119   3.368   3.416   6.182
 7030SOL     OW33120   4.814   3.367   1.431
 7030SOL    HW133121   4.822   3.459   1.393
 7030SOL    HW233122   4.894   3.313   1.404
 7031SOL     OW33123   0.770   3.579   4.935
 7031SOL    HW133124   0.741   3.673   4.952
 7031SOL    HW233125   0.839   3.578   4.863
 7032SOL     OW33126   8.008   6.368   6.513
 7032SOL    HW133127   8.012   6.307   6.434
 7032SOL    HW233128   8.028   6.462   6.483
 7033SOL     OW33129   6.905   6.436   0.557
 7033SOL    HW133130   6.972   6.406   0.489
 7033SOL    HW233131   6.908   6.536   0.565
 7034SOL     OW33132   8.147   7.349   5.516
 7034SOL    HW133133   8.244   7.343   5.490
 7034SOL    HW233134   8.091   7.310   5.443
 7035SOL     OW33135   9.107   3.848   5.972
 7035SOL    HW133136   9.099   3.749   5.975
 7035SOL    HW233137   9.035   3.889   6.028
 7036SOL     OW33138   3.937   6.888   0.981
 7036SOL    HW133139   3.943   6.788   0.974
 7036SOL    HW233140   3.846   6.914   1.015
 7037SOL     OW33141   2.411   3.048   1.502
 7037SOL    HW133142   2.411   2.950   1.480
 7037SOL    HW233143   2.406   3.060   1.601
 7038SOL     OW33144   5.780   8.480   5.686
 7038SOL    HW133145   5.742   8.394   5.651
 7038SOL    HW233146   5.821   8.464   5.775
 7039SOL     OW33147   7.119   7.633   0.477
 7039SOL    HW133148   7.112   7.685   0.392
 7039SOL    HW233149   7.199   7.574   0.475
 7040SOL     OW33150   8.997   8.004   6.345
 7040SOL    HW133151   8.963   7.911   6.335
 7040SOL    HW233152   9.071   8.020   6.280
 7041SOL     OW33153   3.211   5.355   6.222
 7041SOL    HW133154   3.131   5.295   6.218
 7041SOL    HW233155   3.240   5.378   6.129
 7042SOL     OW33156   4.677   5.397   2.061
 7042SOL    HW133157   4.776   5.410   2.071
 7042SOL    HW233158   4.630   5.484   2.077
 7043SOL     OW33159   1.910   5.417   0.624
 7043SOL    HW133160   2.002   5.377   0.628
 7043SOL    HW233161   1.891   5.466   0.710
 7044SOL     OW33162   3.892   0.957   4.949
 7044SOL    HW133163   3.960   0.900   4.903
 7044SOL    HW233164   3.911   0.960   5.047
 7045SOL     OW33165   3.817   1.680   0.544
 7045SOL    HW133166   3.842   1.767   0.501
 7045SOL    HW233167   3.898   1.621   0.548
 7046SOL     OW33168   4.520   3.963   5.223
 7046SOL    HW133169   4.485   3.873   5.199
 7046SOL    HW233170   4.457   4.033   5.192
 7047SOL     OW33171   7.740   7.131   5.464
 7047SOL    HW133172   7.838   7.135   5.445
 7047SOL    HW233173   7.690   7.129   5.378
 7048SOL     OW33174   1.558   1.569   0.845
 7048SOL    HW133175   1.587   1.503   0.914
 7048SOL    HW233176   1.524   1.519   0.764
 7049SOL     OW33177   3.540   8.170   6.304
 7049SOL    HW133178   3.444   8.179   6.277
 7049SOL    HW233179   3.555   8.215   6.391
 7050SOL     OW33180   1.940   5.552   5.949
 7050SOL    HW133181   2.010   5.624   5.953
 7050SOL    HW233182   1.949   5.503   5.862
 7051SOL     OW33183   9.241   6.050   6.300
 7051SOL    HW133184   9.162   6.098   6.338
 7051SOL    HW233185   9.323   6.073   6.353
 7052SOL     OW33186   1.863   1.844   6.445
 7052SOL    HW133187   1.833   1.774   6.510
 7052SOL    HW233188   1.963   1.844   6.440
 7053SOL     OW33189   5.844   5.812   0.293
 7053SOL    HW133190   5.906   5.869   0.239
 7053SOL    HW233191   5.895   5.733   0.328
 7054SOL     OW33192   4.116   3.652   0.191
 7054SOL    HW133193   4.175   3.601   0.129
 7054SOL    HW233194   4.087   3.737   0.146
 7055SOL     OW33195   5.306   7.103   1.314
 7055SOL    HW133196   5.382   7.043   1.338
 7055SOL    HW233197   5.280   7.157   1.394
 7056SOL     OW33198   6.285   7.748   1.586
 7056SOL    HW133199   6.236   7.687   1.649
 7056SOL    HW233200   6.382   7.723   1.584
 7057SOL     OW33201   4.195   4.486   5.964
 7057SOL    HW133202   4.210   4.438   5.878
 7057SOL    HW233203   4.217   4.583   5.952
 7058SOL     OW33204   4.711   2.003   6.402
 7058SOL    HW133205   4.687   1.996   6.499
 7058SOL    HW233206   4.629   2.026   6.349
 7059SOL     OW33207   4.803   4.073   1.816
 7059SOL    HW133208   4.796   4.167   1.849
 7059SOL    HW233209   4.734   4.016   1.860
 7060SOL     OW33210   4.507   3.003   0.369
 7060SOL    HW133211   4.452   3.005   0.286
 7060SOL    HW233212   4.590   3.058   0.356
 7061SOL     OW33213   1.364   6.820   0.401
 7061SOL    HW133214   1.299   6.783   0.335
 7061SOL    HW233215   1.437   6.869   0.353
 7062SOL     OW33216   6.166   2.986   5.653
 7062SOL    HW133217   6.223   2.915   5.612
 7062SOL    HW233218   6.082   2.997   5.599
 7063SOL     OW33219   2.785   5.054   0.750
 7063SOL    HW133220   2.783   4.962   0.791
 7063SOL    HW233221   2.853   5.109   0.797
 7064SOL     OW33222   1.214   2.262   6.323
 7064SOL    HW133223   1.153   2.216   6.258
 7064SOL    HW233224   1.190   2.234   6.416
 7065SOL     OW33225   2.215   0.948   6.400
 7065SOL    HW133226   2.180   0.962   6.492
 7065SOL    HW233227   2.271   0.865   6.397
 7066SOL     OW33228   3.737   6.206   1.204
 7066SOL    HW133229   3.647   6.244   1.185
 7066SOL    HW233230   3.740   6.111   1.174
 7067SOL     OW33231   1.364   6.067   6.243
 7067SOL    HW133232   1.291   6.064   6.311
 7067SOL    HW233233   1.370   5.978   6.197
 7068SOL     OW33234   3.647   4.238   5.590
 7068SOL    HW133235   3.568   4.297   5.599
 7068SOL    HW233236   3.726   4.291   5.558
 7069SOL     OW33237   4.049   6.753   6.314
 7069SOL    HW133238   4.023   6.818   6.243
 7069SOL    HW233239   4.006   6.779   6.400
 7070SOL     OW33240   3.606   3.765   1.511
 7070SOL    HW133241   3.651   3.748   1.599
 7070SOL    HW233242   3.538   3.837   1.521
 7071SOL     OW33243   3.799   0.566   5.742
 7071SOL    HW133244   3.783   0.582   5.839
 7071SOL    HW233245   3.824   0.652   5.697
 7072SOL     OW33246   5.658   6.866   6.298
 7072SOL    HW133247   5.685   6.822   6.213
 7072SOL    HW233248   5.600   6.945   6.278
 7073SOL     OW33249   3.650   8.040   5.694
 7073SOL    HW133250   3.731   8.098   5.684
 7073SOL    HW233251   3.651   7.996   5.784
 7074SOL     OW33252   6.627   4.051   0.487
 7074SOL    HW133253   6.552   3.986   0.492
 7074SOL    HW233254   6.676   4.052   0.574
 7075SOL     OW33255   0.818   1.158   1.223
 7075SOL    HW133256   0.750   1.230   1.208
 7075SOL    HW233257   0.791   1.103   1.302
 7076SOL     OW33258   3.125   2.706   6.320
 7076SOL    HW133259   3.218   2.734   6.344
 7076SOL    HW233260   3.119   2.606   6.317
 7077SOL     OW33261   0.458   4.181   0.314
 7077SOL    HW133262   0.435   4.084   0.316
 7077SOL    HW233263   0.374   4.234   0.303
 7078SOL     OW33264   0.560   1.386   0.858
 7078SOL    HW133265   0.543   1.454   0.930
 7078SOL    HW233266   0.585   1.299   0.899
 7079SOL     OW33267   9.006   2.277   5.773
 7079SOL    HW133268   9.030   2.213   5.700
 7079SOL    HW233269   8.908   2.297   5.769
 7080SOL     OW33270   7.726   3.954   6.062
 7080SOL    HW133271   7.737   3.870   6.114
 7080SOL    HW233272   7.702   4.029   6.124
 7081SOL     OW33273   7.103   6.452   4.882
 7081SOL    HW133274   7.091   6.362   4.840
 7081SOL    HW233275   7.104   6.523   4.811
 7082SOL     OW33276   4.907   5.552   1.969
 7082SOL    HW133277   4.946   5.599   1.890
 7082SOL    HW233278   4.926   5.454   1.961
 7083SOL     OW33279   2.199   2.901   0.693
 7083SOL    HW133280   2.279   2.926   0.748
 7083SOL    HW233281   2.119   2.951   0.727
 7084SOL     OW33282   6.268   1.207   6.644
 7084SOL    HW133283   6.343   1.156   6.686
 7084SOL    HW233284   6.265   1.299   6.682
 7085SOL     OW33285   2.371   7.940   6.178
 7085SOL    HW133286   2.345   7.976   6.268
 7085SOL    HW233287   2.369   8.015   6.112
 7086SOL     OW33288   5.027   3.889   5.942
 7086SOL    HW133289   5.090   3.832   5.995
 7086SOL    HW233290   5.066   3.909   5.852
 7087SOL     OW33291   1.259   1.299   6.212
 7087SOL    HW133292   1.241   1.216   6.159
 7087SOL    HW233293   1.327   1.355   6.165
 7088SOL     OW33294   3.172   0.557   6.515
 7088SOL    HW133295   3.206   0.488   6.578
 7088SOL    HW233296   3.138   0.636   6.567
 7089SOL     OW33297   2.017   2.527   1.035
 7089SOL    HW133298   1.970   2.484   0.957
 7089SOL    HW233299   1.961   2.601   1.071
 7090SOL     OW33300   2.914   2.901   0.338
 7090SOL    HW133301   2.932   2.933   0.245
 7090SOL    HW233302   2.986   2.934   0.399
 7091SOL     OW33303   5.812   3.905   5.417
 7091SOL    HW133304   5.714   3.882   5.419
 7091SOL    HW233305   5.861   3.850   5.484
 7092SOL     OW33306   3.597   5.261   5.363
 7092SOL    HW133307   3.528   5.189   5.363
 7092SOL    HW233308   3.634   5.272   5.455
 7093SOL     OW33309   7.891   4.531   6.008
 7093SOL    HW133310   7.836   4.604   5.968
 7093SOL    HW233311   7.977   4.524   5.959
 7094SOL     OW33312   8.143   5.710   5.886
 7094SOL    HW133313   8.071   5.776   5.908
 7094SOL    HW233314   8.225   5.760   5.858
 7095SOL     OW33315   1.797   1.152   0.140
 7095SOL    HW133316   1.864   1.210   0.093
 7095SOL    HW233317   1.775   1.190   0.229
 7096SOL     OW33318   2.653   0.917   5.908
 7096SOL    HW133319   2.723   0.903   5.837
 7096SOL    HW233320   2.641   0.833   5.960
 7097SOL     OW33321   7.694   3.842   0.994
 7097SOL    HW133322   7.615   3.867   1.050
 7097SOL    HW233323   7.710   3.912   0.925
 7098SOL     OW33324   7.816   8.200   6.538
 7098SOL    HW133325   7.805   8.227   6.634
 7098SOL    HW233326   7.734   8.151   6.508
 7099SOL     OW33327   5.887   7.446   0.103
 7099SOL    HW133328   5.881   7.367   0.165
 7099SOL    HW233329   5.796   7.484   0.089
 7100SOL     OW33330   3.288   5.831   1.319
 7100SOL    HW133331   3.360   5.866   1.379
 7100SOL    HW233332   3.287   5.731   1.324
 7101SOL     OW33333   4.559   2.315   5.677
 7101SOL    HW133334   4.649   2.273   5.677
 7101SOL    HW233335   4.549   2.375   5.597
 7102SOL     OW33336   0.292   6.842   5.083
 7102SOL    HW133337   0.365   6.780   5.053
 7102SOL    HW233338   0.249   6.884   5.003
 7103SOL     OW33339   5.500   5.975   5.632
 7103SOL    HW133340   5.514   6.070   5.660
 7103SOL    HW233341   5.437   5.973   5.554
 7104SOL     OW33342   1.355   3.245   1.106
 7104SOL    HW133343   1.449   3.224   1.132
 7104SOL    HW233344   1.299   3.258   1.188
 7105SOL     OW33345   7.562   0.235   0.279
 7105SOL    HW133346   7.638   0.299   0.284
 7105SOL    HW233347   7.481   0.275   0.322
 7106SOL     OW33348   7.289   4.133   0.472
 7106SOL    HW133349   7.238   4.096   0.393
 7106SOL    HW233350   7.230   4.132   0.553
 7107SOL     OW33351   9.056   2.233   0.877
 7107SOL    HW133352   9.153   2.245   0.855
 7107SOL    HW233353   9.046   2.161   0.945
 7108SOL     OW33354   4.727   2.319   1.078
 7108SOL    HW133355   4.701   2.340   1.172
 7108SOL    HW233356   4.683   2.384   1.016
 7109SOL     OW33357   5.294   0.100   0.848
 7109SOL    HW133358   5.291   0.001   0.861
 7109SOL    HW233359   5.302   0.145   0.937
 7110SOL     OW33360   0.284   7.629   0.565
 7110SOL    HW133361   0.275   7.678   0.652
 7110SOL    HW233362   0.314   7.535   0.583
 7111SOL     OW33363   3.467   8.187   5.149
 7111SOL    HW133364   3.521   8.221   5.072
 7111SOL    HW233365   3.461   8.257   5.219
 7112SOL     OW33366   5.723   7.616   5.642
 7112SOL    HW133367   5.759   7.524   5.625
 7112SOL    HW233368   5.712   7.628   5.741
 7113SOL     OW33369   0.448   5.589   5.183
 7113SOL    HW133370   0.493   5.528   5.119
 7113SOL    HW233371   0.372   5.635   5.138
 7114SOL     OW33372   2.255   5.342   0.883
 7114SOL    HW133373   2.215   5.303   0.966
 7114SOL    HW233374   2.223   5.437   0.873
 7115SOL     OW33375   2.943   3.238   0.439
 7115SOL    HW133376   2.972   3.148   0.408
 7115SOL    HW233377   3.007   3.271   0.509
 7116SOL     OW33378   2.570   4.399   6.692
 7116SOL    HW133379   2.497   4.467   6.683
 7116SOL    HW233380   2.529   4.307   6.690
 7117SOL     OW33381   2.540   3.741   0.466
 7117SOL    HW133382   2.496   3.804   0.403
 7117SOL    HW233383   2.639   3.756   0.464
 7118SOL     OW33384   3.606   4.953   6.593
 7118SOL    HW133385   3.542   4.951   6.669
 7118SOL    HW233386   3.652   5.042   6.590
 7119SOL     OW33387   3.018   7.383   1.050
 7119SOL    HW133388   3.049   7.478   1.049
 7119SOL    HW233389   3.090   7.324   1.087
 7120SOL     OW33390   0.136   2.965   5.651
 7120SOL    HW133391   0.206   2.943   5.583
 7120SOL    HW233392   0.107   3.060   5.640
 7121SOL     OW33393   3.458   6.405   1.653
 7121SOL    HW133394   3.410   6.354   1.724
 7121SOL    HW233395   3.391   6.458   1.600
 7122SOL     OW33396   0.780   2.107   6.188
 7122SOL    HW133397   0.704   2.165   6.217
 7122SOL    HW233398   0.810   2.134   6.097
 7123SOL     OW33399   1.405   0.474   5.494
 7123SOL    HW133400   1.495   0.518   5.500
 7123SOL    HW233401   1.416   0.376   5.483
 7124SOL     OW33402   7.817   6.939   0.536
 7124SOL    HW133403   7.821   6.851   0.584
 7124SOL    HW233404   7.900   6.951   0.482
 7125SOL     OW33405   9.024   0.895   6.242
 7125SOL    HW133406   8.937   0.898   6.193
 7125SOL    HW233407   9.081   0.972   6.213
 7126SOL     OW33408   2.557   2.727   6.273
 7126SOL    HW133409   2.467   2.707   6.311
 7126SOL    HW233410   2.628   2.689   6.332
 7127SOL     OW33411   8.238   8.355   5.882
 7127SOL    HW133412   8.219   8.310   5.969
 7127SOL    HW233413   8.152   8.379   5.837
 7128SOL     OW33414   6.450   6.427   6.694
 7128SOL    HW133415   6.532   6.370   6.682
 7128SOL    HW233416   6.453   6.471   6.784
 7129SOL     OW33417   6.375   2.322   1.053
 7129SOL    HW133418   6.440   2.370   0.995
 7129SOL    HW233419   6.291   2.303   1.002
 7130SOL     OW33420   6.016   3.076   6.379
 7130SOL    HW133421   6.072   3.034   6.307
 7130SOL    HW233422   5.919   3.070   6.354
 7131SOL     OW33423   6.971   6.303   0.834
 7131SOL    HW133424   6.950   6.327   0.928
 7131SOL    HW233425   6.965   6.384   0.776
 7132SOL     OW33426   6.259   6.028   0.127
 7132SOL    HW133427   6.172   6.006   0.172
 7132SOL    HW233428   6.242   6.062   0.035
 7133SOL     OW33429   1.159   5.739   5.713
 7133SOL    HW133430   1.231   5.759   5.646
 7133SOL    HW233431   1.072   5.774   5.679
 7134SOL     OW33432   5.076   8.143   5.164
 7134SOL    HW133433   5.066   8.053   5.207
 7134SOL    HW233434   5.019   8.147   5.082
 7135SOL     OW33435   1.184   4.855   6.661
 7135SOL    HW133436   1.165   4.824   6.567
 7135SOL    HW233437   1.282   4.853   6.677
 7136SOL     OW33438   2.642   6.276   0.275
 7136SOL    HW133439   2.546   6.263   0.301
 7136SOL    HW233440   2.647   6.324   0.188
 7137SOL     OW33441   1.985   1.342   1.201
 7137SOL    HW133442   1.958   1.314   1.294
 7137SOL    HW233443   1.951   1.434   1.182
 7138SOL     OW33444   8.136   0.895   0.592
 7138SOL    HW133445   8.128   0.927   0.687
 7138SOL    HW233446   8.170   0.968   0.534
 7139SOL     OW33447   1.864   6.335   1.634
 7139SOL    HW133448   1.862   6.245   1.677
 7139SOL    HW233449   1.879   6.325   1.535
 7140SOL     OW33450   6.737   6.924   5.677
 7140SOL    HW133451   6.808   6.942   5.608
 7140SOL    HW233452   6.759   6.840   5.726
 7141SOL     OW33453   1.120   3.849   5.569
 7141SOL    HW133454   1.059   3.913   5.522
 7141SOL    HW233455   1.074   3.814   5.652
 7142SOL     OW33456   2.628   2.892   0.050
 7142SOL    HW133457   2.639   2.983   0.010
 7142SOL    HW233458   2.693   2.830   0.008
 7143SOL     OW33459   3.480   3.639   0.888
 7143SOL    HW133460   3.417   3.578   0.936
 7143SOL    HW233461   3.562   3.653   0.943
 7144SOL     OW33462   0.066   7.543   6.039
 7144SOL    HW133463   0.132   7.478   6.002
 7144SOL    HW233464   0.111   7.630   6.057
 7145SOL     OW33465   8.543   8.161   6.730
 7145SOL    HW133466   8.490   8.202   6.656
 7145SOL    HW233467   8.612   8.226   6.761
 7146SOL     OW33468   2.431   5.398   6.371
 7146SOL    HW133469   2.400   5.360   6.284
 7146SOL    HW233470   2.377   5.480   6.393
 7147SOL     OW33471   9.040   0.955   6.531
 7147SOL    HW133472   8.947   0.930   6.557
 7147SOL    HW233473   9.054   0.934   6.434
 7148SOL     OW33474   2.308   6.962   5.538
 7148SOL    HW133475   2.342   6.942   5.446
 7148SOL    HW233476   2.385   6.975   5.600
 7149SOL     OW33477   3.368   3.039   0.820
 7149SOL    HW133478   3.269   3.038   0.810
 7149SOL    HW233479   3.407   3.115   0.769
 7150SOL     OW33480   8.512   1.021   6.195
 7150SOL    HW133481   8.440   0.987   6.134
 7150SOL    HW233482   8.601   1.005   6.152
 7151SOL     OW33483   6.281   7.830   5.919
 7151SOL    HW133484   6.224   7.884   5.981
 7151SOL    HW233485   6.223   7.763   5.871
 7152SOL     OW33486   3.020   6.138   0.118
 7152SOL    HW133487   2.977   6.192   0.046
 7152SOL    HW233488   3.030   6.194   0.200
 7153SOL     OW33489   4.877   8.327   4.556
 7153SOL    HW133490   4.826   8.244   4.536
 7153SOL    HW233491   4.951   8.337   4.489
 7154SOL     OW33492   0.827   1.626   0.059
 7154SOL    HW133493   0.745   1.650   0.009
 7154SOL    HW233494   0.897   1.592  -0.004
 7155SOL     OW33495   4.344   2.973   0.587
 7155SOL    HW133496   4.340   3.055   0.644
 7155SOL    HW233497   4.421   2.981   0.523
 7156SOL     OW33498   0.672   0.152   6.559
 7156SOL    HW133499   0.587   0.101   6.545
 7156SOL    HW233500   0.734   0.099   6.616
 7157SOL     OW33501   8.291   3.226   6.640
 7157SOL    HW133502   8.191   3.228   6.637
 7157SOL    HW233503   8.327   3.251   6.551
 7158SOL     OW33504   3.326   3.615   1.578
 7158SOL    HW133505   3.416   3.633   1.617
 7158SOL    HW233506   3.257   3.665   1.630
 7159SOL     OW33507   4.700   7.129   5.653
 7159SOL    HW133508   4.629   7.147   5.721
 7159SOL    HW233509   4.766   7.064   5.690
 7160SOL     OW33510   5.273   5.789   0.195
 7160SOL    HW133511   5.300   5.794   0.291
 7160SOL    HW233512   5.189   5.841   0.181
 7161SOL     OW33513   9.207   4.075   0.366
 7161SOL    HW133514   9.155   4.023   0.433
 7161SOL    HW233515   9.249   4.012   0.300
 7162SOL     OW33516   2.958   7.897   6.526
 7162SOL    HW133517   2.970   7.995   6.511
 7162SOL    HW233518   3.033   7.863   6.582
 7163SOL     OW33519   3.329   2.681   6.000
 7163SOL    HW133520   3.362   2.618   6.070
 7163SOL    HW233521   3.278   2.630   5.931
 7164SOL     OW33522   0.311   5.292   5.220
 7164SOL    HW133523   0.288   5.303   5.124
 7164SOL    HW233524   0.279   5.203   5.253
 7165SOL     OW33525   3.090   3.212   0.082
 7165SOL    HW133526   3.013   3.150   0.066
 7165SOL    HW233527   3.056   3.305   0.094
 7166SOL     OW33528   1.256   1.882   6.437
 7166SOL    HW133529   1.295   1.822   6.366
 7166SOL    HW233530   1.159   1.863   6.447
 7167SOL     OW33531   5.059   0.330   0.572
 7167SOL    HW133532   5.053   0.363   0.667
 7167SOL    HW233533   5.153   0.307   0.550
 7168SOL     OW33534   2.290   8.375   5.432
 7168SOL    HW133535   2.208   8.377   5.374
 7168SOL    HW233536   2.352   8.449   5.406
 7169SOL     OW33537   2.665   4.577   6.165
 7169SOL    HW133538   2.760   4.545   6.162
 7169SOL    HW233539   2.664   4.675   6.186
 7170SOL     OW33540   4.148   5.188   5.750
 7170SOL    HW133541   4.245   5.165   5.754
 7170SOL    HW233542   4.123   5.209   5.655
 7171SOL     OW33543   6.757   7.036   6.709
 7171SOL    HW133544   6.717   7.089   6.635
 7171SOL    HW233545   6.855   7.052   6.712
 7172SOL     OW33546   1.784   2.013   1.135
 7172SOL    HW133547   1.758   2.109   1.143
 7172SOL    HW233548   1.838   1.986   1.215
 7173SOL     OW33549   2.842   2.165   1.286
 7173SOL    HW133550   2.844   2.243   1.223
 7173SOL    HW233551   2.846   2.080   1.234
 7174SOL     OW33552   4.376   0.324   1.136
 7174SOL    HW133553   4.284   0.353   1.161
 7174SOL    HW233554   4.371   0.251   1.068
 7175SOL     OW33555   3.065   4.439   0.773
 7175SOL    HW133556   3.066   4.343   0.803
 7175SOL    HW233557   3.122   4.449   0.692
 7176SOL     OW33558   2.691   3.380   1.806
 7176SOL    HW133559   2.598   3.370   1.771
 7176SOL    HW233560   2.701   3.468   1.851
 7177SOL     OW33561   6.974   2.417   1.403
 7177SOL    HW133562   7.018   2.504   1.423
 7177SOL    HW233563   6.890   2.433   1.350
 7178SOL     OW33564   0.214   4.643   0.003
 7178SOL    HW133565   0.210   4.572  -0.067
 7178SOL    HW233566   0.270   4.719  -0.030
 7179SOL     OW33567   5.354   4.580   0.648
 7179SOL    HW133568   5.394   4.531   0.571
 7179SOL    HW233569   5.352   4.678   0.629
 7180SOL     OW33570   9.038   0.148   6.082
 7180SOL    HW133571   9.121   0.092   6.078
 7180SOL    HW233572   8.959   0.088   6.098
 7181SOL     OW33573   6.362   7.546   6.210
 7181SOL    HW133574   6.350   7.494   6.126
 7181SOL    HW233575   6.393   7.485   6.283
 7182SOL     OW33576   8.071   1.845   6.452
 7182SOL    HW133577   8.012   1.864   6.374
 7182SOL    HW233578   8.059   1.750   6.481
 7183SOL     OW33579   3.510   5.971   0.729
 7183SOL    HW133580   3.484   6.013   0.816
 7183SOL    HW233581   3.428   5.954   0.674
 7184SOL     OW33582   2.327   4.247   6.486
 7184SOL    HW133583   2.384   4.302   6.424
 7184SOL    HW233584   2.235   4.287   6.489
 7185SOL     OW33585   2.503   0.710   1.809
 7185SOL    HW133586   2.553   0.674   1.730
 7185SOL    HW233587   2.487   0.636   1.874
 7186SOL     OW33588   3.877   3.530   0.207
 7186SOL    HW133589   3.820   3.553   0.129
 7186SOL    HW233590   3.965   3.578   0.199
 7187SOL     OW33591   5.245   3.199   1.123
 7187SOL    HW133592   5.190   3.176   1.203
 7187SOL    HW233593   5.227   3.132   1.050
 7188SOL     OW33594   3.883   4.390   5.529
 7188SOL    HW133595   3.927   4.302   5.513
 7188SOL    HW233596   3.840   4.422   5.445
 7189SOL     OW33597   9.168   2.610   0.446
 7189SOL    HW133598   9.208   2.701   0.455
 7189SOL    HW233599   9.079   2.608   0.491
 7190SOL     OW33600   4.718   4.465   5.455
 7190SOL    HW133601   4.773   4.415   5.388
 7190SOL    HW233602   4.709   4.410   5.538
 7191SOL     OW33603   6.966   2.034   0.325
 7191SOL    HW133604   6.891   2.003   0.267
 7191SOL    HW233605   6.935   2.110   0.382
 7192SOL     OW33606   6.965   0.182   6.003
 7192SOL    HW133607   7.055   0.171   6.045
 7192SOL    HW233608   6.920   0.092   5.998
 7193SOL     OW33609   4.684   5.456   6.003
 7193SOL    HW133610   4.644   5.394   5.936
 7193SOL    HW233611   4.777   5.427   6.023
 7194SOL     OW33612   8.625   2.151   5.194
 7194SOL    HW133613   8.673   2.183   5.112
 7194SOL    HW233614   8.565   2.074   5.170
 7195SOL     OW33615   3.682   0.838   6.722
 7195SOL    HW133616   3.751   0.878   6.661
 7195SOL    HW233617   3.699   0.739   6.730
 7196SOL     OW33618   3.218   8.082   1.279
 7196SOL    HW133619   3.164   8.143   1.335
 7196SOL    HW233620   3.260   8.011   1.336
 7197SOL     OW33621   5.478   1.940   0.735
 7197SOL    HW133622   5.398   1.991   0.705
 7197SOL    HW233623   5.468   1.844   0.710
 7198SOL     OW33624   5.885   6.137   1.593
 7198SOL    HW133625   5.926   6.090   1.671
 7198SOL    HW233626   5.839   6.221   1.623
 7199SOL     OW33627   7.943   2.135   0.382
 7199SOL    HW133628   7.961   2.157   0.478
 7199SOL    HW233629   7.844   2.135   0.366
 7200SOL     OW33630   4.556   2.615   5.599
 7200SOL    HW133631   4.567   2.589   5.503
 7200SOL    HW233632   4.462   2.596   5.628
 7201SOL     OW33633   4.984   1.291   1.466
 7201SOL    HW133634   5.070   1.285   1.516
 7201SOL    HW233635   4.926   1.360   1.509
 7202SOL     OW33636   5.020   7.375   0.066
 7202SOL    HW133637   4.963   7.416   0.137
 7202SOL    HW233638   5.019   7.432  -0.016
 7203SOL     OW33639   5.864   8.033   5.488
 7203SOL    HW133640   5.896   8.037   5.393
 7203SOL    HW233641   5.943   8.022   5.549
 7204SOL     OW33642   8.619   2.940   5.767
 7204SOL    HW133643   8.653   3.017   5.713
 7204SOL    HW233644   8.636   2.958   5.864
 7205SOL     OW33645   8.479   8.101   0.243
 7205SOL    HW133646   8.484   8.142   0.152
 7205SOL    HW233647   8.555   8.037   0.255
 7206SOL     OW33648   1.374   4.386   6.081
 7206SOL    HW133649   1.386   4.307   6.141
 7206SOL    HW233650   1.321   4.359   6.001
 7207SOL     OW33651   5.353   5.693   6.563
 7207SOL    HW133652   5.373   5.791   6.558
 7207SOL    HW233653   5.372   5.659   6.655
 7208SOL     OW33654   8.395   2.516   5.843
 7208SOL    HW133655   8.473   2.572   5.870
 7208SOL    HW233656   8.332   2.571   5.788
 7209SOL     OW33657   0.026   8.294   6.470
 7209SOL    HW133658  -0.069   8.270   6.449
 7209SOL    HW233659   0.054   8.248   6.554
 7210SOL     OW33660   0.684   6.849   0.929
 7210SOL    HW133661   0.724   6.940   0.940
 7210SOL    HW233662   0.587   6.858   0.907
 7211SOL     OW33663   6.249   6.055   0.987
 7211SOL    HW133664   6.222   6.105   1.069
 7211SOL    HW233665   6.246   5.956   1.005
 7212SOL     OW33666   3.361   7.786   5.857
 7212SOL    HW133667   3.350   7.788   5.757
 7212SOL    HW233668   3.302   7.715   5.895
 7213SOL     OW33669   7.249   7.457   1.064
 7213SOL    HW133670   7.173   7.465   1.129
 7213SOL    HW233671   7.332   7.432   1.115
 7214SOL     OW33672   4.700   7.466   5.834
 7214SOL    HW133673   4.734   7.559   5.851
 7214SOL    HW233674   4.749   7.428   5.755
 7215SOL     OW33675   4.725   6.356   5.619
 7215SOL    HW133676   4.713   6.258   5.603
 7215SOL    HW233677   4.640   6.404   5.596
 7216SOL     OW33678   4.637   7.595   1.430
 7216SOL    HW133679   4.725   7.641   1.419
 7216SOL    HW233680   4.599   7.617   1.520
 7217SOL     OW33681   7.512   7.387   6.270
 7217SOL    HW133682   7.611   7.391   6.278
 7217SOL    HW233683   7.475   7.328   6.342
 7218SOL     OW33684   0.806   1.161   0.331
 7218SOL    HW133685   0.715   1.193   0.306
 7218SOL    HW233686   0.873   1.195   0.264
 7219SOL     OW33687   8.839   2.802   6.047
 7219SOL    HW133688   8.888   2.751   5.977
 7219SOL    HW233689   8.855   2.760   6.136
 7220SOL     OW33690   1.332   0.568   0.444
 7220SOL    HW133691   1.272   0.570   0.524
 7220SOL    HW233692   1.378   0.656   0.435
 7221SOL     OW33693   9.256   4.762   5.061
 7221SOL    HW133694   9.273   4.860   5.076
 7221SOL    HW233695   9.158   4.747   5.047
 7222SOL     OW33696   0.447   7.231   1.032
 7222SOL    HW133697   0.362   7.261   0.987
 7222SOL    HW233698   0.454   7.132   1.025
 7223SOL     OW33699   5.657   7.615   6.406
 7223SOL    HW133700   5.655   7.652   6.499
 7223SOL    HW233701   5.565   7.588   6.379
 7224SOL     OW33702   2.190   1.527   1.509
 7224SOL    HW133703   2.258   1.508   1.439
 7224SOL    HW233704   2.147   1.616   1.491
 7225SOL     OW33705   4.845   3.611   0.898
 7225SOL    HW133706   4.813   3.655   0.982
 7225SOL    HW233707   4.905   3.535   0.921
 7226SOL     OW33708   3.040   6.399   0.835
 7226SOL    HW133709   3.119   6.441   0.878
 7226SOL    HW233710   2.962   6.462   0.840
 7227SOL     OW33711   8.813   3.606   0.789
 7227SOL    HW133712   8.788   3.510   0.774
 7227SOL    HW233713   8.798   3.658   0.704
 7228SOL     OW33714   3.394   6.980   6.619
 7228SOL    HW133715   3.382   7.041   6.541
 7228SOL    HW233716   3.487   6.990   6.655
 7229SOL     OW33717   8.550   7.111   4.954
 7229SOL    HW133718   8.476   7.069   4.903
 7229SOL    HW233719   8.625   7.133   4.893
 7230SOL     OW33720   8.520   5.195   0.029
 7230SOL    HW133721   8.444   5.259   0.020
 7230SOL    HW233722   8.489   5.115   0.080
 7231SOL     OW33723   4.117   2.219   0.349
 7231SOL    HW133724   4.071   2.187   0.266
 7231SOL    HW233725   4.155   2.310   0.332
 7232SOL     OW33726   0.826   2.750   0.602
 7232SOL    HW133727   0.860   2.785   0.688
 7232SOL    HW233728   0.745   2.802   0.574
 7233SOL     OW33729   0.692   1.277   5.605
 7233SOL    HW133730   0.597   1.305   5.623
 7233SOL    HW233731   0.749   1.359   5.596
 7234SOL     OW33732   6.543   1.018   1.715
 7234SOL    HW133733   6.607   0.943   1.700
 7234SOL    HW233734   6.536   1.074   1.632
 7235SOL     OW33735   1.261   4.808   0.447
 7235SOL    HW133736   1.205   4.725   0.441
 7235SOL    HW233737   1.318   4.815   0.365
 7236SOL     OW33738   6.493   7.880   0.093
 7236SOL    HW133739   6.438   7.797   0.089
 7236SOL    HW233740   6.590   7.856   0.096
 7237SOL     OW33741   5.308   1.905   0.332
 7237SOL    HW133742   5.319   2.004   0.340
 7237SOL    HW233743   5.212   1.883   0.314
 7238SOL     OW33744   7.271   0.930   0.384
 7238SOL    HW133745   7.359   0.914   0.429
 7238SOL    HW233746   7.237   1.021   0.408
 7239SOL     OW33747   0.910   5.833   5.591
 7239SOL    HW133748   0.824   5.782   5.586
 7239SOL    HW233749   0.889   5.930   5.606
 7240SOL     OW33750   8.285   0.786   5.325
 7240SOL    HW133751   8.328   0.696   5.321
 7240SOL    HW233752   8.314   0.839   5.245
 7241SOL     OW33753   6.099   3.698   6.710
 7241SOL    HW133754   6.193   3.711   6.677
 7241SOL    HW233755   6.066   3.608   6.681
 7242SOL     OW33756   7.524   5.931   0.813
 7242SOL    HW133757   7.483   6.014   0.850
 7242SOL    HW233758   7.486   5.852   0.862
 7243SOL     OW33759   2.173   7.849   0.899
 7243SOL    HW133760   2.149   7.861   0.995
 7243SOL    HW233761   2.109   7.899   0.842
 7244SOL     OW33762   4.194   7.659   5.699
 7244SOL    HW133763   4.108   7.707   5.716
 7244SOL    HW233764   4.203   7.638   5.602
 7245SOL     OW33765   2.622   6.324   6.296
 7245SOL    HW133766   2.629   6.422   6.319
 7245SOL    HW233767   2.596   6.314   6.200
 7246SOL     OW33768   8.935   1.516   6.440
 7246SOL    HW133769   8.950   1.428   6.484
 7246SOL    HW233770   8.836   1.534   6.434
 7247SOL     OW33771   4.489   3.778   0.479
 7247SOL    HW133772   4.461   3.764   0.384
 7247SOL    HW233773   4.589   3.784   0.484
 7248SOL     OW33774   8.588   1.212   0.269
 7248SOL    HW133775   8.492   1.202   0.244
 7248SOL    HW233776   8.632   1.277   0.208
 7249SOL     OW33777   7.375   2.727   0.622
 7249SOL    HW133778   7.325   2.759   0.703
 7249SOL    HW233779   7.472   2.718   0.645
 7250SOL     OW33780   6.372   6.941   5.126
 7250SOL    HW133781   6.407   6.849   5.107
 7250SOL    HW233782   6.336   6.945   5.219
 7251SOL     OW33783   4.014   5.796   5.195
 7251SOL    HW133784   4.059   5.873   5.240
 7251SOL    HW233785   3.980   5.825   5.105
 7252SOL     OW33786   8.341   4.249   0.552
 7252SOL    HW133787   8.299   4.186   0.617
 7252SOL    HW233788   8.372   4.198   0.471
 7253SOL     OW33789   1.097   7.022   5.127
 7253SOL    HW133790   1.006   7.051   5.099
 7253SOL    HW233791   1.117   6.931   5.089
 7254SOL     OW33792   4.857   5.865   1.815
 7254SOL    HW133793   4.860   5.930   1.739
 7254SOL    HW233794   4.936   5.804   1.811
 7255SOL     OW33795   3.865   8.076   1.246
 7255SOL    HW133796   3.879   8.173   1.265
 7255SOL    HW233797   3.942   8.023   1.279
 7256SOL     OW33798   5.164   7.108   0.682
 7256SOL    HW133799   5.111   7.192   0.695
 7256SOL    HW233800   5.238   7.125   0.616
 7257SOL     OW33801   8.798   6.015   0.422
 7257SOL    HW133802   8.719   5.964   0.387
 7257SOL    HW233803   8.820   5.984   0.514
 7258SOL     OW33804   9.400   4.997   6.706
 7258SOL    HW133805   9.439   4.954   6.787
 7258SOL    HW233806   9.368   5.089   6.728
 7259SOL     OW33807   7.644   4.116   1.242
 7259SOL    HW133808   7.589   4.187   1.285
 7259SOL    HW233809   7.729   4.102   1.294
 7260SOL     OW33810   2.136   2.512   0.752
 7260SOL    HW133811   2.208   2.506   0.821
 7260SOL    HW233812   2.164   2.576   0.680
 7261SOL     OW33813   8.328   1.115   0.243
 7261SOL    HW133814   8.367   1.023   0.238
 7261SOL    HW233815   8.266   1.121   0.321
 7262SOL     OW33816   8.090   4.450   0.669
 7262SOL    HW133817   8.075   4.404   0.582
 7262SOL    HW233818   8.183   4.485   0.673
 7263SOL     OW33819   8.893   7.855   0.982
 7263SOL    HW133820   8.987   7.823   0.972
 7263SOL    HW233821   8.829   7.779   0.972
 7264SOL     OW33822   4.987   3.674   1.490
 7264SOL    HW133823   4.948   3.660   1.399
 7264SOL    HW233824   4.913   3.672   1.558
 7265SOL     OW33825   2.991   8.287   0.065
 7265SOL    HW133826   3.019   8.269   0.159
 7265SOL    HW233827   2.985   8.201   0.015
 7266SOL     OW33828   9.362   8.196   5.963
 7266SOL    HW133829   9.391   8.291   5.975
 7266SOL    HW233830   9.339   8.180   5.867
 7267SOL     OW33831   5.073   5.754   1.360
 7267SOL    HW133832   4.982   5.788   1.382
 7267SOL    HW233833   5.135   5.772   1.436
 7268SOL     OW33834   3.651   1.708   0.936
 7268SOL    HW133835   3.557   1.727   0.909
 7268SOL    HW233836   3.654   1.627   0.995
 7269SOL     OW33837   2.004   7.969   0.690
 7269SOL    HW133838   1.905   7.959   0.685
 7269SOL    HW233839   2.037   8.015   0.607
 7270SOL     OW33840   6.264   2.823   0.478
 7270SOL    HW133841   6.282   2.815   0.576
 7270SOL    HW233842   6.209   2.905   0.462
 7271SOL     OW33843   6.061   0.212   0.524
 7271SOL    HW133844   6.029   0.264   0.444
 7271SOL    HW233845   6.048   0.114   0.507
 7272SOL     OW33846   7.748   4.363   5.107
 7272SOL    HW133847   7.799   4.293   5.057
 7272SOL    HW233848   7.725   4.438   5.045
 7273SOL     OW33849   4.304   0.704   1.878
 7273SOL    HW133850   4.235   0.690   1.949
 7273SOL    HW233851   4.389   0.734   1.920
 7274SOL     OW33852   6.776   6.968   0.996
 7274SOL    HW133853   6.693   6.923   1.030
 7274SOL    HW233854   6.819   6.910   0.928
 7275SOL     OW33855   7.167   5.845   1.159
 7275SOL    HW133856   7.166   5.781   1.083
 7275SOL    HW233857   7.252   5.897   1.158
 7276SOL     OW33858   7.506   1.219   0.552
 7276SOL    HW133859   7.554   1.248   0.635
 7276SOL    HW233860   7.543   1.269   0.474
 7277SOL     OW33861   6.665   3.085   5.934
 7277SOL    HW133862   6.743   3.023   5.922
 7277SOL    HW233863   6.581   3.037   5.908
 7278SOL     OW33864   3.650   2.917   0.735
 7278SOL    HW133865   3.554   2.942   0.725
 7278SOL    HW233866   3.702   2.955   0.659
 7279SOL     OW33867   5.413   1.281   0.547
 7279SOL    HW133868   5.372   1.319   0.464
 7279SOL    HW233869   5.447   1.355   0.604
 7280SOL     OW33870   6.065   7.120   6.196
 7280SOL    HW133871   6.031   7.209   6.228
 7280SOL    HW233872   6.079   7.060   6.274
 7281SOL     OW33873   9.330   8.156   0.547
 7281SOL    HW133874   9.347   8.070   0.596
 7281SOL    HW233875   9.373   8.232   0.597
 7282SOL     OW33876   2.205   3.176   5.524
 7282SOL    HW133877   2.204   3.246   5.596
 7282SOL    HW233878   2.298   3.140   5.515
 7283SOL     OW33879   6.439   2.879   1.658
 7283SOL    HW133880   6.342   2.890   1.675
 7283SOL    HW233881   6.475   2.806   1.717
 7284SOL     OW33882   1.686   0.318   6.272
 7284SOL    HW133883   1.659   0.410   6.245
 7284SOL    HW233884   1.612   0.254   6.253
 7285SOL     OW33885   2.812   3.597   1.152
 7285SOL    HW133886   2.772   3.560   1.068
 7285SOL    HW233887   2.750   3.663   1.193
 7286SOL     OW33888   5.424   0.023   0.510
 7286SOL    HW133889   5.344  -0.032   0.490
 7286SOL    HW233890   5.396   0.113   0.543
 7287SOL     OW33891   1.129   2.565   6.685
 7287SOL    HW133892   1.167   2.508   6.759
 7287SOL    HW233893   1.154   2.661   6.701
 7288SOL     OW33894   9.199   3.456   0.166
 7288SOL    HW133895   9.236   3.364   0.158
 7288SOL    HW233896   9.198   3.484   0.262
 7289SOL     OW33897   8.152   0.474   6.248
 7289SOL    HW133898   8.146   0.559   6.300
 7289SOL    HW233899   8.246   0.459   6.219
 7290SOL     OW33900   5.191   7.659   6.355
 7290SOL    HW133901   5.206   7.662   6.453
 7290SOL    HW233902   5.139   7.577   6.331
 7291SOL     OW33903   7.871   5.385   6.173
 7291SOL    HW133904   7.967   5.396   6.148
 7291SOL    HW233905   7.831   5.310   6.121
 7292SOL     OW33906   2.892   0.949   0.058
 7292SOL    HW133907   2.893   0.903   0.147
 7292SOL    HW233908   2.803   0.992   0.043
 7293SOL     OW33909   3.196   3.897   0.828
 7293SOL    HW133910   3.112   3.862   0.869
 7293SOL    HW233911   3.235   3.828   0.766
 7294SOL     OW33912   3.762   2.033   6.547
 7294SOL    HW133913   3.799   1.998   6.461
 7294SOL    HW233914   3.824   2.102   6.584
 7295SOL     OW33915   8.522   4.733   6.286
 7295SOL    HW133916   8.600   4.785   6.319
 7295SOL    HW233917   8.443   4.749   6.345
 7296SOL     OW33918   6.573   6.730   0.347
 7296SOL    HW133919   6.550   6.805   0.284
 7296SOL    HW233920   6.672   6.727   0.361
 7297SOL     OW33921   8.971   7.626   0.200
 7297SOL    HW133922   8.925   7.547   0.242
 7297SOL    HW233923   8.935   7.710   0.240
 7298SOL     OW33924   5.528   1.111   0.749
 7298SOL    HW133925   5.617   1.100   0.705
 7298SOL    HW233926   5.472   1.175   0.696
 7299SOL     OW33927   0.500   1.175   5.860
 7299SOL    HW133928   0.569   1.143   5.796
 7299SOL    HW233929   0.497   1.275   5.858
 7300SOL     OW33930   5.507   4.305   6.239
 7300SOL    HW133931   5.569   4.371   6.195
 7300SOL    HW233932   5.435   4.279   6.174
 7301SOL     OW33933   2.740   4.821   6.228
 7301SOL    HW133934   2.707   4.909   6.264
 7301SOL    HW233935   2.840   4.825   6.218
 7302SOL     OW33936   2.492   3.814   0.189
 7302SOL    HW133937   2.537   3.840   0.103
 7302SOL    HW233938   2.476   3.715   0.189
 7303SOL     OW33939   3.718   0.619   6.032
 7303SOL    HW133940   3.717   0.705   6.082
 7303SOL    HW233941   3.777   0.554   6.079
 7304SOL     OW33942   5.856   7.410   6.457
 7304SOL    HW133943   5.849   7.327   6.511
 7304SOL    HW233944   5.765   7.452   6.448
 7305SOL     OW33945   0.781   3.929   0.116
 7305SOL    HW133946   0.838   3.874   0.056
 7305SOL    HW233947   0.760   4.016   0.071
 7306SOL     OW33948   5.798   1.328   5.720
 7306SOL    HW133949   5.847   1.277   5.649
 7306SOL    HW233950   5.730   1.388   5.677
 7307SOL     OW33951   3.997   0.145   5.059
 7307SOL    HW133952   3.949   0.057   5.054
 7307SOL    HW233953   3.990   0.192   4.970
 7308SOL     OW33954   9.356   8.137   0.137
 7308SOL    HW133955   9.346   8.216   0.198
 7308SOL    HW233956   9.358   8.053   0.192
 7309SOL     OW33957   4.151   0.491   0.794
 7309SOL    HW133958   4.081   0.494   0.866
 7309SOL    HW233959   4.182   0.397   0.782
 7310SOL     OW33960   8.631   1.371   4.906
 7310SOL    HW133961   8.691   1.447   4.930
 7310SOL    HW233962   8.588   1.389   4.817
 7311SOL     OW33963   7.464   1.535   1.079
 7311SOL    HW133964   7.380   1.556   1.028
 7311SOL    HW233965   7.473   1.436   1.090
 7312SOL     OW33966   4.787   3.452   5.834
 7312SOL    HW133967   4.772   3.389   5.757
 7312SOL    HW233968   4.885   3.464   5.847
 7313SOL     OW33969   5.960   4.771   6.630
 7313SOL    HW133970   5.985   4.816   6.716
 7313SOL    HW233971   5.962   4.672   6.642
 7314SOL     OW33972   5.176   1.217   6.237
 7314SOL    HW133973   5.150   1.171   6.152
 7314SOL    HW233974   5.145   1.164   6.315
 7315SOL     OW33975   9.396   5.885   5.288
 7315SOL    HW133976   9.467   5.911   5.224
 7315SOL    HW233977   9.324   5.955   5.288
 7316SOL     OW33978   4.231   3.919   6.231
 7316SOL    HW133979   4.199   3.918   6.136
 7316SOL    HW233980   4.287   4.000   6.246
 7317SOL     OW33981   1.906   7.568   0.987
 7317SOL    HW133982   1.875   7.475   1.006
 7317SOL    HW233983   1.985   7.589   1.045
 7318SOL     OW33984   5.187   2.918   1.075
 7318SOL    HW133985   5.211   2.821   1.064
 7318SOL    HW233986   5.089   2.926   1.092
 7319SOL     OW33987   7.976   7.776   1.073
 7319SOL    HW133988   7.964   7.794   1.170
 7319SOL    HW233989   7.955   7.680   1.054
 7320SOL     OW33990   3.037   3.314   6.184
 7320SOL    HW133991   2.991   3.356   6.106
 7320SOL    HW233992   3.135   3.335   6.181
 7321SOL     OW33993   2.339   0.721   6.423
 7321SOL    HW133994   2.334   0.699   6.520
 7321SOL    HW233995   2.307   0.642   6.370
 7322SOL     OW33996   4.593   4.012   6.147
 7322SOL    HW133997   4.670   3.973   6.197
 7322SOL    HW233998   4.526   4.049   6.212
 7323SOL     OW33999   9.450   5.826   5.722
 7323SOL    HW134000   9.447   5.764   5.801
 7323SOL    HW234001   9.434   5.774   5.638
 7324SOL     OW34002   3.451   0.933   5.393
 7324SOL    HW134003   3.378   0.986   5.436
 7324SOL    HW234004   3.431   0.923   5.295
 7325SOL     OW34005   6.795   8.218   0.043
 7325SOL    HW134006   6.776   8.190   0.137
 7325SOL    HW234007   6.717   8.269   0.007
 7326SOL     OW34008   5.842   2.715   5.801
 7326SOL    HW134009   5.891   2.736   5.716
 7326SOL    HW234010   5.791   2.795   5.831
 7327SOL     OW34011   7.816   6.191   0.524
 7327SOL    HW134012   7.773   6.204   0.434
 7327SOL    HW234013   7.746   6.197   0.595
 7328SOL     OW34014   4.082   6.094   0.400
 7328SOL    HW134015   4.045   6.162   0.337
 7328SOL    HW234016   4.058   6.002   0.368
 7329SOL     OW34017   9.165   5.404   6.717
 7329SOL    HW134018   9.154   5.502   6.704
 7329SOL    HW234019   9.075   5.360   6.718
 7330SOL     OW34020   4.605   2.308   6.715
 7330SOL    HW134021   4.598   2.375   6.789
 7330SOL    HW234022   4.661   2.231   6.746
 7331SOL     OW34023   9.485   6.785   5.566
 7331SOL    HW134024   9.495   6.882   5.543
 7331SOL    HW234025   9.532   6.766   5.652
 7332SOL     OW34026   6.111   2.822   6.491
 7332SOL    HW134027   6.042   2.871   6.439
 7332SOL    HW234028   6.068   2.750   6.545
 7333SOL     OW34029   8.155   1.951   1.533
 7333SOL    HW134030   8.243   1.973   1.575
 7333SOL    HW234031   8.170   1.904   1.446
 7334SOL     OW34032   3.345   0.507   6.079
 7334SOL    HW134033   3.349   0.494   6.179
 7334SOL    HW234034   3.377   0.598   6.055
 7335SOL     OW34035   1.468   6.667   6.089
 7335SOL    HW134036   1.409   6.612   6.148
 7335SOL    HW234037   1.560   6.626   6.087
 7336SOL     OW34038   4.419   5.820   1.401
 7336SOL    HW134039   4.484   5.831   1.326
 7336SOL    HW234040   4.360   5.741   1.383
 7337SOL     OW34041   4.069   2.658   5.825
 7337SOL    HW134042   4.081   2.757   5.823
 7337SOL    HW234043   3.979   2.636   5.862
 7338SOL     OW34044   0.776   2.160   0.446
 7338SOL    HW134045   0.685   2.127   0.472
 7338SOL    HW234046   0.782   2.258   0.466
 7339SOL     OW34047   9.451   3.431   6.583
 7339SOL    HW134048   9.484   3.418   6.677
 7339SOL    HW234049   9.522   3.477   6.530
 7340SOL     OW34050   0.579   0.042   0.794
 7340SOL    HW134051   0.499  -0.013   0.769
 7340SOL    HW234052   0.549   0.131   0.828
 7341SOL     OW34053   2.558   6.797   4.757
 7341SOL    HW134054   2.657   6.792   4.746
 7341SOL    HW234055   2.516   6.819   4.669
 7342SOL     OW34056   3.072   2.459   1.208
 7342SOL    HW134057   2.997   2.481   1.271
 7342SOL    HW234058   3.045   2.480   1.114
 7343SOL     OW34059   4.369   1.959   0.511
 7343SOL    HW134060   4.272   1.936   0.514
 7343SOL    HW234061   4.422   1.890   0.560
 7344SOL     OW34062   2.777   6.686   0.287
 7344SOL    HW134063   2.822   6.718   0.370
 7344SOL    HW234064   2.688   6.645   0.311
 7345SOL     OW34065   2.270   6.561   5.583
 7345SOL    HW134066   2.191   6.581   5.525
 7345SOL    HW234067   2.243   6.567   5.679
 7346SOL     OW34068   2.059   5.377   5.748
 7346SOL    HW134069   2.138   5.431   5.722
 7346SOL    HW234070   2.008   5.349   5.666
 7347SOL     OW34071   5.694   2.469   0.872
 7347SOL    HW134072   5.617   2.427   0.825
 7347SOL    HW234073   5.773   2.407   0.870
 7348SOL     OW34074   7.251   2.103   0.495
 7348SOL    HW134075   7.318   2.164   0.452
 7348SOL    HW234076   7.252   2.015   0.449
 7349SOL     OW34077   9.252   1.527   0.657
 7349SOL    HW134078   9.215   1.609   0.613
 7349SOL    HW234079   9.245   1.536   0.756
 7350SOL     OW34080   4.393   8.016   2.040
 7350SOL    HW134081   4.434   8.094   2.088
 7350SOL    HW234082   4.304   7.996   2.080
 7351SOL     OW34083   9.169   3.429   1.106
 7351SOL    HW134084   9.124   3.340   1.106
 7351SOL    HW234085   9.177   3.463   1.200
 7352SOL     OW34086   0.230   5.819   4.467
 7352SOL    HW134087   0.168   5.870   4.526
 7352SOL    HW234088   0.200   5.724   4.460
 7353SOL     OW34089   0.120   8.429   5.657
 7353SOL    HW134090   0.167   8.503   5.705
 7353SOL    HW234091   0.148   8.429   5.561
 7354SOL     OW34092   4.443   1.153   0.756
 7354SOL    HW134093   4.495   1.093   0.815
 7354SOL    HW234094   4.354   1.112   0.736
 7355SOL     OW34095   1.770   4.066   5.062
 7355SOL    HW134096   1.835   3.990   5.070
 7355SOL    HW234097   1.736   4.070   4.968
 7356SOL     OW34098   6.454   5.666   6.437
 7356SOL    HW134099   6.363   5.705   6.453
 7356SOL    HW234100   6.462   5.637   6.342
 7357SOL     OW34101   4.619   6.424   1.261
 7357SOL    HW134102   4.640   6.423   1.164
 7357SOL    HW234103   4.678   6.490   1.308
 7358SOL     OW34104   8.841   1.317   0.841
 7358SOL    HW134105   8.890   1.232   0.822
 7358SOL    HW234106   8.825   1.324   0.939
 7359SOL     OW34107   5.826   4.228   6.732
 7359SOL    HW134108   5.743   4.251   6.681
 7359SOL    HW234109   5.905   4.233   6.671
 7360SOL     OW34110   1.316   6.432   5.655
 7360SOL    HW134111   1.330   6.530   5.669
 7360SOL    HW234112   1.320   6.384   5.742
 7361SOL     OW34113   6.595   5.962   0.035
 7361SOL    HW134114   6.649   5.879   0.017
 7361SOL    HW234115   6.524   5.941   0.102
 7362SOL     OW34116   2.168   0.010   0.311
 7362SOL    HW134117   2.076  -0.013   0.278
 7362SOL    HW234118   2.174  -0.004   0.409
 7363SOL     OW34119   6.234   3.330   6.662
 7363SOL    HW134120   6.276   3.377   6.585
 7363SOL    HW234121   6.238   3.388   6.743
 7364SOL     OW34122   0.992   3.103   5.437
 7364SOL    HW134123   1.091   3.108   5.448
 7364SOL    HW234124   0.970   3.097   5.340
 7365SOL     OW34125   0.632   6.237   6.411
 7365SOL    HW134126   0.564   6.273   6.348
 7365SOL    HW234127   0.659   6.309   6.476
 7366SOL     OW34128   5.410   2.211   6.361
 7366SOL    HW134129   5.328   2.160   6.389
 7366SOL    HW234130   5.432   2.279   6.431
 7367SOL     OW34131   5.498   0.288   1.471
 7367SOL    HW134132   5.466   0.363   1.412
 7367SOL    HW234133   5.579   0.246   1.430
 7368SOL     OW34134   4.163   7.579   1.020
 7368SOL    HW134135   4.174   7.520   1.101
 7368SOL    HW234136   4.066   7.600   1.007
 7369SOL     OW34137   6.259   0.547   0.811
 7369SOL    HW134138   6.202   0.467   0.827
 7369SOL    HW234139   6.202   0.629   0.807
 7370SOL     OW34140   2.960   8.364   1.327
 7370SOL    HW134141   2.889   8.375   1.397
 7370SOL    HW234142   2.988   8.454   1.295
 7371SOL     OW34143   2.972   0.054   0.008
 7371SOL    HW134144   2.988  -0.044   0.007
 7371SOL    HW234145   2.882   0.074  -0.032
 7372SOL     OW34146   4.300   8.162   5.144
 7372SOL    HW134147   4.343   8.085   5.095
 7372SOL    HW234148   4.216   8.189   5.097
 7373SOL     OW34149   3.983   0.011   0.117
 7373SOL    HW134150   3.938  -0.069   0.156
 7373SOL    HW234151   4.079  -0.009   0.099
 7374SOL     OW34152   4.361   6.902   0.180
 7374SOL    HW134153   4.269   6.941   0.169
 7374SOL    HW234154   4.411   6.910   0.094
 7375SOL     OW34155   7.088   8.110   0.316
 7375SOL    HW134156   7.136   8.041   0.371
 7375SOL    HW234157   7.077   8.077   0.223
 7376SOL     OW34158   7.955   7.662   0.705
 7376SOL    HW134159   7.921   7.729   0.639
 7376SOL    HW234160   8.054   7.655   0.697
 7377SOL     OW34161   8.025   5.963   6.083
 7377SOL    HW134162   7.949   6.012   6.125
 7377SOL    HW234163   8.034   5.990   5.987
 7378SOL     OW34164   9.003   0.592   6.376
 7378SOL    HW134165   8.991   0.681   6.332
 7378SOL    HW234166   9.018   0.522   6.306
 7379SOL     OW34167   2.570   7.950   5.155
 7379SOL    HW134168   2.663   7.970   5.123
 7379SOL    HW234169   2.511   7.934   5.076
 7380SOL     OW34170   2.110   3.849   0.555
 7380SOL    HW134171   2.029   3.906   0.572
 7380SOL    HW234172   2.082   3.754   0.544
 7381SOL     OW34173   7.128   0.060   0.790
 7381SOL    HW134174   7.054   0.093   0.848
 7381SOL    HW234175   7.214   0.062   0.841
 7382SOL     OW34176   9.339   8.482   1.462
 7382SOL    HW134177   9.368   8.575   1.486
 7382SOL    HW234178   9.390   8.416   1.517
 7383SOL     OW34179   2.473   7.065   0.652
 7383SOL    HW134180   2.420   7.127   0.710
 7383SOL    HW234181   2.505   7.115   0.571
 7384SOL     OW34182   8.107   2.228   5.649
 7384SOL    HW134183   8.046   2.158   5.611
 7384SOL    HW234184   8.167   2.264   5.577
 7385SOL     OW34185   7.268   8.460   1.256
 7385SOL    HW134186   7.277   8.535   1.321
 7385SOL    HW234187   7.320   8.381   1.289
 7386SOL     OW34188   8.162   5.998   0.138
 7386SOL    HW134189   8.248   6.049   0.128
 7386SOL    HW234190   8.101   6.048   0.199
 7387SOL     OW34191   1.689   2.107   6.090
 7387SOL    HW134192   1.660   2.190   6.042
 7387SOL    HW234193   1.704   2.034   6.025
 7388SOL     OW34194   0.852   1.355   5.938
 7388SOL    HW134195   0.881   1.279   5.880
 7388SOL    HW234196   0.839   1.437   5.883
 7389SOL     OW34197   5.992   6.128   0.172
 7389SOL    HW134198   5.948   6.170   0.252
 7389SOL    HW234199   5.951   6.166   0.089
 7390SOL     OW34200   8.432   5.065   0.267
 7390SOL    HW134201   8.392   5.153   0.293
 7390SOL    HW234202   8.435   5.005   0.347
 7391SOL     OW34203   1.865   3.400   0.000
 7391SOL    HW134204   1.954   3.361   0.023
 7391SOL    HW234205   1.874   3.498  -0.013
 7392SOL     OW34206   6.711   6.168   4.718
 7392SOL    HW134207   6.749   6.126   4.800
 7392SOL    HW234208   6.659   6.099   4.667
 7393SOL     OW34209   8.485   4.535   0.994
 7393SOL    HW134210   8.464   4.461   0.930
 7393SOL    HW234211   8.497   4.497   1.086
 7394SOL     OW34212   6.051   0.109   6.070
 7394SOL    HW134213   5.980   0.179   6.062
 7394SOL    HW234214   6.109   0.112   5.988
 7395SOL     OW34215   5.760   4.934   1.547
 7395SOL    HW134216   5.670   4.936   1.590
 7395SOL    HW234217   5.823   4.992   1.598
 7396SOL     OW34218   5.914   3.488   6.560
 7396SOL    HW134219   5.922   3.502   6.462
 7396SOL    HW234220   5.906   3.390   6.580
 7397SOL     OW34221   4.326   6.958   6.322
 7397SOL    HW134222   4.381   6.993   6.246
 7397SOL    HW234223   4.355   6.865   6.344
 7398SOL     OW34224   4.856   0.259   0.400
 7398SOL    HW134225   4.940   0.301   0.436
 7398SOL    HW234226   4.795   0.235   0.476
 7399SOL     OW34227   2.926   1.780   0.867
 7399SOL    HW134228   2.971   1.773   0.956
 7399SOL    HW234229   2.832   1.811   0.880
 7400SOL     OW34230   0.679   5.373   0.002
 7400SOL    HW134231   0.710   5.469  -0.002
 7400SOL    HW234232   0.641   5.346  -0.086
 7401SOL     OW34233   3.173   0.389   0.825
 7401SOL    HW134234   3.151   0.378   0.922
 7401SOL    HW234235   3.272   0.388   0.814
 7402SOL     OW34236   8.674   0.390   6.532
 7402SOL    HW134237   8.584   0.358   6.503
 7402SOL    HW234238   8.727   0.417   6.452
 7403SOL     OW34239   1.338   3.630   6.167
 7403SOL    HW134240   1.262   3.595   6.113
 7403SOL    HW234241   1.422   3.626   6.113
 7404SOL     OW34242   5.777   4.157   0.536
 7404SOL    HW134243   5.862   4.116   0.503
 7404SOL    HW234244   5.699   4.105   0.500
 7405SOL     OW34245   8.284   0.929   5.561
 7405SOL    HW134246   8.286   1.020   5.519
 7405SOL    HW234247   8.273   0.860   5.490
 7406SOL     OW34248   7.464   7.718   0.501
 7406SOL    HW134249   7.463   7.769   0.587
 7406SOL    HW234250   7.490   7.623   0.519
 7407SOL     OW34251   8.660   2.156   0.849
 7407SOL    HW134252   8.653   2.256   0.856
 7407SOL    HW234253   8.709   2.121   0.928
 7408SOL     OW34254   4.196   5.303   6.471
 7408SOL    HW134255   4.112   5.307   6.415
 7408SOL    HW234256   4.248   5.387   6.458
 7409SOL     OW34257   8.721   8.115   5.760
 7409SOL    HW134258   8.637   8.169   5.749
 7409SOL    HW234259   8.712   8.030   5.708
 7410SOL     OW34260   4.356   5.032   6.272
 7410SOL    HW134261   4.371   5.060   6.367
 7410SOL    HW234262   4.258   5.024   6.255
 7411SOL     OW34263   9.202   7.570   6.401
 7411SOL    HW134264   9.200   7.632   6.479
 7411SOL    HW234265   9.169   7.618   6.319
 7412SOL     OW34266   2.665   2.594   1.234
 7412SOL    HW134267   2.578   2.571   1.190
 7412SOL    HW234268   2.668   2.551   1.325
 7413SOL     OW34269   4.183   1.656   1.886
 7413SOL    HW134270   4.262   1.595   1.894
 7413SOL    HW234271   4.099   1.603   1.892
 7414SOL     OW34272   4.820   8.494   0.011
 7414SOL    HW134273   4.906   8.537   0.037
 7414SOL    HW234274   4.758   8.562  -0.026
 7415SOL     OW34275   6.670   5.123   6.658
 7415SOL    HW134276   6.767   5.099   6.649
 7415SOL    HW234277   6.645   5.187   6.586
 7416SOL     OW34278   2.134   3.303   0.044
 7416SOL    HW134279   2.167   3.220   0.089
 7416SOL    HW234280   2.139   3.292  -0.055
 7417SOL     OW34281   7.946   1.812   0.033
 7417SOL    HW134282   8.004   1.733   0.050
 7417SOL    HW234283   7.938   1.867   0.116
 7418SOL     OW34284   1.554   7.681   0.048
 7418SOL    HW134285   1.557   7.581   0.043
 7418SOL    HW234286   1.485   7.715  -0.016
 7419SOL     OW34287   0.654   1.793   0.705
 7419SOL    HW134288   0.640   1.814   0.802
 7419SOL    HW234289   0.740   1.834   0.674
 7420SOL     OW34290   5.173   2.090   6.420
 7420SOL    HW134291   5.173   2.091   6.520
 7420SOL    HW234292   5.118   2.165   6.385
 7421SOL     OW34293   4.096   0.347   1.214
 7421SOL    HW134294   3.998   0.338   1.231
 7421SOL    HW234295   4.144   0.364   1.300
 7422SOL     OW34296   2.153   0.317   5.077
 7422SOL    HW134297   2.166   0.369   4.992
 7422SOL    HW234298   2.086   0.245   5.062
 7423SOL     OW34299   1.222   0.258   0.372
 7423SOL    HW134300   1.189   0.183   0.429
 7423SOL    HW234301   1.207   0.345   0.419
 7424SOL     OW34302   2.693   0.806   5.551
 7424SOL    HW134303   2.647   0.891   5.524
 7424SOL    HW234304   2.647   0.728   5.510
 7425SOL     OW34305   0.828   8.473   0.479
 7425SOL    HW134306   0.875   8.531   0.413
 7425SOL    HW234307   0.884   8.392   0.498
 7426SOL     OW34308   3.104   0.787   1.216
 7426SOL    HW134309   3.136   0.697   1.189
 7426SOL    HW234310   3.013   0.803   1.178
 7427SOL     OW34311   2.031   7.314   6.149
 7427SOL    HW134312   2.079   7.271   6.225
 7427SOL    HW234313   1.995   7.403   6.179
 7428SOL     OW34314   0.355   4.490   1.460
 7428SOL    HW134315   0.333   4.586   1.445
 7428SOL    HW234316   0.303   4.455   1.537
 7429SOL     OW34317   2.293   5.854   1.403
 7429SOL    HW134318   2.253   5.766   1.430
 7429SOL    HW234319   2.393   5.845   1.399
 7430SOL     OW34320   4.214   4.346   1.474
 7430SOL    HW134321   4.220   4.444   1.460
 7430SOL    HW234322   4.181   4.327   1.567
 7431SOL     OW34323   1.241   6.651   1.158
 7431SOL    HW134324   1.229   6.653   1.059
 7431SOL    HW234325   1.215   6.739   1.197
 7432SOL     OW34326   5.944   7.110   5.383
 7432SOL    HW134327   6.028   7.122   5.436
 7432SOL    HW234328   5.906   7.019   5.401
 7433SOL     OW34329   1.438   4.031   5.887
 7433SOL    HW134330   1.535   4.008   5.893
 7433SOL    HW234331   1.425   4.102   5.817
 7434SOL     OW34332   7.345   6.125   6.312
 7434SOL    HW134333   7.355   6.218   6.276
 7434SOL    HW234334   7.248   6.101   6.316
 7435SOL     OW34335   1.272   5.689   0.287
 7435SOL    HW134336   1.230   5.698   0.197
 7435SOL    HW234337   1.223   5.746   0.352
 7436SOL     OW34338   6.949   3.312   0.986
 7436SOL    HW134339   6.880   3.357   1.043
 7436SOL    HW234340   7.027   3.373   0.974
 7437SOL     OW34341   8.377   6.073   0.346
 7437SOL    HW134342   8.290   6.124   0.350
 7437SOL    HW234343   8.413   6.061   0.438
 7438SOL     OW34344   4.059   2.876   1.675
 7438SOL    HW134345   4.112   2.900   1.756
 7438SOL    HW234346   3.993   2.805   1.699
 7439SOL     OW34347   7.288   3.473   1.849
 7439SOL    HW134348   7.259   3.533   1.923
 7439SOL    HW234349   7.218   3.470   1.779
 7440SOL     OW34350   7.695   8.458   6.006
 7440SOL    HW134351   7.657   8.548   6.025
 7440SOL    HW234352   7.744   8.460   5.919
 7441SOL     OW34353   4.949   6.939   5.785
 7441SOL    HW134354   4.993   6.857   5.749
 7441SOL    HW234355   4.865   6.912   5.834
 7442SOL     OW34356   2.105   2.034   0.671
 7442SOL    HW134357   2.173   1.962   0.677
 7442SOL    HW234358   2.020   2.004   0.715
 7443SOL     OW34359   4.466   3.480   6.323
 7443SOL    HW134360   4.544   3.538   6.347
 7443SOL    HW234361   4.440   3.497   6.228
 7444SOL     OW34362   0.363   3.615   5.875
 7444SOL    HW134363   0.455   3.624   5.913
 7444SOL    HW234364   0.367   3.559   5.792
 7445SOL     OW34365   1.238   3.880   6.007
 7445SOL    HW134366   1.315   3.939   5.982
 7445SOL    HW234367   1.268   3.812   6.073
 7446SOL     OW34368   9.014   4.764   5.993
 7446SOL    HW134369   9.108   4.755   6.027
 7446SOL    HW234370   9.000   4.702   5.916
 7447SOL     OW34371   1.469   1.497   0.600
 7447SOL    HW134372   1.500   1.455   0.515
 7447SOL    HW234373   1.384   1.453   0.630
 7448SOL     OW34374   8.335   2.013   5.435
 7448SOL    HW134375   8.286   1.929   5.456
 7448SOL    HW234376   8.359   2.015   5.338
 7449SOL     OW34377   3.704   4.765   5.759
 7449SOL    HW134378   3.794   4.803   5.780
 7449SOL    HW234379   3.713   4.670   5.732
 7450SOL     OW34380   5.513   3.256   5.756
 7450SOL    HW134381   5.450   3.309   5.812
 7450SOL    HW234382   5.463   3.214   5.680
 7451SOL     OW34383   8.382   7.834   0.099
 7451SOL    HW134384   8.443   7.829   0.178
 7451SOL    HW234385   8.427   7.883   0.025
 7452SOL     OW34386   1.154   7.553   0.539
 7452SOL    HW134387   1.253   7.546   0.553
 7452SOL    HW234388   1.136   7.616   0.464
 7453SOL     OW34389   4.657   5.396   6.408
 7453SOL    HW134390   4.622   5.316   6.360
 7453SOL    HW234391   4.756   5.400   6.401
 7454SOL     OW34392   3.153   6.198   5.481
 7454SOL    HW134393   3.166   6.163   5.388
 7454SOL    HW234394   3.183   6.128   5.547
 7455SOL     OW34395   7.652   3.202   5.765
 7455SOL    HW134396   7.619   3.291   5.797
 7455SOL    HW234397   7.738   3.215   5.716
 7456SOL     OW34398   8.043   7.120   4.683
 7456SOL    HW134399   8.001   7.105   4.773
 7456SOL    HW234400   7.974   7.155   4.620
 7457SOL     OW34401   6.888   8.166   0.576
 7457SOL    HW134402   6.986   8.167   0.596
 7457SOL    HW234403   6.843   8.097   0.633
 7458SOL     OW34404   4.486   0.604   5.513
 7458SOL    HW134405   4.439   0.593   5.426
 7458SOL    HW234406   4.423   0.640   5.581
 7459SOL     OW34407   3.473   7.801   4.956
 7459SOL    HW134408   3.483   7.709   4.995
 7459SOL    HW234409   3.549   7.819   4.894
 7460SOL     OW34410   6.013   5.636   0.444
 7460SOL    HW134411   6.084   5.706   0.450
 7460SOL    HW234412   6.008   5.586   0.530
 7461SOL     OW34413   0.734   1.832   6.115
 7461SOL    HW134414   0.688   1.906   6.165
 7461SOL    HW234415   0.777   1.869   6.033
 7462SOL     OW34416   7.876   2.747   0.663
 7462SOL    HW134417   7.929   2.667   0.691
 7462SOL    HW234418   7.920   2.790   0.584
 7463SOL     OW34419   8.837   6.755   5.314
 7463SOL    HW134420   8.914   6.692   5.302
 7463SOL    HW234421   8.751   6.705   5.307
 7464SOL     OW34422   5.816   3.791   0.002
 7464SOL    HW134423   5.788   3.729   0.075
 7464SOL    HW234424   5.891   3.749  -0.049
 7465SOL     OW34425   5.164   1.400   4.820
 7465SOL    HW134426   5.161   1.480   4.760
 7465SOL    HW234427   5.076   1.352   4.816
 7466SOL     OW34428   1.274   5.412   0.192
 7466SOL    HW134429   1.257   5.504   0.157
 7466SOL    HW234430   1.241   5.406   0.286
 7467SOL     OW34431   5.823   3.304   0.361
 7467SOL    HW134432   5.812   3.319   0.263
 7467SOL    HW234433   5.753   3.240   0.393
 7468SOL     OW34434   3.467   7.939   0.723
 7468SOL    HW134435   3.535   7.917   0.793
 7468SOL    HW234436   3.387   7.980   0.765
 7469SOL     OW34437   0.396   3.238   0.725
 7469SOL    HW134438   0.397   3.330   0.764
 7469SOL    HW234439   0.361   3.174   0.792
 7470SOL     OW34440   6.251   4.702   0.040
 7470SOL    HW134441   6.294   4.780   0.086
 7470SOL    HW234442   6.243   4.720  -0.058
 7471SOL     OW34443   1.921   2.783   0.268
 7471SOL    HW134444   1.918   2.767   0.367
 7471SOL    HW234445   1.888   2.701   0.220
 7472SOL     OW34446   7.387   7.837   5.253
 7472SOL    HW134447   7.325   7.842   5.174
 7472SOL    HW234448   7.333   7.824   5.336
 7473SOL     OW34449   3.231   7.863   5.047
 7473SOL    HW134450   3.326   7.847   5.021
 7473SOL    HW234451   3.228   7.926   5.125
 7474SOL     OW34452   8.992   5.499   0.226
 7474SOL    HW134453   8.912   5.440   0.242
 7474SOL    HW234454   9.066   5.470   0.287
 7475SOL     OW34455   4.431   1.508   1.975
 7475SOL    HW134456   4.443   1.409   1.980
 7475SOL    HW234457   4.521   1.552   1.974
 7476SOL     OW34458   8.572   0.349   1.024
 7476SOL    HW134459   8.655   0.302   1.053
 7476SOL    HW234460   8.514   0.366   1.104
 7477SOL     OW34461   2.264   7.764   0.116
 7477SOL    HW134462   2.360   7.757   0.143
 7477SOL    HW234463   2.255   7.831   0.043
 7478SOL     OW34464   9.242   0.002   6.175
 7478SOL    HW134465   9.340  -0.016   6.172
 7478SOL    HW234466   9.224   0.079   6.236
 7479SOL     OW34467   8.811   5.977   4.469
 7479SOL    HW134468   8.767   6.011   4.386
 7479SOL    HW234469   8.793   6.040   4.544
 7480SOL     OW34470   9.343   6.370   1.332
 7480SOL    HW134471   9.254   6.336   1.299
 7480SOL    HW234472   9.414   6.302   1.314
 7481SOL     OW34473   1.660   5.313   6.579
 7481SOL    HW134474   1.620   5.312   6.670
 7481SOL    HW234475   1.631   5.395   6.530
 7482SOL     OW34476   9.190   3.578   1.782
 7482SOL    HW134477   9.183   3.545   1.876
 7482SOL    HW234478   9.113   3.544   1.729
 7483SOL     OW34479   7.725   7.657   0.837
 7483SOL    HW134480   7.815   7.656   0.793
 7483SOL    HW234481   7.678   7.742   0.813
 7484SOL     OW34482   9.080   4.851   5.679
 7484SOL    HW134483   9.147   4.868   5.752
 7484SOL    HW234484   9.116   4.781   5.617
 7485SOL     OW34485   2.432   1.992   0.580
 7485SOL    HW134486   2.424   1.921   0.651
 7485SOL    HW234487   2.497   1.962   0.510
 7486SOL     OW34488   1.926   2.446   1.432
 7486SOL    HW134489   1.938   2.535   1.475
 7486SOL    HW234490   1.875   2.386   1.494
 7487SOL     OW34491   3.655   2.942   6.608
 7487SOL    HW134492   3.745   2.986   6.613
 7487SOL    HW234493   3.589   2.995   6.661
 7488SOL     OW34494   5.832   3.999   5.726
 7488SOL    HW134495   5.857   3.902   5.724
 7488SOL    HW234496   5.752   4.013   5.668
 7489SOL     OW34497   6.225   4.824   0.775
 7489SOL    HW134498   6.212   4.832   0.676
 7489SOL    HW234499   6.300   4.884   0.803
 7490SOL     OW34500   5.392   1.176   5.388
 7490SOL    HW134501   5.408   1.167   5.487
 7490SOL    HW234502   5.297   1.154   5.368
 7491SOL     OW34503   2.454   7.816   0.497
 7491SOL    HW134504   2.490   7.834   0.589
 7491SOL    HW234505   2.415   7.724   0.494
 7492SOL     OW34506   5.634   3.154   6.013
 7492SOL    HW134507   5.600   3.174   5.921
 7492SOL    HW234508   5.594   3.219   6.078
 7493SOL     OW34509   3.222   5.507   0.668
 7493SOL    HW134510   3.313   5.465   0.661
 7493SOL    HW234511   3.208   5.542   0.761
 7494SOL     OW34512   8.923   5.764   6.706
 7494SOL    HW134513   8.846   5.810   6.663
 7494SOL    HW234514   8.890   5.703   6.778
 7495SOL     OW34515   2.984   8.469   0.299
 7495SOL    HW134516   3.078   8.487   0.325
 7495SOL    HW234517   2.969   8.495   0.204
 7496SOL     OW34518   2.436   2.524   2.256
 7496SOL    HW134519   2.497   2.593   2.218
 7496SOL    HW234520   2.341   2.553   2.242
 7497SOL     OW34521   2.299   1.078   0.546
 7497SOL    HW134522   2.349   1.164   0.553
 7497SOL    HW234523   2.212   1.086   0.595
 7498SOL     OW34524   5.722   7.853   6.670
 7498SOL    HW134525   5.743   7.870   6.766
 7498SOL    HW234526   5.808   7.848   6.618
 7499SOL     OW34527   9.449   5.419   0.555
 7499SOL    HW134528   9.417   5.333   0.516
 7499SOL    HW234529   9.422   5.424   0.651
 7500SOL     OW34530   7.168   5.317   6.439
 7500SOL    HW134531   7.138   5.377   6.365
 7500SOL    HW234532   7.092   5.301   6.502
 7501SOL     OW34533   4.215   5.624   1.378
 7501SOL    HW134534   4.132   5.573   1.356
 7501SOL    HW234535   4.285   5.562   1.413
 7502SOL     OW34536   3.780   0.191   0.637
 7502SOL    HW134537   3.772   0.260   0.709
 7502SOL    HW234538   3.835   0.228   0.562
 7503SOL     OW34539   5.249   3.712   5.975
 7503SOL    HW134540   5.343   3.677   5.980
 7503SOL    HW234541   5.196   3.655   5.912
 7504SOL     OW34542   4.582   5.537   0.981
 7504SOL    HW134543   4.604   5.619   0.927
 7504SOL    HW234544   4.587   5.456   0.922
 7505SOL     OW34545   6.967   8.005   0.079
 7505SOL    HW134546   6.967   7.933   0.009
 7505SOL    HW234547   6.912   8.082   0.047
 7506SOL     OW34548   7.043   2.186   1.186
 7506SOL    HW134549   7.085   2.207   1.098
 7506SOL    HW234550   7.028   2.271   1.237
 7507SOL     OW34551   2.146   1.034   6.667
 7507SOL    HW134552   2.050   1.018   6.688
 7507SOL    HW234553   2.179   1.112   6.720
 7508SOL     OW34554   3.115   2.210   1.726
 7508SOL    HW134555   3.054   2.285   1.749
 7508SOL    HW234556   3.200   2.246   1.688
 7509SOL     OW34557   4.949   5.533   6.715
 7509SOL    HW134558   4.932   5.575   6.804
 7509SOL    HW234559   4.990   5.443   6.727
 7510SOL     OW34560   1.925   4.477   1.123
 7510SOL    HW134561   1.874   4.436   1.048
 7510SOL    HW234562   1.879   4.559   1.155
 7511SOL     OW34563   3.374   4.449   6.507
 7511SOL    HW134564   3.362   4.545   6.532
 7511SOL    HW234565   3.293   4.397   6.534
 7512SOL     OW34566   4.018   4.165   1.032
 7512SOL    HW134567   3.980   4.183   1.123
 7512SOL    HW234568   4.065   4.246   0.998
 7513SOL     OW34569   4.002   4.187   1.335
 7513SOL    HW134570   3.967   4.185   1.429
 7513SOL    HW234571   4.081   4.248   1.331
 7514SOL     OW34572   4.915   7.747   1.420
 7514SOL    HW134573   4.991   7.737   1.485
 7514SOL    HW234574   4.949   7.732   1.327
 7515SOL     OW34575   8.162   1.874   1.141
 7515SOL    HW134576   8.221   1.847   1.217
 7515SOL    HW234577   8.094   1.940   1.173
 7516SOL     OW34578   7.546   5.028   5.983
 7516SOL    HW134579   7.525   4.954   6.047
 7516SOL    HW234580   7.636   5.065   6.004
 7517SOL     OW34581   0.378   6.116   0.906
 7517SOL    HW134582   0.382   6.030   0.856
 7517SOL    HW234583   0.378   6.098   1.004
 7518SOL     OW34584   1.760   4.788   6.684
 7518SOL    HW134585   1.834   4.767   6.619
 7518SOL    HW234586   1.738   4.885   6.680
 7519SOL     OW34587   3.296   0.369   5.463
 7519SOL    HW134588   3.331   0.462   5.463
 7519SOL    HW234589   3.226   0.360   5.534
 7520SOL     OW34590   2.587   8.379   0.287
 7520SOL    HW134591   2.580   8.447   0.360
 7520SOL    HW234592   2.586   8.287   0.327
 7521SOL     OW34593   3.673   7.569   4.807
 7521SOL    HW134594   3.654   7.475   4.777
 7521SOL    HW234595   3.757   7.570   4.860
 7522SOL     OW34596   1.192   4.340   5.876
 7522SOL    HW134597   1.225   4.322   5.784
 7522SOL    HW234598   1.095   4.314   5.882
 7523SOL     OW34599   5.144   7.874   1.525
 7523SOL    HW134600   5.205   7.953   1.525
 7523SOL    HW234601   5.188   7.798   1.574
 7524SOL     OW34602   1.404   5.015   0.562
 7524SOL    HW134603   1.350   4.939   0.525
 7524SOL    HW234604   1.373   5.101   0.520
 7525SOL     OW34605   1.143   6.078   0.866
 7525SOL    HW134606   1.219   6.112   0.811
 7525SOL    HW234607   1.178   6.026   0.944
 7526SOL     OW34608   7.343   6.834   6.437
 7526SOL    HW134609   7.362   6.845   6.340
 7526SOL    HW234610   7.423   6.795   6.482
 7527SOL     OW34611   4.380   5.940   6.444
 7527SOL    HW134612   4.428   5.952   6.357
 7527SOL    HW234613   4.447   5.926   6.517
 7528SOL     OW34614   9.100   5.593   5.713
 7528SOL    HW134615   9.032   5.521   5.731
 7528SOL    HW234616   9.171   5.589   5.784
 7529SOL     OW34617   1.143   7.634   0.266
 7529SOL    HW134618   1.163   7.605   0.172
 7529SOL    HW234619   1.083   7.566   0.309
 7530SOL     OW34620   8.595   2.903   5.186
 7530SOL    HW134621   8.666   2.859   5.131
 7530SOL    HW234622   8.561   2.984   5.137
 7531SOL     OW34623   8.355   8.034   5.141
 7531SOL    HW134624   8.353   8.112   5.078
 7531SOL    HW234625   8.385   7.952   5.093
 7532SOL     OW34626   7.844   3.867   6.441
 7532SOL    HW134627   7.791   3.935   6.491
 7532SOL    HW234628   7.807   3.776   6.457
 7533SOL     OW34629   2.665   1.485   1.031
 7533SOL    HW134630   2.583   1.533   1.059
 7533SOL    HW234631   2.743   1.516   1.085
 7534SOL     OW34632   3.225   7.612   0.317
 7534SOL    HW134633   3.164   7.538   0.347
 7534SOL    HW234634   3.299   7.623   0.384
 7535SOL     OW34635   6.801   5.748   5.643
 7535SOL    HW134636   6.833   5.814   5.711
 7535SOL    HW234637   6.702   5.736   5.653
 7536SOL     OW34638   4.214   0.454   1.428
 7536SOL    HW134639   4.235   0.366   1.469
 7536SOL    HW234640   4.280   0.522   1.458
 7537SOL     OW34641   3.408   2.922   2.101
 7537SOL    HW134642   3.421   2.828   2.133
 7537SOL    HW234643   3.348   2.971   2.164
 7538SOL     OW34644   5.116   6.294   6.184
 7538SOL    HW134645   5.189   6.247   6.234
 7538SOL    HW234646   5.029   6.283   6.233
 7539SOL     OW34647   0.687   5.326   0.520
 7539SOL    HW134648   0.621   5.278   0.579
 7539SOL    HW234649   0.747   5.260   0.475
 7540SOL     OW34650   3.902   7.392   0.738
 7540SOL    HW134651   3.914   7.408   0.641
 7540SOL    HW234652   3.941   7.303   0.762
 7541SOL     OW34653   5.045   1.772   0.481
 7541SOL    HW134654   5.063   1.857   0.531
 7541SOL    HW234655   5.123   1.710   0.492
 7542SOL     OW34656   1.719   0.723   0.359
 7542SOL    HW134657   1.771   0.770   0.429
 7542SOL    HW234658   1.749   0.753   0.268
 7543SOL     OW34659   5.092   8.380   1.775
 7543SOL    HW134660   5.187   8.389   1.804
 7543SOL    HW234661   5.033   8.377   1.855
 7544SOL     OW34662   9.304   0.127   0.310
 7544SOL    HW134663   9.272   0.201   0.251
 7544SOL    HW234664   9.332   0.049   0.254
 7545SOL     OW34665   4.794   2.153   0.096
 7545SOL    HW134666   4.863   2.084   0.074
 7545SOL    HW234667   4.820   2.200   0.180
 7546SOL     OW34668   3.720   1.999   2.491
 7546SOL    HW134669   3.728   1.900   2.482
 7546SOL    HW234670   3.632   2.022   2.534
 7547SOL     OW34671   5.025   2.307   6.606
 7547SOL    HW134672   4.948   2.305   6.543
 7547SOL    HW234673   4.993   2.288   6.699
 7548SOL     OW34674   8.480   6.719   6.076
 7548SOL    HW134675   8.526   6.650   6.133
 7548SOL    HW234676   8.448   6.676   5.992
 7549SOL     OW34677   5.032   7.225   1.228
 7549SOL    HW134678   4.958   7.157   1.220
 7549SOL    HW234679   5.118   7.184   1.200
 7550SOL     OW34680   8.163   2.428   1.174
 7550SOL    HW134681   8.074   2.396   1.205
 7550SOL    HW234682   8.154   2.467   1.082
 7551SOL     OW34683   0.299   2.642   5.715
 7551SOL    HW134684   0.293   2.723   5.773
 7551SOL    HW234685   0.207   2.612   5.690
 7552SOL     OW34686   7.631   5.854   0.562
 7552SOL    HW134687   7.601   5.881   0.654
 7552SOL    HW234688   7.724   5.887   0.546
 7553SOL     OW34689   3.438   2.035   1.632
 7553SOL    HW134690   3.499   2.027   1.553
 7553SOL    HW234691   3.391   1.949   1.647
 7554SOL     OW34692   3.819   6.904   1.622
 7554SOL    HW134693   3.860   6.891   1.532
 7554SOL    HW234694   3.878   6.962   1.678
 7555SOL     OW34695   7.494   4.824   6.178
 7555SOL    HW134696   7.565   4.778   6.232
 7555SOL    HW234697   7.410   4.832   6.232
 7556SOL     OW34698   5.342   2.271   0.499
 7556SOL    HW134699   5.289   2.352   0.525
 7556SOL    HW234700   5.329   2.200   0.568
 7557SOL     OW34701   4.937   8.375   1.548
 7557SOL    HW134702   5.011   8.335   1.494
 7557SOL    HW234703   4.969   8.394   1.641
 7558SOL     OW34704   9.358   5.780   0.810
 7558SOL    HW134705   9.337   5.797   0.907
 7558SOL    HW234706   9.449   5.814   0.789
 7559SOL     OW34707   0.554   6.874   4.723
 7559SOL    HW134708   0.497   6.833   4.794
 7559SOL    HW234709   0.523   6.842   4.633
 7560SOL     OW34710   7.405   5.308   6.603
 7560SOL    HW134711   7.484   5.272   6.553
 7560SOL    HW234712   7.335   5.339   6.539
 7561SOL     OW34713   2.114   5.780   5.998
 7561SOL    HW134714   2.206   5.746   6.015
 7561SOL    HW234715   2.081   5.828   6.079
 7562SOL     OW34716   9.364   6.146   6.645
 7562SOL    HW134717   9.324   6.235   6.668
 7562SOL    HW234718   9.391   6.145   6.549
 7563SOL     OW34719   1.527   4.652   6.119
 7563SOL    HW134720   1.480   4.564   6.118
 7563SOL    HW234721   1.601   4.650   6.186
 7564SOL     OW34722   1.036   5.856   0.723
 7564SOL    HW134723   1.088   5.919   0.780
 7564SOL    HW234724   1.049   5.762   0.756
 7565SOL     OW34725   8.096   3.962   0.278
 7565SOL    HW134726   8.145   3.880   0.309
 7565SOL    HW234727   8.150   4.008   0.207
 7566SOL     OW34728   0.046   7.971   0.282
 7566SOL    HW134729   0.096   7.908   0.341
 7566SOL    HW234730   0.067   7.950   0.186
 7567SOL     OW34731   7.019   6.881   5.983
 7567SOL    HW134732   7.051   6.895   5.890
 7567SOL    HW234733   6.949   6.948   6.005
 7568SOL     OW34734   7.426   2.094   6.676
 7568SOL    HW134735   7.335   2.056   6.667
 7568SOL    HW234736   7.493   2.031   6.637
 7569SOL     OW34737   1.881   0.400   1.883
 7569SOL    HW134738   1.818   0.333   1.922
 7569SOL    HW234739   1.830   0.467   1.830
 7570SOL     OW34740   1.013   5.181   1.224
 7570SOL    HW134741   1.034   5.279   1.226
 7570SOL    HW234742   1.097   5.129   1.235
 7571SOL     OW34743   3.420   4.731   5.809
 7571SOL    HW134744   3.507   4.729   5.760
 7571SOL    HW234745   3.364   4.654   5.780
 7572SOL     OW34746   5.441   4.854   0.560
 7572SOL    HW134747   5.409   4.895   0.476
 7572SOL    HW234748   5.443   4.923   0.633
 7573SOL     OW34749   6.947   5.596   5.410
 7573SOL    HW134750   6.902   5.661   5.472
 7573SOL    HW234751   6.991   5.523   5.464
 7574SOL     OW34752   3.190   4.466   6.278
 7574SOL    HW134753   3.234   4.497   6.193
 7574SOL    HW234754   3.252   4.481   6.355
 7575SOL     OW34755   1.629   2.728   5.449
 7575SOL    HW134756   1.621   2.708   5.351
 7575SOL    HW234757   1.596   2.820   5.467
 7576SOL     OW34758   3.266   0.315   5.910
 7576SOL    HW134759   3.305   0.388   5.966
 7576SOL    HW234760   3.275   0.228   5.959
 7577SOL     OW34761   0.790   0.759   5.382
 7577SOL    HW134762   0.770   0.768   5.480
 7577SOL    HW234763   0.877   0.806   5.363
 7578SOL     OW34764   6.516   4.407   0.727
 7578SOL    HW134765   6.422   4.441   0.732
 7578SOL    HW234766   6.524   4.342   0.652
 7579SOL     OW34767   2.835   5.177   5.493
 7579SOL    HW134768   2.821   5.258   5.435
 7579SOL    HW234769   2.844   5.096   5.435
 7580SOL     OW34770   1.383   8.203   0.369
 7580SOL    HW134771   1.336   8.275   0.420
 7580SOL    HW234772   1.428   8.141   0.433
 7581SOL     OW34773   1.788   8.398   5.883
 7581SOL    HW134774   1.731   8.463   5.934
 7581SOL    HW234775   1.879   8.437   5.869
 7582SOL     OW34776   6.091   2.591   5.388
 7582SOL    HW134777   6.136   2.598   5.477
 7582SOL    HW234778   6.149   2.635   5.318
 7583SOL     OW34779   0.837   1.941   0.580
 7583SOL    HW134780   0.823   2.027   0.531
 7583SOL    HW234781   0.932   1.912   0.569
 7584SOL     OW34782   3.154   0.496   1.561
 7584SOL    HW134783   3.229   0.452   1.612
 7584SOL    HW234784   3.091   0.425   1.529
 7585SOL     OW34785   2.759   0.288   0.308
 7585SOL    HW134786   2.666   0.284   0.272
 7585SOL    HW234787   2.756   0.292   0.408
 7586SOL     OW34788   6.131   7.533   1.246
 7586SOL    HW134789   6.159   7.537   1.150
 7586SOL    HW234790   6.075   7.613   1.268
 7587SOL     OW34791   0.432   3.079   5.989
 7587SOL    HW134792   0.370   3.138   6.043
 7587SOL    HW234793   0.497   3.034   6.050
 7588SOL     OW34794   9.008   4.822   0.434
 7588SOL    HW134795   8.954   4.884   0.376
 7588SOL    HW234796   9.080   4.780   0.379
 7589SOL     OW34797   2.036   2.752   6.255
 7589SOL    HW134798   2.021   2.734   6.158
 7589SOL    HW234799   1.958   2.717   6.308
 7590SOL     OW34800   0.834   4.492   5.946
 7590SOL    HW134801   0.860   4.572   5.891
 7590SOL    HW234802   0.916   4.455   5.991
 7591SOL     OW34803   4.020   4.287   6.026
 7591SOL    HW134804   4.040   4.215   5.960
 7591SOL    HW234805   4.086   4.361   6.016
 7592SOL     OW34806   3.420   2.299   1.700
 7592SOL    HW134807   3.417   2.202   1.679
 7592SOL    HW234808   3.488   2.316   1.772
 7593SOL     OW34809   9.120   1.885   5.750
 7593SOL    HW134810   9.103   1.952   5.822
 7593SOL    HW234811   9.210   1.844   5.764
 7594SOL     OW34812   5.534   0.276   0.005
 7594SOL    HW134813   5.460   0.341  -0.012
 7594SOL    HW234814   5.498   0.197   0.055
 7595SOL     OW34815   0.499   1.692   6.381
 7595SOL    HW134816   0.467   1.658   6.293
 7595SOL    HW234817   0.466   1.631   6.454
 7596SOL     OW34818   1.098   6.409   6.390
 7596SOL    HW134819   1.036   6.446   6.321
 7596SOL    HW234820   1.046   6.372   6.467
 7597SOL     OW34821   2.978   3.991   1.201
 7597SOL    HW134822   2.949   4.057   1.132
 7597SOL    HW234823   2.967   4.031   1.292
 7598SOL     OW34824   5.772   7.363   5.584
 7598SOL    HW134825   5.704   7.299   5.549
 7598SOL    HW234826   5.816   7.409   5.507
 7599SOL     OW34827   0.882   7.274   5.072
 7599SOL    HW134828   0.832   7.243   5.153
 7599SOL    HW234829   0.830   7.251   4.990
 7600SOL     OW34830   1.909   7.062   0.046
 7600SOL    HW134831   1.903   6.963   0.037
 7600SOL    HW234832   1.912   7.087   0.143
 7601SOL     OW34833   6.215   5.715   5.904
 7601SOL    HW134834   6.162   5.645   5.856
 7601SOL    HW234835   6.180   5.724   5.997
 7602SOL     OW34836   0.811   5.131   0.381
 7602SOL    HW134837   0.754   5.053   0.355
 7602SOL    HW234838   0.850   5.172   0.298
 7603SOL     OW34839   8.405   7.898   6.383
 7603SOL    HW134840   8.368   7.818   6.429
 7603SOL    HW234841   8.376   7.897   6.287
 7604SOL     OW34842   1.177   6.771   5.042
 7604SOL    HW134843   1.236   6.714   4.985
 7604SOL    HW234844   1.101   6.716   5.076
 7605SOL     OW34845   9.091   0.177   6.561
 7605SOL    HW134846   9.124   0.188   6.468
 7605SOL    HW234847   9.001   0.220   6.571
 7606SOL     OW34848   0.028   5.089   0.693
 7606SOL    HW134849   0.070   5.001   0.715
 7606SOL    HW234850  -0.072   5.079   0.695
 7607SOL     OW34851   8.150   8.345   6.137
 7607SOL    HW134852   8.057   8.371   6.162
 7607SOL    HW234853   8.160   8.245   6.144
 7608SOL     OW34854   4.776   4.570   0.428
 7608SOL    HW134855   4.678   4.572   0.409
 7608SOL    HW234856   4.817   4.658   0.404
 7609SOL     OW34857   5.311   5.700   1.252
 7609SOL    HW134858   5.213   5.704   1.271
 7609SOL    HW234859   5.333   5.762   1.176
 7610SOL     OW34860   0.980   8.276   0.851
 7610SOL    HW134861   1.050   8.345   0.833
 7610SOL    HW234862   1.019   8.185   0.836
 7611SOL     OW34863   6.381   2.109   5.595
 7611SOL    HW134864   6.291   2.138   5.563
 7611SOL    HW234865   6.445   2.110   5.519
 7612SOL     OW34866   2.200   2.896   6.403
 7612SOL    HW134867   2.131   2.831   6.371
 7612SOL    HW234868   2.224   2.959   6.328
 7613SOL     OW34869   5.213   1.885   6.660
 7613SOL    HW134870   5.235   1.965   6.716
 7613SOL    HW234871   5.290   1.865   6.600
 7614SOL     OW34872   3.677   6.020   5.702
 7614SOL    HW134873   3.765   6.012   5.657
 7614SOL    HW234874   3.609   6.056   5.638
 7615SOL     OW34875   8.352   3.337   6.187
 7615SOL    HW134876   8.302   3.417   6.153
 7615SOL    HW234877   8.287   3.270   6.223
 7616SOL     OW34878   1.360   1.125   0.224
 7616SOL    HW134879   1.273   1.170   0.206
 7616SOL    HW234880   1.355   1.030   0.193
 7617SOL     OW34881   4.132   4.447   1.189
 7617SOL    HW134882   4.037   4.471   1.167
 7617SOL    HW234883   4.139   4.429   1.288
 7618SOL     OW34884   9.278   4.734   6.022
 7618SOL    HW134885   9.320   4.775   5.941
 7618SOL    HW234886   9.343   4.671   6.065
 7619SOL     OW34887   1.560   0.110   6.367
 7619SOL    HW134888   1.551   0.012   6.349
 7619SOL    HW234889   1.642   0.126   6.421
 7620SOL     OW34890   1.770   2.275   1.205
 7620SOL    HW134891   1.705   2.341   1.168
 7620SOL    HW234892   1.828   2.321   1.273
 7621SOL     OW34893   3.218   7.775   1.266
 7621SOL    HW134894   3.243   7.725   1.183
 7621SOL    HW234895   3.193   7.869   1.241
 7622SOL     OW34896   0.245   1.430   5.607
 7622SOL    HW134897   0.228   1.334   5.585
 7622SOL    HW234898   0.178   1.488   5.561
 7623SOL     OW34899   1.077   5.086   1.709
 7623SOL    HW134900   1.088   4.996   1.750
 7623SOL    HW234901   1.146   5.099   1.638
 7624SOL     OW34902   3.713   7.441   5.504
 7624SOL    HW134903   3.786   7.509   5.503
 7624SOL    HW234904   3.736   7.370   5.571
 7625SOL     OW34905   6.017   2.254   6.624
 7625SOL    HW134906   6.113   2.250   6.653
 7625SOL    HW234907   5.959   2.273   6.703
 7626SOL     OW34908   3.694   2.944   1.891
 7626SOL    HW134909   3.717   2.924   1.986
 7626SOL    HW234910   3.607   2.995   1.888
 7627SOL     OW34911   5.834   6.189   6.194
 7627SOL    HW134912   5.894   6.112   6.174
 7627SOL    HW234913   5.740   6.165   6.171
 7628SOL     OW34914   4.076   5.038   6.239
 7628SOL    HW134915   4.097   5.117   6.183
 7628SOL    HW234916   3.977   5.024   6.242
 7629SOL     OW34917   4.269   3.780   0.934
 7629SOL    HW134918   4.357   3.745   0.966
 7629SOL    HW234919   4.267   3.879   0.944
 7630SOL     OW34920   0.206   5.126   1.223
 7630SOL    HW134921   0.213   5.185   1.304
 7630SOL    HW234922   0.292   5.077   1.209
 7631SOL     OW34923   0.825   7.113   5.990
 7631SOL    HW134924   0.881   7.040   5.953
 7631SOL    HW234925   0.811   7.183   5.920
 7632SOL     OW34926   5.927   0.320   5.947
 7632SOL    HW134927   5.952   0.413   5.974
 7632SOL    HW234928   5.872   0.324   5.863
 7633SOL     OW34929   0.935   0.497   0.440
 7633SOL    HW134930   0.972   0.554   0.367
 7633SOL    HW234931   0.845   0.531   0.467
 7634SOL     OW34932   4.995   4.330   1.142
 7634SOL    HW134933   5.086   4.328   1.182
 7634SOL    HW234934   4.971   4.424   1.119
 7635SOL     OW34935   1.762   8.147   6.039
 7635SOL    HW134936   1.787   8.233   5.996
 7635SOL    HW234937   1.740   8.163   6.136
 7636SOL     OW34938   4.695   5.877   5.150
 7636SOL    HW134939   4.639   5.941   5.098
 7636SOL    HW234940   4.689   5.786   5.108
 7637SOL     OW34941   5.954   1.043   5.830
 7637SOL    HW134942   5.979   1.013   5.738
 7637SOL    HW234943   5.872   0.993   5.860
 7638SOL     OW34944   0.706   5.879   4.580
 7638SOL    HW134945   0.611   5.869   4.609
 7638SOL    HW234946   0.718   5.969   4.538
 7639SOL     OW34947   0.323   7.432   0.829
 7639SOL    HW134948   0.287   7.525   0.825
 7639SOL    HW234949   0.260   7.375   0.883
 7640SOL     OW34950   3.777   8.347   0.348
 7640SOL    HW134951   3.724   8.311   0.424
 7640SOL    HW234952   3.842   8.278   0.316
 7641SOL     OW34953   8.859   0.673   0.545
 7641SOL    HW134954   8.896   0.690   0.636
 7641SOL    HW234955   8.807   0.753   0.515
 7642SOL     OW34956   4.049   6.463   5.033
 7642SOL    HW134957   4.111   6.427   4.963
 7642SOL    HW234958   3.960   6.483   4.991
 7643SOL     OW34959   0.498   1.108   4.967
 7643SOL    HW134960   0.462   1.100   4.874
 7643SOL    HW234961   0.573   1.174   4.969
 7644SOL     OW34962   5.131   3.879   0.245
 7644SOL    HW134963   5.076   3.842   0.171
 7644SOL    HW234964   5.071   3.911   0.318
 7645SOL     OW34965   6.579   6.021   6.226
 7645SOL    HW134966   6.492   6.067   6.209
 7645SOL    HW234967   6.573   5.926   6.194
 7646SOL     OW34968   8.551   8.499   0.525
 7646SOL    HW134969   8.514   8.540   0.608
 7646SOL    HW234970   8.527   8.402   0.523
 7647SOL     OW34971   6.209   5.570   5.160
 7647SOL    HW134972   6.184   5.581   5.064
 7647SOL    HW234973   6.140   5.516   5.207
 7648SOL     OW34974   0.909   3.067   5.185
 7648SOL    HW134975   0.832   3.097   5.127
 7648SOL    HW234976   0.991   3.057   5.129
 7649SOL     OW34977   1.019   7.276   4.576
 7649SOL    HW134978   1.091   7.311   4.516
 7649SOL    HW234979   1.031   7.178   4.589
 7650SOL     OW34980   7.923   4.897   6.711
 7650SOL    HW134981   7.857   4.939   6.649
 7650SOL    HW234982   7.953   4.964   6.779
 7651SOL     OW34983   2.684   1.555   1.512
 7651SOL    HW134984   2.636   1.482   1.465
 7651SOL    HW234985   2.643   1.572   1.602
 7652SOL     OW34986   6.536   7.582   6.464
 7652SOL    HW134987   6.529   7.486   6.493
 7652SOL    HW234988   6.468   7.636   6.514
 7653SOL     OW34989   3.391   5.200   5.859
 7653SOL    HW134990   3.308   5.147   5.839
 7653SOL    HW234991   3.468   5.160   5.810
 7654SOL     OW34992   5.461   2.634   0.090
 7654SOL    HW134993   5.412   2.718   0.115
 7654SOL    HW234994   5.558   2.655   0.077
 7655SOL     OW34995   5.525   7.424   0.389
 7655SOL    HW134996   5.518   7.399   0.485
 7655SOL    HW234997   5.439   7.403   0.342
 7656SOL     OW34998   4.026   2.149   6.490
 7656SOL    HW134999   4.066   2.223   6.544
 7656SOL    HW235000   4.097   2.083   6.467
 7657SOL     OW35001   5.497   4.673   0.874
 7657SOL    HW135002   5.476   4.628   0.787
 7657SOL    HW235003   5.546   4.609   0.933
 7658SOL     OW35004   1.018   6.208   0.579
 7658SOL    HW135005   1.046   6.177   0.670
 7658SOL    HW235006   1.097   6.247   0.532
 7659SOL     OW35007   5.720   0.542   1.429
 7659SOL    HW135008   5.805   0.545   1.481
 7659SOL    HW235009   5.720   0.463   1.369
 7660SOL     OW35010   8.390   2.310   5.214
 7660SOL    HW135011   8.486   2.334   5.198
 7660SOL    HW235012   8.373   2.218   5.179
 7661SOL     OW35013   1.895   4.141   6.477
 7661SOL    HW135014   1.821   4.170   6.537
 7661SOL    HW235015   1.947   4.068   6.522
 7662SOL     OW35016   4.013   7.037   1.764
 7662SOL    HW135017   3.945   7.109   1.781
 7662SOL    HW235018   4.069   7.024   1.846
 7663SOL     OW35019   1.183   8.094   6.649
 7663SOL    HW135020   1.131   8.010   6.633
 7663SOL    HW235021   1.244   8.081   6.728
 7664SOL     OW35022   1.519   8.186   5.771
 7664SOL    HW135023   1.533   8.095   5.732
 7664SOL    HW235024   1.550   8.255   5.705
 7665SOL     OW35025   1.231   5.199   6.103
 7665SOL    HW135026   1.194   5.233   6.017
 7665SOL    HW235027   1.196   5.107   6.120
 7666SOL     OW35028   2.913   2.367   6.331
 7666SOL    HW135029   2.892   2.290   6.391
 7666SOL    HW235030   2.893   2.341   6.236
 7667SOL     OW35031   6.708   7.444   0.308
 7667SOL    HW135032   6.634   7.496   0.351
 7667SOL    HW235033   6.672   7.394   0.229
 7668SOL     OW35034   4.495   0.935   0.933
 7668SOL    HW135035   4.534   0.846   0.910
 7668SOL    HW235036   4.410   0.923   0.983
 7669SOL     OW35037   2.847   0.600   1.032
 7669SOL    HW135038   2.815   0.572   1.122
 7669SOL    HW235039   2.769   0.624   0.974
 7670SOL     OW35040   6.742   7.620   5.714
 7670SOL    HW135041   6.751   7.707   5.763
 7670SOL    HW235042   6.706   7.551   5.777
 7671SOL     OW35043   4.409   7.237   0.523
 7671SOL    HW135044   4.325   7.184   0.537
 7671SOL    HW235045   4.392   7.310   0.457
 7672SOL     OW35046   4.349   6.491   1.138
 7672SOL    HW135047   4.425   6.440   1.098
 7672SOL    HW235048   4.292   6.430   1.193
 7673SOL     OW35049   6.575   3.347   6.378
 7673SOL    HW135050   6.635   3.302   6.445
 7673SOL    HW235051   6.585   3.303   6.289
 7674SOL     OW35052   1.842   0.301   6.511
 7674SOL    HW135053   1.828   0.223   6.572
 7674SOL    HW235054   1.780   0.294   6.433
 7675SOL     OW35055   5.822   2.791   6.567
 7675SOL    HW135056   5.736   2.836   6.543
 7675SOL    HW235057   5.856   2.828   6.653
 7676SOL     OW35058   8.719   0.463   5.813
 7676SOL    HW135059   8.779   0.499   5.884
 7676SOL    HW235060   8.704   0.365   5.828
 7677SOL     OW35061   9.224   6.091   5.253
 7677SOL    HW135062   9.257   6.184   5.243
 7677SOL    HW235063   9.169   6.066   5.174
 7678SOL     OW35064   4.394   3.054   6.043
 7678SOL    HW135065   4.402   3.154   6.038
 7678SOL    HW235066   4.468   3.018   6.099
 7679SOL     OW35067   6.406   3.013   5.804
 7679SOL    HW135068   6.325   3.013   5.745
 7679SOL    HW235069   6.481   2.964   5.760
 7680SOL     OW35070   3.933   5.520   6.616
 7680SOL    HW135071   3.893   5.498   6.527
 7680SOL    HW235072   4.032   5.531   6.605
 7681SOL     OW35073   4.717   1.170   0.713
 7681SOL    HW135074   4.619   1.164   0.693
 7681SOL    HW235075   4.732   1.160   0.811
 7682SOL     OW35076   5.859   0.661   6.365
 7682SOL    HW135077   5.949   0.619   6.377
 7682SOL    HW235078   5.861   0.723   6.286
 7683SOL     OW35079   1.508   6.134   5.043
 7683SOL    HW135080   1.560   6.068   4.989
 7683SOL    HW235081   1.469   6.088   5.123
 7684SOL     OW35082   6.650   7.625   0.625
 7684SOL    HW135083   6.710   7.552   0.593
 7684SOL    HW235084   6.656   7.703   0.563
 7685SOL     OW35085   4.626   4.334   0.983
 7685SOL    HW135086   4.599   4.252   0.932
 7685SOL    HW235087   4.720   4.359   0.958
 7686SOL     OW35088   1.288   2.911   6.404
 7686SOL    HW135089   1.237   2.968   6.469
 7686SOL    HW235090   1.238   2.905   6.318
 7687SOL     OW35091   7.654   7.880   1.026
 7687SOL    HW135092   7.604   7.940   0.964
 7687SOL    HW235093   7.606   7.792   1.033
 7688SOL     OW35094   7.281   0.617   5.660
 7688SOL    HW135095   7.305   0.579   5.750
 7688SOL    HW235096   7.348   0.688   5.635
 7689SOL     OW35097   0.113   4.547   5.938
 7689SOL    HW135098   0.056   4.570   6.017
 7689SOL    HW235099   0.133   4.631   5.887
 7690SOL     OW35100   1.933   0.394   6.170
 7690SOL    HW135101   1.911   0.435   6.082
 7690SOL    HW235102   1.852   0.346   6.205
 7691SOL     OW35103   3.538   5.459   0.636
 7691SOL    HW135104   3.572   5.525   0.703
 7691SOL    HW235105   3.582   5.475   0.548
 7692SOL     OW35106   7.056   3.673   6.101
 7692SOL    HW135107   7.109   3.735   6.043
 7692SOL    HW235108   6.970   3.650   6.056
 7693SOL     OW35109   7.063   0.708   0.472
 7693SOL    HW135110   7.045   0.683   0.376
 7693SOL    HW235111   7.082   0.806   0.477
 7694SOL     OW35112   0.856   2.916   1.090
 7694SOL    HW135113   0.782   2.972   1.128
 7694SOL    HW235114   0.898   2.965   1.013
 7695SOL     OW35115   4.443   5.820   0.437
 7695SOL    HW135116   4.383   5.794   0.513
 7695SOL    HW235117   4.425   5.760   0.359
 7696SOL     OW35118   6.702   7.892   5.758
 7696SOL    HW135119   6.714   7.929   5.667
 7696SOL    HW235120   6.632   7.944   5.807
 7697SOL     OW35121   5.074   6.724   5.681
 7697SOL    HW135122   5.106   6.673   5.761
 7697SOL    HW235123   5.037   6.661   5.613
 7698SOL     OW35124   6.753   2.093   1.982
 7698SOL    HW135125   6.823   2.029   1.948
 7698SOL    HW235126   6.666   2.074   1.938
 7699SOL     OW35127   2.805   1.187   6.561
 7699SOL    HW135128   2.766   1.201   6.470
 7699SOL    HW235129   2.733   1.158   6.624
 7700SOL     OW35130   6.325   8.435   5.921
 7700SOL    HW135131   6.296   8.360   5.980
 7700SOL    HW235132   6.424   8.433   5.909
 7701SOL     OW35133   1.795   1.357   6.052
 7701SOL    HW135134   1.880   1.410   6.048
 7701SOL    HW235135   1.810   1.268   6.010
 7702SOL     OW35136   2.213   5.767   0.631
 7702SOL    HW135137   2.120   5.752   0.664
 7702SOL    HW235138   2.278   5.731   0.698
 7703SOL     OW35139   5.445   2.505   6.575
 7703SOL    HW135140   5.542   2.513   6.551
 7703SOL    HW235141   5.431   2.536   6.669
 7704SOL     OW35142   0.313   6.314   6.377
 7704SOL    HW135143   0.217   6.283   6.374
 7704SOL    HW235144   0.329   6.363   6.462
 7705SOL     OW35145   8.824   8.233   0.033
 7705SOL    HW135146   8.838   8.150  -0.021
 7705SOL    HW235147   8.909   8.257   0.079
 7706SOL     OW35148   5.411   7.214   0.871
 7706SOL    HW135149   5.504   7.230   0.838
 7706SOL    HW235150   5.395   7.268   0.954
 7707SOL     OW35151   0.835   1.431   5.408
 7707SOL    HW135152   0.750   1.483   5.408
 7707SOL    HW235153   0.839   1.373   5.328
 7708SOL     OW35154   2.883   2.164   0.099
 7708SOL    HW135155   2.793   2.130   0.071
 7708SOL    HW235156   2.949   2.088   0.097
 7709SOL     OW35157   0.607   3.609   5.954
 7709SOL    HW135158   0.668   3.667   6.008
 7709SOL    HW235159   0.599   3.519   5.997
 7710SOL     OW35160   4.689   5.197   5.839
 7710SOL    HW135161   4.751   5.232   5.769
 7710SOL    HW235162   4.740   5.148   5.909
 7711SOL     OW35163   4.095   1.986   1.603
 7711SOL    HW135164   4.049   2.075   1.604
 7711SOL    HW235165   4.191   1.997   1.628
 7712SOL     OW35166   0.377   4.112   6.062
 7712SOL    HW135167   0.386   4.021   6.020
 7712SOL    HW235168   0.380   4.103   6.162
 7713SOL     OW35169   3.645   5.217   0.174
 7713SOL    HW135170   3.565   5.231   0.116
 7713SOL    HW235171   3.723   5.265   0.134
 7714SOL     OW35172   4.265   2.080   5.496
 7714SOL    HW135173   4.181   2.027   5.500
 7714SOL    HW235174   4.274   2.135   5.579
 7715SOL     OW35175   4.849   5.848   5.401
 7715SOL    HW135176   4.938   5.828   5.360
 7715SOL    HW235177   4.784   5.872   5.329
 7716SOL     OW35178   4.442   7.703   6.438
 7716SOL    HW135179   4.535   7.734   6.460
 7716SOL    HW235180   4.389   7.778   6.400
 7717SOL     OW35181   5.773   3.642   0.246
 7717SOL    HW135182   5.872   3.647   0.260
 7717SOL    HW235183   5.741   3.551   0.274
 7718SOL     OW35184   3.654   2.315   0.146
 7718SOL    HW135185   3.637   2.331   0.244
 7718SOL    HW235186   3.582   2.257   0.109
 7719SOL     OW35187   8.485   3.895   0.220
 7719SOL    HW135188   8.567   3.878   0.165
 7719SOL    HW235189   8.412   3.833   0.189
 7720SOL     OW35190   2.113   4.155   6.080
 7720SOL    HW135191   2.082   4.091   6.009
 7720SOL    HW235192   2.036   4.177   6.140
 7721SOL     OW35193   1.514   5.579   0.297
 7721SOL    HW135194   1.526   5.539   0.388
 7721SOL    HW235195   1.422   5.616   0.288
 7722SOL     OW35196   6.784   8.014   1.009
 7722SOL    HW135197   6.685   8.013   1.023
 7722SOL    HW235198   6.830   7.971   1.087
 7723SOL     OW35199   8.177   0.807   5.780
 7723SOL    HW135200   8.205   0.867   5.706
 7723SOL    HW235201   8.078   0.803   5.785
 7724SOL     OW35202   5.368   5.797   0.449
 7724SOL    HW135203   5.445   5.750   0.493
 7724SOL    HW235204   5.392   5.893   0.434
 7725SOL     OW35205   1.611   6.069   0.838
 7725SOL    HW135206   1.673   6.015   0.781
 7725SOL    HW235207   1.639   6.062   0.934
 7726SOL     OW35208   4.259   1.840   0.182
 7726SOL    HW135209   4.224   1.861   0.273
 7726SOL    HW235210   4.270   1.925   0.130
 7727SOL     OW35211   9.254   0.726   6.571
 7727SOL    HW135212   9.331   0.767   6.621
 7727SOL    HW235213   9.183   0.795   6.559
 7728SOL     OW35214   4.308   3.026   5.800
 7728SOL    HW135215   4.286   3.121   5.779
 7728SOL    HW235216   4.360   3.022   5.885
 7729SOL     OW35217   8.955   0.754   5.833
 7729SOL    HW135218   9.013   0.827   5.870
 7729SOL    HW235219   8.869   0.793   5.802
 7730SOL     OW35220   6.801   7.352   5.630
 7730SOL    HW135221   6.840   7.396   5.549
 7730SOL    HW235222   6.851   7.383   5.711
 7731SOL     OW35223   9.415   4.941   6.436
 7731SOL    HW135224   9.382   5.026   6.395
 7731SOL    HW235225   9.401   4.944   6.535
 7732SOL     OW35226   1.402   0.952   6.211
 7732SOL    HW135227   1.386   0.876   6.275
 7732SOL    HW235228   1.459   1.021   6.255
 7733SOL     OW35229   5.979   3.517   0.383
 7733SOL    HW135230   5.933   3.428   0.384
 7733SOL    HW235231   5.981   3.554   0.476
 7734SOL     OW35232   1.181   8.480   0.809
 7734SOL    HW135233   1.172   8.550   0.880
 7734SOL    HW235234   1.264   8.426   0.825
 7735SOL     OW35235   9.145   3.178   5.809
 7735SOL    HW135236   9.222   3.198   5.749
 7735SOL    HW235237   9.066   3.233   5.781
 7736SOL     OW35238   5.502   3.755   1.153
 7736SOL    HW135239   5.410   3.784   1.125
 7736SOL    HW235240   5.544   3.827   1.207
 7737SOL     OW35241   9.471   7.366   5.718
 7737SOL    HW135242   9.482   7.354   5.817
 7737SOL    HW235243   9.504   7.457   5.692
 7738SOL     OW35244   6.033   5.066   5.231
 7738SOL    HW135245   5.965   5.082   5.159
 7738SOL    HW235246   6.101   5.140   5.229
 7739SOL     OW35247   2.898   5.062   6.050
 7739SOL    HW135248   2.805   5.047   6.084
 7739SOL    HW235249   2.946   5.126   6.109
 7740SOL     OW35250   5.595   5.741   0.738
 7740SOL    HW135251   5.563   5.830   0.770
 7740SOL    HW235252   5.609   5.681   0.816
 7741SOL     OW35253   4.399   0.863   5.964
 7741SOL    HW135254   4.319   0.815   6.000
 7741SOL    HW235255   4.479   0.840   6.019
 7742SOL     OW35256   7.544   1.393   0.334
 7742SOL    HW135257   7.632   1.394   0.286
 7742SOL    HW235258   7.489   1.471   0.303
 7743SOL     OW35259   0.130   8.483   0.437
 7743SOL    HW135260   0.158   8.387   0.438
 7743SOL    HW235261   0.033   8.489   0.414
 7744SOL     OW35262   6.004   6.105   0.880
 7744SOL    HW135263   6.100   6.088   0.901
 7744SOL    HW235264   5.948   6.083   0.960
 7745SOL     OW35265   1.169   1.175   6.658
 7745SOL    HW135266   1.103   1.106   6.629
 7745SOL    HW235267   1.128   1.233   6.729
 7746SOL     OW35268   7.818   6.181   5.993
 7746SOL    HW135269   7.779   6.145   5.908
 7746SOL    HW235270   7.774   6.137   6.071
 7747SOL     OW35271   7.769   7.933   0.640
 7747SOL    HW135272   7.802   8.001   0.575
 7747SOL    HW235273   7.670   7.920   0.627
 7748SOL     OW35274   0.840   0.703   1.476
 7748SOL    HW135275   0.875   0.726   1.567
 7748SOL    HW235276   0.753   0.751   1.461
 7749SOL     OW35277   5.126   8.298   0.355
 7749SOL    HW135278   5.095   8.204   0.340
 7749SOL    HW235279   5.226   8.299   0.360
 7750SOL     OW35280   0.126   2.211   5.652
 7750SOL    HW135281   0.097   2.245   5.741
 7750SOL    HW235282   0.111   2.112   5.647
 7751SOL     OW35283   0.242   0.331   4.596
 7751SOL    HW135284   0.305   0.385   4.651
 7751SOL    HW235285   0.188   0.392   4.538
 7752SOL     OW35286   1.236   0.019   6.117
 7752SOL    HW135287   1.276  -0.003   6.028
 7752SOL    HW235288   1.277  -0.040   6.188
 7753SOL     OW35289   6.205   5.547   1.143
 7753SOL    HW135290   6.267   5.476   1.177
 7753SOL    HW235291   6.166   5.519   1.056
 7754SOL     OW35292   2.158   0.723   0.318
 7754SOL    HW135293   2.206   0.811   0.312
 7754SOL    HW235294   2.211   0.660   0.375
 7755SOL     OW35295   2.609   6.056   0.501
 7755SOL    HW135296   2.651   5.998   0.571
 7755SOL    HW235297   2.605   6.005   0.415
 7756SOL     OW35298   8.850   0.494   0.192
 7756SOL    HW135299   8.797   0.502   0.107
 7756SOL    HW235300   8.942   0.530   0.176
 7757SOL     OW35301   0.050   2.844   5.893
 7757SOL    HW135302   0.056   2.883   5.801
 7757SOL    HW235303  -0.046   2.829   5.916
 7758SOL     OW35304   8.634   5.701   5.814
 7758SOL    HW135305   8.730   5.714   5.788
 7758SOL    HW235306   8.619   5.742   5.904
 7759SOL     OW35307   8.306   8.132   0.459
 7759SOL    HW135308   8.221   8.180   0.435
 7759SOL    HW235309   8.370   8.137   0.382
 7760SOL     OW35310   6.518   0.899   1.091
 7760SOL    HW135311   6.595   0.893   1.154
 7760SOL    HW235312   6.477   0.808   1.080
 7761SOL     OW35313   1.808   4.217   0.335
 7761SOL    HW135314   1.851   4.299   0.299
 7761SOL    HW235315   1.721   4.240   0.379
 7762SOL     OW35316   0.632   8.450   0.091
 7762SOL    HW135317   0.545   8.476   0.047
 7762SOL    HW235318   0.625   8.466   0.189
 7763SOL     OW35319   6.988   5.183   1.324
 7763SOL    HW135320   6.934   5.138   1.395
 7763SOL    HW235321   7.009   5.118   1.251
 7764SOL     OW35322   1.966   1.245   1.462
 7764SOL    HW135323   2.047   1.187   1.449
 7764SOL    HW235324   1.981   1.304   1.542
 7765SOL     OW35325   3.306   8.456   1.209
 7765SOL    HW135326   3.333   8.379   1.265
 7765SOL    HW235327   3.384   8.487   1.154
 7766SOL     OW35328   3.802   4.761   6.717
 7766SOL    HW135329   3.744   4.842   6.710
 7766SOL    HW235330   3.763   4.688   6.660
 7767SOL     OW35331   0.275   7.248   4.196
 7767SOL    HW135332   0.310   7.207   4.280
 7767SOL    HW235333   0.276   7.181   4.123
 7768SOL     OW35334   8.758   5.833   6.312
 7768SOL    HW135335   8.727   5.928   6.324
 7768SOL    HW235336   8.800   5.823   6.222
 7769SOL     OW35337   9.466   7.801   5.811
 7769SOL    HW135338   9.459   7.889   5.765
 7769SOL    HW235339   9.513   7.736   5.751
 7770SOL     OW35340   5.419   6.181   0.204
 7770SOL    HW135341   5.478   6.129   0.142
 7770SOL    HW235342   5.403   6.273   0.166
 7771SOL     OW35343   4.072   2.914   5.837
 7771SOL    HW135344   4.002   2.971   5.794
 7771SOL    HW235345   4.163   2.950   5.814
 7772SOL     OW35346   4.886   5.349   5.287
 7772SOL    HW135347   4.886   5.262   5.237
 7772SOL    HW235348   4.800   5.358   5.337
 7773SOL     OW35349   1.381   5.665   1.249
 7773SOL    HW135350   1.462   5.724   1.244
 7773SOL    HW235351   1.394   5.597   1.320
 7774SOL     OW35352   6.245   0.061   6.313
 7774SOL    HW135353   6.340   0.051   6.281
 7774SOL    HW235354   6.183   0.053   6.236
 7775SOL     OW35355   4.067   4.779   6.154
 7775SOL    HW135356   4.085   4.751   6.060
 7775SOL    HW235357   4.098   4.872   6.168
 7776SOL     OW35358   2.803   6.331   0.648
 7776SOL    HW135359   2.837   6.270   0.720
 7776SOL    HW235360   2.751   6.278   0.581
 7777SOL     OW35361   7.384   6.379   1.370
 7777SOL    HW135362   7.343   6.458   1.416
 7777SOL    HW235363   7.482   6.377   1.387
 7778SOL     OW35364   0.350   4.647   6.191
 7778SOL    HW135365   0.409   4.570   6.217
 7778SOL    HW235366   0.255   4.625   6.214
 7779SOL     OW35367   7.652   1.008   5.489
 7779SOL    HW135368   7.571   1.028   5.434
 7779SOL    HW235369   7.732   1.053   5.448
 7780SOL     OW35370   8.238   5.129   5.584
 7780SOL    HW135371   8.214   5.037   5.555
 7780SOL    HW235372   8.156   5.178   5.613
 7781SOL     OW35373   0.097   5.575   5.830
 7781SOL    HW135374   0.143   5.656   5.867
 7781SOL    HW235375   0.156   5.532   5.762
 7782SOL     OW35376   0.856   6.705   1.051
 7782SOL    HW135377   0.847   6.735   1.146
 7782SOL    HW235378   0.787   6.752   0.995
 7783SOL     OW35379   9.203   4.155   1.262
 7783SOL    HW135380   9.249   4.196   1.341
 7783SOL    HW235381   9.146   4.224   1.217
 7784SOL     OW35382   5.968   4.453   6.537
 7784SOL    HW135383   5.874   4.486   6.532
 7784SOL    HW235384   6.005   4.444   6.444
 7785SOL     OW35385   3.568   8.348   6.533
 7785SOL    HW135386   3.646   8.390   6.580
 7785SOL    HW235387   3.510   8.420   6.494
 7786SOL     OW35388   5.141   3.975   0.944
 7786SOL    HW135389   5.062   4.019   0.987
 7786SOL    HW235390   5.216   4.041   0.936
 7787SOL     OW35391   1.047   3.146   0.747
 7787SOL    HW135392   1.003   3.199   0.819
 7787SOL    HW235393   1.024   3.184   0.657
 7788SOL     OW35394   4.343   6.902   0.617
 7788SOL    HW135395   4.287   6.973   0.660
 7788SOL    HW235396   4.286   6.823   0.594
 7789SOL     OW35397   2.452   3.000   0.745
 7789SOL    HW135398   2.467   3.010   0.647
 7789SOL    HW235399   2.470   3.088   0.790
 7790SOL     OW35400   6.724   7.305   0.669
 7790SOL    HW135401   6.823   7.301   0.653
 7790SOL    HW235402   6.704   7.260   0.756
 7791SOL     OW35403   5.335   6.744   5.594
 7791SOL    HW135404   5.393   6.663   5.599
 7791SOL    HW235405   5.262   6.737   5.662
 7792SOL     OW35406   9.413   1.765   5.805
 7792SOL    HW135407   9.413   1.687   5.742
 7792SOL    HW235408   9.455   1.738   5.892
 7793SOL     OW35409   1.831   4.466   0.660
 7793SOL    HW135410   1.751   4.419   0.623
 7793SOL    HW235411   1.893   4.400   0.700
 7794SOL     OW35412   8.772   0.860   6.200
 7794SOL    HW135413   8.710   0.826   6.129
 7794SOL    HW235414   8.761   0.806   6.283
 7795SOL     OW35415   1.001   0.739   1.257
 7795SOL    HW135416   0.939   0.714   1.331
 7795SOL    HW235417   1.095   0.719   1.284
 7796SOL     OW35418   5.480   7.669   1.434
 7796SOL    HW135419   5.561   7.715   1.470
 7796SOL    HW235420   5.411   7.663   1.506
 7797SOL     OW35421   6.309   4.442   1.080
 7797SOL    HW135422   6.265   4.528   1.054
 7797SOL    HW235423   6.317   4.438   1.179
 7798SOL     OW35424   1.709   3.303   6.297
 7798SOL    HW135425   1.777   3.308   6.371
 7798SOL    HW235426   1.627   3.354   6.323
 7799SOL     OW35427   0.778   8.091   5.388
 7799SOL    HW135428   0.800   8.166   5.450
 7799SOL    HW235429   0.723   8.023   5.436
 7800SOL     OW35430   1.374   8.480   5.870
 7800SOL    HW135431   1.292   8.519   5.829
 7800SOL    HW235432   1.453   8.536   5.844
 7801SOL     OW35433   9.344   7.918   0.652
 7801SOL    HW135434   9.257   7.881   0.619
 7801SOL    HW235435   9.400   7.844   0.689
 7802SOL     OW35436   3.446   0.999   2.191
 7802SOL    HW135437   3.479   0.996   2.285
 7802SOL    HW235438   3.406   0.911   2.166
 7803SOL     OW35439   5.019   5.360   5.713
 7803SOL    HW135440   4.972   5.428   5.657
 7803SOL    HW235441   5.019   5.272   5.665
 7804SOL     OW35442   3.030   4.810   6.279
 7804SOL    HW135443   3.120   4.771   6.262
 7804SOL    HW235444   3.040   4.902   6.316
 7805SOL     OW35445   2.459   3.264   6.097
 7805SOL    HW135446   2.549   3.280   6.138
 7805SOL    HW235447   2.471   3.230   6.003
 7806SOL     OW35448   0.303   4.909   6.395
 7806SOL    HW135449   0.308   4.906   6.495
 7806SOL    HW235450   0.394   4.932   6.358
 7807SOL     OW35451   5.058   6.106   6.502
 7807SOL    HW135452   5.006   6.154   6.431
 7807SOL    HW235453   5.079   6.169   6.576
 7808SOL     OW35454   2.140   1.363   6.111
 7808SOL    HW135455   2.097   1.283   6.152
 7808SOL    HW235456   2.190   1.335   6.028
 7809SOL     OW35457   2.521   7.803   5.829
 7809SOL    HW135458   2.466   7.720   5.838
 7809SOL    HW235459   2.602   7.796   5.887
 7810SOL     OW35460   6.015   5.526   5.844
 7810SOL    HW135461   6.094   5.465   5.850
 7810SOL    HW235462   5.951   5.506   5.919
 7811SOL     OW35463   8.296   6.726   0.930
 7811SOL    HW135464   8.396   6.735   0.922
 7811SOL    HW235465   8.274   6.645   0.983
 7812SOL     OW35466   1.256   1.664   6.253
 7812SOL    HW135467   1.197   1.690   6.177
 7812SOL    HW235468   1.214   1.587   6.302
 7813SOL     OW35469   2.104   6.311   6.139
 7813SOL    HW135470   2.186   6.351   6.098
 7813SOL    HW235471   2.022   6.352   6.097
 7814SOL     OW35472   2.445   8.004   0.269
 7814SOL    HW135473   2.431   7.939   0.343
 7814SOL    HW235474   2.507   7.966   0.201
 7815SOL     OW35475   0.445   6.555   4.051
 7815SOL    HW135476   0.542   6.532   4.052
 7815SOL    HW235477   0.428   6.630   4.115
 7816SOL     OW35478   5.341   2.993   0.548
 7816SOL    HW135479   5.266   3.012   0.485
 7816SOL    HW235480   5.344   3.062   0.620
 7817SOL     OW35481   2.278   7.367   6.606
 7817SOL    HW135482   2.359   7.366   6.665
 7817SOL    HW235483   2.236   7.457   6.607
 7818SOL     OW35484   1.292   5.635   5.006
 7818SOL    HW135485   1.375   5.597   4.964
 7818SOL    HW235486   1.236   5.679   4.936
 7819SOL     OW35487   9.430   4.002   1.581
 7819SOL    HW135488   9.367   4.065   1.535
 7819SOL    HW235489   9.457   4.041   1.669
 7820SOL     OW35490   8.880   5.799   6.075
 7820SOL    HW135491   8.854   5.843   5.990
 7820SOL    HW235492   8.905   5.704   6.057
 7821SOL     OW35493   2.170   7.651   6.580
 7821SOL    HW135494   2.227   7.721   6.622
 7821SOL    HW235495   2.166   7.665   6.481
 7822SOL     OW35496   0.108   2.230   6.455
 7822SOL    HW135497   0.086   2.154   6.517
 7822SOL    HW235498   0.195   2.211   6.409
 7823SOL     OW35499   1.838   0.343   5.200
 7823SOL    HW135500   1.910   0.334   5.131
 7823SOL    HW235501   1.847   0.432   5.245
 7824SOL     OW35502   6.970   5.265   4.900
 7824SOL    HW135503   6.924   5.250   4.812
 7824SOL    HW235504   7.069   5.271   4.885
 7825SOL     OW35505   5.311   7.351   0.117
 7825SOL    HW135506   5.361   7.390   0.041
 7825SOL    HW235507   5.222   7.396   0.126
 7826SOL     OW35508   0.418   3.179   0.130
 7826SOL    HW135509   0.346   3.113   0.154
 7826SOL    HW235510   0.403   3.264   0.180
 7827SOL     OW35511   8.863   4.985   5.782
 7827SOL    HW135512   8.849   4.970   5.880
 7827SOL    HW235513   8.939   4.929   5.750
 7828SOL     OW35514   4.389   8.434   0.648
 7828SOL    HW135515   4.485   8.425   0.621
 7828SOL    HW235516   4.378   8.403   0.743
 7829SOL     OW35517   1.848   2.164   5.838
 7829SOL    HW135518   1.864   2.120   5.926
 7829SOL    HW235519   1.752   2.191   5.831
 7830SOL     OW35520   2.119   0.741   6.660
 7830SOL    HW135521   2.145   0.834   6.682
 7830SOL    HW235522   2.030   0.741   6.614
 7831SOL     OW35523   7.796   3.051   0.773
 7831SOL    HW135524   7.874   3.074   0.830
 7831SOL    HW235525   7.768   2.956   0.792
 7832SOL     OW35526   1.113   5.320   5.473
 7832SOL    HW135527   1.198   5.342   5.425
 7832SOL    HW235528   1.095   5.390   5.542
 7833SOL     OW35529   0.563   1.115   0.906
 7833SOL    HW135530   0.534   1.039   0.848
 7833SOL    HW235531   0.545   1.093   1.002
 7834SOL     OW35532   6.928   6.102   0.017
 7834SOL    HW135533   6.988   6.128   0.093
 7834SOL    HW235534   6.921   6.179  -0.047
 7835SOL     OW35535   6.497   8.138   0.403
 7835SOL    HW135536   6.451   8.218   0.365
 7835SOL    HW235537   6.581   8.120   0.350
 7836SOL     OW35538   2.121   6.037   0.754
 7836SOL    HW135539   2.208   5.995   0.730
 7836SOL    HW235540   2.086   5.996   0.838
 7837SOL     OW35541   4.114   7.836   0.056
 7837SOL    HW135542   4.156   7.919   0.019
 7837SOL    HW235543   4.015   7.838   0.039
 7838SOL     OW35544   6.722   1.927   6.383
 7838SOL    HW135545   6.655   1.869   6.336
 7838SOL    HW235546   6.813   1.886   6.373
 7839SOL     OW35547   0.109   0.391   6.672
 7839SOL    HW135548   0.111   0.326   6.748
 7839SOL    HW235549   0.195   0.386   6.622
 7840SOL     OW35550   1.726   3.986   5.608
 7840SOL    HW135551   1.675   3.920   5.554
 7840SOL    HW235552   1.692   4.079   5.588
 7841SOL     OW35553   2.421   1.014   6.649
 7841SOL    HW135554   2.328   0.990   6.677
 7841SOL    HW235555   2.420   1.105   6.606
 7842SOL     OW35556   2.978   7.602   5.257
 7842SOL    HW135557   2.999   7.697   5.283
 7842SOL    HW235558   3.062   7.558   5.224
 7843SOL     OW35559   0.486   5.183   0.688
 7843SOL    HW135560   0.393   5.219   0.699
 7843SOL    HW235561   0.481   5.086   0.665
 7844SOL     OW35562   5.882   2.115   0.304
 7844SOL    HW135563   5.835   2.195   0.340
 7844SOL    HW235564   5.834   2.032   0.331
 7845SOL     OW35565   7.017   1.008   5.601
 7845SOL    HW135566   6.936   1.038   5.652
 7845SOL    HW235567   7.010   1.038   5.506
 7846SOL     OW35568   6.123   6.727   1.180
 7846SOL    HW135569   6.209   6.678   1.165
 7846SOL    HW235570   6.065   6.718   1.098
 7847SOL     OW35571   6.033   3.030   0.561
 7847SOL    HW135572   6.001   2.990   0.647
 7847SOL    HW235573   6.096   3.105   0.580
 7848SOL     OW35574   0.673   8.124   5.767
 7848SOL    HW135575   0.648   8.184   5.690
 7848SOL    HW235576   0.772   8.127   5.780
 7849SOL     OW35577   8.274   7.470   6.724
 7849SOL    HW135578   8.228   7.538   6.781
 7849SOL    HW235579   8.368   7.500   6.705
 7850SOL     OW35580   4.014   2.694   6.581
 7850SOL    HW135581   3.949   2.619   6.575
 7850SOL    HW235582   4.041   2.723   6.489
 7851SOL     OW35583   5.941   0.349   5.431
 7851SOL    HW135584   6.014   0.308   5.377
 7851SOL    HW235585   5.865   0.284   5.440
 7852SOL     OW35586   1.607   7.416   6.045
 7852SOL    HW135587   1.637   7.511   6.029
 7852SOL    HW235588   1.559   7.383   5.964
 7853SOL     OW35589   9.001   2.624   6.633
 7853SOL    HW135590   9.003   2.673   6.720
 7853SOL    HW235591   8.921   2.653   6.580
 7854SOL     OW35592   8.319   6.972   4.926
 7854SOL    HW135593   8.320   6.886   4.977
 7854SOL    HW235594   8.264   6.961   4.843
 7855SOL     OW35595   1.002   4.538   5.605
 7855SOL    HW135596   1.093   4.532   5.646
 7855SOL    HW235597   1.010   4.556   5.507
 7856SOL     OW35598   6.489   1.683   6.705
 7856SOL    HW135599   6.529   1.773   6.721
 7856SOL    HW235600   6.533   1.616   6.766
 7857SOL     OW35601   0.061   5.292   6.578
 7857SOL    HW135602   0.122   5.346   6.636
 7857SOL    HW235603   0.068   5.195   6.603
 7858SOL     OW35604   2.117   5.259   0.635
 7858SOL    HW135605   2.180   5.264   0.712
 7858SOL    HW235606   2.078   5.168   0.629
 7859SOL     OW35607   3.914   1.536   1.554
 7859SOL    HW135608   3.981   1.609   1.548
 7859SOL    HW235609   3.960   1.449   1.574
 7860SOL     OW35610   0.237   6.595   5.794
 7860SOL    HW135611   0.189   6.682   5.797
 7860SOL    HW235612   0.176   6.522   5.826
 7861SOL     OW35613   7.637   7.301   1.385
 7861SOL    HW135614   7.634   7.257   1.474
 7861SOL    HW235615   7.699   7.380   1.388
 7862SOL     OW35616   3.843   0.404   6.168
 7862SOL    HW135617   3.930   0.353   6.168
 7862SOL    HW235618   3.788   0.373   6.246
 7863SOL     OW35619   3.331   4.081   0.242
 7863SOL    HW135620   3.253   4.045   0.292
 7863SOL    HW235621   3.325   4.180   0.236
 7864SOL     OW35622   0.039   8.483   6.168
 7864SOL    HW135623   0.075   8.423   6.240
 7864SOL    HW235624   0.077   8.574   6.179
 7865SOL     OW35625   3.665   1.490   1.139
 7865SOL    HW135626   3.687   1.397   1.170
 7865SOL    HW235627   3.706   1.556   1.203
 7866SOL     OW35628   1.667   5.039   0.441
 7866SOL    HW135629   1.572   5.021   0.463
 7866SOL    HW235630   1.676   5.060   0.343
 7867SOL     OW35631   4.056   5.511   0.904
 7867SOL    HW135632   4.001   5.588   0.937
 7867SOL    HW235633   4.071   5.446   0.978
 7868SOL     OW35634   9.369   7.145   4.938
 7868SOL    HW135635   9.388   7.097   4.852
 7868SOL    HW235636   9.424   7.228   4.943
 7869SOL     OW35637   4.834   4.096   6.355
 7869SOL    HW135638   4.928   4.129   6.347
 7869SOL    HW235639   4.830   4.001   6.324
 7870SOL     OW35640   5.626   4.847   5.850
 7870SOL    HW135641   5.536   4.821   5.813
 7870SOL    HW235642   5.682   4.766   5.864
 7871SOL     OW35643   3.131   5.151   5.636
 7871SOL    HW135644   3.186   5.079   5.679
 7871SOL    HW235645   3.107   5.122   5.543
 7872SOL     OW35646   8.247   2.619   1.362
 7872SOL    HW135647   8.280   2.581   1.449
 7872SOL    HW235648   8.227   2.545   1.299
 7873SOL     OW35649   2.634   7.679   1.085
 7873SOL    HW135650   2.695   7.663   1.163
 7873SOL    HW235651   2.540   7.655   1.111
 7874SOL     OW35652   0.154   2.443   0.701
 7874SOL    HW135653   0.211   2.361   0.704
 7874SOL    HW235654   0.209   2.522   0.730
 7875SOL     OW35655   8.695   7.103   5.874
 7875SOL    HW135656   8.663   7.014   5.839
 7875SOL    HW235657   8.627   7.138   5.939
 7876SOL     OW35658   9.326   2.347   0.082
 7876SOL    HW135659   9.369   2.282   0.146
 7876SOL    HW235660   9.393   2.375   0.013
 7877SOL     OW35661   2.010   3.351   5.087
 7877SOL    HW135662   2.066   3.386   5.011
 7877SOL    HW235663   1.951   3.277   5.054
 7878SOL     OW35664   6.813   8.488   6.607
 7878SOL    HW135665   6.824   8.437   6.522
 7878SOL    HW235666   6.737   8.451   6.659
 7879SOL     OW35667   3.132   7.091   6.061
 7879SOL    HW135668   3.155   6.993   6.055
 7879SOL    HW235669   3.046   7.108   6.013
 7880SOL     OW35670   5.649   8.409   6.139
 7880SOL    HW135671   5.562   8.430   6.094
 7880SOL    HW235672   5.675   8.486   6.197
 7881SOL     OW35673   6.273   6.508   0.713
 7881SOL    HW135674   6.337   6.443   0.672
 7881SOL    HW235675   6.202   6.459   0.762
 7882SOL     OW35676   0.413   6.143   5.813
 7882SOL    HW135677   0.381   6.100   5.898
 7882SOL    HW235678   0.432   6.240   5.830
 7883SOL     OW35679   8.720   7.912   5.586
 7883SOL    HW135680   8.772   7.830   5.609
 7883SOL    HW235681   8.624   7.889   5.573
 7884SOL     OW35682   0.710   2.470   1.428
 7884SOL    HW135683   0.705   2.536   1.503
 7884SOL    HW235684   0.805   2.447   1.409
 7885SOL     OW35685   5.552   4.932   1.916
 7885SOL    HW135686   5.530   4.849   1.967
 7885SOL    HW235687   5.501   5.009   1.953
 7886SOL     OW35688   5.251   4.329   1.273
 7886SOL    HW135689   5.325   4.361   1.214
 7886SOL    HW235690   5.289   4.292   1.358
 7887SOL     OW35691   2.528   3.526   0.220
 7887SOL    HW135692   2.617   3.501   0.258
 7887SOL    HW235693   2.457   3.512   0.289
 7888SOL     OW35694   4.018   0.924   5.205
 7888SOL    HW135695   4.097   0.903   5.262
 7888SOL    HW235696   3.943   0.959   5.262
 7889SOL     OW35697   1.451   2.187   0.961
 7889SOL    HW135698   1.481   2.167   1.054
 7889SOL    HW235699   1.398   2.272   0.961
 7890SOL     OW35700   4.459   2.045   5.896
 7890SOL    HW135701   4.443   2.036   5.798
 7890SOL    HW235702   4.459   2.141   5.922
 7891SOL     OW35703   7.863   7.029   6.027
 7891SOL    HW135704   7.927   7.032   5.950
 7891SOL    HW235705   7.913   7.046   6.112
 7892SOL     OW35706   2.796   7.680   6.605
 7892SOL    HW135707   2.849   7.644   6.682
 7892SOL    HW235708   2.829   7.772   6.582
 7893SOL     OW35709   6.380   7.872   5.099
 7893SOL    HW135710   6.462   7.863   5.155
 7893SOL    HW235711   6.385   7.957   5.046
 7894SOL     OW35712   1.590   7.909   6.028
 7894SOL    HW135713   1.668   7.972   6.025
 7894SOL    HW235714   1.506   7.960   6.010
 7895SOL     OW35715   1.547   3.828   0.488
 7895SOL    HW135716   1.620   3.870   0.542
 7895SOL    HW235717   1.462   3.827   0.541
 7896SOL     OW35718   2.914   2.435   5.815
 7896SOL    HW135719   2.971   2.403   5.739
 7896SOL    HW235720   2.918   2.370   5.890
 7897SOL     OW35721   7.953   1.120   6.244
 7897SOL    HW135722   7.975   1.097   6.150
 7897SOL    HW235723   7.916   1.040   6.291
 7898SOL     OW35724   7.765   2.889   6.164
 7898SOL    HW135725   7.786   2.813   6.103
 7898SOL    HW235726   7.680   2.869   6.214
 7899SOL     OW35727   0.620   6.674   6.394
 7899SOL    HW135728   0.556   6.746   6.421
 7899SOL    HW235729   0.695   6.715   6.342
 7900SOL     OW35730   1.224   1.688   5.761
 7900SOL    HW135731   1.188   1.672   5.853
 7900SOL    HW235732   1.185   1.621   5.698
 7901SOL     OW35733   2.999   3.630   0.550
 7901SOL    HW135734   3.079   3.645   0.492
 7901SOL    HW235735   2.921   3.603   0.493
 7902SOL     OW35736   6.368   1.747   1.537
 7902SOL    HW135737   6.343   1.842   1.519
 7902SOL    HW235738   6.322   1.687   1.472
 7903SOL     OW35739   0.137   2.395   0.224
 7903SOL    HW135740   0.076   2.454   0.276
 7903SOL    HW235741   0.187   2.334   0.286
 7904SOL     OW35742   8.336   0.856   6.059
 7904SOL    HW135743   8.321   0.784   6.127
 7904SOL    HW235744   8.281   0.837   5.977
 7905SOL     OW35745   0.331   7.850   0.419
 7905SOL    HW135746   0.310   7.777   0.485
 7905SOL    HW235747   0.420   7.890   0.441
 7906SOL     OW35748   0.878   0.238   1.219
 7906SOL    HW135749   0.850   0.310   1.156
 7906SOL    HW235750   0.893   0.153   1.167
 7907SOL     OW35751   0.567   2.229   5.883
 7907SOL    HW135752   0.515   2.314   5.879
 7907SOL    HW235753   0.663   2.249   5.903
 7908SOL     OW35754   6.702   0.216   6.068
 7908SOL    HW135755   6.800   0.218   6.053
 7908SOL    HW235756   6.658   0.286   6.011
 7909X2IT   H1835757   8.553   2.450   6.071
 7909X2IT    N435758   8.592   2.439   6.163
 7909X2IT   H1735759   8.685   2.476   6.177
 7909X2IT   C1435760   8.504   2.438   6.267
 7909X2IT    O535761   8.384   2.421   6.257
 7909X2IT    O435762   8.572   2.454   6.385
 7909X2IT   C1335763   8.492   2.448   6.505
 7909X2IT   C1035764   8.468   2.302   6.549
 7909X2IT    C935765   8.391   2.292   6.679
 7909X2IT    C435766   8.464   2.222   6.773
 7909X2IT    C535767   8.417   2.194   6.913
 7909X2IT    O135768   8.488   2.127   6.989
 7909X2IT    C635769   8.288   2.248   6.949
 7909X2IT   C1235770   8.234   2.224   7.088
 7909X2IT    C735771   8.214   2.317   6.854
 7909X2IT    C835772   8.263   2.344   6.712
 7909X2IT    O235773   8.190   2.411   6.637
 7909X2IT    N335774   8.092   2.369   6.878
 7909X2IT   H1535775   8.046   2.362   6.967
 7909X2IT   H1635776   8.047   2.420   6.801
 7909X2IT    N235777   8.580   2.175   6.722
 7909X2IT    C335778   8.709   2.157   6.791
 7909X2IT    C235779   8.802   2.247   6.710
 7909X2IT    H235780   8.910   2.231   6.715
 7909X2IT    N135781   8.748   2.384   6.696
 7909X2IT   H1435782   8.825   2.448   6.673
 7909X2IT    C135783   8.734   2.287   6.585
 7909X2IT    H135784   8.787   2.302   6.491
 7909X2IT   C1135785   8.598   2.219   6.581
 7909X2IT    O335786   8.617   2.110   6.492
 7909X2IT   C1535787   8.519   2.005   6.497
 7910X2IT   H1835788   1.899   8.169   5.620
 7910X2IT    N435789   1.956   8.087   5.605
 7910X2IT   H1735790   2.049   8.102   5.569
 7910X2IT   C1435791   1.932   7.981   5.687
 7910X2IT    O535792   1.832   7.966   5.756
 7910X2IT    O435793   2.034   7.891   5.678
 7910X2IT   C1335794   2.019   7.769   5.754
 7910X2IT   C1035795   1.933   7.666   5.680
 7910X2IT    C935796   1.921   7.535   5.754
 7910X2IT    C435797   1.968   7.431   5.675
 7910X2IT    C535798   1.971   7.287   5.719
 7910X2IT    O135799   2.011   7.200   5.640
 7910X2IT    C635800   1.925   7.260   5.853
 7910X2IT   C1235801   1.925   7.117   5.903
 7910X2IT    C735802   1.877   7.363   5.931
 7910X2IT    C835803   1.874   7.509   5.885
 7910X2IT    O235804   1.833   7.595   5.965
 7910X2IT    N335805   1.830   7.347   6.056
 7910X2IT   H1535806   1.827   7.258   6.102
 7910X2IT   H1635807   1.799   7.431   6.105
 7910X2IT    N235808   2.003   7.473   5.551
 7910X2IT    C335809   2.111   7.421   5.465
 7910X2IT    C235810   2.199   7.543   5.446
 7910X2IT    H235811   2.268   7.547   5.362
 7910X2IT    N135812   2.237   7.606   5.574
 7910X2IT   H1435813   2.320   7.663   5.561
 7910X2IT    C135814   2.127   7.664   5.494
 7910X2IT    H135815   2.138   7.761   5.447
 7910X2IT   C1135816   1.989   7.621   5.539
 7910X2IT    O335817   1.904   7.657   5.432
 7910X2IT   C1535818   1.774   7.596   5.428
 7911X2IT   H1835819   7.977   6.929  -0.422
 7911X2IT    N435820   7.918   6.964  -0.350
 7911X2IT   H1735821   7.819   6.945  -0.358
 7911X2IT   C1435822   7.973   6.974  -0.225
 7911X2IT    O535823   8.092   6.971  -0.201
 7911X2IT    O435824   7.874   6.993  -0.132
 7911X2IT   C1335825   7.919   7.012   0.004
 7911X2IT   C1035826   7.958   7.158   0.030
 7911X2IT    C935827   7.998   7.184   0.174
 7911X2IT    C435828   7.918   7.282   0.229
 7911X2IT    C535829   7.931   7.330   0.371
 7911X2IT    O135830   7.856   7.421   0.411
 7911X2IT    C635831   8.032   7.267   0.452
 7911X2IT   C1235832   8.050   7.311   0.596
 7911X2IT    C735833   8.113   7.170   0.396
 7911X2IT    C835834   8.099   7.122   0.251
 7911X2IT    O235835   8.175   7.031   0.213
 7911X2IT    N335836   8.211   7.107   0.463
 7911X2IT   H1535837   8.232   7.125   0.560
 7911X2IT   H1635838   8.263   7.035   0.412
 7911X2IT    N235839   7.831   7.334   0.139
 7911X2IT    C335840   7.695   7.384   0.162
 7911X2IT    C235841   7.611   7.294   0.072
 7911X2IT    H235842   7.512   7.326   0.042
 7911X2IT    N135843   7.638   7.151   0.096
 7911X2IT   H1435844   7.560   7.095   0.062
 7911X2IT    C135845   7.701   7.219  -0.019
 7911X2IT    H135846   7.673   7.193  -0.121
 7911X2IT   C1135847   7.844   7.264   0.008
 7911X2IT    O335848   7.872   7.354  -0.098
 7911X2IT   C1535849   7.983   7.443  -0.081
 7912X2IT   H1835850   1.947   6.604   0.256
 7912X2IT    N435851   1.956   6.558   0.345
 7912X2IT   H1735852   2.010   6.473   0.348
 7912X2IT   C1435853   1.952   6.639   0.455
 7912X2IT    O535854   1.912   6.755   0.456
 7912X2IT    O435855   1.996   6.571   0.565
 7912X2IT   C1335856   1.991   6.642   0.690
 7912X2IT   C1035857   1.851   6.635   0.753
 7912X2IT    C935858   1.844   6.703   0.888
 7912X2IT    C435859   1.802   6.613   0.984
 7912X2IT    C535860   1.785   6.647   1.130
 7912X2IT    O135861   1.742   6.561   1.208
 7912X2IT    C635862   1.818   6.782   1.169
 7912X2IT   C1235863   1.804   6.823   1.314
 7912X2IT    C735864   1.860   6.872   1.072
 7912X2IT    C835865   1.876   6.836   0.924
 7912X2IT    O235866   1.918   6.924   0.848
 7912X2IT    N335867   1.891   7.000   1.098
 7912X2IT   H1535868   1.888   7.039   1.191
 7912X2IT   H1635869   1.922   7.057   1.020
 7912X2IT    N235870   1.770   6.492   0.931
 7912X2IT    C335871   1.785   6.359   0.992
 7912X2IT    C235872   1.879   6.289   0.895
 7912X2IT    H235873   1.884   6.180   0.893
 7912X2IT    N135874   2.001   6.368   0.867
 7912X2IT   H1435875   2.074   6.307   0.832
 7912X2IT    C135876   1.889   6.369   0.770
 7912X2IT    H135877   1.901   6.325   0.672
 7912X2IT   C1135878   1.798   6.490   0.785
 7912X2IT    O335879   1.684   6.456   0.709
 7912X2IT   C1535880   1.564   6.531   0.734
   9.48825   8.49895   6.73470
