UNITED ATOM STRUCTURE FOR MOLECULE UNK
12503
    0X2IT   H18    1   3.092   2.352   2.583
    0X2IT    N4    2   3.026   2.419   2.548
    0X2IT   H17    3   3.059   2.484   2.478
    0X2IT   C14    4   2.895   2.380   2.546
    0X2IT    O5    5   2.849   2.285   2.607
    0X2IT    O4    6   2.822   2.466   2.469
    0X2IT   C13    7   2.680   2.441   2.463
    0X2IT   C10    8   2.607   2.502   2.584
    0X2IT    C9    9   2.457   2.484   2.578
    0X2IT    C4   10   2.394   2.607   2.582
    0X2IT    C5   11   2.245   2.625   2.577
    0X2IT    O1   12   2.197   2.739   2.585
    0X2IT    C6   13   2.166   2.505   2.564
    0X2IT   C12   14   2.015   2.516   2.558
    0X2IT    C7   15   2.229   2.382   2.561
    0X2IT    C8   16   2.381   2.365   2.567
    0X2IT    O2   17   2.427   2.250   2.559
    0X2IT    N3   18   2.164   2.265   2.551
    0X2IT   H15   19   2.064   2.258   2.544
    0X2IT   H16   20   2.221   2.180   2.548
    0X2IT    N2   21   2.482   2.709   2.599
    0X2IT    C3   22   2.473   2.846   2.546
    0X2IT    C2   23   2.599   2.856   2.461
    0X2IT    H2   24   2.639   2.954   2.435
    0X2IT    N1   25   2.611   2.744   2.365
    0X2IT   H14   26   2.674   2.771   2.289
    0X2IT    C1   27   2.688   2.741   2.491
    0X2IT    H1   28   2.796   2.748   2.490
    0X2IT   C11   29   2.622   2.658   2.600
    0X2IT    O3   30   2.691   2.695   2.718
    0X2IT   C15   31   2.628   2.664   2.843
    1X2IT   H18   32   1.247   3.266   0.203
    1X2IT    N4   33   1.288   3.326   0.272
    1X2IT   H17   34   1.235   3.408   0.300
    1X2IT   C14   35   1.371   3.266   0.363
    1X2IT    O5   36   1.420   3.155   0.351
    1X2IT    O4   37   1.394   3.351   0.467
    1X2IT   C13   38   1.486   3.303   0.569
    1X2IT   C10   39   1.632   3.327   0.528
    1X2IT    C9   40   1.731   3.285   0.634
    1X2IT    C4   41   1.810   3.393   0.672
    1X2IT    C5   42   1.917   3.385   0.776
    1X2IT    O1   43   1.986   3.486   0.800
    1X2IT    C6   44   1.935   3.258   0.841
    1X2IT   C12   45   2.042   3.243   0.948
    1X2IT    C7   46   1.857   3.150   0.803
    1X2IT    C8   47   1.748   3.159   0.696
    1X2IT    O2   48   1.681   3.057   0.673
    1X2IT    N3   49   1.868   3.028   0.857
    1X2IT   H15   50   1.933   3.005   0.930
    1X2IT   H16   51   1.804   2.956   0.822
    1X2IT    N2   52   1.783   3.503   0.598
    1X2IT    C3   53   1.790   3.644   0.640
    1X2IT    C2   54   1.647   3.691   0.617
    1X2IT    H2   55   1.626   3.798   0.607
    1X2IT    N1   56   1.547   3.602   0.682
    1X2IT   H14   57   1.460   3.653   0.694
    1X2IT    C1   58   1.574   3.590   0.537
    1X2IT    H1   59   1.498   3.615   0.464
    1X2IT   C11   60   1.671   3.478   0.503
    1X2IT    O3   61   1.708   3.504   0.369
    1X2IT   C15   62   1.827   3.440   0.320
    2X2IT   H18   63   1.607   2.190   4.784
    2X2IT    N4   64   1.699   2.161   4.755
    2X2IT   H17   65   1.777   2.194   4.810
    2X2IT   C14   66   1.708   2.040   4.692
    2X2IT    O5   67   1.614   1.978   4.645
    2X2IT    O4   68   1.838   2.001   4.686
    2X2IT   C13   69   1.864   1.877   4.617
    2X2IT   C10   70   1.874   1.899   4.465
    2X2IT    C9   71   1.908   1.773   4.389
    2X2IT    C4   72   2.024   1.791   4.316
    2X2IT    C5   73   2.086   1.685   4.229
    2X2IT    O1   74   2.188   1.711   4.164
    2X2IT    C6   75   2.020   1.556   4.227
    2X2IT   C12   76   2.077   1.445   4.143
    2X2IT    C7   77   1.903   1.539   4.299
    2X2IT    C8   78   1.841   1.648   4.386
    2X2IT    O2   79   1.738   1.620   4.450
    2X2IT    N3   80   1.834   1.424   4.302
    2X2IT   H15   81   1.862   1.341   4.252
    2X2IT   H16   82   1.750   1.422   4.360
    2X2IT    N2   83   2.071   1.918   4.325
    2X2IT    C3   84   2.211   1.963   4.323
    2X2IT    C2   85   2.224   2.032   4.458
    2X2IT    H2   86   2.304   2.105   4.474
    2X2IT    N1   87   2.179   1.946   4.570
    2X2IT   H14   88   2.221   1.980   4.657
    2X2IT    C1   89   2.089   2.051   4.517
    2X2IT    H1   90   2.063   2.137   4.578
    2X2IT   C11   91   1.987   1.998   4.418
    2X2IT    O3   92   1.935   2.115   4.356
    2X2IT   C15   93   1.866   2.098   4.232
    3X2IT   H18   94   4.597   4.004   1.667
    3X2IT    N4   95   4.531   3.968   1.600
    3X2IT   H17   96   4.437   4.004   1.603
    3X2IT   C14   97   4.583   3.926   1.480
    3X2IT    O5   98   4.701   3.904   1.459
    3X2IT    O4   99   4.482   3.908   1.390
    3X2IT   C13  100   4.521   3.858   1.260
    3X2IT   C10  101   4.535   3.705   1.261
    3X2IT    C9  102   4.569   3.648   1.126
    3X2IT    C4  103   4.472   3.557   1.087
    3X2IT    C5  104   4.475   3.482   0.957
    3X2IT    O1  105   4.386   3.399   0.931
    3X2IT    C6  106   4.585   3.511   0.868
    3X2IT   C12  107   4.594   3.440   0.735
    3X2IT    C7  108   4.682   3.602   0.907
    3X2IT    C8  109   4.678   3.677   1.041
    3X2IT    O2  110   4.769   3.759   1.064
    3X2IT    N3  111   4.789   3.634   0.832
    3X2IT   H15  112   4.806   3.596   0.741
    3X2IT   H16  113   4.854   3.704   0.871
    3X2IT    N2  114   4.379   3.537   1.183
    3X2IT    C3  115   4.236   3.507   1.166
    3X2IT    C2  116   4.170   3.625   1.236
    3X2IT    H2  117   4.066   3.616   1.270
    3X2IT    N1  118   4.221   3.755   1.188
    3X2IT   H14  119   4.153   3.828   1.210
    3X2IT    C1  120   4.271   3.699   1.315
    3X2IT    H1  121   4.250   3.747   1.409
    3X2IT   C11  122   4.404   3.626   1.300
    3X2IT    O3  123   4.417   3.553   1.420
    3X2IT   C15  124   4.512   3.445   1.422
    4X2IT   H18  125   3.980   4.164   3.013
    4X2IT    N4  126   4.076   4.167   2.986
    4X2IT   H17  127   4.120   4.079   2.963
    4X2IT   C14  128   4.119   4.281   2.923
    4X2IT    O5  129   4.059   4.387   2.922
    4X2IT    O4  130   4.241   4.259   2.865
    4X2IT   C13  131   4.301   4.373   2.801
    4X2IT   C10  132   4.376   4.462   2.902
    4X2IT    C9  133   4.446   4.579   2.837
    4X2IT    C4  134   4.582   4.575   2.866
    4X2IT    C5  135   4.681   4.676   2.816
    4X2IT    O1  136   4.800   4.666   2.850
    4X2IT    C6  137   4.630   4.780   2.730
    4X2IT   C12  138   4.725   4.885   2.676
    4X2IT    C7  139   4.495   4.784   2.702
    4X2IT    C8  140   4.394   4.681   2.754
    4X2IT    O2  141   4.276   4.693   2.719
    4X2IT    N3  142   4.437   4.878   2.625
    4X2IT   H15  143   4.489   4.953   2.581
    4X2IT   H16  144   4.336   4.871   2.610
    4X2IT    N2  145   4.613   4.474   2.951
    4X2IT    C3  146   4.736   4.394   2.956
    4X2IT    C2  147   4.685   4.253   2.932
    4X2IT    H2  148   4.746   4.167   2.962
    4X2IT    N1  149   4.601   4.244   2.811
    4X2IT   H14  150   4.597   4.147   2.779
    4X2IT    C1  151   4.537   4.251   2.944
    4X2IT    H1  152   4.482   4.167   2.984
    4X2IT   C11  153   4.492   4.392   2.981
    4X2IT    O3  154   4.467   4.384   3.120
    4X2IT   C15  155   4.460   4.507   3.192
    5X2IT   H18  156   4.265   1.941   2.123
    5X2IT    N4  157   4.353   1.911   2.086
    5X2IT   H17  158   4.435   1.925   2.144
    5X2IT   C14  159   4.349   1.805   2.000
    5X2IT    O5  160   4.249   1.763   1.945
    5X2IT    O4  161   4.475   1.755   1.982
    5X2IT   C13  162   4.488   1.647   1.888
    5X2IT   C10  163   4.497   1.698   1.743
    5X2IT    C9  164   4.517   1.587   1.642
    5X2IT    C4  165   4.633   1.609   1.570
    5X2IT    C5  166   4.683   1.517   1.462
    5X2IT    O1  167   4.786   1.546   1.400
    5X2IT    C6  168   4.604   1.399   1.437
    5X2IT   C12  169   4.649   1.302   1.329
    5X2IT    C7  170   4.488   1.378   1.508
    5X2IT    C8  171   4.437   1.472   1.617
    5X2IT    O2  172   4.334   1.441   1.678
    5X2IT    N3  173   4.407   1.272   1.490
    5X2IT   H15  174   4.426   1.199   1.424
    5X2IT   H16  175   4.324   1.265   1.550
    5X2IT    N2  176   4.692   1.727   1.602
    5X2IT    C3  177   4.836   1.758   1.604
    5X2IT    C2  178   4.858   1.797   1.750
    5X2IT    H2  179   4.945   1.857   1.777
    5X2IT    N1  180   4.807   1.695   1.844
    5X2IT   H14  181   4.853   1.706   1.935
    5X2IT    C1  182   4.727   1.816   1.817
    5X2IT    H1  183   4.710   1.889   1.894
    5X2IT   C11  184   4.618   1.794   1.713
    5X2IT    O3  185   4.577   1.925   1.677
    5X2IT   C15  186   4.504   1.940   1.555
    6X2IT   H18  187   1.665   3.298   4.980
    6X2IT    N4  188   1.571   3.333   4.986
    6X2IT   H17  189   1.548   3.388   5.068
    6X2IT   C14  190   1.507   3.360   4.868
    6X2IT    O5  191   1.543   3.321   4.759
    6X2IT    O4  192   1.396   3.435   4.892
    6X2IT   C13  193   1.314   3.466   4.777
    6X2IT   C10  194   1.219   3.351   4.743
    6X2IT    C9  195   1.127   3.382   4.626
    6X2IT    C4  196   0.995   3.371   4.666
    6X2IT    C5  197   0.878   3.396   4.575
    6X2IT    O1  198   0.763   3.380   4.618
    6X2IT    C6  199   0.909   3.437   4.440
    6X2IT   C12  200   0.796   3.465   4.343
    6X2IT    C7  201   1.041   3.447   4.401
    6X2IT    C8  202   1.159   3.420   4.494
    6X2IT    O2  203   1.274   3.437   4.449
    6X2IT    N3  204   1.080   3.483   4.277
    6X2IT   H15  205   1.015   3.506   4.204
    6X2IT   H16  206   1.180   3.489   4.259
    6X2IT    N2  207   0.983   3.327   4.794
    6X2IT    C3  208   0.879   3.362   4.892
    6X2IT    C2  209   0.961   3.424   5.004
    6X2IT    H2  210   0.919   3.430   5.105
    6X2IT    N1  211   1.050   3.532   4.956
    6X2IT   H14  212   1.076   3.593   5.034
    6X2IT    C1  213   1.105   3.397   4.982
    6X2IT    H1  214   1.175   3.380   5.062
    6X2IT   C11  215   1.117   3.311   4.857
    6X2IT    O3  216   1.138   3.180   4.906
    6X2IT   C15  217   1.115   3.072   4.815
    7X2IT   H18  218   2.217   0.902   1.727
    7X2IT    N4  219   2.296   0.881   1.785
    7X2IT   H17  220   2.305   0.785   1.817
    7X2IT   C14  221   2.409   0.954   1.763
    7X2IT    O5  222   2.414   1.059   1.700
    7X2IT    O4  223   2.516   0.896   1.825
    7X2IT   C13  224   2.641   0.967   1.816
    7X2IT   C10  225   2.651   1.077   1.923
    7X2IT    C9  226   2.784   1.149   1.921
    7X2IT    C4  227   2.846   1.138   2.044
    7X2IT    C5  228   2.980   1.198   2.077
    7X2IT    O1  229   3.026   1.187   2.191
    7X2IT    C6  230   3.047   1.267   1.969
    7X2IT   C12  231   3.183   1.330   1.995
    7X2IT    C7  232   2.985   1.279   1.846
    7X2IT    C8  233   2.848   1.218   1.815
    7X2IT    O2  234   2.803   1.231   1.700
    7X2IT    N3  235   3.038   1.343   1.741
    7X2IT   H15  236   3.129   1.387   1.744
    7X2IT   H16  237   2.984   1.344   1.654
    7X2IT    N2  238   2.768   1.075   2.135
    7X2IT    C3  239   2.810   0.987   2.246
    7X2IT    C2  240   2.741   0.856   2.211
    7X2IT    H2  241   2.726   0.781   2.289
    7X2IT    N1  242   2.769   0.812   2.073
    7X2IT   H14  243   2.752   0.712   2.064
    7X2IT    C1  244   2.641   0.879   2.104
    7X2IT    H1  245   2.548   0.825   2.098
    7X2IT   C11  246   2.641   1.028   2.072
    7X2IT    O3  247   2.527   1.077   2.139
    7X2IT   C15  248   2.520   1.219   2.160
    8X2IT   H18  249   3.265   4.483   3.138
    8X2IT    N4  250   3.248   4.407   3.202
    8X2IT   H17  251   3.268   4.314   3.169
    8X2IT   C14  252   3.261   4.435   3.335
    8X2IT    O5  253   3.265   4.547   3.383
    8X2IT    O4  254   3.266   4.319   3.407
    8X2IT   C13  255   3.273   4.333   3.550
    8X2IT   C10  256   3.134   4.356   3.612
    8X2IT    C9  257   3.137   4.364   3.763
    8X2IT    C4  258   3.055   4.267   3.818
    8X2IT    C5  259   3.036   4.247   3.965
    8X2IT    O1  260   2.958   4.159   4.005
    8X2IT    C6  261   3.111   4.334   4.052
    8X2IT   C12  262   3.096   4.319   4.202
    8X2IT    C7  263   3.192   4.432   3.998
    8X2IT    C8  264   3.210   4.452   3.847
    8X2IT    O2  265   3.288   4.540   3.809
    8X2IT    N3  266   3.263   4.519   4.070
    8X2IT   H15  267   3.265   4.519   4.171
    8X2IT   H16  268   3.321   4.586   4.019
    8X2IT    N2  269   2.989   4.196   3.722
    8X2IT    C3  270   2.949   4.055   3.726
    8X2IT    C2  271   3.022   3.998   3.605
    8X2IT    H2  272   2.988   3.904   3.560
    8X2IT    N1  273   3.166   4.031   3.605
    8X2IT   H14  274   3.216   3.965   3.545
    8X2IT    C1  275   3.074   4.110   3.522
    8X2IT    H1  276   3.079   4.105   3.414
    8X2IT   C11  277   3.030   4.240   3.586
    8X2IT    O3  278   2.919   4.282   3.508
    8X2IT   C15  279   2.832   4.380   3.566
    9X2IT   H18  280  -0.077   5.220   2.668
    9X2IT    N4  281  -0.098   5.141   2.726
    9X2IT   H17  282  -0.154   5.067   2.685
    9X2IT   C14  283  -0.005   5.109   2.821
    9X2IT    O5  284   0.085   5.183   2.858
    9X2IT    O4  285  -0.030   4.985   2.870
    9X2IT   C13  286   0.057   4.940   2.977
    9X2IT   C10  287   0.010   4.994   3.113
    9X2IT    C9  288   0.095   4.944   3.228
    9X2IT    C4  289   0.016   4.877   3.320
    9X2IT    C5  290   0.068   4.814   3.446
    9X2IT    O1  291  -0.011   4.759   3.524
    9X2IT    C6  292   0.210   4.822   3.468
    9X2IT   C12  293   0.270   4.761   3.592
    9X2IT    C7  294   0.289   4.890   3.377
    9X2IT    C8  295   0.234   4.955   3.249
    9X2IT    O2  296   0.315   5.009   3.172
    9X2IT    N3  297   0.422   4.905   3.389
    9X2IT   H15  298   0.475   4.867   3.466
    9X2IT   H16  299   0.471   4.956   3.315
    9X2IT    N2  300  -0.116   4.881   3.287
    9X2IT    C3  301  -0.219   4.779   3.311
    9X2IT    C2  302  -0.266   4.747   3.169
    9X2IT    H2  303  -0.363   4.700   3.154
    9X2IT    N1  304  -0.153   4.713   3.079
    9X2IT   H14  305  -0.188   4.660   2.999
    9X2IT    C1  306  -0.213   4.848   3.075
    9X2IT    H1  307  -0.267   4.882   2.988
    9X2IT   C11  308  -0.135   4.951   3.156
    9X2IT    O3  309  -0.224   5.061   3.167
    9X2IT   C15  310  -0.196   5.157   3.269
   10X2IT   H18  311   2.748   4.910   2.100
   10X2IT    N4  312   2.814   4.865   2.162
   10X2IT   H17  313   2.898   4.828   2.120
   10X2IT   C14  314   2.817   4.911   2.291
   10X2IT    O5  315   2.731   4.980   2.343
   10X2IT    O4  316   2.929   4.865   2.353
   10X2IT   C13  317   2.943   4.900   2.493
   10X2IT   C10  318   2.864   4.804   2.583
   10X2IT    C9  319   2.882   4.833   2.730
   10X2IT    C4  320   2.933   4.722   2.795
   10X2IT    C5  321   2.963   4.718   2.942
   10X2IT    O1  322   3.004   4.612   2.993
   10X2IT    C6  323   2.940   4.839   3.017
   10X2IT   C12  324   2.968   4.842   3.165
   10X2IT    C7  325   2.888   4.950   2.952
   10X2IT    C8  326   2.857   4.953   2.802
   10X2IT    O2  327   2.815   5.059   2.753
   10X2IT    N3  328   2.862   5.066   3.013
   10X2IT   H15  329   2.878   5.082   3.111
   10X2IT   H16  330   2.825   5.142   2.954
   10X2IT    N2  331   2.944   4.615   2.713
   10X2IT    C3  332   3.046   4.509   2.716
   10X2IT    C2  333   3.111   4.522   2.580
   10X2IT    H2  334   3.167   4.438   2.538
   10X2IT    N1  335   3.156   4.660   2.552
   10X2IT   H14  336   3.228   4.659   2.479
   10X2IT    C1  337   3.029   4.611   2.494
   10X2IT    H1  338   3.019   4.598   2.387
   10X2IT   C11  339   2.907   4.652   2.573
   10X2IT    O3  340   2.803   4.570   2.522
   10X2IT   C15  341   2.685   4.557   2.602
   11X2IT   H18  342   3.992   2.493  -0.251
   11X2IT    N4  343   4.049   2.575  -0.237
   11X2IT   H17  344   4.078   2.625  -0.320
   11X2IT   C14  345   4.029   2.644  -0.121
   11X2IT    O5  346   3.970   2.601  -0.023
   11X2IT    O4  347   4.089   2.766  -0.129
   11X2IT   C13  348   4.082   2.848  -0.010
   11X2IT   C10  349   4.192   2.811   0.090
   11X2IT    C9  350   4.193   2.899   0.213
   11X2IT    C4  351   4.315   2.961   0.227
   11X2IT    C5  352   4.349   3.057   0.338
   11X2IT    O1  353   4.463   3.105   0.344
   11X2IT    C6  354   4.244   3.085   0.432
   11X2IT   C12  355   4.271   3.180   0.547
   11X2IT    C7  356   4.122   3.022   0.419
   11X2IT    C8  357   4.089   2.924   0.306
   11X2IT    O2  358   3.974   2.877   0.302
   11X2IT    N3  359   4.019   3.040   0.504
   11X2IT   H15  360   4.023   3.102   0.582
   11X2IT   H16  361   3.932   2.989   0.483
   11X2IT    N2  362   4.404   2.921   0.132
   11X2IT    C3  363   4.512   2.999   0.069
   11X2IT    C2  364   4.473   2.994  -0.078
   11X2IT    H2  365   4.548   3.013  -0.154
   11X2IT    N1  366   4.333   3.035  -0.101
   11X2IT   H14  367   4.321   3.064  -0.198
   11X2IT    C1  368   4.367   2.892  -0.098
   11X2IT    H1  369   4.359   2.831  -0.187
   11X2IT   C11  370   4.340   2.826   0.037
   11X2IT    O3  371   4.409   2.703   0.030
   11X2IT   C15  372   4.435   2.635   0.153
   12X2IT   H18  373  -0.029   4.217   1.787
   12X2IT    N4  374  -0.029   4.222   1.888
   12X2IT   H17  375  -0.045   4.136   1.938
   12X2IT   C14  376   0.050   4.319   1.944
   12X2IT    O5  377   0.097   4.414   1.885
   12X2IT    O4  378   0.064   4.295   2.078
   12X2IT   C13  379   0.139   4.392   2.152
   12X2IT   C10  380   0.052   4.512   2.193
   12X2IT    C9  381   0.126   4.614   2.277
   12X2IT    C4  382   0.061   4.632   2.398
   12X2IT    C5  383   0.109   4.725   2.505
   12X2IT    O1  384   0.043   4.737   2.609
   12X2IT    C6  385   0.231   4.797   2.479
   12X2IT   C12  386   0.285   4.893   2.583
   12X2IT    C7  387   0.295   4.780   2.357
   12X2IT    C8  388   0.245   4.685   2.248
   12X2IT    O2  389   0.313   4.675   2.145
   12X2IT    N3  390   0.408   4.844   2.323
   12X2IT   H15  391   0.455   4.908   2.383
   12X2IT   H16  392   0.447   4.823   2.231
   12X2IT    N2  393  -0.054   4.560   2.405
   12X2IT    C3  394  -0.115   4.498   2.524
   12X2IT    C2  395  -0.119   4.351   2.484
   12X2IT    H2  396  -0.187   4.283   2.536
   12X2IT    N1  397   0.013   4.302   2.438
   12X2IT   H14  398   0.015   4.200   2.447
   12X2IT    C1  399  -0.091   4.338   2.339
   12X2IT    H1  400  -0.136   4.262   2.277
   12X2IT   C11  401  -0.073   4.478   2.282
   12X2IT    O3  402  -0.196   4.505   2.218
   12X2IT   C15  403  -0.225   4.642   2.189
   13X2IT   H18  404   3.889   4.240   1.195
   13X2IT    N4  405   3.817   4.185   1.152
   13X2IT   H17  406   3.766   4.121   1.210
   13X2IT   C14  407   3.755   4.240   1.043
   13X2IT    O5  408   3.796   4.336   0.980
   13X2IT    O4  409   3.642   4.170   1.013
   13X2IT   C13  410   3.569   4.213   0.897
   13X2IT   C10  411   3.629   4.154   0.768
   13X2IT    C9  412   3.551   4.192   0.644
   13X2IT    C4  413   3.508   4.078   0.578
   13X2IT    C5  414   3.427   4.080   0.452
   13X2IT    O1  415   3.396   3.973   0.398
   13X2IT    C6  416   3.391   4.210   0.400
   13X2IT   C12  417   3.310   4.219   0.273
   13X2IT    C7  418   3.435   4.323   0.465
   13X2IT    C8  419   3.519   4.320   0.593
   13X2IT    O2  420   3.549   4.429   0.646
   13X2IT    N3  421   3.409   4.448   0.423
   13X2IT   H15  422   3.354   4.469   0.342
   13X2IT   H16  423   3.445   4.525   0.480
   13X2IT    N2  424   3.554   3.965   0.637
   13X2IT    C3  425   3.487   3.834   0.646
   13X2IT    C2  426   3.476   3.813   0.796
   13X2IT    H2  427   3.462   3.713   0.836
   13X2IT    N1  428   3.413   3.929   0.864
   13X2IT   H14  429   3.376   3.899   0.955
   13X2IT    C1  430   3.560   3.914   0.866
   13X2IT    H1  431   3.613   3.893   0.958
   13X2IT   C11  432   3.631   3.997   0.760
   13X2IT    O3  433   3.762   3.944   0.756
   13X2IT   C15  434   3.842   3.974   0.641
   14X2IT   H18  435   2.750   1.408   1.352
   14X2IT    N4  436   2.684   1.398   1.427
   14X2IT   H17  437   2.620   1.319   1.422
   14X2IT   C14  438   2.723   1.443   1.550
   14X2IT    O5  439   2.816   1.519   1.570
   14X2IT    O4  440   2.638   1.396   1.646
   14X2IT   C13  441   2.663   1.442   1.781
   14X2IT   C10  442   2.600   1.580   1.806
   14X2IT    C9  443   2.618   1.628   1.948
   14X2IT    C4  444   2.495   1.652   2.006
   14X2IT    C5  445   2.477   1.700   2.147
   14X2IT    O1  446   2.363   1.723   2.190
   14X2IT    C6  447   2.597   1.719   2.225
   14X2IT   C12  448   2.586   1.767   2.368
   14X2IT    C7  449   2.720   1.696   2.166
   14X2IT    C8  450   2.737   1.647   2.022
   14X2IT    O2  451   2.852   1.626   1.981
   14X2IT    N3  452   2.837   1.712   2.230
   14X2IT   H15  453   2.844   1.742   2.325
   14X2IT   H16  454   2.922   1.691   2.177
   14X2IT    N2  455   2.392   1.634   1.919
   14X2IT    C3  456   2.257   1.585   1.947
   14X2IT    C2  457   2.248   1.460   1.860
   14X2IT    H2  458   2.151   1.420   1.833
   14X2IT    N1  459   2.362   1.369   1.882
   14X2IT   H14  460   2.337   1.275   1.851
   14X2IT    C1  461   2.363   1.459   1.765
   14X2IT    H1  462   2.356   1.419   1.665
   14X2IT   C11  463   2.443   1.586   1.787
   14X2IT    O3  464   2.404   1.671   1.681
   14X2IT   C15  465   2.432   1.810   1.695
   15X2IT   H18  466   1.703  -0.297   3.105
   15X2IT    N4  467   1.640  -0.220   3.093
   15X2IT   H17  468   1.545  -0.242   3.065
   15X2IT   C14  469   1.662  -0.110   3.171
   15X2IT    O5  470   1.765  -0.087   3.233
   15X2IT    O4  471   1.554  -0.027   3.167
   15X2IT   C13  472   1.566   0.097   3.241
   15X2IT   C10  473   1.639   0.204   3.158
   15X2IT    C9  474   1.647   0.337   3.229
   15X2IT    C4  475   1.588   0.436   3.152
   15X2IT    C5  476   1.579   0.580   3.193
   15X2IT    O1  477   1.527   0.662   3.116
   15X2IT    C6  478   1.632   0.614   3.323
   15X2IT   C12  479   1.626   0.757   3.371
   15X2IT    C7  480   1.692   0.515   3.399
   15X2IT    C8  481   1.702   0.369   3.355
   15X2IT    O2  482   1.754   0.288   3.434
   15X2IT    N3  483   1.747   0.537   3.520
   15X2IT   H15  484   1.747   0.627   3.564
   15X2IT   H16  485   1.787   0.457   3.568
   15X2IT    N2  486   1.547   0.389   3.031
   15X2IT    C3  487   1.430   0.432   2.952
   15X2IT    C2  488   1.349   0.303   2.942
   15X2IT    H2  489   1.275   0.293   2.863
   15X2IT    N1  490   1.326   0.241   3.074
   15X2IT   H14  491   1.245   0.178   3.068
   15X2IT    C1  492   1.432   0.189   2.987
   15X2IT    H1  493   1.425   0.090   2.943
   15X2IT   C11  494   1.570   0.242   3.021
   15X2IT    O3  495   1.650   0.208   2.909
   15X2IT   C15  496   1.774   0.278   2.894
   16X2IT   H18  497   1.557   3.770   2.062
   16X2IT    N4  498   1.604   3.822   1.990
   16X2IT   H17  499   1.676   3.887   2.020
   16X2IT   C14  500   1.615   3.761   1.868
   16X2IT    O5  501   1.550   3.664   1.832
   16X2IT    O4  502   1.705   3.828   1.791
   16X2IT   C13  503   1.722   3.779   1.656
   16X2IT   C10  504   1.615   3.835   1.562
   16X2IT    C9  505   1.633   3.791   1.418
   16X2IT    C4  506   1.645   3.902   1.336
   16X2IT    C5  507   1.666   3.894   1.188
   16X2IT    O1  508   1.672   3.998   1.121
   16X2IT    C6  509   1.676   3.762   1.131
   16X2IT   C12  510   1.697   3.746   0.982
   16X2IT    C7  511   1.662   3.651   1.213
   16X2IT    C8  512   1.641   3.661   1.364
   16X2IT    O2  513   1.634   3.555   1.429
   16X2IT    N3  514   1.668   3.524   1.169
   16X2IT   H15  515   1.684   3.500   1.073
   16X2IT   H16  516   1.659   3.450   1.239
   16X2IT    N2  517   1.629   4.018   1.404
   16X2IT    C3  518   1.694   4.148   1.379
   16X2IT    C2  519   1.768   4.173   1.510
   16X2IT    H2  520   1.798   4.274   1.536
   16X2IT    N1  521   1.852   4.058   1.550
   16X2IT   H14  522   1.924   4.090   1.616
   16X2IT    C1  523   1.720   4.077   1.613
   16X2IT    H1  524   1.711   4.102   1.718
   16X2IT   C11  525   1.611   3.992   1.550
   16X2IT    O3  526   1.490   4.048   1.599
   16X2IT   C15  527   1.370   4.016   1.529
   17X2IT   H18  528   3.711   0.535   1.687
   17X2IT    N4  529   3.692   0.441   1.657
   17X2IT   H17  530   3.715   0.367   1.721
   17X2IT   C14  531   3.588   0.425   1.570
   17X2IT    O5  532   3.534   0.514   1.506
   17X2IT    O4  533   3.554   0.292   1.563
   17X2IT   C13  534   3.449   0.258   1.470
   17X2IT   C10  535   3.504   0.243   1.327
   17X2IT    C9  536   3.398   0.201   1.227
   17X2IT    C4  537   3.435   0.083   1.166
   17X2IT    C5  538   3.351   0.013   1.062
   17X2IT    O1  539   3.394  -0.091   1.010
   17X2IT    C6  540   3.225   0.073   1.030
   17X2IT   C12  541   3.135   0.008   0.926
   17X2IT    C7  542   3.188   0.192   1.091
   17X2IT    C8  543   3.274   0.263   1.195
   17X2IT    O2  544   3.230   0.367   1.247
   17X2IT    N3  545   3.073   0.257   1.066
   17X2IT   H15  546   3.004   0.223   1.001
   17X2IT   H16  547   3.056   0.343   1.118
   17X2IT    N2  548   3.558   0.042   1.204
   17X2IT    C3  549   3.607  -0.096   1.219
   17X2IT    C2  550   3.646  -0.101   1.366
   17X2IT    H2  551   3.716  -0.177   1.401
   17X2IT    N1  552   3.537  -0.055   1.455
   17X2IT   H14  553   3.553  -0.091   1.549
   17X2IT    C1  554   3.648   0.037   1.421
   17X2IT    H1  555   3.718   0.070   1.497
   17X2IT   C11  556   3.614   0.133   1.308
   17X2IT    O3  557   3.740   0.186   1.269
   17X2IT   C15  558   3.747   0.250   1.141
   18X2IT   H18  559   3.301   2.356   2.958
   18X2IT    N4  560   3.259   2.266   2.975
   18X2IT   H17  561   3.278   2.222   3.064
   18X2IT   C14  562   3.141   2.241   2.912
   18X2IT    O5  563   3.096   2.306   2.818
   18X2IT    O4  564   3.081   2.131   2.966
   18X2IT   C13  565   2.957   2.089   2.905
   18X2IT   C10  566   2.983   2.002   2.780
   18X2IT    C9  567   2.856   1.950   2.717
   18X2IT    C4  568   2.857   1.812   2.713
   18X2IT    C5  569   2.746   1.729   2.657
   18X2IT    O1  570   2.758   1.605   2.653
   18X2IT    C6  571   2.630   1.800   2.609
   18X2IT   C12  572   2.514   1.722   2.551
   18X2IT    C7  573   2.628   1.938   2.612
   18X2IT    C8  574   2.743   2.022   2.669
   18X2IT    O2  575   2.729   2.145   2.671
   18X2IT    N3  576   2.526   2.013   2.568
   18X2IT   H15  577   2.442   1.974   2.530
   18X2IT   H16  578   2.535   2.114   2.578
   18X2IT    N2  579   2.975   1.761   2.757
   18X2IT    C3  580   2.998   1.635   2.829
   18X2IT    C2  581   3.059   1.682   2.960
   18X2IT    H2  582   3.117   1.613   3.021
   18X2IT    N1  583   2.978   1.787   3.025
   18X2IT   H14  584   3.001   1.791   3.125
   18X2IT    C1  585   3.097   1.825   2.947
   18X2IT    H1  586   3.184   1.868   2.996
   18X2IT   C11  587   3.065   1.870   2.806
   18X2IT    O3  588   3.190   1.869   2.740
   18X2IT   C15  589   3.188   1.869   2.596
   19X2IT   H18  590   0.705   5.465   0.508
   19X2IT    N4  591   0.637   5.396   0.534
   19X2IT   H17  592   0.587   5.409   0.621
   19X2IT   C14  593   0.574   5.331   0.431
   19X2IT    O5  594   0.612   5.331   0.315
   19X2IT    O4  595   0.465   5.264   0.477
   19X2IT   C13  596   0.392   5.186   0.381
   19X2IT   C10  597   0.457   5.048   0.360
   19X2IT    C9  598   0.379   4.960   0.264
   19X2IT    C4  599   0.343   4.842   0.326
   19X2IT    C5  600   0.264   4.733   0.260
   19X2IT    O1  601   0.239   4.629   0.322
   19X2IT    C6  602   0.223   4.757   0.123
   19X2IT   C12  603   0.143   4.651   0.050
   19X2IT    C7  604   0.261   4.874   0.061
   19X2IT    C8  605   0.342   4.984   0.130
   19X2IT    O2  606   0.366   5.088   0.065
   19X2IT    N3  607   0.230   4.905  -0.066
   19X2IT   H15  608   0.175   4.844  -0.125
   19X2IT   H16  609   0.261   4.995  -0.102
   19X2IT    N2  610   0.393   4.833   0.452
   19X2IT    C3  611   0.331   4.768   0.570
   19X2IT    C2  612   0.319   4.884   0.668
   19X2IT    H2  613   0.308   4.864   0.774
   19X2IT    N1  614   0.250   5.001   0.608
   19X2IT   H14  615   0.212   5.060   0.682
   19X2IT    C1  616   0.397   5.000   0.618
   19X2IT    H1  617   0.448   5.069   0.683
   19X2IT   C11  618   0.466   4.958   0.489
   19X2IT    O3  619   0.599   4.931   0.528
   19X2IT   C15  620   0.679   4.853   0.439
   20X2IT   H18  621   0.600   4.409   3.942
   20X2IT    N4  622   0.629   4.505   3.953
   20X2IT   H17  623   0.628   4.563   3.870
   20X2IT   C14  624   0.606   4.562   4.074
   20X2IT    O5  625   0.579   4.502   4.177
   20X2IT    O4  626   0.621   4.698   4.066
   20X2IT   C13  627   0.606   4.771   4.189
   20X2IT   C10  628   0.737   4.771   4.271
   20X2IT    C9  629   0.728   4.853   4.397
   20X2IT    C4  630   0.824   4.952   4.397
   20X2IT    C5  631   0.842   5.052   4.508
   20X2IT    O1  632   0.934   5.135   4.501
   20X2IT    C6  633   0.749   5.043   4.618
   20X2IT   C12  634   0.761   5.141   4.733
   20X2IT    C7  635   0.653   4.944   4.618
   20X2IT    C8  636   0.636   4.842   4.505
   20X2IT    O2  637   0.544   4.760   4.514
   20X2IT    N3  638   0.563   4.927   4.717
   20X2IT   H15  639   0.559   4.986   4.798
   20X2IT   H16  640   0.496   4.851   4.706
   20X2IT    N2  641   0.906   4.943   4.289
   20X2IT    C3  642   0.972   5.053   4.216
   20X2IT    C2  643   0.915   5.037   4.076
   20X2IT    H2  644   0.968   5.081   3.991
   20X2IT    N1  645   0.768   5.031   4.075
   20X2IT   H14  646   0.733   5.055   3.982
   20X2IT    C1  647   0.846   4.906   4.065
   20X2IT    H1  648   0.845   4.847   3.975
   20X2IT   C11  649   0.862   4.834   4.198
   20X2IT    O3  650   0.965   4.740   4.174
   20X2IT   C15  651   1.030   4.683   4.289
   21X2IT   H18  652   0.758   3.983   1.190
   21X2IT    N4  653   0.788   3.896   1.149
   21X2IT   H17  654   0.832   3.900   1.059
   21X2IT   C14  655   0.824   3.797   1.236
   21X2IT    O5  656   0.798   3.795   1.355
   21X2IT    O4  657   0.890   3.698   1.169
   21X2IT   C13  658   0.928   3.583   1.248
   21X2IT   C10  659   0.812   3.483   1.262
   21X2IT    C9  660   0.851   3.358   1.338
   21X2IT    C4  661   0.829   3.246   1.259
   21X2IT    C5  662   0.857   3.106   1.304
   21X2IT    O1  663   0.831   3.011   1.228
   21X2IT    C6  664   0.914   3.090   1.436
   21X2IT   C12  665   0.946   2.951   1.487
   21X2IT    C7  666   0.935   3.202   1.514
   21X2IT    C8  667   0.905   3.344   1.468
   21X2IT    O2  668   0.932   3.438   1.545
   21X2IT    N3  669   0.986   3.197   1.639
   21X2IT   H15  670   1.013   3.112   1.684
   21X2IT   H16  671   0.999   3.286   1.687
   21X2IT    N2  672   0.771   3.277   1.141
   21X2IT    C3  673   0.789   3.211   1.011
   21X2IT    C2  674   0.844   3.324   0.924
   21X2IT    H2  675   0.837   3.317   0.816
   21X2IT    N1  676   0.960   3.391   0.986
   21X2IT   H14  677   1.014   3.439   0.914
   21X2IT    C1  678   0.827   3.453   0.995
   21X2IT    H1  679   0.805   3.546   0.944
   21X2IT   C11  680   0.756   3.425   1.127
   21X2IT    O3  681   0.622   3.463   1.102
   21X2IT   C15  682   0.522   3.413   1.193
   22X2IT   H18  683   1.777   0.931   2.795
   22X2IT    N4  684   1.715   0.881   2.732
   22X2IT   H17  685   1.616   0.885   2.751
   22X2IT   C14  686   1.757   0.869   2.603
   22X2IT    O5  687   1.871   0.888   2.564
   22X2IT    O4  688   1.654   0.829   2.524
   22X2IT   C13  689   1.685   0.806   2.385
   22X2IT   C10  690   1.744   0.665   2.363
   22X2IT    C9  691   1.772   0.635   2.217
   22X2IT    C4  692   1.703   0.522   2.178
   22X2IT    C5  693   1.707   0.464   2.040
   22X2IT    O1  694   1.645   0.360   2.015
   22X2IT    C6  695   1.788   0.535   1.943
   22X2IT   C12  696   1.796   0.483   1.801
   22X2IT    C7  697   1.858   0.648   1.982
   22X2IT    C8  698   1.853   0.705   2.124
   22X2IT    O2  699   1.916   0.809   2.147
   22X2IT    N3  700   1.936   0.719   1.900
   22X2IT   H15  701   1.949   0.697   1.803
   22X2IT   H16  702   1.982   0.802   1.940
   22X2IT    N2  703   1.636   0.464   2.282
   22X2IT    C3  704   1.508   0.392   2.278
   22X2IT    C2  705   1.421   0.475   2.372
   22X2IT    H2  706   1.332   0.431   2.416
   22X2IT    N1  707   1.422   0.619   2.336
   22X2IT   H14  708   1.340   0.665   2.376
   22X2IT    C1  709   1.507   0.571   2.447
   22X2IT    H1  710   1.487   0.600   2.549
   22X2IT   C11  711   1.652   0.546   2.406
   22X2IT    O3  712   1.705   0.470   2.513
   22X2IT   C15  713   1.827   0.398   2.487
   23X2IT   H18  714   2.018   4.352   2.742
   23X2IT    N4  715   1.928   4.345   2.786
   23X2IT   H17  716   1.923   4.365   2.885
   23X2IT   C14  717   1.820   4.373   2.707
   23X2IT    O5  718   1.821   4.378   2.585
   23X2IT    O4  719   1.709   4.390   2.785
   23X2IT   C13  720   1.585   4.413   2.714
   23X2IT   C10  721   1.521   4.282   2.668
   23X2IT    C9  722   1.388   4.301   2.599
   23X2IT    C4  723   1.289   4.230   2.666
   23X2IT    C5  724   1.145   4.229   2.624
   23X2IT    O1  725   1.064   4.159   2.687
   23X2IT    C6  726   1.110   4.310   2.510
   23X2IT   C12  727   0.965   4.313   2.463
   23X2IT    C7  728   1.208   4.380   2.443
   23X2IT    C8  729   1.355   4.380   2.486
   23X2IT    O2  730   1.435   4.450   2.421
   23X2IT    N3  731   1.186   4.457   2.335
   23X2IT   H15  732   1.094   4.469   2.295
   23X2IT   H16  733   1.266   4.505   2.295
   23X2IT    N2  734   1.339   4.156   2.767
   23X2IT    C3  735   1.275   4.122   2.895
   23X2IT    C2  736   1.371   4.183   2.997
   23X2IT    H2  737   1.370   4.148   3.100
   23X2IT    N1  738   1.401   4.325   2.968
   23X2IT   H14  739   1.435   4.370   3.053
   23X2IT    C1  740   1.498   4.220   2.928
   23X2IT    H1  741   1.595   4.214   2.976
   23X2IT   C11  742   1.486   4.180   2.782
   23X2IT    O3  743   1.560   4.059   2.774
   23X2IT   C15  744   1.537   3.976   2.660
   24X2IT   H18  745   2.942   2.766   4.982
   24X2IT    N4  746   2.868   2.746   4.918
   24X2IT   H17  747   2.792   2.688   4.952
   24X2IT   C14  748   2.841   2.840   4.823
   24X2IT    O5  749   2.916   2.932   4.792
   24X2IT    O4  750   2.721   2.815   4.764
   24X2IT   C13  751   2.682   2.903   4.656
   24X2IT   C10  752   2.746   2.860   4.523
   24X2IT    C9  753   2.703   2.946   4.406
   24X2IT    C4  754   2.644   2.868   4.309
   24X2IT    C5  755   2.589   2.922   4.180
   24X2IT    O1  756   2.542   2.844   4.096
   24X2IT    C6  757   2.597   3.065   4.161
   24X2IT   C12  758   2.544   3.126   4.034
   24X2IT    C7  759   2.657   3.143   4.258
   24X2IT    C8  760   2.714   3.086   4.389
   24X2IT    O2  761   2.761   3.166   4.471
   24X2IT    N3  762   2.671   3.276   4.249
   24X2IT   H15  763   2.638   3.330   4.171
   24X2IT   H16  764   2.716   3.324   4.328
   24X2IT    N2  765   2.649   2.736   4.339
   24X2IT    C3  766   2.550   2.632   4.306
   24X2IT    C2  767   2.508   2.582   4.444
   24X2IT    H2  768   2.462   2.483   4.453
   24X2IT    N1  769   2.467   2.692   4.533
   24X2IT   H14  770   2.408   2.654   4.608
   24X2IT    C1  771   2.602   2.634   4.546
   24X2IT    H1  772   2.631   2.578   4.634
   24X2IT   C11  773   2.709   2.715   4.474
   24X2IT    O3  774   2.821   2.628   4.469
   24X2IT   C15  775   2.924   2.660   4.375
   25X2IT   H18  776   5.138   0.859   2.676
   25X2IT    N4  777   5.057   0.918   2.667
   25X2IT   H17  778   5.063   1.011   2.705
   25X2IT   C14  779   4.978   0.896   2.557
   25X2IT    O5  780   4.982   0.797   2.486
   25X2IT    O4  781   4.892   1.001   2.540
   25X2IT   C13  782   4.797   0.989   2.432
   25X2IT   C10  783   4.675   0.906   2.473
   25X2IT    C9  784   4.570   0.896   2.364
   25X2IT    C4  785   4.449   0.946   2.410
   25X2IT    C5  786   4.325   0.952   2.326
   25X2IT    O1  787   4.220   0.995   2.377
   25X2IT    C6  788   4.336   0.906   2.190
   25X2IT   C12  789   4.214   0.910   2.100
   25X2IT    C7  790   4.456   0.856   2.145
   25X2IT    C8  791   4.583   0.849   2.231
   25X2IT    O2  792   4.687   0.806   2.179
   25X2IT    N3  793   4.476   0.809   2.021
   25X2IT   H15  794   4.404   0.808   1.950
   25X2IT   H16  795   4.570   0.775   1.997
   25X2IT    N2  796   4.455   0.981   2.541
   25X2IT    C3  797   4.382   1.090   2.608
   25X2IT    C2  798   4.496   1.175   2.662
   25X2IT    H2  799   4.477   1.244   2.744
   25X2IT    N1  800   4.594   1.210   2.558
   25X2IT   H14  801   4.647   1.293   2.587
   25X2IT    C1  802   4.624   1.100   2.651
   25X2IT    H1  803   4.704   1.109   2.724
   25X2IT   C11  804   4.592   0.963   2.594
   25X2IT    O3  805   4.594   0.877   2.707
   25X2IT   C15  806   4.531   0.749   2.694
   26X2IT   H18  807   4.144   2.809   4.101
   26X2IT    N4  808   4.211   2.743   4.065
   26X2IT   H17  809   4.256   2.766   3.978
   26X2IT   C14  810   4.279   2.668   4.157
   26X2IT    O5  811   4.248   2.655   4.274
   26X2IT    O4  812   4.386   2.607   4.098
   26X2IT   C13  813   4.464   2.520   4.182
   26X2IT   C10  814   4.401   2.380   4.191
   26X2IT    C9  815   4.483   2.283   4.273
   26X2IT    C4  816   4.517   2.172   4.196
   26X2IT    C5  817   4.599   2.057   4.247
   26X2IT    O1  818   4.621   1.961   4.172
   26X2IT    C6  819   4.647   2.067   4.382
   26X2IT   C12  820   4.731   1.955   4.439
   26X2IT    C7  821   4.613   2.177   4.459
   26X2IT    C8  822   4.528   2.293   4.407
   26X2IT    O2  823   4.507   2.389   4.483
   26X2IT    N3  824   4.651   2.194   4.587
   26X2IT   H15  825   4.709   2.128   4.636
   26X2IT   H16  826   4.621   2.280   4.633
   26X2IT    N2  827   4.460   2.177   4.073
   26X2IT    C3  828   4.515   2.125   3.946
   26X2IT    C2  829   4.522   2.251   3.861
   26X2IT    H2  830   4.527   2.242   3.752
   26X2IT    N1  831   4.594   2.361   3.929
   26X2IT   H14  832   4.627   2.428   3.859
   26X2IT    C1  833   4.446   2.360   3.927
   26X2IT    H1  834   4.391   2.435   3.872
   26X2IT   C11  835   4.385   2.304   4.054
   26X2IT    O3  836   4.249   2.280   4.019
   26X2IT   C15  837   4.174   2.193   4.104
   27X2IT   H18  838   4.551   2.072   2.607
   27X2IT    N4  839   4.606   2.058   2.689
   27X2IT   H17  840   4.701   2.095   2.688
   27X2IT   C14  841   4.539   2.052   2.808
   27X2IT    O5  842   4.419   2.034   2.820
   27X2IT    O4  843   4.627   2.064   2.912
   27X2IT   C13  844   4.570   2.053   3.045
   27X2IT   C10  845   4.555   1.906   3.087
   27X2IT    C9  846   4.503   1.890   3.228
   27X2IT    C4  847   4.592   1.817   3.304
   27X2IT    C5  848   4.571   1.783   3.449
   27X2IT    O1  849   4.655   1.714   3.508
   27X2IT    C6  850   4.451   1.834   3.510
   27X2IT   C12  851   4.424   1.805   3.656
   27X2IT    C7  852   4.361   1.906   3.433
   27X2IT    C8  853   4.383   1.939   3.286
   27X2IT    O2  854   4.298   2.009   3.228
   27X2IT    N3  855   4.246   1.956   3.481
   27X2IT   H15  856   4.217   1.946   3.576
   27X2IT   H16  857   4.188   2.010   3.416
   27X2IT    N2  858   4.697   1.772   3.230
   27X2IT    C3  859   4.837   1.753   3.274
   27X2IT    C2  860   4.913   1.847   3.181
   27X2IT    H2  861   5.020   1.832   3.165
   27X2IT    N1  862   4.857   1.984   3.182
   27X2IT   H14  863   4.929   2.049   3.149
   27X2IT    C1  864   4.823   1.892   3.072
   27X2IT    H1  865   4.858   1.911   2.971
   27X2IT   C11  866   4.689   1.823   3.090
   27X2IT    O3  867   4.691   1.717   2.996
   27X2IT   C15  868   4.596   1.611   3.014
   28X2IT   H18  869   0.130   3.617   3.710
   28X2IT    N4  870   0.092   3.566   3.632
   28X2IT   H17  871   0.019   3.610   3.579
   28X2IT   C14  872   0.178   3.480   3.570
   28X2IT    O5  873   0.284   3.441   3.615
   28X2IT    O4  874   0.126   3.441   3.450
   28X2IT   C13  875   0.203   3.345   3.375
   28X2IT   C10  876   0.175   3.201   3.423
   28X2IT    C9  877   0.249   3.096   3.343
   28X2IT    C4  878   0.159   3.007   3.287
   28X2IT    C5  879   0.199   2.891   3.201
   28X2IT    O1  880   0.112   2.814   3.158
   28X2IT    C6  881   0.340   2.877   3.173
   28X2IT   C12  882   0.388   2.762   3.086
   28X2IT    C7  883   0.430   2.965   3.230
   28X2IT    C8  884   0.388   3.083   3.319
   28X2IT    O2  885   0.477   3.159   3.360
   28X2IT    N3  886   0.563   2.959   3.212
   28X2IT   H15  887   0.607   2.889   3.155
   28X2IT   H16  888   0.620   3.031   3.257
   28X2IT    N2  889   0.032   3.032   3.326
   28X2IT    C3  890  -0.092   3.011   3.249
   28X2IT    C2  891  -0.150   3.152   3.244
   28X2IT    H2  892  -0.256   3.166   3.223
   28X2IT    N1  893  -0.052   3.251   3.195
   28X2IT   H14  894  -0.102   3.334   3.160
   28X2IT    C1  895  -0.077   3.239   3.340
   28X2IT    H1  896  -0.125   3.320   3.394
   28X2IT   C11  897   0.026   3.154   3.412
   28X2IT    O3  898  -0.034   3.127   3.538
   28X2IT   C15  899   0.020   3.018   3.614
   29X2IT   H18  900   0.639   0.205   2.476
   29X2IT    N4  901   0.557   0.255   2.504
   29X2IT   H17  902   0.476   0.248   2.444
   29X2IT   C14  903   0.538   0.272   2.639
   29X2IT    O5  904   0.624   0.256   2.724
   29X2IT    O4  905   0.410   0.313   2.663
   29X2IT   C13  906   0.377   0.341   2.801
   29X2IT   C10  907   0.421   0.483   2.841
   29X2IT    C9  908   0.382   0.519   2.983
   29X2IT    C4  909   0.303   0.632   2.983
   29X2IT    C5  910   0.246   0.694   3.108
   29X2IT    O1  911   0.178   0.798   3.099
   29X2IT    C6  912   0.276   0.628   3.232
   29X2IT   C12  913   0.222   0.685   3.362
   29X2IT    C7  914   0.357   0.515   3.232
   29X2IT    C8  915   0.415   0.454   3.104
   29X2IT    O2  916   0.482   0.350   3.115
   29X2IT    N3  917   0.392   0.448   3.342
   29X2IT   H15  918   0.361   0.474   3.434
   29X2IT   H16  919   0.451   0.365   3.330
   29X2IT    N2  920   0.288   0.685   2.859
   29X2IT    C3  921   0.170   0.754   2.804
   29X2IT    C2  922   0.133   0.666   2.685
   29X2IT    H2  923   0.073   0.707   2.604
   29X2IT    N1  924   0.119   0.524   2.723
   29X2IT   H14  925   0.063   0.476   2.653
   29X2IT    C1  926   0.244   0.571   2.658
   29X2IT    H1  927   0.270   0.537   2.559
   29X2IT   C11  928   0.356   0.600   2.757
   29X2IT    O3  929   0.450   0.673   2.682
   29X2IT   C15  930   0.548   0.748   2.755
   30X2IT   H18  931   2.107   2.320   3.878
   30X2IT    N4  932   2.154   2.257   3.816
   30X2IT   H17  933   2.184   2.168   3.855
   30X2IT   C14  934   2.118   2.263   3.684
   30X2IT    O5  935   2.057   2.355   3.632
   30X2IT    O4  936   2.165   2.153   3.618
   30X2IT   C13  937   2.141   2.149   3.476
   30X2IT   C10  938   2.246   2.230   3.398
   30X2IT    C9  939   2.228   2.223   3.248
   30X2IT    C4  940   2.342   2.172   3.189
   30X2IT    C5  941   2.357   2.151   3.041
   30X2IT    O1  942   2.465   2.108   2.996
   30X2IT    C6  943   2.243   2.183   2.959
   30X2IT   C12  944   2.251   2.164   2.809
   30X2IT    C7  945   2.129   2.235   3.019
   30X2IT    C8  946   2.116   2.257   3.170
   30X2IT    O2  947   2.008   2.300   3.213
   30X2IT    N3  948   2.019   2.270   2.951
   30X2IT   H15  949   2.010   2.261   2.851
   30X2IT   H16  950   1.940   2.306   3.006
   30X2IT    N2  951   2.442   2.150   3.279
   30X2IT    C3  952   2.545   2.045   3.277
   30X2IT    C2  953   2.518   1.972   3.407
   30X2IT    H2  954   2.596   1.910   3.452
   30X2IT    N1  955   2.376   1.931   3.421
   30X2IT   H14  956   2.369   1.855   3.489
   30X2IT    C1  957   2.425   2.052   3.491
   30X2IT    H1  958   2.431   2.054   3.599
   30X2IT   C11  959   2.395   2.181   3.417
   30X2IT    O3  960   2.477   2.277   3.481
   30X2IT   C15  961   2.501   2.400   3.410
   31X2IT   H18  962   3.558   4.468   3.535
   31X2IT    N4  963   3.558   4.489   3.634
   31X2IT   H17  964   3.477   4.536   3.671
   31X2IT   C14  965   3.627   4.402   3.714
   31X2IT    O5  966   3.710   4.321   3.675
   31X2IT    O4  967   3.594   4.423   3.844
   31X2IT   C13  968   3.664   4.343   3.941
   31X2IT   C10  969   3.801   4.404   3.976
   31X2IT    C9  970   3.875   4.326   4.083
   31X2IT    C4  971   3.903   4.408   4.191
   31X2IT    C5  972   3.975   4.363   4.314
   31X2IT    O1  973   3.999   4.444   4.405
   31X2IT    C6  974   4.013   4.223   4.319
   31X2IT   C12  975   4.086   4.171   4.441
   31X2IT    C7  976   3.986   4.142   4.211
   31X2IT    C8  977   3.914   4.190   4.085
   31X2IT    O2  978   3.891   4.107   3.996
   31X2IT    N3  979   4.020   4.012   4.205
   31X2IT   H15  980   4.066   3.964   4.280
   31X2IT   H16  981   3.993   3.961   4.121
   31X2IT    N2  982   3.865   4.537   4.169
   31X2IT    C3  983   3.816   4.634   4.267
   31X2IT    C2  984   3.677   4.667   4.212
   31X2IT    H2  985   3.627   4.759   4.243
   31X2IT    N1  986   3.597   4.545   4.187
   31X2IT   H14  987   3.497   4.570   4.185
   31X2IT    C1  988   3.664   4.613   4.075
   31X2IT    H1  989   3.607   4.662   3.997
   31X2IT   C11  990   3.797   4.549   4.037
   31X2IT    O3  991   3.859   4.646   3.954
   31X2IT   C15  992   4.000   4.633   3.933
   32SOL     OW  993   0.230   0.628   0.113
   32SOL    HW1  994   0.137   0.626   0.150
   32SOL    HW2  995   0.231   0.589   0.021
   33SOL     OW  996   0.225   0.275   0.996
   33SOL    HW1  997   0.260   0.258   1.088
   33SOL    HW2  998   0.137   0.230   0.984
   34SOL     OW  999   0.019   0.368   0.647
   34SOL    HW1 1000  -0.063   0.411   0.686
   34SOL    HW2 1001  -0.009   0.295   0.584
   35SOL     OW 1002   0.569   1.275   1.165
   35SOL    HW1 1003   0.476   1.268   1.128
   35SOL    HW2 1004   0.580   1.364   1.209
   36SOL     OW 1005   1.555   1.511   0.703
   36SOL    HW1 1006   1.498   1.495   0.784
   36SOL    HW2 1007   1.496   1.521   0.623
   37SOL     OW 1008   1.135   0.703   0.717
   37SOL    HW1 1009   1.192   0.781   0.692
   37SOL    HW2 1010   1.075   0.729   0.793
   38SOL     OW 1011   1.755   0.607   0.231
   38SOL    HW1 1012   1.743   0.594   0.132
   38SOL    HW2 1013   1.725   0.526   0.280
   39SOL     OW 1014   0.768   1.144   1.023
   39SOL    HW1 1015   0.690   1.161   1.083
   39SOL    HW2 1016   0.802   1.231   0.987
   40SOL     OW 1017   0.850   0.798   1.823
   40SOL    HW1 1018   0.846   0.874   1.888
   40SOL    HW2 1019   0.872   0.834   1.732
   41SOL     OW 1020   0.685   1.012   0.665
   41SOL    HW1 1021   0.754   0.996   0.735
   41SOL    HW2 1022   0.612   1.069   0.703
   42SOL     OW 1023   0.686   1.161   1.803
   42SOL    HW1 1024   0.746   1.240   1.817
   42SOL    HW2 1025   0.600   1.192   1.762
   43SOL     OW 1026   0.335   1.435   1.061
   43SOL    HW1 1027   0.257   1.404   1.008
   43SOL    HW2 1028   0.393   1.493   1.004
   44SOL     OW 1029   1.460   1.505   1.339
   44SOL    HW1 1030   1.484   1.599   1.365
   44SOL    HW2 1031   1.444   1.451   1.421
   45SOL     OW 1032   0.438   0.392   1.499
   45SOL    HW1 1033   0.520   0.336   1.508
   45SOL    HW2 1034   0.357   0.334   1.503
   46SOL     OW 1035   1.603   0.447   0.737
   46SOL    HW1 1036   1.529   0.493   0.687
   46SOL    HW2 1037   1.654   0.515   0.790
   47SOL     OW 1038   0.231   1.713   0.483
   47SOL    HW1 1039   0.265   1.790   0.537
   47SOL    HW2 1040   0.275   1.713   0.393
   48SOL     OW 1041   1.127   1.341   1.690
   48SOL    HW1 1042   1.174   1.341   1.778
   48SOL    HW2 1043   1.079   1.254   1.679
   49SOL     OW 1044   0.230   1.434   0.538
   49SOL    HW1 1045   0.204   1.530   0.538
   49SOL    HW2 1046   0.159   1.380   0.583
   50SOL     OW 1047   0.240   1.091   0.886
   50SOL    HW1 1048   0.254   1.007   0.938
   50SOL    HW2 1049   0.185   1.155   0.941
   51SOL     OW 1050   0.620   1.786   1.439
   51SOL    HW1 1051   0.528   1.769   1.474
   51SOL    HW2 1052   0.648   1.878   1.465
   52SOL     OW 1053   0.606   0.964   0.123
   52SOL    HW1 1054   0.613   1.048   0.069
   52SOL    HW2 1055   0.652   0.977   0.211
   53SOL     OW 1056   1.594   0.114   1.480
   53SOL    HW1 1057   1.576   0.181   1.408
   53SOL    HW2 1058   1.591   0.160   1.569
   54SOL     OW 1059   0.122   0.643   0.563
   54SOL    HW1 1060   0.077   0.555   0.580
   54SOL    HW2 1061   0.121   0.697   0.647
   55SOL     OW 1062   1.842   1.767   0.359
   55SOL    HW1 1063   1.896   1.738   0.439
   55SOL    HW2 1064   1.872   1.857   0.330
   56SOL     OW 1065   0.027   1.596   0.117
   56SOL    HW1 1066   0.008   1.500   0.138
   56SOL    HW2 1067  -0.006   1.654   0.192
   57SOL     OW 1068   1.689   0.922   0.612
   57SOL    HW1 1069   1.784   0.893   0.620
   57SOL    HW2 1070   1.681   0.987   0.537
   58SOL     OW 1071   1.641   1.108   0.432
   58SOL    HW1 1072   1.727   1.110   0.380
   58SOL    HW2 1073   1.655   1.155   0.520
   59SOL     OW 1074   0.113   0.737   1.597
   59SOL    HW1 1075   0.201   0.724   1.642
   59SOL    HW2 1076   0.100   0.834   1.575
   60SOL     OW 1077   0.613   1.365   0.726
   60SOL    HW1 1078   0.564   1.278   0.735
   60SOL    HW2 1079   0.590   1.408   0.639
   61SOL     OW 1080   1.293   1.228   1.423
   61SOL    HW1 1081   1.330   1.155   1.365
   61SOL    HW2 1082   1.345   1.233   1.508
   62SOL     OW 1083   0.809   0.004   0.502
   62SOL    HW1 1084   0.849   0.095   0.493
   62SOL    HW2 1085   0.709   0.012   0.508
   63SOL     OW 1086   0.197   0.976   1.264
   63SOL    HW1 1087   0.286   0.931   1.250
   63SOL    HW2 1088   0.124   0.911   1.245
   64SOL     OW 1089   1.525   0.999   0.190
   64SOL    HW1 1090   1.462   0.923   0.203
   64SOL    HW2 1091   1.573   1.017   0.276
   65SOL     OW 1092   1.187   1.792   1.616
   65SOL    HW1 1093   1.211   1.852   1.540
   65SOL    HW2 1094   1.194   1.697   1.586
   66SOL     OW 1095   0.317   0.251   1.801
   66SOL    HW1 1096   0.388   0.322   1.807
   66SOL    HW2 1097   0.229   0.290   1.829
   67SOL     OW 1098   1.466   1.417   0.953
   67SOL    HW1 1099   1.407   1.423   1.033
   67SOL    HW2 1100   1.451   1.329   0.907
   68SOL     OW 1101   1.667   1.714   0.572
   68SOL    HW1 1102   1.626   1.691   0.484
   68SOL    HW2 1103   1.649   1.640   0.637
   69SOL     OW 1104   0.598   0.729   0.270
   69SOL    HW1 1105   0.622   0.798   0.202
   69SOL    HW2 1106   0.520   0.762   0.324
   70SOL     OW 1107   1.281   0.345   0.944
   70SOL    HW1 1108   1.195   0.295   0.931
   70SOL    HW2 1109   1.343   0.291   1.000
   71SOL     OW 1110   1.576   1.662   0.307
   71SOL    HW1 1111   1.665   1.708   0.310
   71SOL    HW2 1112   1.555   1.638   0.212
   72SOL     OW 1113   0.807   0.605   1.465
   72SOL    HW1 1114   0.760   0.602   1.554
   72SOL    HW2 1115   0.756   0.550   1.399
   73SOL     OW 1116   1.394   0.469   1.674
   73SOL    HW1 1117   1.374   0.512   1.762
   73SOL    HW2 1118   1.472   0.407   1.683
   74SOL     OW 1119   0.973   0.890   1.572
   74SOL    HW1 1120   1.019   0.806   1.543
   74SOL    HW2 1121   0.917   0.924   1.497
   75SOL     OW 1122   0.991   0.410   1.242
   75SOL    HW1 1123   0.914   0.444   1.296
   75SOL    HW2 1124   0.957   0.359   1.163
   76SOL     OW 1125   1.041   0.701   0.429
   76SOL    HW1 1126   1.067   0.697   0.525
   76SOL    HW2 1127   0.956   0.650   0.415
   77SOL     OW 1128   0.076   0.811   0.789
   77SOL    HW1 1129   0.175   0.799   0.798
   77SOL    HW2 1130   0.052   0.906   0.810
   78SOL     OW 1131   0.130   1.821   1.571
   78SOL    HW1 1132   0.120   1.806   1.670
   78SOL    HW2 1133   0.044   1.857   1.535
   79SOL     OW 1134   0.865   0.348   0.195
   79SOL    HW1 1135   0.924   0.411   0.146
   79SOL    HW2 1136   0.884   0.254   0.166
   80SOL     OW 1137   1.362   1.144   0.545
   80SOL    HW1 1138   1.445   1.115   0.497
   80SOL    HW2 1139   1.313   1.211   0.489
   81SOL     OW 1140   0.550   0.196   0.885
   81SOL    HW1 1141   0.545   0.191   0.985
   81SOL    HW2 1142   0.552   0.292   0.856
   82SOL     OW 1143   1.008   1.456   0.477
   82SOL    HW1 1144   0.962   1.528   0.425
   82SOL    HW2 1145   1.004   1.476   0.575
   83SOL     OW 1146   0.351   1.801   0.853
   83SOL    HW1 1147   0.401   1.715   0.859
   83SOL    HW2 1148   0.416   1.878   0.850
   84SOL     OW 1149   1.795   1.066   0.873
   84SOL    HW1 1150   1.733   1.051   0.797
   84SOL    HW2 1151   1.743   1.077   0.958
   85SOL     OW 1152   1.227   1.550   1.506
   85SOL    HW1 1153   1.233   1.473   1.570
   85SOL    HW2 1154   1.175   1.524   1.426
   86SOL     OW 1155   0.321   0.943   0.242
   86SOL    HW1 1156   0.403   0.982   0.200
   86SOL    HW2 1157   0.294   0.861   0.193
   87SOL     OW 1158   1.458   0.735   0.728
   87SOL    HW1 1159   1.453   0.670   0.803
   87SOL    HW2 1160   1.538   0.794   0.741
   88SOL     OW 1161   0.461   1.266   1.727
   88SOL    HW1 1162   0.411   1.267   1.641
   88SOL    HW2 1163   0.398   1.248   1.803
   89SOL     OW 1164   1.111   1.776   0.237
   89SOL    HW1 1165   1.051   1.714   0.287
   89SOL    HW2 1166   1.142   1.732   0.152
   90SOL     OW 1167   0.202   0.285   1.498
   90SOL    HW1 1168   0.122   0.345   1.485
   90SOL    HW2 1169   0.192   0.236   1.584
   91SOL     OW 1170   1.632   1.377   0.081
   91SOL    HW1 1171   1.600   1.471   0.071
   91SOL    HW2 1172   1.556   1.314   0.069
   92SOL     OW 1173   0.464   1.743   0.323
   92SOL    HW1 1174   0.497   1.782   0.409
   92SOL    HW2 1175   0.540   1.736   0.258
   93SOL     OW 1176   1.400   0.107   0.426
   93SOL    HW1 1177   1.376   0.070   0.336
   93SOL    HW2 1178   1.499   0.123   0.430
   94SOL     OW 1179   0.249   1.785   1.241
   94SOL    HW1 1180   0.306   1.720   1.291
   94SOL    HW2 1181   0.233   1.752   1.148
   95SOL     OW 1182   0.940   1.698   0.904
   95SOL    HW1 1183   1.020   1.641   0.925
   95SOL    HW2 1184   0.891   1.658   0.827
   96SOL     OW 1185   0.382   0.700   0.480
   96SOL    HW1 1186   0.427   0.610   0.477
   96SOL    HW2 1187   0.288   0.689   0.513
   97SOL     OW 1188   1.547   0.222   1.729
   97SOL    HW1 1189   1.542   0.259   1.821
   97SOL    HW2 1190   1.475   0.153   1.717
   98SOL     OW 1191   0.614   0.122   0.117
   98SOL    HW1 1192   0.712   0.100   0.124
   98SOL    HW2 1193   0.583   0.105   0.024
   99SOL     OW 1194   0.781   0.264   1.749
   99SOL    HW1 1195   0.848   0.203   1.792
   99SOL    HW2 1196   0.708   0.283   1.814
  100SOL     OW 1197   0.888   1.514   1.195
  100SOL    HW1 1198   0.865   1.489   1.101
  100SOL    HW2 1199   0.949   1.445   1.234
  101SOL     OW 1200   1.351   0.590   1.433
  101SOL    HW1 1201   1.379   0.547   1.518
  101SOL    HW2 1202   1.376   0.686   1.434
  102SOL     OW 1203   0.803   1.402   0.924
  102SOL    HW1 1204   0.893   1.416   0.882
  102SOL    HW2 1205   0.732   1.404   0.853
  103SOL     OW 1206   0.922   0.503   0.899
  103SOL    HW1 1207   0.897   0.494   0.803
  103SOL    HW2 1208   0.970   0.421   0.930
  104SOL     OW 1209   1.434   1.188   0.041
  104SOL    HW1 1210   1.466   1.112   0.098
  104SOL    HW2 1211   1.342   1.215   0.071
  105SOL     OW 1212   0.935   0.236   0.480
  105SOL    HW1 1213   0.887   0.277   0.402
  105SOL    HW2 1214   1.034   0.234   0.461
  106SOL     OW 1215   1.076   0.683   1.464
  106SOL    HW1 1216   0.996   0.622   1.467
  106SOL    HW2 1217   1.157   0.630   1.440
  107SOL     OW 1218   1.227   1.570   0.793
  107SOL    HW1 1219   1.248   1.644   0.728
  107SOL    HW2 1220   1.295   1.570   0.866
  108SOL     OW 1221   0.459   1.152   0.741
  108SOL    HW1 1222   0.388   1.125   0.806
  108SOL    HW2 1223   0.433   1.124   0.648
  109SOL     OW 1224   1.271   1.797   0.591
  109SOL    HW1 1225   1.315   1.861   0.527
  109SOL    HW2 1226   1.221   1.849   0.661
  110SOL     OW 1227   1.032   0.549   0.016
  110SOL    HW1 1228   0.991   0.631  -0.023
  110SOL    HW2 1229   1.096   0.575   0.089
  111SOL     OW 1230   0.078   0.556   1.386
  111SOL    HW1 1231   0.170   0.555   1.345
  111SOL    HW2 1232   0.072   0.630   1.453
  112SOL     OW 1233   0.561   0.222   1.147
  112SOL    HW1 1234   0.599   0.138   1.184
  112SOL    HW2 1235   0.473   0.241   1.191
  113SOL     OW 1236   0.866   0.454   0.642
  113SOL    HW1 1237   0.834   0.526   0.580
  113SOL    HW2 1238   0.890   0.373   0.589
  114SOL     OW 1239   1.017   0.039   0.753
  114SOL    HW1 1240   0.945   0.044   0.684
  114SOL    HW2 1241   0.993  -0.030   0.822
  115SOL     OW 1242   1.429   1.173   0.867
  115SOL    HW1 1243   1.374   1.089   0.860
  115SOL    HW2 1244   1.455   1.202   0.775
  116SOL     OW 1245   1.466   0.590   0.992
  116SOL    HW1 1246   1.436   0.495   0.999
  116SOL    HW2 1247   1.539   0.606   1.058
  117SOL     OW 1248   1.857   0.833   0.377
  117SOL    HW1 1249   1.899   0.769   0.441
  117SOL    HW2 1250   1.819   0.782   0.299
  118SOL     OW 1251   0.488   1.385   0.174
  118SOL    HW1 1252   0.401   1.370   0.221
  118SOL    HW2 1253   0.471   1.411   0.079
  119SOL     OW 1254   1.664   1.280   0.657
  119SOL    HW1 1255   1.763   1.288   0.671
  119SOL    HW2 1256   1.619   1.364   0.688
  120SOL     OW 1257   1.390   0.575   0.078
  120SOL    HW1 1258   1.336   0.554   0.159
  120SOL    HW2 1259   1.481   0.534   0.087
  121SOL     OW 1260   1.754   1.223   1.588
  121SOL    HW1 1261   1.845   1.184   1.575
  121SOL    HW2 1262   1.762   1.319   1.612
  122SOL     OW 1263   1.064   1.347   1.340
  122SOL    HW1 1264   0.984   1.324   1.395
  122SOL    HW2 1265   1.147   1.321   1.389
  123SOL     OW 1266   1.592   1.629   1.625
  123SOL    HW1 1267   1.619   1.663   1.535
  123SOL    HW2 1268   1.671   1.591   1.671
  124SOL     OW 1269   1.111   1.195   1.100
  124SOL    HW1 1270   1.071   1.239   1.181
  124SOL    HW2 1271   1.070   1.232   1.017
  125SOL     OW 1272   1.638   1.099   1.079
  125SOL    HW1 1273   1.643   1.180   1.138
  125SOL    HW2 1274   1.552   1.101   1.028
  126SOL     OW 1275   0.915   0.089   1.402
  126SOL    HW1 1276   0.940   0.069   1.307
  126SOL    HW2 1277   0.987   0.145   1.444
  127SOL     OW 1278   0.980   1.116   1.719
  127SOL    HW1 1279   0.881   1.122   1.729
  127SOL    HW2 1280   1.003   1.036   1.663
  128SOL     OW 1281   0.705   1.050   0.368
  128SOL    HW1 1282   0.691   1.057   0.467
  128SOL    HW2 1283   0.789   0.999   0.350
  129SOL     OW 1284   0.410   0.813   1.251
  129SOL    HW1 1285   0.496   0.825   1.301
  129SOL    HW2 1286   0.368   0.726   1.278
  130SOL     OW 1287   1.274   0.386   1.262
  130SOL    HW1 1288   1.295   0.460   1.326
  130SOL    HW2 1289   1.185   0.403   1.219
  131SOL     OW 1290   0.064   1.564   1.331
  131SOL    HW1 1291   0.018   1.646   1.297
  131SOL    HW2 1292   0.162   1.583   1.340
  132SOL     OW 1293   0.367   1.100   0.501
  132SOL    HW1 1294   0.360   1.183   0.445
  132SOL    HW2 1295   0.371   1.020   0.441
  133SOL     OW 1296   0.566   0.537   0.865
  133SOL    HW1 1297   0.578   0.603   0.791
  133SOL    HW2 1298   0.612   0.571   0.948
  134SOL     OW 1299   1.252   1.348   0.388
  134SOL    HW1 1300   1.302   1.425   0.428
  134SOL    HW2 1301   1.157   1.350   0.420
  135SOL     OW 1302   1.272   1.445   1.142
  135SOL    HW1 1303   1.319   1.458   1.229
  135SOL    HW2 1304   1.206   1.371   1.151
  136SOL     OW 1305   1.582   0.639   0.472
  136SOL    HW1 1306   1.551   0.700   0.545
  136SOL    HW2 1307   1.632   0.691   0.403
  137SOL     OW 1308   0.354   1.510   1.329
  137SOL    HW1 1309   0.333   1.466   1.242
  137SOL    HW2 1310   0.451   1.536   1.332
  138SOL     OW 1311   0.402   0.751   1.598
  138SOL    HW1 1312   0.470   0.806   1.551
  138SOL    HW2 1313   0.442   0.663   1.625
  139SOL     OW 1314   1.587   0.779   1.670
  139SOL    HW1 1315   1.495   0.817   1.665
  139SOL    HW2 1316   1.647   0.826   1.605
  140SOL     OW 1317   1.013   0.105   1.770
  140SOL    HW1 1318   1.019   0.190   1.718
  140SOL    HW2 1319   1.045   0.029   1.713
  141SOL     OW 1320   0.504   0.050   1.740
  141SOL    HW1 1321   0.462  -0.007   1.670
  141SOL    HW2 1322   0.438   0.119   1.772
  142SOL     OW 1323   0.573   0.870   1.029
  142SOL    HW1 1324   0.617   0.959   1.020
  142SOL    HW2 1325   0.510   0.870   1.106
  143SOL     OW 1326   1.360   0.862   1.045
  143SOL    HW1 1327   1.285   0.862   0.979
  143SOL    HW2 1328   1.397   0.770   1.054
  144SOL     OW 1329   1.209   0.525   0.275
  144SOL    HW1 1330   1.222   0.441   0.329
  144SOL    HW2 1331   1.180   0.599   0.335
  145SOL     OW 1332   0.307   0.213   1.231
  145SOL    HW1 1333   0.284   0.250   1.321
  145SOL    HW2 1334   0.277   0.118   1.225
  146SOL     OW 1335   0.037   1.310   1.282
  146SOL    HW1 1336   0.090   1.261   1.350
  146SOL    HW2 1337   0.059   1.408   1.287
  147SOL     OW 1338   0.732   0.634   1.064
  147SOL    HW1 1339   0.791   0.608   0.988
  147SOL    HW2 1340   0.704   0.730   1.053
  148SOL     OW 1341   1.728   0.935   1.854
  148SOL    HW1 1342   1.682   0.928   1.765
  148SOL    HW2 1343   1.666   0.979   1.920
  149SOL     OW 1344   1.622   0.367   0.374
  149SOL    HW1 1345   1.624   0.291   0.438
  149SOL    HW2 1346   1.574   0.444   0.414
  150SOL     OW 1347   1.023   0.766   0.966
  150SOL    HW1 1348   1.038   0.787   1.062
  150SOL    HW2 1349   0.993   0.671   0.957
  151SOL     OW 1350   0.980   1.573   1.700
  151SOL    HW1 1351   0.960   1.617   1.612
  151SOL    HW2 1352   1.019   1.482   1.684
  152SOL     OW 1353   1.859   1.518   1.605
  152SOL    HW1 1354   1.873   1.545   1.510
  152SOL    HW2 1355   1.942   1.540   1.658
  153SOL     OW 1356   0.350   0.898   1.804
  153SOL    HW1 1357   0.426   0.942   1.852
  153SOL    HW2 1358   0.385   0.851   1.722
  154SOL     OW 1359   1.540   0.274   0.125
  154SOL    HW1 1360   1.479   0.199   0.148
  154SOL    HW2 1361   1.562   0.326   0.208
  155SOL     OW 1362   1.303   0.838   0.042
  155SOL    HW1 1363   1.337   0.745   0.057
  155SOL    HW2 1364   1.321   0.865  -0.053
  156SOL     OW 1365   1.068   1.333   0.849
  156SOL    HW1 1366   1.075   1.249   0.794
  156SOL    HW2 1367   1.130   1.402   0.813
  157SOL     OW 1368   0.319   0.810   0.949
  157SOL    HW1 1369   0.412   0.846   0.954
  157SOL    HW2 1370   0.313   0.725   1.001
  158SOL     OW 1371   0.339   0.509   1.006
  158SOL    HW1 1372   0.287   0.426   0.989
  158SOL    HW2 1373   0.416   0.514   0.942
  159SOL     OW 1374   1.138   0.380   1.678
  159SOL    HW1 1375   1.093   0.443   1.742
  159SOL    HW2 1376   1.231   0.411   1.661
  160SOL     OW 1377   1.160   0.207   1.477
  160SOL    HW1 1378   1.160   0.271   1.554
  160SOL    HW2 1379   1.188   0.255   1.394
  161SOL     OW 1380   0.008   1.326   0.200
  161SOL    HW1 1381  -0.085   1.347   0.169
  161SOL    HW2 1382   0.018   1.227   0.213
  162SOL     OW 1383   0.088   1.801   0.927
  162SOL    HW1 1384   0.046   1.715   0.900
  162SOL    HW2 1385   0.182   1.804   0.893
  163SOL     OW 1386   0.504   1.568   0.910
  163SOL    HW1 1387   0.570   1.642   0.919
  163SOL    HW2 1388   0.548   1.489   0.868
  164SOL     OW 1389   1.002   0.796   1.238
  164SOL    HW1 1390   1.043   0.764   1.324
  164SOL    HW2 1391   0.906   0.769   1.235
  165SOL     OW 1392   0.040   0.544   1.114
  165SOL    HW1 1393   0.125   0.511   1.073
  165SOL    HW2 1394   0.053   0.559   1.212
  166SOL     OW 1395   0.189   0.520   1.722
  166SOL    HW1 1396   0.248   0.480   1.652
  166SOL    HW2 1397   0.131   0.591   1.681
  167SOL     OW 1398   1.369   0.950   1.660
  167SOL    HW1 1399   1.408   1.039   1.680
  167SOL    HW2 1400   1.379   0.930   1.563
  168SOL     OW 1401   0.815   0.572   0.325
  168SOL    HW1 1402   0.822   0.483   0.279
  168SOL    HW2 1403   0.721   0.606   0.317
  169SOL     OW 1404   1.657   0.604   1.206
  169SOL    HW1 1405   1.619   0.535   1.268
  169SOL    HW2 1406   1.739   0.568   1.162
  170SOL     OW 1407   0.252   1.564   1.744
  170SOL    HW1 1408   0.222   1.621   1.820
  170SOL    HW2 1409   0.245   1.467   1.770
  171SOL     OW 1410   0.671   0.464   1.269
  171SOL    HW1 1411   0.637   0.375   1.239
  171SOL    HW2 1412   0.697   0.518   1.189
  172SOL     OW 1413   0.930   1.678   1.465
  172SOL    HW1 1414   0.906   1.660   1.370
  172SOL    HW2 1415   0.960   1.772   1.475
  173SOL     OW 1416   0.473   0.500   0.191
  173SOL    HW1 1417   0.534   0.580   0.195
  173SOL    HW2 1418   0.378   0.531   0.198
  174SOL     OW 1419   0.159   1.137   1.466
  174SOL    HW1 1420   0.181   1.076   1.542
  174SOL    HW2 1421   0.169   1.088   1.380
  175SOL     OW 1422   1.347   1.059   1.234
  175SOL    HW1 1423   1.371   0.996   1.160
  175SOL    HW2 1424   1.257   1.099   1.216
  176SOL     OW 1425   1.302   0.855   0.309
  176SOL    HW1 1426   1.216   0.824   0.351
  176SOL    HW2 1427   1.298   0.841   0.210
  177SOL     OW 1428   1.759   1.747   1.154
  177SOL    HW1 1429   1.820   1.777   1.081
  177SOL    HW2 1430   1.721   1.658   1.132
  178SOL     OW 1431   1.252   1.731   1.128
  178SOL    HW1 1432   1.336   1.736   1.074
  178SOL    HW2 1433   1.229   1.635   1.146
  179SOL     OW 1434   0.083   1.258   1.022
  179SOL    HW1 1435   0.078   1.257   1.122
  179SOL    HW2 1436   0.000   1.217   0.984
  180SOL     OW 1437   0.688   1.662   1.716
  180SOL    HW1 1438   0.632   1.743   1.725
  180SOL    HW2 1439   0.740   1.666   1.630
  181SOL     OW 1440   0.903   0.086   0.133
  181SOL    HW1 1441   0.954   0.087   0.047
  181SOL    HW2 1442   0.959   0.044   0.204
  182SOL     OW 1443   1.726   0.135   0.523
  182SOL    HW1 1444   1.799   0.118   0.456
  182SOL    HW2 1445   1.695   0.048   0.561
  183SOL     OW 1446   1.388   1.573   0.477
  183SOL    HW1 1447   1.455   1.585   0.403
  183SOL    HW2 1448   1.348   1.662   0.500
  184SOL     OW 1449   0.130   1.794   1.851
  184SOL    HW1 1450   0.089   1.720   1.904
  184SOL    HW2 1451   0.194   1.845   1.909
  185SOL     OW 1452   1.280   0.927   0.672
  185SOL    HW1 1453   1.340   0.846   0.674
  185SOL    HW2 1454   1.320   0.996   0.612
  186SOL     OW 1455   0.830   1.273   1.422
  186SOL    HW1 1456   0.825   1.306   1.517
  186SOL    HW2 1457   0.744   1.292   1.376
  187SOL     OW 1458   0.672   1.616   0.154
  187SOL    HW1 1459   0.681   1.626   0.055
  187SOL    HW2 1460   0.632   1.527   0.175
  188SOL     OW 1461   1.650   1.720   1.394
  188SOL    HW1 1462   1.703   1.730   1.310
  188SOL    HW2 1463   1.623   1.810   1.428
  189SOL     OW 1464   1.841   0.175   0.963
  189SOL    HW1 1465   1.880   0.090   0.927
  189SOL    HW2 1466   1.743   0.177   0.944
  190SOL     OW 1467   0.263   0.326   0.720
  190SOL    HW1 1468   0.184   0.377   0.686
  190SOL    HW2 1469   0.254   0.311   0.818
  191SOL     OW 1470   1.194   1.612   0.031
  191SOL    HW1 1471   1.200   1.519   0.068
  191SOL    HW2 1472   1.135   1.612  -0.049
  192SOL     OW 1473   0.822   1.002   1.372
  192SOL    HW1 1474   0.862   1.001   1.280
  192SOL    HW2 1475   0.832   1.094   1.412
  193SOL     OW 1476   0.916   0.910   0.291
  193SOL    HW1 1477   0.979   0.948   0.223
  193SOL    HW2 1478   0.956   0.827   0.330
  194SOL     OW 1479   1.504   1.607   0.044
  194SOL    HW1 1480   1.412   1.644   0.051
  194SOL    HW2 1481   1.542   1.627  -0.046
  195SOL     OW 1482   0.372   1.288   1.490
  195SOL    HW1 1483   0.359   1.381   1.456
  195SOL    HW2 1484   0.288   1.236   1.477
  196SOL     OW 1485   1.614   1.292   1.289
  196SOL    HW1 1486   1.674   1.295   1.369
  196SOL    HW2 1487   1.539   1.356   1.302
  197SOL     OW 1488   1.039   1.098   0.696
  197SOL    HW1 1489   0.969   1.051   0.750
  197SOL    HW2 1490   1.098   1.030   0.653
  198SOL     OW 1491   1.014   0.236   0.971
  198SOL    HW1 1492   1.006   0.200   0.878
  198SOL    HW2 1493   1.012   0.160   1.036
  199SOL     OW 1494   0.590   1.487   0.491
  199SOL    HW1 1495   0.632   1.429   0.421
  199SOL    HW2 1496   0.546   1.566   0.447
  200SOL     OW 1497   1.709   0.385   1.381
  200SOL    HW1 1498   1.782   0.454   1.385
  200SOL    HW2 1499   1.737   0.310   1.322
  201SOL     OW 1500   0.255   1.348   0.290
  201SOL    HW1 1501   0.159   1.349   0.263
  201SOL    HW2 1502   0.267   1.401   0.374
  202SOL     OW 1503   0.105   1.013   1.726
  202SOL    HW1 1504   0.028   0.980   1.780
  202SOL    HW2 1505   0.190   0.983   1.768
  203SOL     OW 1506   0.672   0.203   1.489
  203SOL    HW1 1507   0.762   0.187   1.449
  203SOL    HW2 1508   0.680   0.208   1.588
  204SOL     OW 1509   0.075   0.345   0.033
  204SOL    HW1 1510  -0.017   0.317   0.004
  204SOL    HW2 1511   0.106   0.422  -0.023
  205SOL     OW 1512   1.440   0.856   1.398
  205SOL    HW1 1513   1.383   0.908   1.335
  205SOL    HW2 1514   1.536   0.868   1.374
  206SOL     OW 1515   0.072   0.166   0.318
  206SOL    HW1 1516   0.055   0.249   0.264
  206SOL    HW2 1517   0.162   0.129   0.296
  207SOL     OW 1518   1.183   1.335   0.119
  207SOL    HW1 1519   1.084   1.324   0.121
  207SOL    HW2 1520   1.217   1.350   0.212
  208SOL     OW 1521   0.613   0.842   1.431
  208SOL    HW1 1522   0.669   0.923   1.414
  208SOL    HW2 1523   0.672   0.762   1.434
  209SOL     OW 1524   1.493   1.767   0.959
  209SOL    HW1 1525   1.526   1.831   0.890
  209SOL    HW2 1526   1.559   1.761   1.034
  210SOL     OW 1527   0.716   0.565   1.708
  210SOL    HW1 1528   0.735   0.630   1.782
  210SOL    HW2 1529   0.776   0.485   1.717
  211SOL     OW 1530   1.450   1.220   1.633
  211SOL    HW1 1531   1.441   1.210   1.732
  211SOL    HW2 1532   1.546   1.213   1.607
  212SOL     OW 1533   0.390   1.741   1.560
  212SOL    HW1 1534   0.299   1.782   1.558
  212SOL    HW2 1535   0.383   1.647   1.592
  213SOL     OW 1536   1.674   0.883   1.254
  213SOL    HW1 1537   1.647   0.794   1.217
  213SOL    HW2 1538   1.675   0.951   1.181
  214SOL     OW 1539   1.225   0.325   0.449
  214SOL    HW1 1540   1.290   0.251   0.438
  214SOL    HW2 1541   1.245   0.375   0.533
  215SOL     OW 1542   0.594   0.745   0.652
  215SOL    HW1 1543   0.644   0.830   0.633
  215SOL    HW2 1544   0.506   0.747   0.604
  216SOL     OW 1545   1.777   0.342   1.642
  216SOL    HW1 1546   1.760   0.373   1.548
  216SOL    HW2 1547   1.693   0.305   1.680
  217SOL     OW 1548   1.730   0.934   1.517
  217SOL    HW1 1549   1.768   1.025   1.532
  217SOL    HW2 1550   1.722   0.917   1.418
  218SOL     OW 1551   0.859   1.374   0.016
  218SOL    HW1 1552   0.813   1.389   0.104
  218SOL    HW2 1553   0.903   1.459  -0.014
  219SOL     OW 1554   0.661   1.790   0.953
  219SOL    HW1 1555   0.615   1.878   0.940
  219SOL    HW2 1556   0.760   1.802   0.946
  220SOL     OW 1557   0.859   0.956   0.861
  220SOL    HW1 1558   0.913   0.887   0.909
  220SOL    HW2 1559   0.827   1.025   0.927
  221SOL     OW 1560   1.083   0.984   0.087
  221SOL    HW1 1561   1.060   1.037   0.005
  221SOL    HW2 1562   1.164   0.928   0.068
  222SOL     OW 1563   1.861   1.569   0.851
  222SOL    HW1 1564   1.790   1.557   0.781
  222SOL    HW2 1565   1.862   1.490   0.911
  223SOL     OW 1566   0.221   1.314   1.844
  223SOL    HW1 1567   0.156   1.241   1.823
  223SOL    HW2 1568   0.225   1.328   1.942
  224SOL     OW 1569   0.079   1.240   0.653
  224SOL    HW1 1570   0.078   1.193   0.741
  224SOL    HW2 1571   0.161   1.212   0.602
  225SOL     OW 1572   0.672   1.391   1.624
  225SOL    HW1 1573   0.594   1.341   1.662
  225SOL    HW2 1574   0.669   1.486   1.655
  226SOL     OW 1575   1.824   0.192   1.227
  226SOL    HW1 1576   1.820   0.102   1.271
  226SOL    HW2 1577   1.827   0.181   1.128
  227SOL     OW 1578   1.705   1.487   1.104
  227SOL    HW1 1579   1.612   1.462   1.077
  227SOL    HW2 1580   1.731   1.437   1.186
  228SOL     OW 1581   0.317   0.547   1.280
  228SOL    HW1 1582   0.355   0.488   1.352
  228SOL    HW2 1583   0.357   0.521   1.192
  229SOL     OW 1584   0.812   1.586   0.687
  229SOL    HW1 1585   0.844   1.596   0.593
  229SOL    HW2 1586   0.733   1.524   0.689
  230SOL     OW 1587   1.424   0.214   1.112
  230SOL    HW1 1588   1.476   0.149   1.167
  230SOL    HW2 1589   1.375   0.277   1.173
  231SOL     OW 1590   1.001   0.034   1.154
  231SOL    HW1 1591   0.938  -0.038   1.123
  231SOL    HW2 1592   1.094  -0.002   1.154
  232SOL     OW 1593   0.770   1.330   0.301
  232SOL    HW1 1594   0.724   1.243   0.318
  232SOL    HW2 1595   0.861   1.327   0.342
  233SOL     OW 1596   0.618   1.567   1.284
  233SOL    HW1 1597   0.613   1.649   1.341
  233SOL    HW2 1598   0.707   1.564   1.239
  234SOL     OW 1599   1.352   0.052   0.168
  234SOL    HW1 1600   1.387   0.011   0.084
  234SOL    HW2 1601   1.262   0.014   0.188
  235SOL     OW 1602   1.300   0.453   0.691
  235SOL    HW1 1603   1.241   0.533   0.695
  235SOL    HW2 1604   1.315   0.418   0.784
  236SOL     OW 1605   1.593   0.221   0.882
  236SOL    HW1 1606   1.509   0.220   0.936
  236SOL    HW2 1607   1.595   0.304   0.826
  237SOL     OW 1608   0.039   1.077   0.300
  237SOL    HW1 1609   0.138   1.066   0.291
  237SOL    HW2 1610  -0.001   0.991   0.332
  238SOL     OW 1611   0.875   1.646   0.337
  238SOL    HW1 1612   0.798   1.611   0.283
  238SOL    HW2 1613   0.843   1.717   0.399
  239SOL     OW 1614   0.230   0.628   1.975
  239SOL    HW1 1615   0.137   0.626   2.012
  239SOL    HW2 1616   0.231   0.589   1.883
  240SOL     OW 1617   0.019   0.368   2.509
  240SOL    HW1 1618  -0.063   0.411   2.548
  240SOL    HW2 1619  -0.009   0.295   2.446
  241SOL     OW 1620   0.569   1.275   3.027
  241SOL    HW1 1621   0.476   1.268   2.990
  241SOL    HW2 1622   0.580   1.364   3.071
  242SOL     OW 1623   1.555   1.511   2.565
  242SOL    HW1 1624   1.498   1.495   2.646
  242SOL    HW2 1625   1.496   1.521   2.485
  243SOL     OW 1626   1.135   0.703   2.579
  243SOL    HW1 1627   1.192   0.781   2.554
  243SOL    HW2 1628   1.075   0.729   2.655
  244SOL     OW 1629   0.768   1.144   2.885
  244SOL    HW1 1630   0.690   1.161   2.945
  244SOL    HW2 1631   0.802   1.231   2.849
  245SOL     OW 1632   0.850   0.798   3.685
  245SOL    HW1 1633   0.846   0.874   3.750
  245SOL    HW2 1634   0.872   0.834   3.594
  246SOL     OW 1635   0.685   1.012   2.527
  246SOL    HW1 1636   0.754   0.996   2.597
  246SOL    HW2 1637   0.612   1.069   2.565
  247SOL     OW 1638   0.686   1.161   3.665
  247SOL    HW1 1639   0.746   1.240   3.679
  247SOL    HW2 1640   0.600   1.192   3.624
  248SOL     OW 1641   0.335   1.435   2.923
  248SOL    HW1 1642   0.257   1.404   2.870
  248SOL    HW2 1643   0.393   1.493   2.866
  249SOL     OW 1644   1.460   1.505   3.201
  249SOL    HW1 1645   1.484   1.599   3.227
  249SOL    HW2 1646   1.444   1.451   3.283
  250SOL     OW 1647   0.231   1.713   2.345
  250SOL    HW1 1648   0.265   1.790   2.399
  250SOL    HW2 1649   0.275   1.713   2.255
  251SOL     OW 1650   1.127   1.341   3.552
  251SOL    HW1 1651   1.174   1.341   3.640
  251SOL    HW2 1652   1.079   1.254   3.541
  252SOL     OW 1653   0.230   1.434   2.400
  252SOL    HW1 1654   0.204   1.530   2.400
  252SOL    HW2 1655   0.159   1.380   2.445
  253SOL     OW 1656   0.240   1.091   2.748
  253SOL    HW1 1657   0.254   1.007   2.800
  253SOL    HW2 1658   0.185   1.155   2.803
  254SOL     OW 1659   0.620   1.786   3.301
  254SOL    HW1 1660   0.528   1.769   3.336
  254SOL    HW2 1661   0.648   1.878   3.327
  255SOL     OW 1662   0.606   0.964   1.985
  255SOL    HW1 1663   0.613   1.048   1.931
  255SOL    HW2 1664   0.652   0.977   2.073
  256SOL     OW 1665   1.842   1.767   2.221
  256SOL    HW1 1666   1.896   1.738   2.301
  256SOL    HW2 1667   1.872   1.857   2.192
  257SOL     OW 1668   0.027   1.596   1.979
  257SOL    HW1 1669   0.008   1.500   2.000
  257SOL    HW2 1670  -0.006   1.654   2.054
  258SOL     OW 1671   1.641   1.108   2.294
  258SOL    HW1 1672   1.727   1.110   2.242
  258SOL    HW2 1673   1.655   1.155   2.382
  259SOL     OW 1674   0.613   1.365   2.588
  259SOL    HW1 1675   0.564   1.278   2.597
  259SOL    HW2 1676   0.590   1.408   2.501
  260SOL     OW 1677   1.293   1.228   3.285
  260SOL    HW1 1678   1.330   1.155   3.227
  260SOL    HW2 1679   1.345   1.233   3.370
  261SOL     OW 1680   0.809   0.004   2.364
  261SOL    HW1 1681   0.849   0.095   2.355
  261SOL    HW2 1682   0.709   0.012   2.370
  262SOL     OW 1683   1.525   0.999   2.052
  262SOL    HW1 1684   1.462   0.923   2.065
  262SOL    HW2 1685   1.573   1.017   2.138
  263SOL     OW 1686   1.187   1.792   3.478
  263SOL    HW1 1687   1.211   1.852   3.402
  263SOL    HW2 1688   1.194   1.697   3.448
  264SOL     OW 1689   0.317   0.251   3.663
  264SOL    HW1 1690   0.388   0.322   3.669
  264SOL    HW2 1691   0.229   0.290   3.691
  265SOL     OW 1692   1.466   1.417   2.815
  265SOL    HW1 1693   1.407   1.423   2.895
  265SOL    HW2 1694   1.451   1.329   2.769
  266SOL     OW 1695   1.667   1.714   2.434
  266SOL    HW1 1696   1.626   1.691   2.346
  266SOL    HW2 1697   1.649   1.640   2.499
  267SOL     OW 1698   0.598   0.729   2.132
  267SOL    HW1 1699   0.622   0.798   2.064
  267SOL    HW2 1700   0.520   0.762   2.186
  268SOL     OW 1701   1.576   1.662   2.169
  268SOL    HW1 1702   1.665   1.708   2.172
  268SOL    HW2 1703   1.555   1.638   2.074
  269SOL     OW 1704   0.807   0.605   3.327
  269SOL    HW1 1705   0.760   0.602   3.416
  269SOL    HW2 1706   0.756   0.550   3.261
  270SOL     OW 1707   1.394   0.469   3.536
  270SOL    HW1 1708   1.374   0.512   3.624
  270SOL    HW2 1709   1.472   0.407   3.545
  271SOL     OW 1710   0.973   0.890   3.434
  271SOL    HW1 1711   1.019   0.806   3.405
  271SOL    HW2 1712   0.917   0.924   3.359
  272SOL     OW 1713   0.991   0.410   3.104
  272SOL    HW1 1714   0.914   0.444   3.158
  272SOL    HW2 1715   0.957   0.359   3.025
  273SOL     OW 1716   1.041   0.701   2.291
  273SOL    HW1 1717   1.067   0.697   2.387
  273SOL    HW2 1718   0.956   0.650   2.277
  274SOL     OW 1719   0.130   1.821   3.433
  274SOL    HW1 1720   0.120   1.806   3.532
  274SOL    HW2 1721   0.044   1.857   3.397
  275SOL     OW 1722   0.865   0.348   2.057
  275SOL    HW1 1723   0.924   0.411   2.008
  275SOL    HW2 1724   0.884   0.254   2.028
  276SOL     OW 1725   1.362   1.144   2.407
  276SOL    HW1 1726   1.445   1.115   2.359
  276SOL    HW2 1727   1.313   1.211   2.351
  277SOL     OW 1728   1.008   1.456   2.339
  277SOL    HW1 1729   0.962   1.528   2.287
  277SOL    HW2 1730   1.004   1.476   2.437
  278SOL     OW 1731   0.351   1.801   2.715
  278SOL    HW1 1732   0.401   1.715   2.721
  278SOL    HW2 1733   0.416   1.878   2.712
  279SOL     OW 1734   1.227   1.550   3.368
  279SOL    HW1 1735   1.233   1.473   3.432
  279SOL    HW2 1736   1.175   1.524   3.288
  280SOL     OW 1737   0.321   0.943   2.104
  280SOL    HW1 1738   0.403   0.982   2.062
  280SOL    HW2 1739   0.294   0.861   2.055
  281SOL     OW 1740   0.461   1.266   3.589
  281SOL    HW1 1741   0.411   1.267   3.503
  281SOL    HW2 1742   0.398   1.248   3.665
  282SOL     OW 1743   1.111   1.776   2.099
  282SOL    HW1 1744   1.051   1.714   2.149
  282SOL    HW2 1745   1.142   1.732   2.014
  283SOL     OW 1746   0.202   0.285   3.360
  283SOL    HW1 1747   0.122   0.345   3.347
  283SOL    HW2 1748   0.192   0.236   3.446
  284SOL     OW 1749   1.632   1.377   1.943
  284SOL    HW1 1750   1.600   1.471   1.933
  284SOL    HW2 1751   1.556   1.314   1.931
  285SOL     OW 1752   0.464   1.743   2.185
  285SOL    HW1 1753   0.497   1.782   2.271
  285SOL    HW2 1754   0.540   1.736   2.120
  286SOL     OW 1755   1.400   0.107   2.288
  286SOL    HW1 1756   1.376   0.070   2.198
  286SOL    HW2 1757   1.499   0.123   2.292
  287SOL     OW 1758   0.249   1.785   3.103
  287SOL    HW1 1759   0.306   1.720   3.153
  287SOL    HW2 1760   0.233   1.752   3.010
  288SOL     OW 1761   0.940   1.698   2.766
  288SOL    HW1 1762   1.020   1.641   2.787
  288SOL    HW2 1763   0.891   1.658   2.689
  289SOL     OW 1764   0.382   0.700   2.342
  289SOL    HW1 1765   0.427   0.610   2.339
  289SOL    HW2 1766   0.288   0.689   2.375
  290SOL     OW 1767   1.547   0.222   3.591
  290SOL    HW1 1768   1.542   0.259   3.683
  290SOL    HW2 1769   1.475   0.153   3.579
  291SOL     OW 1770   0.614   0.122   1.979
  291SOL    HW1 1771   0.712   0.100   1.986
  291SOL    HW2 1772   0.583   0.105   1.886
  292SOL     OW 1773   0.781   0.264   3.611
  292SOL    HW1 1774   0.848   0.203   3.654
  292SOL    HW2 1775   0.708   0.283   3.676
  293SOL     OW 1776   0.888   1.514   3.057
  293SOL    HW1 1777   0.865   1.489   2.963
  293SOL    HW2 1778   0.949   1.445   3.096
  294SOL     OW 1779   1.351   0.590   3.295
  294SOL    HW1 1780   1.379   0.547   3.380
  294SOL    HW2 1781   1.376   0.686   3.296
  295SOL     OW 1782   0.803   1.402   2.786
  295SOL    HW1 1783   0.893   1.416   2.744
  295SOL    HW2 1784   0.732   1.404   2.715
  296SOL     OW 1785   0.922   0.503   2.761
  296SOL    HW1 1786   0.897   0.494   2.665
  296SOL    HW2 1787   0.970   0.421   2.792
  297SOL     OW 1788   0.539   0.064   2.374
  297SOL    HW1 1789   0.458   0.065   2.432
  297SOL    HW2 1790   0.542   0.147   2.319
  298SOL     OW 1791   1.434   1.188   1.903
  298SOL    HW1 1792   1.466   1.112   1.960
  298SOL    HW2 1793   1.342   1.215   1.933
  299SOL     OW 1794   0.297   0.035   2.033
  299SOL    HW1 1795   0.346   0.119   2.012
  299SOL    HW2 1796   0.359  -0.030   2.078
  300SOL     OW 1797   0.935   0.236   2.342
  300SOL    HW1 1798   0.887   0.277   2.264
  300SOL    HW2 1799   1.034   0.234   2.323
  301SOL     OW 1800   1.076   0.683   3.326
  301SOL    HW1 1801   0.996   0.622   3.329
  301SOL    HW2 1802   1.157   0.630   3.302
  302SOL     OW 1803   1.227   1.570   2.655
  302SOL    HW1 1804   1.248   1.644   2.590
  302SOL    HW2 1805   1.295   1.570   2.728
  303SOL     OW 1806   0.459   1.152   2.603
  303SOL    HW1 1807   0.388   1.125   2.668
  303SOL    HW2 1808   0.433   1.124   2.510
  304SOL     OW 1809   1.271   1.797   2.453
  304SOL    HW1 1810   1.315   1.861   2.389
  304SOL    HW2 1811   1.221   1.849   2.523
  305SOL     OW 1812   1.032   0.549   1.878
  305SOL    HW1 1813   0.991   0.631   1.839
  305SOL    HW2 1814   1.096   0.575   1.951
  306SOL     OW 1815   0.866   0.454   2.504
  306SOL    HW1 1816   0.834   0.526   2.442
  306SOL    HW2 1817   0.890   0.373   2.451
  307SOL     OW 1818   1.017   0.039   2.615
  307SOL    HW1 1819   0.945   0.044   2.546
  307SOL    HW2 1820   0.993  -0.030   2.684
  308SOL     OW 1821   1.429   1.173   2.729
  308SOL    HW1 1822   1.374   1.089   2.722
  308SOL    HW2 1823   1.455   1.202   2.637
  309SOL     OW 1824   0.488   1.385   2.036
  309SOL    HW1 1825   0.401   1.370   2.083
  309SOL    HW2 1826   0.471   1.411   1.941
  310SOL     OW 1827   1.664   1.280   2.519
  310SOL    HW1 1828   1.763   1.288   2.533
  310SOL    HW2 1829   1.619   1.364   2.550
  311SOL     OW 1830   1.390   0.575   1.940
  311SOL    HW1 1831   1.336   0.554   2.021
  311SOL    HW2 1832   1.481   0.534   1.949
  312SOL     OW 1833   0.527   0.256   2.190
  312SOL    HW1 1834   0.554   0.197   2.115
  312SOL    HW2 1835   0.527   0.351   2.159
  313SOL     OW 1836   1.754   1.223   3.450
  313SOL    HW1 1837   1.845   1.184   3.437
  313SOL    HW2 1838   1.762   1.319   3.474
  314SOL     OW 1839   1.064   1.347   3.202
  314SOL    HW1 1840   0.984   1.324   3.257
  314SOL    HW2 1841   1.147   1.321   3.251
  315SOL     OW 1842   1.592   1.629   3.487
  315SOL    HW1 1843   1.619   1.663   3.397
  315SOL    HW2 1844   1.671   1.591   3.533
  316SOL     OW 1845   1.111   1.195   2.962
  316SOL    HW1 1846   1.071   1.239   3.043
  316SOL    HW2 1847   1.070   1.232   2.879
  317SOL     OW 1848   1.638   1.099   2.941
  317SOL    HW1 1849   1.643   1.180   3.000
  317SOL    HW2 1850   1.552   1.101   2.890
  318SOL     OW 1851   0.915   0.089   3.264
  318SOL    HW1 1852   0.940   0.069   3.169
  318SOL    HW2 1853   0.987   0.145   3.306
  319SOL     OW 1854   0.980   1.116   3.581
  319SOL    HW1 1855   0.881   1.122   3.591
  319SOL    HW2 1856   1.003   1.036   3.525
  320SOL     OW 1857   0.705   1.050   2.230
  320SOL    HW1 1858   0.691   1.057   2.329
  320SOL    HW2 1859   0.789   0.999   2.212
  321SOL     OW 1860   0.064   1.564   3.193
  321SOL    HW1 1861   0.018   1.646   3.159
  321SOL    HW2 1862   0.162   1.583   3.202
  322SOL     OW 1863   0.367   1.100   2.363
  322SOL    HW1 1864   0.360   1.183   2.307
  322SOL    HW2 1865   0.371   1.020   2.303
  323SOL     OW 1866   1.252   1.348   2.250
  323SOL    HW1 1867   1.302   1.425   2.290
  323SOL    HW2 1868   1.157   1.350   2.282
  324SOL     OW 1869   1.272   1.445   3.004
  324SOL    HW1 1870   1.319   1.458   3.091
  324SOL    HW2 1871   1.206   1.371   3.013
  325SOL     OW 1872   0.354   1.510   3.191
  325SOL    HW1 1873   0.333   1.466   3.104
  325SOL    HW2 1874   0.451   1.536   3.194
  326SOL     OW 1875   0.402   0.751   3.460
  326SOL    HW1 1876   0.470   0.806   3.413
  326SOL    HW2 1877   0.442   0.663   3.487
  327SOL     OW 1878   1.013   0.105   3.632
  327SOL    HW1 1879   1.019   0.190   3.580
  327SOL    HW2 1880   1.045   0.029   3.575
  328SOL     OW 1881   0.504   0.050   3.602
  328SOL    HW1 1882   0.462  -0.007   3.532
  328SOL    HW2 1883   0.438   0.119   3.634
  329SOL     OW 1884   0.573   0.870   2.891
  329SOL    HW1 1885   0.617   0.959   2.882
  329SOL    HW2 1886   0.510   0.870   2.968
  330SOL     OW 1887   1.360   0.862   2.907
  330SOL    HW1 1888   1.285   0.862   2.841
  330SOL    HW2 1889   1.397   0.770   2.916
  331SOL     OW 1890   1.209   0.525   2.137
  331SOL    HW1 1891   1.222   0.441   2.191
  331SOL    HW2 1892   1.180   0.599   2.197
  332SOL     OW 1893   0.307   0.213   3.093
  332SOL    HW1 1894   0.284   0.250   3.183
  332SOL    HW2 1895   0.277   0.118   3.087
  333SOL     OW 1896   0.037   1.310   3.144
  333SOL    HW1 1897   0.090   1.261   3.212
  333SOL    HW2 1898   0.059   1.408   3.149
  334SOL     OW 1899   0.732   0.634   2.926
  334SOL    HW1 1900   0.791   0.608   2.850
  334SOL    HW2 1901   0.704   0.730   2.915
  335SOL     OW 1902   1.728   0.935   3.716
  335SOL    HW1 1903   1.682   0.928   3.627
  335SOL    HW2 1904   1.666   0.979   3.782
  336SOL     OW 1905   0.307   0.063   2.480
  336SOL    HW1 1906   0.296   0.157   2.513
  336SOL    HW2 1907   0.302   0.000   2.557
  337SOL     OW 1908   1.023   0.766   2.828
  337SOL    HW1 1909   1.038   0.787   2.924
  337SOL    HW2 1910   0.993   0.671   2.819
  338SOL     OW 1911   0.980   1.573   3.562
  338SOL    HW1 1912   0.960   1.617   3.474
  338SOL    HW2 1913   1.019   1.482   3.546
  339SOL     OW 1914   1.859   1.518   3.467
  339SOL    HW1 1915   1.873   1.545   3.372
  339SOL    HW2 1916   1.942   1.540   3.520
  340SOL     OW 1917   0.350   0.898   3.666
  340SOL    HW1 1918   0.426   0.942   3.714
  340SOL    HW2 1919   0.385   0.851   3.584
  341SOL     OW 1920   1.303   0.838   1.904
  341SOL    HW1 1921   1.337   0.745   1.919
  341SOL    HW2 1922   1.321   0.865   1.809
  342SOL     OW 1923   1.068   1.333   2.711
  342SOL    HW1 1924   1.075   1.249   2.656
  342SOL    HW2 1925   1.130   1.402   2.675
  343SOL     OW 1926   1.138   0.380   3.540
  343SOL    HW1 1927   1.093   0.443   3.604
  343SOL    HW2 1928   1.231   0.411   3.523
  344SOL     OW 1929   1.160   0.207   3.339
  344SOL    HW1 1930   1.160   0.271   3.416
  344SOL    HW2 1931   1.188   0.255   3.256
  345SOL     OW 1932   0.008   1.326   2.062
  345SOL    HW1 1933  -0.085   1.347   2.031
  345SOL    HW2 1934   0.018   1.227   2.075
  346SOL     OW 1935   0.088   1.801   2.789
  346SOL    HW1 1936   0.046   1.715   2.762
  346SOL    HW2 1937   0.182   1.804   2.755
  347SOL     OW 1938   0.504   1.568   2.772
  347SOL    HW1 1939   0.570   1.642   2.781
  347SOL    HW2 1940   0.548   1.489   2.730
  348SOL     OW 1941   1.002   0.796   3.100
  348SOL    HW1 1942   1.043   0.764   3.186
  348SOL    HW2 1943   0.906   0.769   3.097
  349SOL     OW 1944   0.040   0.544   2.976
  349SOL    HW1 1945   0.125   0.511   2.935
  349SOL    HW2 1946   0.053   0.559   3.074
  350SOL     OW 1947   0.189   0.520   3.584
  350SOL    HW1 1948   0.248   0.480   3.514
  350SOL    HW2 1949   0.131   0.591   3.543
  351SOL     OW 1950   1.369   0.950   3.522
  351SOL    HW1 1951   1.408   1.039   3.542
  351SOL    HW2 1952   1.379   0.930   3.425
  352SOL     OW 1953   0.815   0.572   2.187
  352SOL    HW1 1954   0.822   0.483   2.141
  352SOL    HW2 1955   0.721   0.606   2.179
  353SOL     OW 1956   0.252   1.564   3.606
  353SOL    HW1 1957   0.222   1.621   3.682
  353SOL    HW2 1958   0.245   1.467   3.632
  354SOL     OW 1959   0.671   0.464   3.131
  354SOL    HW1 1960   0.637   0.375   3.101
  354SOL    HW2 1961   0.697   0.518   3.051
  355SOL     OW 1962   0.930   1.678   3.327
  355SOL    HW1 1963   0.906   1.660   3.232
  355SOL    HW2 1964   0.960   1.772   3.337
  356SOL     OW 1965   0.473   0.500   2.053
  356SOL    HW1 1966   0.534   0.580   2.057
  356SOL    HW2 1967   0.378   0.531   2.060
  357SOL     OW 1968   0.159   1.137   3.328
  357SOL    HW1 1969   0.181   1.076   3.404
  357SOL    HW2 1970   0.169   1.088   3.242
  358SOL     OW 1971   1.347   1.059   3.096
  358SOL    HW1 1972   1.371   0.996   3.022
  358SOL    HW2 1973   1.257   1.099   3.078
  359SOL     OW 1974   1.302   0.855   2.171
  359SOL    HW1 1975   1.216   0.824   2.213
  359SOL    HW2 1976   1.298   0.841   2.072
  360SOL     OW 1977   1.759   1.747   3.016
  360SOL    HW1 1978   1.820   1.777   2.943
  360SOL    HW2 1979   1.721   1.658   2.994
  361SOL     OW 1980   1.252   1.731   2.990
  361SOL    HW1 1981   1.336   1.736   2.936
  361SOL    HW2 1982   1.229   1.635   3.008
  362SOL     OW 1983   0.083   1.258   2.884
  362SOL    HW1 1984   0.078   1.257   2.984
  362SOL    HW2 1985   0.000   1.217   2.846
  363SOL     OW 1986   0.688   1.662   3.578
  363SOL    HW1 1987   0.632   1.743   3.587
  363SOL    HW2 1988   0.740   1.666   3.492
  364SOL     OW 1989   1.726   0.135   2.385
  364SOL    HW1 1990   1.799   0.118   2.318
  364SOL    HW2 1991   1.695   0.048   2.423
  365SOL     OW 1992   1.388   1.573   2.339
  365SOL    HW1 1993   1.455   1.585   2.265
  365SOL    HW2 1994   1.348   1.662   2.362
  366SOL     OW 1995   0.130   1.794   3.713
  366SOL    HW1 1996   0.089   1.720   3.766
  366SOL    HW2 1997   0.194   1.845   3.771
  367SOL     OW 1998   1.280   0.927   2.534
  367SOL    HW1 1999   1.340   0.846   2.536
  367SOL    HW2 2000   1.320   0.996   2.474
  368SOL     OW 2001   0.830   1.273   3.284
  368SOL    HW1 2002   0.825   1.306   3.379
  368SOL    HW2 2003   0.744   1.292   3.238
  369SOL     OW 2004   0.672   1.616   2.016
  369SOL    HW1 2005   0.681   1.626   1.917
  369SOL    HW2 2006   0.632   1.527   2.037
  370SOL     OW 2007   1.650   1.720   3.256
  370SOL    HW1 2008   1.703   1.730   3.172
  370SOL    HW2 2009   1.623   1.810   3.290
  371SOL     OW 2010   1.194   1.612   1.893
  371SOL    HW1 2011   1.200   1.519   1.930
  371SOL    HW2 2012   1.135   1.612   1.813
  372SOL     OW 2013   0.822   1.002   3.234
  372SOL    HW1 2014   0.862   1.001   3.142
  372SOL    HW2 2015   0.832   1.094   3.274
  373SOL     OW 2016   0.916   0.910   2.153
  373SOL    HW1 2017   0.979   0.948   2.085
  373SOL    HW2 2018   0.956   0.827   2.192
  374SOL     OW 2019   1.504   1.607   1.906
  374SOL    HW1 2020   1.412   1.644   1.913
  374SOL    HW2 2021   1.542   1.627   1.816
  375SOL     OW 2022   0.372   1.288   3.352
  375SOL    HW1 2023   0.359   1.381   3.318
  375SOL    HW2 2024   0.288   1.236   3.339
  376SOL     OW 2025   1.614   1.292   3.151
  376SOL    HW1 2026   1.674   1.295   3.231
  376SOL    HW2 2027   1.539   1.356   3.164
  377SOL     OW 2028   1.039   1.098   2.558
  377SOL    HW1 2029   0.969   1.051   2.612
  377SOL    HW2 2030   1.098   1.030   2.515
  378SOL     OW 2031   1.014   0.236   2.833
  378SOL    HW1 2032   1.006   0.200   2.740
  378SOL    HW2 2033   1.012   0.160   2.898
  379SOL     OW 2034   0.590   1.487   2.353
  379SOL    HW1 2035   0.632   1.429   2.283
  379SOL    HW2 2036   0.546   1.566   2.309
  380SOL     OW 2037   0.255   1.348   2.152
  380SOL    HW1 2038   0.159   1.349   2.125
  380SOL    HW2 2039   0.267   1.401   2.236
  381SOL     OW 2040   0.105   1.013   3.588
  381SOL    HW1 2041   0.028   0.980   3.642
  381SOL    HW2 2042   0.190   0.983   3.630
  382SOL     OW 2043   0.672   0.203   3.351
  382SOL    HW1 2044   0.762   0.187   3.311
  382SOL    HW2 2045   0.680   0.208   3.450
  383SOL     OW 2046   0.075   0.345   1.895
  383SOL    HW1 2047  -0.017   0.317   1.866
  383SOL    HW2 2048   0.106   0.422   1.839
  384SOL     OW 2049   1.440   0.856   3.260
  384SOL    HW1 2050   1.383   0.908   3.197
  384SOL    HW2 2051   1.536   0.868   3.236
  385SOL     OW 2052   0.072   0.166   2.180
  385SOL    HW1 2053   0.055   0.249   2.126
  385SOL    HW2 2054   0.162   0.129   2.158
  386SOL     OW 2055   1.183   1.335   1.981
  386SOL    HW1 2056   1.084   1.324   1.983
  386SOL    HW2 2057   1.217   1.350   2.074
  387SOL     OW 2058   0.613   0.842   3.293
  387SOL    HW1 2059   0.669   0.923   3.276
  387SOL    HW2 2060   0.672   0.762   3.296
  388SOL     OW 2061   1.493   1.767   2.821
  388SOL    HW1 2062   1.526   1.831   2.752
  388SOL    HW2 2063   1.559   1.761   2.896
  389SOL     OW 2064   0.716   0.565   3.570
  389SOL    HW1 2065   0.735   0.630   3.644
  389SOL    HW2 2066   0.776   0.485   3.579
  390SOL     OW 2067   1.450   1.220   3.495
  390SOL    HW1 2068   1.441   1.210   3.594
  390SOL    HW2 2069   1.546   1.213   3.469
  391SOL     OW 2070   0.390   1.741   3.422
  391SOL    HW1 2071   0.299   1.782   3.420
  391SOL    HW2 2072   0.383   1.647   3.454
  392SOL     OW 2073   1.674   0.883   3.116
  392SOL    HW1 2074   1.647   0.794   3.079
  392SOL    HW2 2075   1.675   0.951   3.043
  393SOL     OW 2076   0.594   0.745   2.514
  393SOL    HW1 2077   0.644   0.830   2.495
  393SOL    HW2 2078   0.506   0.747   2.466
  394SOL     OW 2079   1.730   0.934   3.379
  394SOL    HW1 2080   1.768   1.025   3.394
  394SOL    HW2 2081   1.722   0.917   3.280
  395SOL     OW 2082   0.859   1.374   1.878
  395SOL    HW1 2083   0.813   1.389   1.966
  395SOL    HW2 2084   0.903   1.459   1.848
  396SOL     OW 2085   0.661   1.790   2.815
  396SOL    HW1 2086   0.615   1.878   2.802
  396SOL    HW2 2087   0.760   1.802   2.808
  397SOL     OW 2088   0.859   0.956   2.723
  397SOL    HW1 2089   0.913   0.887   2.771
  397SOL    HW2 2090   0.827   1.025   2.789
  398SOL     OW 2091   1.083   0.984   1.949
  398SOL    HW1 2092   1.060   1.037   1.867
  398SOL    HW2 2093   1.164   0.928   1.930
  399SOL     OW 2094   1.861   1.569   2.713
  399SOL    HW1 2095   1.790   1.557   2.643
  399SOL    HW2 2096   1.862   1.490   2.773
  400SOL     OW 2097   0.221   1.314   3.706
  400SOL    HW1 2098   0.156   1.241   3.685
  400SOL    HW2 2099   0.225   1.328   3.804
  401SOL     OW 2100   0.079   1.240   2.515
  401SOL    HW1 2101   0.078   1.193   2.603
  401SOL    HW2 2102   0.161   1.212   2.464
  402SOL     OW 2103   0.672   1.391   3.486
  402SOL    HW1 2104   0.594   1.341   3.524
  402SOL    HW2 2105   0.669   1.486   3.517
  403SOL     OW 2106   0.428   0.424   2.382
  403SOL    HW1 2107   0.458   0.352   2.320
  403SOL    HW2 2108   0.389   0.384   2.465
  404SOL     OW 2109   1.705   1.487   2.966
  404SOL    HW1 2110   1.612   1.462   2.939
  404SOL    HW2 2111   1.731   1.437   3.048
  405SOL     OW 2112   0.812   1.586   2.549
  405SOL    HW1 2113   0.844   1.596   2.455
  405SOL    HW2 2114   0.733   1.524   2.551
  406SOL     OW 2115   1.001   0.034   3.016
  406SOL    HW1 2116   0.938  -0.038   2.985
  406SOL    HW2 2117   1.094  -0.002   3.016
  407SOL     OW 2118   0.770   1.330   2.163
  407SOL    HW1 2119   0.724   1.243   2.180
  407SOL    HW2 2120   0.861   1.327   2.204
  408SOL     OW 2121   0.618   1.567   3.146
  408SOL    HW1 2122   0.613   1.649   3.203
  408SOL    HW2 2123   0.707   1.564   3.101
  409SOL     OW 2124   1.352   0.052   2.030
  409SOL    HW1 2125   1.387   0.011   1.946
  409SOL    HW2 2126   1.262   0.014   2.050
  410SOL     OW 2127   1.593   0.221   2.744
  410SOL    HW1 2128   1.509   0.220   2.798
  410SOL    HW2 2129   1.595   0.304   2.688
  411SOL     OW 2130   0.039   1.077   2.162
  411SOL    HW1 2131   0.138   1.066   2.153
  411SOL    HW2 2132  -0.001   0.991   2.194
  412SOL     OW 2133   0.875   1.646   2.199
  412SOL    HW1 2134   0.798   1.611   2.145
  412SOL    HW2 2135   0.843   1.717   2.261
  413SOL     OW 2136   0.230   0.628   3.837
  413SOL    HW1 2137   0.137   0.626   3.874
  413SOL    HW2 2138   0.231   0.589   3.745
  414SOL     OW 2139   0.225   0.275   4.720
  414SOL    HW1 2140   0.260   0.258   4.812
  414SOL    HW2 2141   0.137   0.230   4.708
  415SOL     OW 2142   0.019   0.368   4.371
  415SOL    HW1 2143  -0.063   0.411   4.410
  415SOL    HW2 2144  -0.009   0.295   4.308
  416SOL     OW 2145   0.569   1.275   4.889
  416SOL    HW1 2146   0.476   1.268   4.852
  416SOL    HW2 2147   0.580   1.364   4.933
  417SOL     OW 2148   1.555   1.511   4.427
  417SOL    HW1 2149   1.498   1.495   4.508
  417SOL    HW2 2150   1.496   1.521   4.347
  418SOL     OW 2151   1.135   0.703   4.441
  418SOL    HW1 2152   1.192   0.781   4.416
  418SOL    HW2 2153   1.075   0.729   4.517
  419SOL     OW 2154   1.755   0.607   3.955
  419SOL    HW1 2155   1.743   0.594   3.856
  419SOL    HW2 2156   1.725   0.526   4.004
  420SOL     OW 2157   0.768   1.144   4.747
  420SOL    HW1 2158   0.690   1.161   4.807
  420SOL    HW2 2159   0.802   1.231   4.711
  421SOL     OW 2160   0.685   1.012   4.389
  421SOL    HW1 2161   0.754   0.996   4.459
  421SOL    HW2 2162   0.612   1.069   4.427
  422SOL     OW 2163   0.335   1.435   4.785
  422SOL    HW1 2164   0.257   1.404   4.732
  422SOL    HW2 2165   0.393   1.493   4.728
  423SOL     OW 2166   1.603   0.447   4.461
  423SOL    HW1 2167   1.529   0.493   4.411
  423SOL    HW2 2168   1.654   0.515   4.514
  424SOL     OW 2169   0.231   1.713   4.207
  424SOL    HW1 2170   0.265   1.790   4.261
  424SOL    HW2 2171   0.275   1.713   4.117
  425SOL     OW 2172   0.230   1.434   4.262
  425SOL    HW1 2173   0.204   1.530   4.262
  425SOL    HW2 2174   0.159   1.380   4.307
  426SOL     OW 2175   0.240   1.091   4.610
  426SOL    HW1 2176   0.254   1.007   4.662
  426SOL    HW2 2177   0.185   1.155   4.665
  427SOL     OW 2178   0.620   1.786   5.163
  427SOL    HW1 2179   0.528   1.769   5.198
  427SOL    HW2 2180   0.648   1.878   5.189
  428SOL     OW 2181   0.606   0.964   3.847
  428SOL    HW1 2182   0.613   1.048   3.793
  428SOL    HW2 2183   0.652   0.977   3.935
  429SOL     OW 2184   0.122   0.643   4.287
  429SOL    HW1 2185   0.077   0.555   4.304
  429SOL    HW2 2186   0.121   0.697   4.371
  430SOL     OW 2187   1.842   1.767   4.083
  430SOL    HW1 2188   1.896   1.738   4.163
  430SOL    HW2 2189   1.872   1.857   4.054
  431SOL     OW 2190   0.027   1.596   3.841
  431SOL    HW1 2191   0.008   1.500   3.862
  431SOL    HW2 2192  -0.006   1.654   3.916
  432SOL     OW 2193   1.689   0.922   4.336
  432SOL    HW1 2194   1.784   0.893   4.344
  432SOL    HW2 2195   1.681   0.987   4.261
  433SOL     OW 2196   1.641   1.108   4.156
  433SOL    HW1 2197   1.727   1.110   4.104
  433SOL    HW2 2198   1.655   1.155   4.244
  434SOL     OW 2199   0.613   1.365   4.450
  434SOL    HW1 2200   0.564   1.278   4.459
  434SOL    HW2 2201   0.590   1.408   4.363
  435SOL     OW 2202   0.197   0.976   4.988
  435SOL    HW1 2203   0.286   0.931   4.974
  435SOL    HW2 2204   0.124   0.911   4.969
  436SOL     OW 2205   1.525   0.999   3.914
  436SOL    HW1 2206   1.462   0.923   3.927
  436SOL    HW2 2207   1.573   1.017   4.000
  437SOL     OW 2208   1.466   1.417   4.677
  437SOL    HW1 2209   1.407   1.423   4.757
  437SOL    HW2 2210   1.451   1.329   4.631
  438SOL     OW 2211   0.598   0.729   3.994
  438SOL    HW1 2212   0.622   0.798   3.926
  438SOL    HW2 2213   0.520   0.762   4.048
  439SOL     OW 2214   1.281   0.345   4.668
  439SOL    HW1 2215   1.195   0.295   4.655
  439SOL    HW2 2216   1.343   0.291   4.724
  440SOL     OW 2217   1.576   1.662   4.031
  440SOL    HW1 2218   1.665   1.708   4.034
  440SOL    HW2 2219   1.555   1.638   3.936
  441SOL     OW 2220   0.991   0.410   4.966
  441SOL    HW1 2221   0.914   0.444   5.020
  441SOL    HW2 2222   0.957   0.359   4.887
  442SOL     OW 2223   1.041   0.701   4.153
  442SOL    HW1 2224   1.067   0.697   4.249
  442SOL    HW2 2225   0.956   0.650   4.139
  443SOL     OW 2226   0.076   0.811   4.513
  443SOL    HW1 2227   0.175   0.799   4.522
  443SOL    HW2 2228   0.052   0.906   4.534
  444SOL     OW 2229   0.130   1.821   5.295
  444SOL    HW1 2230   0.120   1.806   5.394
  444SOL    HW2 2231   0.044   1.857   5.259
  445SOL     OW 2232   0.865   0.348   3.919
  445SOL    HW1 2233   0.924   0.411   3.870
  445SOL    HW2 2234   0.884   0.254   3.890
  446SOL     OW 2235   1.362   1.144   4.269
  446SOL    HW1 2236   1.445   1.115   4.221
  446SOL    HW2 2237   1.313   1.211   4.213
  447SOL     OW 2238   0.550   0.196   4.609
  447SOL    HW1 2239   0.545   0.191   4.709
  447SOL    HW2 2240   0.552   0.292   4.580
  448SOL     OW 2241   1.008   1.456   4.201
  448SOL    HW1 2242   0.962   1.528   4.149
  448SOL    HW2 2243   1.004   1.476   4.299
  449SOL     OW 2244   0.351   1.801   4.577
  449SOL    HW1 2245   0.401   1.715   4.583
  449SOL    HW2 2246   0.416   1.878   4.574
  450SOL     OW 2247   1.795   1.066   4.597
  450SOL    HW1 2248   1.733   1.051   4.521
  450SOL    HW2 2249   1.743   1.077   4.682
  451SOL     OW 2250   0.321   0.943   3.966
  451SOL    HW1 2251   0.403   0.982   3.924
  451SOL    HW2 2252   0.294   0.861   3.917
  452SOL     OW 2253   1.458   0.735   4.452
  452SOL    HW1 2254   1.453   0.670   4.527
  452SOL    HW2 2255   1.538   0.794   4.465
  453SOL     OW 2256   1.111   1.776   3.961
  453SOL    HW1 2257   1.051   1.714   4.011
  453SOL    HW2 2258   1.142   1.732   3.876
  454SOL     OW 2259   1.632   1.377   3.805
  454SOL    HW1 2260   1.600   1.471   3.795
  454SOL    HW2 2261   1.556   1.314   3.793
  455SOL     OW 2262   0.464   1.743   4.047
  455SOL    HW1 2263   0.497   1.782   4.133
  455SOL    HW2 2264   0.540   1.736   3.982
  456SOL     OW 2265   1.400   0.107   4.150
  456SOL    HW1 2266   1.376   0.070   4.060
  456SOL    HW2 2267   1.499   0.123   4.154
  457SOL     OW 2268   0.249   1.785   4.965
  457SOL    HW1 2269   0.306   1.720   5.015
  457SOL    HW2 2270   0.233   1.752   4.872
  458SOL     OW 2271   0.940   1.698   4.628
  458SOL    HW1 2272   1.020   1.641   4.649
  458SOL    HW2 2273   0.891   1.658   4.551
  459SOL     OW 2274   0.382   0.700   4.204
  459SOL    HW1 2275   0.427   0.610   4.201
  459SOL    HW2 2276   0.288   0.689   4.237
  460SOL     OW 2277   0.614   0.122   3.841
  460SOL    HW1 2278   0.712   0.100   3.848
  460SOL    HW2 2279   0.583   0.105   3.748
  461SOL     OW 2280   0.803   1.402   4.648
  461SOL    HW1 2281   0.893   1.416   4.606
  461SOL    HW2 2282   0.732   1.404   4.577
  462SOL     OW 2283   0.922   0.503   4.623
  462SOL    HW1 2284   0.897   0.494   4.527
  462SOL    HW2 2285   0.970   0.421   4.654
  463SOL     OW 2286   0.539   0.064   4.236
  463SOL    HW1 2287   0.458   0.065   4.294
  463SOL    HW2 2288   0.542   0.147   4.181
  464SOL     OW 2289   1.434   1.188   3.765
  464SOL    HW1 2290   1.466   1.112   3.822
  464SOL    HW2 2291   1.342   1.215   3.795
  465SOL     OW 2292   0.297   0.035   3.895
  465SOL    HW1 2293   0.346   0.119   3.874
  465SOL    HW2 2294   0.359  -0.030   3.940
  466SOL     OW 2295   0.935   0.236   4.204
  466SOL    HW1 2296   0.887   0.277   4.126
  466SOL    HW2 2297   1.034   0.234   4.185
  467SOL     OW 2298   1.227   1.570   4.517
  467SOL    HW1 2299   1.248   1.644   4.452
  467SOL    HW2 2300   1.295   1.570   4.590
  468SOL     OW 2301   0.459   1.152   4.465
  468SOL    HW1 2302   0.388   1.125   4.530
  468SOL    HW2 2303   0.433   1.124   4.372
  469SOL     OW 2304   1.271   1.797   4.315
  469SOL    HW1 2305   1.315   1.861   4.251
  469SOL    HW2 2306   1.221   1.849   4.385
  470SOL     OW 2307   1.032   0.549   3.740
  470SOL    HW1 2308   0.991   0.631   3.701
  470SOL    HW2 2309   1.096   0.575   3.813
  471SOL     OW 2310   0.561   0.222   4.871
  471SOL    HW1 2311   0.599   0.138   4.908
  471SOL    HW2 2312   0.473   0.241   4.915
  472SOL     OW 2313   0.866   0.454   4.366
  472SOL    HW1 2314   0.834   0.526   4.304
  472SOL    HW2 2315   0.890   0.373   4.313
  473SOL     OW 2316   1.429   1.173   4.591
  473SOL    HW1 2317   1.374   1.089   4.584
  473SOL    HW2 2318   1.455   1.202   4.499
  474SOL     OW 2319   1.466   0.590   4.716
  474SOL    HW1 2320   1.436   0.495   4.723
  474SOL    HW2 2321   1.539   0.606   4.782
  475SOL     OW 2322   1.857   0.833   4.101
  475SOL    HW1 2323   1.899   0.769   4.165
  475SOL    HW2 2324   1.819   0.782   4.023
  476SOL     OW 2325   0.488   1.385   3.898
  476SOL    HW1 2326   0.401   1.370   3.945
  476SOL    HW2 2327   0.471   1.411   3.803
  477SOL     OW 2328   1.664   1.280   4.381
  477SOL    HW1 2329   1.763   1.288   4.395
  477SOL    HW2 2330   1.619   1.364   4.412
  478SOL     OW 2331   1.390   0.575   3.802
  478SOL    HW1 2332   1.336   0.554   3.883
  478SOL    HW2 2333   1.481   0.534   3.811
  479SOL     OW 2334   0.527   0.256   4.052
  479SOL    HW1 2335   0.554   0.197   3.977
  479SOL    HW2 2336   0.527   0.351   4.021
  480SOL     OW 2337   1.111   1.195   4.824
  480SOL    HW1 2338   1.071   1.239   4.905
  480SOL    HW2 2339   1.070   1.232   4.741
  481SOL     OW 2340   1.638   1.099   4.803
  481SOL    HW1 2341   1.643   1.180   4.862
  481SOL    HW2 2342   1.552   1.101   4.752
  482SOL     OW 2343   0.705   1.050   4.092
  482SOL    HW1 2344   0.691   1.057   4.191
  482SOL    HW2 2345   0.789   0.999   4.074
  483SOL     OW 2346   0.410   0.813   4.975
  483SOL    HW1 2347   0.496   0.825   5.025
  483SOL    HW2 2348   0.368   0.726   5.002
  484SOL     OW 2349   1.274   0.386   4.986
  484SOL    HW1 2350   1.295   0.460   5.050
  484SOL    HW2 2351   1.185   0.403   4.943
  485SOL     OW 2352   0.367   1.100   4.225
  485SOL    HW1 2353   0.360   1.183   4.169
  485SOL    HW2 2354   0.371   1.020   4.165
  486SOL     OW 2355   0.566   0.537   4.589
  486SOL    HW1 2356   0.578   0.603   4.515
  486SOL    HW2 2357   0.612   0.571   4.672
  487SOL     OW 2358   1.252   1.348   4.112
  487SOL    HW1 2359   1.302   1.425   4.152
  487SOL    HW2 2360   1.157   1.350   4.144
  488SOL     OW 2361   1.272   1.445   4.866
  488SOL    HW1 2362   1.319   1.458   4.953
  488SOL    HW2 2363   1.206   1.371   4.875
  489SOL     OW 2364   1.582   0.639   4.196
  489SOL    HW1 2365   1.551   0.700   4.269
  489SOL    HW2 2366   1.632   0.691   4.127
  490SOL     OW 2367   0.354   1.510   5.053
  490SOL    HW1 2368   0.333   1.466   4.966
  490SOL    HW2 2369   0.451   1.536   5.056
  491SOL     OW 2370   0.573   0.870   4.753
  491SOL    HW1 2371   0.617   0.959   4.744
  491SOL    HW2 2372   0.510   0.870   4.830
  492SOL     OW 2373   1.360   0.862   4.769
  492SOL    HW1 2374   1.285   0.862   4.703
  492SOL    HW2 2375   1.397   0.770   4.778
  493SOL     OW 2376   1.209   0.525   3.999
  493SOL    HW1 2377   1.222   0.441   4.053
  493SOL    HW2 2378   1.180   0.599   4.059
  494SOL     OW 2379   0.307   0.213   4.955
  494SOL    HW1 2380   0.284   0.250   5.045
  494SOL    HW2 2381   0.277   0.118   4.949
  495SOL     OW 2382   0.037   1.310   5.006
  495SOL    HW1 2383   0.090   1.261   5.074
  495SOL    HW2 2384   0.059   1.408   5.011
  496SOL     OW 2385   0.732   0.634   4.788
  496SOL    HW1 2386   0.791   0.608   4.712
  496SOL    HW2 2387   0.704   0.730   4.777
  497SOL     OW 2388   0.307   0.063   4.342
  497SOL    HW1 2389   0.296   0.157   4.375
  497SOL    HW2 2390   0.302   0.000   4.419
  498SOL     OW 2391   1.622   0.367   4.098
  498SOL    HW1 2392   1.624   0.291   4.162
  498SOL    HW2 2393   1.574   0.444   4.138
  499SOL     OW 2394   1.023   0.766   4.690
  499SOL    HW1 2395   1.038   0.787   4.786
  499SOL    HW2 2396   0.993   0.671   4.681
  500SOL     OW 2397   1.540   0.274   3.849
  500SOL    HW1 2398   1.479   0.199   3.872
  500SOL    HW2 2399   1.562   0.326   3.932
  501SOL     OW 2400   1.303   0.838   3.766
  501SOL    HW1 2401   1.337   0.745   3.781
  501SOL    HW2 2402   1.321   0.865   3.671
  502SOL     OW 2403   1.068   1.333   4.573
  502SOL    HW1 2404   1.075   1.249   4.518
  502SOL    HW2 2405   1.130   1.402   4.537
  503SOL     OW 2406   0.319   0.810   4.673
  503SOL    HW1 2407   0.412   0.846   4.678
  503SOL    HW2 2408   0.313   0.725   4.725
  504SOL     OW 2409   0.339   0.509   4.730
  504SOL    HW1 2410   0.287   0.426   4.713
  504SOL    HW2 2411   0.416   0.514   4.666
  505SOL     OW 2412   1.160   0.207   5.201
  505SOL    HW1 2413   1.160   0.271   5.278
  505SOL    HW2 2414   1.188   0.255   5.118
  506SOL     OW 2415   0.008   1.326   3.924
  506SOL    HW1 2416  -0.085   1.347   3.893
  506SOL    HW2 2417   0.018   1.227   3.937
  507SOL     OW 2418   0.088   1.801   4.651
  507SOL    HW1 2419   0.046   1.715   4.624
  507SOL    HW2 2420   0.182   1.804   4.617
  508SOL     OW 2421   0.504   1.568   4.634
  508SOL    HW1 2422   0.570   1.642   4.643
  508SOL    HW2 2423   0.548   1.489   4.592
  509SOL     OW 2424   1.002   0.796   4.962
  509SOL    HW1 2425   1.043   0.764   5.048
  509SOL    HW2 2426   0.906   0.769   4.959
  510SOL     OW 2427   0.040   0.544   4.838
  510SOL    HW1 2428   0.125   0.511   4.797
  510SOL    HW2 2429   0.053   0.559   4.936
  511SOL     OW 2430   0.815   0.572   4.049
  511SOL    HW1 2431   0.822   0.483   4.003
  511SOL    HW2 2432   0.721   0.606   4.041
  512SOL     OW 2433   1.657   0.604   4.930
  512SOL    HW1 2434   1.619   0.535   4.992
  512SOL    HW2 2435   1.739   0.568   4.886
  513SOL     OW 2436   0.671   0.464   4.993
  513SOL    HW1 2437   0.637   0.375   4.963
  513SOL    HW2 2438   0.697   0.518   4.913
  514SOL     OW 2439   0.930   1.678   5.189
  514SOL    HW1 2440   0.906   1.660   5.094
  514SOL    HW2 2441   0.960   1.772   5.199
  515SOL     OW 2442   0.473   0.500   3.915
  515SOL    HW1 2443   0.534   0.580   3.919
  515SOL    HW2 2444   0.378   0.531   3.922
  516SOL     OW 2445   1.347   1.059   4.958
  516SOL    HW1 2446   1.371   0.996   4.884
  516SOL    HW2 2447   1.257   1.099   4.940
  517SOL     OW 2448   1.302   0.855   4.033
  517SOL    HW1 2449   1.216   0.824   4.075
  517SOL    HW2 2450   1.298   0.841   3.934
  518SOL     OW 2451   1.759   1.747   4.878
  518SOL    HW1 2452   1.820   1.777   4.805
  518SOL    HW2 2453   1.721   1.658   4.856
  519SOL     OW 2454   1.252   1.731   4.852
  519SOL    HW1 2455   1.336   1.736   4.798
  519SOL    HW2 2456   1.229   1.635   4.870
  520SOL     OW 2457   0.083   1.258   4.746
  520SOL    HW1 2458   0.078   1.257   4.846
  520SOL    HW2 2459   0.000   1.217   4.708
  521SOL     OW 2460   1.726   0.135   4.247
  521SOL    HW1 2461   1.799   0.118   4.180
  521SOL    HW2 2462   1.695   0.048   4.285
  522SOL     OW 2463   1.388   1.573   4.201
  522SOL    HW1 2464   1.455   1.585   4.127
  522SOL    HW2 2465   1.348   1.662   4.224
  523SOL     OW 2466   1.280   0.927   4.396
  523SOL    HW1 2467   1.340   0.846   4.398
  523SOL    HW2 2468   1.320   0.996   4.336
  524SOL     OW 2469   0.672   1.616   3.878
  524SOL    HW1 2470   0.681   1.626   3.779
  524SOL    HW2 2471   0.632   1.527   3.899
  525SOL     OW 2472   1.650   1.720   5.118
  525SOL    HW1 2473   1.703   1.730   5.034
  525SOL    HW2 2474   1.623   1.810   5.152
  526SOL     OW 2475   1.841   0.175   4.687
  526SOL    HW1 2476   1.880   0.090   4.651
  526SOL    HW2 2477   1.743   0.177   4.668
  527SOL     OW 2478   0.263   0.326   4.444
  527SOL    HW1 2479   0.184   0.377   4.410
  527SOL    HW2 2480   0.254   0.311   4.542
  528SOL     OW 2481   1.194   1.612   3.755
  528SOL    HW1 2482   1.200   1.519   3.792
  528SOL    HW2 2483   1.135   1.612   3.675
  529SOL     OW 2484   0.822   1.002   5.096
  529SOL    HW1 2485   0.862   1.001   5.004
  529SOL    HW2 2486   0.832   1.094   5.136
  530SOL     OW 2487   0.916   0.910   4.015
  530SOL    HW1 2488   0.979   0.948   3.947
  530SOL    HW2 2489   0.956   0.827   4.054
  531SOL     OW 2490   1.504   1.607   3.768
  531SOL    HW1 2491   1.412   1.644   3.775
  531SOL    HW2 2492   1.542   1.627   3.678
  532SOL     OW 2493   1.039   1.098   4.420
  532SOL    HW1 2494   0.969   1.051   4.474
  532SOL    HW2 2495   1.098   1.030   4.377
  533SOL     OW 2496   1.014   0.236   4.695
  533SOL    HW1 2497   1.006   0.200   4.602
  533SOL    HW2 2498   1.012   0.160   4.760
  534SOL     OW 2499   0.590   1.487   4.215
  534SOL    HW1 2500   0.632   1.429   4.145
  534SOL    HW2 2501   0.546   1.566   4.171
  535SOL     OW 2502   1.709   0.385   5.105
  535SOL    HW1 2503   1.782   0.454   5.109
  535SOL    HW2 2504   1.737   0.310   5.046
  536SOL     OW 2505   0.255   1.348   4.014
  536SOL    HW1 2506   0.159   1.349   3.987
  536SOL    HW2 2507   0.267   1.401   4.098
  537SOL     OW 2508   0.075   0.345   3.757
  537SOL    HW1 2509  -0.017   0.317   3.728
  537SOL    HW2 2510   0.106   0.422   3.701
  538SOL     OW 2511   0.072   0.166   4.042
  538SOL    HW1 2512   0.055   0.249   3.988
  538SOL    HW2 2513   0.162   0.129   4.020
  539SOL     OW 2514   1.183   1.335   3.843
  539SOL    HW1 2515   1.084   1.324   3.845
  539SOL    HW2 2516   1.217   1.350   3.936
  540SOL     OW 2517   1.493   1.767   4.683
  540SOL    HW1 2518   1.526   1.831   4.614
  540SOL    HW2 2519   1.559   1.761   4.758
  541SOL     OW 2520   1.450   1.220   5.357
  541SOL    HW1 2521   1.441   1.210   5.456
  541SOL    HW2 2522   1.546   1.213   5.331
  542SOL     OW 2523   1.674   0.883   4.978
  542SOL    HW1 2524   1.647   0.794   4.941
  542SOL    HW2 2525   1.675   0.951   4.905
  543SOL     OW 2526   1.225   0.325   4.173
  543SOL    HW1 2527   1.290   0.251   4.162
  543SOL    HW2 2528   1.245   0.375   4.257
  544SOL     OW 2529   0.594   0.745   4.376
  544SOL    HW1 2530   0.644   0.830   4.357
  544SOL    HW2 2531   0.506   0.747   4.328
  545SOL     OW 2532   1.730   0.934   5.241
  545SOL    HW1 2533   1.768   1.025   5.256
  545SOL    HW2 2534   1.722   0.917   5.142
  546SOL     OW 2535   0.859   1.374   3.740
  546SOL    HW1 2536   0.813   1.389   3.828
  546SOL    HW2 2537   0.903   1.459   3.710
  547SOL     OW 2538   0.661   1.790   4.677
  547SOL    HW1 2539   0.615   1.878   4.664
  547SOL    HW2 2540   0.760   1.802   4.670
  548SOL     OW 2541   0.859   0.956   4.585
  548SOL    HW1 2542   0.913   0.887   4.633
  548SOL    HW2 2543   0.827   1.025   4.651
  549SOL     OW 2544   1.083   0.984   3.811
  549SOL    HW1 2545   1.060   1.037   3.729
  549SOL    HW2 2546   1.164   0.928   3.792
  550SOL     OW 2547   0.079   1.240   4.377
  550SOL    HW1 2548   0.078   1.193   4.465
  550SOL    HW2 2549   0.161   1.212   4.326
  551SOL     OW 2550   1.824   0.192   4.951
  551SOL    HW1 2551   1.820   0.102   4.995
  551SOL    HW2 2552   1.827   0.181   4.852
  552SOL     OW 2553   0.428   0.424   4.244
  552SOL    HW1 2554   0.458   0.352   4.182
  552SOL    HW2 2555   0.389   0.384   4.327
  553SOL     OW 2556   1.705   1.487   4.828
  553SOL    HW1 2557   1.612   1.462   4.801
  553SOL    HW2 2558   1.731   1.437   4.910
  554SOL     OW 2559   0.812   1.586   4.411
  554SOL    HW1 2560   0.844   1.596   4.317
  554SOL    HW2 2561   0.733   1.524   4.413
  555SOL     OW 2562   1.424   0.214   4.836
  555SOL    HW1 2563   1.476   0.149   4.891
  555SOL    HW2 2564   1.375   0.277   4.897
  556SOL     OW 2565   1.001   0.034   4.878
  556SOL    HW1 2566   0.938  -0.038   4.847
  556SOL    HW2 2567   1.094  -0.002   4.878
  557SOL     OW 2568   0.770   1.330   4.025
  557SOL    HW1 2569   0.724   1.243   4.042
  557SOL    HW2 2570   0.861   1.327   4.066
  558SOL     OW 2571   1.352   0.052   3.892
  558SOL    HW1 2572   1.387   0.011   3.808
  558SOL    HW2 2573   1.262   0.014   3.912
  559SOL     OW 2574   1.300   0.453   4.415
  559SOL    HW1 2575   1.241   0.533   4.419
  559SOL    HW2 2576   1.315   0.418   4.508
  560SOL     OW 2577   1.593   0.221   4.606
  560SOL    HW1 2578   1.509   0.220   4.660
  560SOL    HW2 2579   1.595   0.304   4.550
  561SOL     OW 2580   0.039   1.077   4.024
  561SOL    HW1 2581   0.138   1.066   4.015
  561SOL    HW2 2582  -0.001   0.991   4.056
  562SOL     OW 2583   0.875   1.646   4.061
  562SOL    HW1 2584   0.798   1.611   4.007
  562SOL    HW2 2585   0.843   1.717   4.123
  563SOL     OW 2586   0.230   2.490   0.113
  563SOL    HW1 2587   0.137   2.488   0.150
  563SOL    HW2 2588   0.231   2.451   0.021
  564SOL     OW 2589   0.225   2.137   0.996
  564SOL    HW1 2590   0.260   2.120   1.088
  564SOL    HW2 2591   0.137   2.092   0.984
  565SOL     OW 2592   0.019   2.230   0.647
  565SOL    HW1 2593  -0.063   2.273   0.686
  565SOL    HW2 2594  -0.009   2.157   0.584
  566SOL     OW 2595   0.569   3.137   1.165
  566SOL    HW1 2596   0.476   3.130   1.128
  566SOL    HW2 2597   0.580   3.226   1.209
  567SOL     OW 2598   1.135   2.565   0.717
  567SOL    HW1 2599   1.192   2.643   0.692
  567SOL    HW2 2600   1.075   2.591   0.793
  568SOL     OW 2601   1.755   2.469   0.231
  568SOL    HW1 2602   1.743   2.456   0.132
  568SOL    HW2 2603   1.725   2.388   0.280
  569SOL     OW 2604   0.850   2.660   1.823
  569SOL    HW1 2605   0.846   2.736   1.888
  569SOL    HW2 2606   0.872   2.696   1.732
  570SOL     OW 2607   0.685   2.874   0.665
  570SOL    HW1 2608   0.754   2.858   0.735
  570SOL    HW2 2609   0.612   2.931   0.703
  571SOL     OW 2610   0.686   3.023   1.803
  571SOL    HW1 2611   0.746   3.102   1.817
  571SOL    HW2 2612   0.600   3.054   1.762
  572SOL     OW 2613   0.335   3.297   1.061
  572SOL    HW1 2614   0.257   3.266   1.008
  572SOL    HW2 2615   0.393   3.355   1.004
  573SOL     OW 2616   1.460   3.367   1.339
  573SOL    HW1 2617   1.484   3.461   1.365
  573SOL    HW2 2618   1.444   3.313   1.421
  574SOL     OW 2619   0.438   2.254   1.499
  574SOL    HW1 2620   0.520   2.198   1.508
  574SOL    HW2 2621   0.357   2.196   1.503
  575SOL     OW 2622   1.603   2.309   0.737
  575SOL    HW1 2623   1.529   2.355   0.687
  575SOL    HW2 2624   1.654   2.377   0.790
  576SOL     OW 2625   0.231   3.575   0.483
  576SOL    HW1 2626   0.265   3.652   0.537
  576SOL    HW2 2627   0.275   3.575   0.393
  577SOL     OW 2628   0.230   3.296   0.538
  577SOL    HW1 2629   0.204   3.392   0.538
  577SOL    HW2 2630   0.159   3.242   0.583
  578SOL     OW 2631   0.240   2.953   0.886
  578SOL    HW1 2632   0.254   2.869   0.938
  578SOL    HW2 2633   0.185   3.017   0.941
  579SOL     OW 2634   0.620   3.648   1.439
  579SOL    HW1 2635   0.528   3.631   1.474
  579SOL    HW2 2636   0.648   3.740   1.465
  580SOL     OW 2637   0.606   2.826   0.123
  580SOL    HW1 2638   0.613   2.910   0.069
  580SOL    HW2 2639   0.652   2.839   0.211
  581SOL     OW 2640   1.594   1.976   1.480
  581SOL    HW1 2641   1.576   2.043   1.408
  581SOL    HW2 2642   1.591   2.022   1.569
  582SOL     OW 2643   0.122   2.505   0.563
  582SOL    HW1 2644   0.077   2.417   0.580
  582SOL    HW2 2645   0.121   2.559   0.647
  583SOL     OW 2646   1.842   3.629   0.359
  583SOL    HW1 2647   1.896   3.600   0.439
  583SOL    HW2 2648   1.872   3.719   0.330
  584SOL     OW 2649   0.027   3.458   0.117
  584SOL    HW1 2650   0.008   3.362   0.138
  584SOL    HW2 2651  -0.006   3.516   0.192
  585SOL     OW 2652   1.689   2.784   0.612
  585SOL    HW1 2653   1.784   2.755   0.620
  585SOL    HW2 2654   1.681   2.849   0.537
  586SOL     OW 2655   1.641   2.970   0.432
  586SOL    HW1 2656   1.727   2.972   0.380
  586SOL    HW2 2657   1.655   3.017   0.520
  587SOL     OW 2658   0.113   2.599   1.597
  587SOL    HW1 2659   0.201   2.586   1.642
  587SOL    HW2 2660   0.100   2.696   1.575
  588SOL     OW 2661   0.613   3.227   0.726
  588SOL    HW1 2662   0.564   3.140   0.735
  588SOL    HW2 2663   0.590   3.270   0.639
  589SOL     OW 2664   1.293   3.090   1.423
  589SOL    HW1 2665   1.330   3.017   1.365
  589SOL    HW2 2666   1.345   3.095   1.508
  590SOL     OW 2667   0.809   1.866   0.502
  590SOL    HW1 2668   0.849   1.957   0.493
  590SOL    HW2 2669   0.709   1.874   0.508
  591SOL     OW 2670   0.197   2.838   1.264
  591SOL    HW1 2671   0.286   2.793   1.250
  591SOL    HW2 2672   0.124   2.773   1.245
  592SOL     OW 2673   1.525   2.861   0.190
  592SOL    HW1 2674   1.462   2.785   0.203
  592SOL    HW2 2675   1.573   2.879   0.276
  593SOL     OW 2676   1.187   3.654   1.616
  593SOL    HW1 2677   1.211   3.714   1.540
  593SOL    HW2 2678   1.194   3.559   1.586
  594SOL     OW 2679   0.317   2.113   1.801
  594SOL    HW1 2680   0.388   2.184   1.807
  594SOL    HW2 2681   0.229   2.152   1.829
  595SOL     OW 2682   1.466   3.279   0.953
  595SOL    HW1 2683   1.407   3.285   1.033
  595SOL    HW2 2684   1.451   3.191   0.907
  596SOL     OW 2685   0.598   2.591   0.270
  596SOL    HW1 2686   0.622   2.660   0.202
  596SOL    HW2 2687   0.520   2.624   0.324
  597SOL     OW 2688   1.281   2.207   0.944
  597SOL    HW1 2689   1.195   2.157   0.931
  597SOL    HW2 2690   1.343   2.153   1.000
  598SOL     OW 2691   0.807   2.467   1.465
  598SOL    HW1 2692   0.760   2.464   1.554
  598SOL    HW2 2693   0.756   2.412   1.399
  599SOL     OW 2694   1.394   2.331   1.674
  599SOL    HW1 2695   1.374   2.374   1.762
  599SOL    HW2 2696   1.472   2.269   1.683
  600SOL     OW 2697   0.973   2.752   1.572
  600SOL    HW1 2698   1.019   2.668   1.543
  600SOL    HW2 2699   0.917   2.786   1.497
  601SOL     OW 2700   0.991   2.272   1.242
  601SOL    HW1 2701   0.914   2.306   1.296
  601SOL    HW2 2702   0.957   2.221   1.163
  602SOL     OW 2703   1.041   2.563   0.429
  602SOL    HW1 2704   1.067   2.559   0.525
  602SOL    HW2 2705   0.956   2.512   0.415
  603SOL     OW 2706   0.076   2.673   0.789
  603SOL    HW1 2707   0.175   2.661   0.798
  603SOL    HW2 2708   0.052   2.768   0.810
  604SOL     OW 2709   0.130   3.683   1.571
  604SOL    HW1 2710   0.120   3.668   1.670
  604SOL    HW2 2711   0.044   3.719   1.535
  605SOL     OW 2712   0.865   2.210   0.195
  605SOL    HW1 2713   0.924   2.273   0.146
  605SOL    HW2 2714   0.884   2.116   0.166
  606SOL     OW 2715   1.719   2.447   1.831
  606SOL    HW1 2716   1.693   2.536   1.795
  606SOL    HW2 2717   1.717   2.379   1.758
  607SOL     OW 2718   1.362   3.006   0.545
  607SOL    HW1 2719   1.445   2.977   0.497
  607SOL    HW2 2720   1.313   3.073   0.489
  608SOL     OW 2721   0.550   2.058   0.885
  608SOL    HW1 2722   0.545   2.053   0.985
  608SOL    HW2 2723   0.552   2.154   0.856
  609SOL     OW 2724   1.008   3.318   0.477
  609SOL    HW1 2725   0.962   3.390   0.425
  609SOL    HW2 2726   1.004   3.338   0.575
  610SOL     OW 2727   0.351   3.663   0.853
  610SOL    HW1 2728   0.401   3.577   0.859
  610SOL    HW2 2729   0.416   3.740   0.850
  611SOL     OW 2730   1.227   3.412   1.506
  611SOL    HW1 2731   1.233   3.335   1.570
  611SOL    HW2 2732   1.175   3.386   1.426
  612SOL     OW 2733   0.321   2.805   0.242
  612SOL    HW1 2734   0.403   2.844   0.200
  612SOL    HW2 2735   0.294   2.723   0.193
  613SOL     OW 2736   1.458   2.597   0.728
  613SOL    HW1 2737   1.453   2.532   0.803
  613SOL    HW2 2738   1.538   2.656   0.741
  614SOL     OW 2739   0.461   3.128   1.727
  614SOL    HW1 2740   0.411   3.129   1.641
  614SOL    HW2 2741   0.398   3.110   1.803
  615SOL     OW 2742   1.111   3.638   0.237
  615SOL    HW1 2743   1.051   3.576   0.287
  615SOL    HW2 2744   1.142   3.594   0.152
  616SOL     OW 2745   0.202   2.147   1.498
  616SOL    HW1 2746   0.122   2.207   1.485
  616SOL    HW2 2747   0.192   2.098   1.584
  617SOL     OW 2748   0.464   3.605   0.323
  617SOL    HW1 2749   0.497   3.644   0.409
  617SOL    HW2 2750   0.540   3.598   0.258
  618SOL     OW 2751   1.400   1.969   0.426
  618SOL    HW1 2752   1.376   1.932   0.336
  618SOL    HW2 2753   1.499   1.985   0.430
  619SOL     OW 2754   0.249   3.647   1.241
  619SOL    HW1 2755   0.306   3.582   1.291
  619SOL    HW2 2756   0.233   3.614   1.148
  620SOL     OW 2757   0.382   2.562   0.480
  620SOL    HW1 2758   0.427   2.472   0.477
  620SOL    HW2 2759   0.288   2.551   0.513
  621SOL     OW 2760   1.547   2.084   1.729
  621SOL    HW1 2761   1.542   2.121   1.821
  621SOL    HW2 2762   1.475   2.015   1.717
  622SOL     OW 2763   0.781   2.126   1.749
  622SOL    HW1 2764   0.848   2.065   1.792
  622SOL    HW2 2765   0.708   2.145   1.814
  623SOL     OW 2766   1.351   2.452   1.433
  623SOL    HW1 2767   1.379   2.409   1.518
  623SOL    HW2 2768   1.376   2.548   1.434
  624SOL     OW 2769   0.922   2.365   0.899
  624SOL    HW1 2770   0.897   2.356   0.803
  624SOL    HW2 2771   0.970   2.283   0.930
  625SOL     OW 2772   0.539   1.926   0.512
  625SOL    HW1 2773   0.458   1.927   0.570
  625SOL    HW2 2774   0.542   2.009   0.457
  626SOL     OW 2775   1.434   3.050   0.041
  626SOL    HW1 2776   1.466   2.974   0.098
  626SOL    HW2 2777   1.342   3.077   0.071
  627SOL     OW 2778   0.297   1.897   0.171
  627SOL    HW1 2779   0.346   1.981   0.150
  627SOL    HW2 2780   0.359   1.832   0.216
  628SOL     OW 2781   0.935   2.098   0.480
  628SOL    HW1 2782   0.887   2.139   0.402
  628SOL    HW2 2783   1.034   2.096   0.461
  629SOL     OW 2784   1.076   2.545   1.464
  629SOL    HW1 2785   0.996   2.484   1.467
  629SOL    HW2 2786   1.157   2.492   1.440
  630SOL     OW 2787   1.227   3.432   0.793
  630SOL    HW1 2788   1.248   3.506   0.728
  630SOL    HW2 2789   1.295   3.432   0.866
  631SOL     OW 2790   0.459   3.014   0.741
  631SOL    HW1 2791   0.388   2.987   0.806
  631SOL    HW2 2792   0.433   2.986   0.648
  632SOL     OW 2793   1.271   3.659   0.591
  632SOL    HW1 2794   1.315   3.723   0.527
  632SOL    HW2 2795   1.221   3.711   0.661
  633SOL     OW 2796   1.032   2.411   0.016
  633SOL    HW1 2797   0.991   2.493  -0.023
  633SOL    HW2 2798   1.096   2.437   0.089
  634SOL     OW 2799   0.078   2.418   1.386
  634SOL    HW1 2800   0.170   2.417   1.345
  634SOL    HW2 2801   0.072   2.492   1.453
  635SOL     OW 2802   0.561   2.084   1.147
  635SOL    HW1 2803   0.599   2.000   1.184
  635SOL    HW2 2804   0.473   2.103   1.191
  636SOL     OW 2805   0.866   2.316   0.642
  636SOL    HW1 2806   0.834   2.388   0.580
  636SOL    HW2 2807   0.890   2.235   0.589
  637SOL     OW 2808   1.017   1.901   0.753
  637SOL    HW1 2809   0.945   1.906   0.684
  637SOL    HW2 2810   0.993   1.832   0.822
  638SOL     OW 2811   1.429   3.035   0.867
  638SOL    HW1 2812   1.374   2.951   0.860
  638SOL    HW2 2813   1.455   3.064   0.775
  639SOL     OW 2814   1.466   2.452   0.992
  639SOL    HW1 2815   1.436   2.357   0.999
  639SOL    HW2 2816   1.539   2.468   1.058
  640SOL     OW 2817   1.857   2.695   0.377
  640SOL    HW1 2818   1.899   2.631   0.441
  640SOL    HW2 2819   1.819   2.644   0.299
  641SOL     OW 2820   0.488   3.247   0.174
  641SOL    HW1 2821   0.401   3.232   0.221
  641SOL    HW2 2822   0.471   3.273   0.079
  642SOL     OW 2823   1.390   2.437   0.078
  642SOL    HW1 2824   1.336   2.416   0.159
  642SOL    HW2 2825   1.481   2.396   0.087
  643SOL     OW 2826   0.527   2.118   0.328
  643SOL    HW1 2827   0.554   2.059   0.253
  643SOL    HW2 2828   0.527   2.213   0.297
  644SOL     OW 2829   1.754   3.085   1.588
  644SOL    HW1 2830   1.845   3.046   1.575
  644SOL    HW2 2831   1.762   3.181   1.612
  645SOL     OW 2832   1.111   3.057   1.100
  645SOL    HW1 2833   1.071   3.101   1.181
  645SOL    HW2 2834   1.070   3.094   1.017
  646SOL     OW 2835   1.638   2.961   1.079
  646SOL    HW1 2836   1.643   3.042   1.138
  646SOL    HW2 2837   1.552   2.963   1.028
  647SOL     OW 2838   0.915   1.951   1.402
  647SOL    HW1 2839   0.940   1.931   1.307
  647SOL    HW2 2840   0.987   2.007   1.444
  648SOL     OW 2841   0.705   2.912   0.368
  648SOL    HW1 2842   0.691   2.919   0.467
  648SOL    HW2 2843   0.789   2.861   0.350
  649SOL     OW 2844   0.410   2.675   1.251
  649SOL    HW1 2845   0.496   2.687   1.301
  649SOL    HW2 2846   0.368   2.588   1.278
  650SOL     OW 2847   1.274   2.248   1.262
  650SOL    HW1 2848   1.295   2.322   1.326
  650SOL    HW2 2849   1.185   2.265   1.219
  651SOL     OW 2850   0.064   3.426   1.331
  651SOL    HW1 2851   0.018   3.508   1.297
  651SOL    HW2 2852   0.162   3.445   1.340
  652SOL     OW 2853   0.367   2.962   0.501
  652SOL    HW1 2854   0.360   3.045   0.445
  652SOL    HW2 2855   0.371   2.882   0.441
  653SOL     OW 2856   0.566   2.399   0.865
  653SOL    HW1 2857   0.578   2.465   0.791
  653SOL    HW2 2858   0.612   2.433   0.948
  654SOL     OW 2859   1.272   3.307   1.142
  654SOL    HW1 2860   1.319   3.320   1.229
  654SOL    HW2 2861   1.206   3.233   1.151
  655SOL     OW 2862   1.582   2.501   0.472
  655SOL    HW1 2863   1.551   2.562   0.545
  655SOL    HW2 2864   1.632   2.553   0.403
  656SOL     OW 2865   0.402   2.613   1.598
  656SOL    HW1 2866   0.470   2.668   1.551
  656SOL    HW2 2867   0.442   2.525   1.625
  657SOL     OW 2868   1.587   2.641   1.670
  657SOL    HW1 2869   1.495   2.679   1.665
  657SOL    HW2 2870   1.647   2.688   1.605
  658SOL     OW 2871   1.013   1.967   1.770
  658SOL    HW1 2872   1.019   2.052   1.718
  658SOL    HW2 2873   1.045   1.891   1.713
  659SOL     OW 2874   0.504   1.912   1.740
  659SOL    HW1 2875   0.462   1.855   1.670
  659SOL    HW2 2876   0.438   1.981   1.772
  660SOL     OW 2877   0.573   2.732   1.029
  660SOL    HW1 2878   0.617   2.821   1.020
  660SOL    HW2 2879   0.510   2.732   1.106
  661SOL     OW 2880   1.360   2.724   1.045
  661SOL    HW1 2881   1.285   2.724   0.979
  661SOL    HW2 2882   1.397   2.632   1.054
  662SOL     OW 2883   1.209   2.387   0.275
  662SOL    HW1 2884   1.222   2.303   0.329
  662SOL    HW2 2885   1.180   2.461   0.335
  663SOL     OW 2886   0.307   2.075   1.231
  663SOL    HW1 2887   0.284   2.112   1.321
  663SOL    HW2 2888   0.277   1.980   1.225
  664SOL     OW 2889   0.037   3.172   1.282
  664SOL    HW1 2890   0.090   3.123   1.350
  664SOL    HW2 2891   0.059   3.270   1.287
  665SOL     OW 2892   0.732   2.496   1.064
  665SOL    HW1 2893   0.791   2.470   0.988
  665SOL    HW2 2894   0.704   2.592   1.053
  666SOL     OW 2895   1.728   2.797   1.854
  666SOL    HW1 2896   1.682   2.790   1.765
  666SOL    HW2 2897   1.666   2.841   1.920
  667SOL     OW 2898   0.307   1.925   0.618
  667SOL    HW1 2899   0.296   2.019   0.651
  667SOL    HW2 2900   0.302   1.862   0.695
  668SOL     OW 2901   1.622   2.229   0.374
  668SOL    HW1 2902   1.624   2.153   0.438
  668SOL    HW2 2903   1.574   2.306   0.414
  669SOL     OW 2904   1.023   2.628   0.966
  669SOL    HW1 2905   1.038   2.649   1.062
  669SOL    HW2 2906   0.993   2.533   0.957
  670SOL     OW 2907   1.859   3.380   1.605
  670SOL    HW1 2908   1.873   3.407   1.510
  670SOL    HW2 2909   1.942   3.402   1.658
  671SOL     OW 2910   0.350   2.760   1.804
  671SOL    HW1 2911   0.426   2.804   1.852
  671SOL    HW2 2912   0.385   2.713   1.722
  672SOL     OW 2913   1.540   2.136   0.125
  672SOL    HW1 2914   1.479   2.061   0.148
  672SOL    HW2 2915   1.562   2.188   0.208
  673SOL     OW 2916   1.303   2.700   0.042
  673SOL    HW1 2917   1.337   2.607   0.057
  673SOL    HW2 2918   1.321   2.727  -0.053
  674SOL     OW 2919   1.068   3.195   0.849
  674SOL    HW1 2920   1.075   3.111   0.794
  674SOL    HW2 2921   1.130   3.264   0.813
  675SOL     OW 2922   0.319   2.672   0.949
  675SOL    HW1 2923   0.412   2.708   0.954
  675SOL    HW2 2924   0.313   2.587   1.001
  676SOL     OW 2925   0.339   2.371   1.006
  676SOL    HW1 2926   0.287   2.288   0.989
  676SOL    HW2 2927   0.416   2.376   0.942
  677SOL     OW 2928   1.138   2.242   1.678
  677SOL    HW1 2929   1.093   2.305   1.742
  677SOL    HW2 2930   1.231   2.273   1.661
  678SOL     OW 2931   1.160   2.069   1.477
  678SOL    HW1 2932   1.160   2.133   1.554
  678SOL    HW2 2933   1.188   2.117   1.394
  679SOL     OW 2934   0.008   3.188   0.200
  679SOL    HW1 2935  -0.085   3.209   0.169
  679SOL    HW2 2936   0.018   3.089   0.213
  680SOL     OW 2937   0.088   3.663   0.927
  680SOL    HW1 2938   0.046   3.577   0.900
  680SOL    HW2 2939   0.182   3.666   0.893
  681SOL     OW 2940   0.504   3.430   0.910
  681SOL    HW1 2941   0.570   3.504   0.919
  681SOL    HW2 2942   0.548   3.351   0.868
  682SOL     OW 2943   1.002   2.658   1.238
  682SOL    HW1 2944   1.043   2.626   1.324
  682SOL    HW2 2945   0.906   2.631   1.235
  683SOL     OW 2946   0.040   2.406   1.114
  683SOL    HW1 2947   0.125   2.373   1.073
  683SOL    HW2 2948   0.053   2.421   1.212
  684SOL     OW 2949   0.189   2.382   1.722
  684SOL    HW1 2950   0.248   2.342   1.652
  684SOL    HW2 2951   0.131   2.453   1.681
  685SOL     OW 2952   1.369   2.812   1.660
  685SOL    HW1 2953   1.408   2.901   1.680
  685SOL    HW2 2954   1.379   2.792   1.563
  686SOL     OW 2955   0.815   2.434   0.325
  686SOL    HW1 2956   0.822   2.345   0.279
  686SOL    HW2 2957   0.721   2.468   0.317
  687SOL     OW 2958   1.657   2.466   1.206
  687SOL    HW1 2959   1.619   2.397   1.268
  687SOL    HW2 2960   1.739   2.430   1.162
  688SOL     OW 2961   0.252   3.426   1.744
  688SOL    HW1 2962   0.222   3.483   1.820
  688SOL    HW2 2963   0.245   3.329   1.770
  689SOL     OW 2964   0.671   2.326   1.269
  689SOL    HW1 2965   0.637   2.237   1.239
  689SOL    HW2 2966   0.697   2.380   1.189
  690SOL     OW 2967   0.473   2.362   0.191
  690SOL    HW1 2968   0.534   2.442   0.195
  690SOL    HW2 2969   0.378   2.393   0.198
  691SOL     OW 2970   0.159   2.999   1.466
  691SOL    HW1 2971   0.181   2.938   1.542
  691SOL    HW2 2972   0.169   2.950   1.380
  692SOL     OW 2973   1.347   2.921   1.234
  692SOL    HW1 2974   1.371   2.858   1.160
  692SOL    HW2 2975   1.257   2.961   1.216
  693SOL     OW 2976   1.302   2.717   0.309
  693SOL    HW1 2977   1.216   2.686   0.351
  693SOL    HW2 2978   1.298   2.703   0.210
  694SOL     OW 2979   1.252   3.593   1.128
  694SOL    HW1 2980   1.336   3.598   1.074
  694SOL    HW2 2981   1.229   3.497   1.146
  695SOL     OW 2982   0.083   3.120   1.022
  695SOL    HW1 2983   0.078   3.119   1.122
  695SOL    HW2 2984   0.000   3.079   0.984
  696SOL     OW 2985   0.688   3.524   1.716
  696SOL    HW1 2986   0.632   3.605   1.725
  696SOL    HW2 2987   0.740   3.528   1.630
  697SOL     OW 2988   0.903   1.948   0.133
  697SOL    HW1 2989   0.954   1.949   0.047
  697SOL    HW2 2990   0.959   1.906   0.204
  698SOL     OW 2991   1.726   1.997   0.523
  698SOL    HW1 2992   1.799   1.980   0.456
  698SOL    HW2 2993   1.695   1.910   0.561
  699SOL     OW 2994   0.130   3.656   1.851
  699SOL    HW1 2995   0.089   3.582   1.904
  699SOL    HW2 2996   0.194   3.707   1.909
  700SOL     OW 2997   1.280   2.789   0.672
  700SOL    HW1 2998   1.340   2.708   0.674
  700SOL    HW2 2999   1.320   2.858   0.612
  701SOL     OW 3000   0.672   3.478   0.154
  701SOL    HW1 3001   0.681   3.488   0.055
  701SOL    HW2 3002   0.632   3.389   0.175
  702SOL     OW 3003   1.841   2.037   0.963
  702SOL    HW1 3004   1.880   1.952   0.927
  702SOL    HW2 3005   1.743   2.039   0.944
  703SOL     OW 3006   0.263   2.188   0.720
  703SOL    HW1 3007   0.184   2.239   0.686
  703SOL    HW2 3008   0.254   2.173   0.818
  704SOL     OW 3009   0.916   2.772   0.291
  704SOL    HW1 3010   0.979   2.810   0.223
  704SOL    HW2 3011   0.956   2.689   0.330
  705SOL     OW 3012   0.372   3.150   1.490
  705SOL    HW1 3013   0.359   3.243   1.456
  705SOL    HW2 3014   0.288   3.098   1.477
  706SOL     OW 3015   1.614   3.154   1.289
  706SOL    HW1 3016   1.674   3.157   1.369
  706SOL    HW2 3017   1.539   3.218   1.302
  707SOL     OW 3018   1.039   2.960   0.696
  707SOL    HW1 3019   0.969   2.913   0.750
  707SOL    HW2 3020   1.098   2.892   0.653
  708SOL     OW 3021   1.014   2.098   0.971
  708SOL    HW1 3022   1.006   2.062   0.878
  708SOL    HW2 3023   1.012   2.022   1.036
  709SOL     OW 3024   0.590   3.349   0.491
  709SOL    HW1 3025   0.632   3.291   0.421
  709SOL    HW2 3026   0.546   3.428   0.447
  710SOL     OW 3027   1.709   2.247   1.381
  710SOL    HW1 3028   1.782   2.316   1.385
  710SOL    HW2 3029   1.737   2.172   1.322
  711SOL     OW 3030   0.255   3.210   0.290
  711SOL    HW1 3031   0.159   3.211   0.263
  711SOL    HW2 3032   0.267   3.263   0.374
  712SOL     OW 3033   0.105   2.875   1.726
  712SOL    HW1 3034   0.028   2.842   1.780
  712SOL    HW2 3035   0.190   2.845   1.768
  713SOL     OW 3036   0.672   2.065   1.489
  713SOL    HW1 3037   0.762   2.049   1.449
  713SOL    HW2 3038   0.680   2.070   1.588
  714SOL     OW 3039   0.075   2.207   0.033
  714SOL    HW1 3040  -0.017   2.179   0.004
  714SOL    HW2 3041   0.106   2.284  -0.023
  715SOL     OW 3042   1.440   2.718   1.398
  715SOL    HW1 3043   1.383   2.770   1.335
  715SOL    HW2 3044   1.536   2.730   1.374
  716SOL     OW 3045   0.072   2.028   0.318
  716SOL    HW1 3046   0.055   2.111   0.264
  716SOL    HW2 3047   0.162   1.991   0.296
  717SOL     OW 3048   0.613   2.704   1.431
  717SOL    HW1 3049   0.669   2.785   1.414
  717SOL    HW2 3050   0.672   2.624   1.434
  718SOL     OW 3051   1.493   3.629   0.959
  718SOL    HW1 3052   1.526   3.693   0.890
  718SOL    HW2 3053   1.559   3.623   1.034
  719SOL     OW 3054   0.716   2.427   1.708
  719SOL    HW1 3055   0.735   2.492   1.782
  719SOL    HW2 3056   0.776   2.347   1.717
  720SOL     OW 3057   1.450   3.082   1.633
  720SOL    HW1 3058   1.441   3.072   1.732
  720SOL    HW2 3059   1.546   3.075   1.607
  721SOL     OW 3060   0.390   3.603   1.560
  721SOL    HW1 3061   0.299   3.644   1.558
  721SOL    HW2 3062   0.383   3.509   1.592
  722SOL     OW 3063   1.674   2.745   1.254
  722SOL    HW1 3064   1.647   2.656   1.217
  722SOL    HW2 3065   1.675   2.813   1.181
  723SOL     OW 3066   1.225   2.187   0.449
  723SOL    HW1 3067   1.290   2.113   0.438
  723SOL    HW2 3068   1.245   2.237   0.533
  724SOL     OW 3069   0.594   2.607   0.652
  724SOL    HW1 3070   0.644   2.692   0.633
  724SOL    HW2 3071   0.506   2.609   0.604
  725SOL     OW 3072   1.777   2.204   1.642
  725SOL    HW1 3073   1.760   2.235   1.548
  725SOL    HW2 3074   1.693   2.167   1.680
  726SOL     OW 3075   1.730   2.796   1.517
  726SOL    HW1 3076   1.768   2.887   1.532
  726SOL    HW2 3077   1.722   2.779   1.418
  727SOL     OW 3078   0.859   2.818   0.861
  727SOL    HW1 3079   0.913   2.749   0.909
  727SOL    HW2 3080   0.827   2.887   0.927
  728SOL     OW 3081   1.083   2.846   0.087
  728SOL    HW1 3082   1.060   2.899   0.005
  728SOL    HW2 3083   1.164   2.790   0.068
  729SOL     OW 3084   0.221   3.176   1.844
  729SOL    HW1 3085   0.156   3.103   1.823
  729SOL    HW2 3086   0.225   3.190   1.942
  730SOL     OW 3087   0.079   3.102   0.653
  730SOL    HW1 3088   0.078   3.055   0.741
  730SOL    HW2 3089   0.161   3.074   0.602
  731SOL     OW 3090   0.672   3.253   1.624
  731SOL    HW1 3091   0.594   3.203   1.662
  731SOL    HW2 3092   0.669   3.348   1.655
  732SOL     OW 3093   1.824   2.054   1.227
  732SOL    HW1 3094   1.820   1.964   1.271
  732SOL    HW2 3095   1.827   2.043   1.128
  733SOL     OW 3096   0.428   2.286   0.520
  733SOL    HW1 3097   0.458   2.214   0.458
  733SOL    HW2 3098   0.389   2.246   0.603
  734SOL     OW 3099   1.705   3.349   1.104
  734SOL    HW1 3100   1.612   3.324   1.077
  734SOL    HW2 3101   1.731   3.299   1.186
  735SOL     OW 3102   0.317   2.409   1.280
  735SOL    HW1 3103   0.355   2.350   1.352
  735SOL    HW2 3104   0.357   2.383   1.192
  736SOL     OW 3105   0.812   3.448   0.687
  736SOL    HW1 3106   0.844   3.458   0.593
  736SOL    HW2 3107   0.733   3.386   0.689
  737SOL     OW 3108   1.424   2.076   1.112
  737SOL    HW1 3109   1.476   2.011   1.167
  737SOL    HW2 3110   1.375   2.139   1.173
  738SOL     OW 3111   1.001   1.896   1.154
  738SOL    HW1 3112   0.938   1.824   1.123
  738SOL    HW2 3113   1.094   1.860   1.154
  739SOL     OW 3114   0.770   3.192   0.301
  739SOL    HW1 3115   0.724   3.105   0.318
  739SOL    HW2 3116   0.861   3.189   0.342
  740SOL     OW 3117   1.352   1.914   0.168
  740SOL    HW1 3118   1.387   1.873   0.084
  740SOL    HW2 3119   1.262   1.876   0.188
  741SOL     OW 3120   1.300   2.315   0.691
  741SOL    HW1 3121   1.241   2.395   0.695
  741SOL    HW2 3122   1.315   2.280   0.784
  742SOL     OW 3123   1.593   2.083   0.882
  742SOL    HW1 3124   1.509   2.082   0.936
  742SOL    HW2 3125   1.595   2.166   0.826
  743SOL     OW 3126   0.039   2.939   0.300
  743SOL    HW1 3127   0.138   2.928   0.291
  743SOL    HW2 3128  -0.001   2.853   0.332
  744SOL     OW 3129   0.875   3.508   0.337
  744SOL    HW1 3130   0.798   3.473   0.283
  744SOL    HW2 3131   0.843   3.579   0.399
  745SOL     OW 3132   0.230   2.490   1.975
  745SOL    HW1 3133   0.137   2.488   2.012
  745SOL    HW2 3134   0.231   2.451   1.883
  746SOL     OW 3135   0.225   2.137   2.858
  746SOL    HW1 3136   0.260   2.120   2.950
  746SOL    HW2 3137   0.137   2.092   2.846
  747SOL     OW 3138   0.019   2.230   2.509
  747SOL    HW1 3139  -0.063   2.273   2.548
  747SOL    HW2 3140  -0.009   2.157   2.446
  748SOL     OW 3141   0.569   3.137   3.027
  748SOL    HW1 3142   0.476   3.130   2.990
  748SOL    HW2 3143   0.580   3.226   3.071
  749SOL     OW 3144   1.555   3.373   2.565
  749SOL    HW1 3145   1.498   3.357   2.646
  749SOL    HW2 3146   1.496   3.383   2.485
  750SOL     OW 3147   1.135   2.565   2.579
  750SOL    HW1 3148   1.192   2.643   2.554
  750SOL    HW2 3149   1.075   2.591   2.655
  751SOL     OW 3150   1.755   2.469   2.093
  751SOL    HW1 3151   1.743   2.456   1.994
  751SOL    HW2 3152   1.725   2.388   2.142
  752SOL     OW 3153   0.768   3.006   2.885
  752SOL    HW1 3154   0.690   3.023   2.945
  752SOL    HW2 3155   0.802   3.093   2.849
  753SOL     OW 3156   0.850   2.660   3.685
  753SOL    HW1 3157   0.846   2.736   3.750
  753SOL    HW2 3158   0.872   2.696   3.594
  754SOL     OW 3159   0.685   2.874   2.527
  754SOL    HW1 3160   0.754   2.858   2.597
  754SOL    HW2 3161   0.612   2.931   2.565
  755SOL     OW 3162   0.686   3.023   3.665
  755SOL    HW1 3163   0.746   3.102   3.679
  755SOL    HW2 3164   0.600   3.054   3.624
  756SOL     OW 3165   0.335   3.297   2.923
  756SOL    HW1 3166   0.257   3.266   2.870
  756SOL    HW2 3167   0.393   3.355   2.866
  757SOL     OW 3168   1.460   3.367   3.201
  757SOL    HW1 3169   1.484   3.461   3.227
  757SOL    HW2 3170   1.444   3.313   3.283
  758SOL     OW 3171   0.438   2.254   3.361
  758SOL    HW1 3172   0.520   2.198   3.370
  758SOL    HW2 3173   0.357   2.196   3.365
  759SOL     OW 3174   1.603   2.309   2.599
  759SOL    HW1 3175   1.529   2.355   2.549
  759SOL    HW2 3176   1.654   2.377   2.652
  760SOL     OW 3177   0.231   3.575   2.345
  760SOL    HW1 3178   0.265   3.652   2.399
  760SOL    HW2 3179   0.275   3.575   2.255
  761SOL     OW 3180   1.127   3.203   3.552
  761SOL    HW1 3181   1.174   3.203   3.640
  761SOL    HW2 3182   1.079   3.116   3.541
  762SOL     OW 3183   0.230   3.296   2.400
  762SOL    HW1 3184   0.204   3.392   2.400
  762SOL    HW2 3185   0.159   3.242   2.445
  763SOL     OW 3186   0.240   2.953   2.748
  763SOL    HW1 3187   0.254   2.869   2.800
  763SOL    HW2 3188   0.185   3.017   2.803
  764SOL     OW 3189   0.620   3.648   3.301
  764SOL    HW1 3190   0.528   3.631   3.336
  764SOL    HW2 3191   0.648   3.740   3.327
  765SOL     OW 3192   0.606   2.826   1.985
  765SOL    HW1 3193   0.613   2.910   1.931
  765SOL    HW2 3194   0.652   2.839   2.073
  766SOL     OW 3195   1.594   1.976   3.342
  766SOL    HW1 3196   1.576   2.043   3.270
  766SOL    HW2 3197   1.591   2.022   3.431
  767SOL     OW 3198   0.122   2.505   2.425
  767SOL    HW1 3199   0.077   2.417   2.442
  767SOL    HW2 3200   0.121   2.559   2.509
  768SOL     OW 3201   1.842   3.629   2.221
  768SOL    HW1 3202   1.896   3.600   2.301
  768SOL    HW2 3203   1.872   3.719   2.192
  769SOL     OW 3204   0.027   3.458   1.979
  769SOL    HW1 3205   0.008   3.362   2.000
  769SOL    HW2 3206  -0.006   3.516   2.054
  770SOL     OW 3207   1.689   2.784   2.474
  770SOL    HW1 3208   1.784   2.755   2.482
  770SOL    HW2 3209   1.681   2.849   2.399
  771SOL     OW 3210   1.641   2.970   2.294
  771SOL    HW1 3211   1.727   2.972   2.242
  771SOL    HW2 3212   1.655   3.017   2.382
  772SOL     OW 3213   0.113   2.599   3.459
  772SOL    HW1 3214   0.201   2.586   3.504
  772SOL    HW2 3215   0.100   2.696   3.437
  773SOL     OW 3216   0.613   3.227   2.588
  773SOL    HW1 3217   0.564   3.140   2.597
  773SOL    HW2 3218   0.590   3.270   2.501
  774SOL     OW 3219   1.293   3.090   3.285
  774SOL    HW1 3220   1.330   3.017   3.227
  774SOL    HW2 3221   1.345   3.095   3.370
  775SOL     OW 3222   0.809   1.866   2.364
  775SOL    HW1 3223   0.849   1.957   2.355
  775SOL    HW2 3224   0.709   1.874   2.370
  776SOL     OW 3225   1.525   2.861   2.052
  776SOL    HW1 3226   1.462   2.785   2.065
  776SOL    HW2 3227   1.573   2.879   2.138
  777SOL     OW 3228   1.187   3.654   3.478
  777SOL    HW1 3229   1.211   3.714   3.402
  777SOL    HW2 3230   1.194   3.559   3.448
  778SOL     OW 3231   0.317   2.113   3.663
  778SOL    HW1 3232   0.388   2.184   3.669
  778SOL    HW2 3233   0.229   2.152   3.691
  779SOL     OW 3234   1.466   3.279   2.815
  779SOL    HW1 3235   1.407   3.285   2.895
  779SOL    HW2 3236   1.451   3.191   2.769
  780SOL     OW 3237   1.667   3.576   2.434
  780SOL    HW1 3238   1.626   3.553   2.346
  780SOL    HW2 3239   1.649   3.502   2.499
  781SOL     OW 3240   0.598   2.591   2.132
  781SOL    HW1 3241   0.622   2.660   2.064
  781SOL    HW2 3242   0.520   2.624   2.186
  782SOL     OW 3243   1.281   2.207   2.806
  782SOL    HW1 3244   1.195   2.157   2.793
  782SOL    HW2 3245   1.343   2.153   2.862
  783SOL     OW 3246   1.576   3.524   2.169
  783SOL    HW1 3247   1.665   3.570   2.172
  783SOL    HW2 3248   1.555   3.500   2.074
  784SOL     OW 3249   0.807   2.467   3.327
  784SOL    HW1 3250   0.760   2.464   3.416
  784SOL    HW2 3251   0.756   2.412   3.261
  785SOL     OW 3252   1.394   2.331   3.536
  785SOL    HW1 3253   1.374   2.374   3.624
  785SOL    HW2 3254   1.472   2.269   3.545
  786SOL     OW 3255   0.973   2.752   3.434
  786SOL    HW1 3256   1.019   2.668   3.405
  786SOL    HW2 3257   0.917   2.786   3.359
  787SOL     OW 3258   0.991   2.272   3.104
  787SOL    HW1 3259   0.914   2.306   3.158
  787SOL    HW2 3260   0.957   2.221   3.025
  788SOL     OW 3261   1.041   2.563   2.291
  788SOL    HW1 3262   1.067   2.559   2.387
  788SOL    HW2 3263   0.956   2.512   2.277
  789SOL     OW 3264   0.076   2.673   2.651
  789SOL    HW1 3265   0.175   2.661   2.660
  789SOL    HW2 3266   0.052   2.768   2.672
  790SOL     OW 3267   0.865   2.210   2.057
  790SOL    HW1 3268   0.924   2.273   2.008
  790SOL    HW2 3269   0.884   2.116   2.028
  791SOL     OW 3270   1.719   2.447   3.693
  791SOL    HW1 3271   1.693   2.536   3.657
  791SOL    HW2 3272   1.717   2.379   3.620
  792SOL     OW 3273   1.362   3.006   2.407
  792SOL    HW1 3274   1.445   2.977   2.359
  792SOL    HW2 3275   1.313   3.073   2.351
  793SOL     OW 3276   0.550   2.058   2.747
  793SOL    HW1 3277   0.545   2.053   2.847
  793SOL    HW2 3278   0.552   2.154   2.718
  794SOL     OW 3279   1.008   3.318   2.339
  794SOL    HW1 3280   0.962   3.390   2.287
  794SOL    HW2 3281   1.004   3.338   2.437
  795SOL     OW 3282   0.351   3.663   2.715
  795SOL    HW1 3283   0.401   3.577   2.721
  795SOL    HW2 3284   0.416   3.740   2.712
  796SOL     OW 3285   1.795   2.928   2.735
  796SOL    HW1 3286   1.733   2.913   2.659
  796SOL    HW2 3287   1.743   2.939   2.820
  797SOL     OW 3288   1.227   3.412   3.368
  797SOL    HW1 3289   1.233   3.335   3.432
  797SOL    HW2 3290   1.175   3.386   3.288
  798SOL     OW 3291   0.321   2.805   2.104
  798SOL    HW1 3292   0.403   2.844   2.062
  798SOL    HW2 3293   0.294   2.723   2.055
  799SOL     OW 3294   1.458   2.597   2.590
  799SOL    HW1 3295   1.453   2.532   2.665
  799SOL    HW2 3296   1.538   2.656   2.603
  800SOL     OW 3297   0.461   3.128   3.589
  800SOL    HW1 3298   0.411   3.129   3.503
  800SOL    HW2 3299   0.398   3.110   3.665
  801SOL     OW 3300   1.111   3.638   2.099
  801SOL    HW1 3301   1.051   3.576   2.149
  801SOL    HW2 3302   1.142   3.594   2.014
  802SOL     OW 3303   0.202   2.147   3.360
  802SOL    HW1 3304   0.122   2.207   3.347
  802SOL    HW2 3305   0.192   2.098   3.446
  803SOL     OW 3306   1.632   3.239   1.943
  803SOL    HW1 3307   1.600   3.333   1.933
  803SOL    HW2 3308   1.556   3.176   1.931
  804SOL     OW 3309   0.464   3.605   2.185
  804SOL    HW1 3310   0.497   3.644   2.271
  804SOL    HW2 3311   0.540   3.598   2.120
  805SOL     OW 3312   1.400   1.969   2.288
  805SOL    HW1 3313   1.376   1.932   2.198
  805SOL    HW2 3314   1.499   1.985   2.292
  806SOL     OW 3315   0.249   3.647   3.103
  806SOL    HW1 3316   0.306   3.582   3.153
  806SOL    HW2 3317   0.233   3.614   3.010
  807SOL     OW 3318   0.940   3.560   2.766
  807SOL    HW1 3319   1.020   3.503   2.787
  807SOL    HW2 3320   0.891   3.520   2.689
  808SOL     OW 3321   0.382   2.562   2.342
  808SOL    HW1 3322   0.427   2.472   2.339
  808SOL    HW2 3323   0.288   2.551   2.375
  809SOL     OW 3324   1.547   2.084   3.591
  809SOL    HW1 3325   1.542   2.121   3.683
  809SOL    HW2 3326   1.475   2.015   3.579
  810SOL     OW 3327   0.614   1.984   1.979
  810SOL    HW1 3328   0.712   1.962   1.986
  810SOL    HW2 3329   0.583   1.967   1.886
  811SOL     OW 3330   0.781   2.126   3.611
  811SOL    HW1 3331   0.848   2.065   3.654
  811SOL    HW2 3332   0.708   2.145   3.676
  812SOL     OW 3333   0.888   3.376   3.057
  812SOL    HW1 3334   0.865   3.351   2.963
  812SOL    HW2 3335   0.949   3.307   3.096
  813SOL     OW 3336   1.351   2.452   3.295
  813SOL    HW1 3337   1.379   2.409   3.380
  813SOL    HW2 3338   1.376   2.548   3.296
  814SOL     OW 3339   0.803   3.264   2.786
  814SOL    HW1 3340   0.893   3.278   2.744
  814SOL    HW2 3341   0.732   3.266   2.715
  815SOL     OW 3342   0.922   2.365   2.761
  815SOL    HW1 3343   0.897   2.356   2.665
  815SOL    HW2 3344   0.970   2.283   2.792
  816SOL     OW 3345   0.539   1.926   2.374
  816SOL    HW1 3346   0.458   1.927   2.432
  816SOL    HW2 3347   0.542   2.009   2.319
  817SOL     OW 3348   1.434   3.050   1.903
  817SOL    HW1 3349   1.466   2.974   1.960
  817SOL    HW2 3350   1.342   3.077   1.933
  818SOL     OW 3351   0.297   1.897   2.033
  818SOL    HW1 3352   0.346   1.981   2.012
  818SOL    HW2 3353   0.359   1.832   2.078
  819SOL     OW 3354   0.935   2.098   2.342
  819SOL    HW1 3355   0.887   2.139   2.264
  819SOL    HW2 3356   1.034   2.096   2.323
  820SOL     OW 3357   1.076   2.545   3.326
  820SOL    HW1 3358   0.996   2.484   3.329
  820SOL    HW2 3359   1.157   2.492   3.302
  821SOL     OW 3360   1.227   3.432   2.655
  821SOL    HW1 3361   1.248   3.506   2.590
  821SOL    HW2 3362   1.295   3.432   2.728
  822SOL     OW 3363   0.459   3.014   2.603
  822SOL    HW1 3364   0.388   2.987   2.668
  822SOL    HW2 3365   0.433   2.986   2.510
  823SOL     OW 3366   1.271   3.659   2.453
  823SOL    HW1 3367   1.315   3.723   2.389
  823SOL    HW2 3368   1.221   3.711   2.523
  824SOL     OW 3369   1.032   2.411   1.878
  824SOL    HW1 3370   0.991   2.493   1.839
  824SOL    HW2 3371   1.096   2.437   1.951
  825SOL     OW 3372   0.078   2.418   3.248
  825SOL    HW1 3373   0.170   2.417   3.207
  825SOL    HW2 3374   0.072   2.492   3.315
  826SOL     OW 3375   0.561   2.084   3.009
  826SOL    HW1 3376   0.599   2.000   3.046
  826SOL    HW2 3377   0.473   2.103   3.053
  827SOL     OW 3378   0.866   2.316   2.504
  827SOL    HW1 3379   0.834   2.388   2.442
  827SOL    HW2 3380   0.890   2.235   2.451
  828SOL     OW 3381   1.017   1.901   2.615
  828SOL    HW1 3382   0.945   1.906   2.546
  828SOL    HW2 3383   0.993   1.832   2.684
  829SOL     OW 3384   1.429   3.035   2.729
  829SOL    HW1 3385   1.374   2.951   2.722
  829SOL    HW2 3386   1.455   3.064   2.637
  830SOL     OW 3387   1.466   2.452   2.854
  830SOL    HW1 3388   1.436   2.357   2.861
  830SOL    HW2 3389   1.539   2.468   2.920
  831SOL     OW 3390   1.857   2.695   2.239
  831SOL    HW1 3391   1.899   2.631   2.303
  831SOL    HW2 3392   1.819   2.644   2.161
  832SOL     OW 3393   0.488   3.247   2.036
  832SOL    HW1 3394   0.401   3.232   2.083
  832SOL    HW2 3395   0.471   3.273   1.941
  833SOL     OW 3396   1.664   3.142   2.519
  833SOL    HW1 3397   1.763   3.150   2.533
  833SOL    HW2 3398   1.619   3.226   2.550
  834SOL     OW 3399   1.390   2.437   1.940
  834SOL    HW1 3400   1.336   2.416   2.021
  834SOL    HW2 3401   1.481   2.396   1.949
  835SOL     OW 3402   0.527   2.118   2.190
  835SOL    HW1 3403   0.554   2.059   2.115
  835SOL    HW2 3404   0.527   2.213   2.159
  836SOL     OW 3405   1.754   3.085   3.450
  836SOL    HW1 3406   1.845   3.046   3.437
  836SOL    HW2 3407   1.762   3.181   3.474
  837SOL     OW 3408   1.064   3.209   3.202
  837SOL    HW1 3409   0.984   3.186   3.257
  837SOL    HW2 3410   1.147   3.183   3.251
  838SOL     OW 3411   1.592   3.491   3.487
  838SOL    HW1 3412   1.619   3.525   3.397
  838SOL    HW2 3413   1.671   3.453   3.533
  839SOL     OW 3414   1.111   3.057   2.962
  839SOL    HW1 3415   1.071   3.101   3.043
  839SOL    HW2 3416   1.070   3.094   2.879
  840SOL     OW 3417   1.638   2.961   2.941
  840SOL    HW1 3418   1.643   3.042   3.000
  840SOL    HW2 3419   1.552   2.963   2.890
  841SOL     OW 3420   0.915   1.951   3.264
  841SOL    HW1 3421   0.940   1.931   3.169
  841SOL    HW2 3422   0.987   2.007   3.306
  842SOL     OW 3423   0.980   2.978   3.581
  842SOL    HW1 3424   0.881   2.984   3.591
  842SOL    HW2 3425   1.003   2.898   3.525
  843SOL     OW 3426   0.705   2.912   2.230
  843SOL    HW1 3427   0.691   2.919   2.329
  843SOL    HW2 3428   0.789   2.861   2.212
  844SOL     OW 3429   1.274   2.248   3.124
  844SOL    HW1 3430   1.295   2.322   3.188
  844SOL    HW2 3431   1.185   2.265   3.081
  845SOL     OW 3432   0.064   3.426   3.193
  845SOL    HW1 3433   0.018   3.508   3.159
  845SOL    HW2 3434   0.162   3.445   3.202
  846SOL     OW 3435   0.367   2.962   2.363
  846SOL    HW1 3436   0.360   3.045   2.307
  846SOL    HW2 3437   0.371   2.882   2.303
  847SOL     OW 3438   0.566   2.399   2.727
  847SOL    HW1 3439   0.578   2.465   2.653
  847SOL    HW2 3440   0.612   2.433   2.810
  848SOL     OW 3441   1.252   3.210   2.250
  848SOL    HW1 3442   1.302   3.287   2.290
  848SOL    HW2 3443   1.157   3.212   2.282
  849SOL     OW 3444   1.272   3.307   3.004
  849SOL    HW1 3445   1.319   3.320   3.091
  849SOL    HW2 3446   1.206   3.233   3.013
  850SOL     OW 3447   1.582   2.501   2.334
  850SOL    HW1 3448   1.551   2.562   2.407
  850SOL    HW2 3449   1.632   2.553   2.265
  851SOL     OW 3450   0.354   3.372   3.191
  851SOL    HW1 3451   0.333   3.328   3.104
  851SOL    HW2 3452   0.451   3.398   3.194
  852SOL     OW 3453   0.402   2.613   3.460
  852SOL    HW1 3454   0.470   2.668   3.413
  852SOL    HW2 3455   0.442   2.525   3.487
  853SOL     OW 3456   1.587   2.641   3.532
  853SOL    HW1 3457   1.495   2.679   3.527
  853SOL    HW2 3458   1.647   2.688   3.467
  854SOL     OW 3459   1.013   1.967   3.632
  854SOL    HW1 3460   1.019   2.052   3.580
  854SOL    HW2 3461   1.045   1.891   3.575
  855SOL     OW 3462   0.504   1.912   3.602
  855SOL    HW1 3463   0.462   1.855   3.532
  855SOL    HW2 3464   0.438   1.981   3.634
  856SOL     OW 3465   0.573   2.732   2.891
  856SOL    HW1 3466   0.617   2.821   2.882
  856SOL    HW2 3467   0.510   2.732   2.968
  857SOL     OW 3468   1.360   2.724   2.907
  857SOL    HW1 3469   1.285   2.724   2.841
  857SOL    HW2 3470   1.397   2.632   2.916
  858SOL     OW 3471   1.209   2.387   2.137
  858SOL    HW1 3472   1.222   2.303   2.191
  858SOL    HW2 3473   1.180   2.461   2.197
  859SOL     OW 3474   0.307   2.075   3.093
  859SOL    HW1 3475   0.284   2.112   3.183
  859SOL    HW2 3476   0.277   1.980   3.087
  860SOL     OW 3477   0.732   2.496   2.926
  860SOL    HW1 3478   0.791   2.470   2.850
  860SOL    HW2 3479   0.704   2.592   2.915
  861SOL     OW 3480   1.728   2.797   3.716
  861SOL    HW1 3481   1.682   2.790   3.627
  861SOL    HW2 3482   1.666   2.841   3.782
  862SOL     OW 3483   0.307   1.925   2.480
  862SOL    HW1 3484   0.296   2.019   2.513
  862SOL    HW2 3485   0.302   1.862   2.557
  863SOL     OW 3486   1.622   2.229   2.236
  863SOL    HW1 3487   1.624   2.153   2.300
  863SOL    HW2 3488   1.574   2.306   2.276
  864SOL     OW 3489   1.023   2.628   2.828
  864SOL    HW1 3490   1.038   2.649   2.924
  864SOL    HW2 3491   0.993   2.533   2.819
  865SOL     OW 3492   0.980   3.435   3.562
  865SOL    HW1 3493   0.960   3.479   3.474
  865SOL    HW2 3494   1.019   3.344   3.546
  866SOL     OW 3495   1.859   3.380   3.467
  866SOL    HW1 3496   1.873   3.407   3.372
  866SOL    HW2 3497   1.942   3.402   3.520
  867SOL     OW 3498   0.350   2.760   3.666
  867SOL    HW1 3499   0.426   2.804   3.714
  867SOL    HW2 3500   0.385   2.713   3.584
  868SOL     OW 3501   1.540   2.136   1.987
  868SOL    HW1 3502   1.479   2.061   2.010
  868SOL    HW2 3503   1.562   2.188   2.070
  869SOL     OW 3504   1.303   2.700   1.904
  869SOL    HW1 3505   1.337   2.607   1.919
  869SOL    HW2 3506   1.321   2.727   1.809
  870SOL     OW 3507   1.068   3.195   2.711
  870SOL    HW1 3508   1.075   3.111   2.656
  870SOL    HW2 3509   1.130   3.264   2.675
  871SOL     OW 3510   0.319   2.672   2.811
  871SOL    HW1 3511   0.412   2.708   2.816
  871SOL    HW2 3512   0.313   2.587   2.863
  872SOL     OW 3513   0.339   2.371   2.868
  872SOL    HW1 3514   0.287   2.288   2.851
  872SOL    HW2 3515   0.416   2.376   2.804
  873SOL     OW 3516   1.138   2.242   3.540
  873SOL    HW1 3517   1.093   2.305   3.604
  873SOL    HW2 3518   1.231   2.273   3.523
  874SOL     OW 3519   1.160   2.069   3.339
  874SOL    HW1 3520   1.160   2.133   3.416
  874SOL    HW2 3521   1.188   2.117   3.256
  875SOL     OW 3522   0.008   3.188   2.062
  875SOL    HW1 3523  -0.085   3.209   2.031
  875SOL    HW2 3524   0.018   3.089   2.075
  876SOL     OW 3525   0.088   3.663   2.789
  876SOL    HW1 3526   0.046   3.577   2.762
  876SOL    HW2 3527   0.182   3.666   2.755
  877SOL     OW 3528   0.504   3.430   2.772
  877SOL    HW1 3529   0.570   3.504   2.781
  877SOL    HW2 3530   0.548   3.351   2.730
  878SOL     OW 3531   1.002   2.658   3.100
  878SOL    HW1 3532   1.043   2.626   3.186
  878SOL    HW2 3533   0.906   2.631   3.097
  879SOL     OW 3534   0.040   2.406   2.976
  879SOL    HW1 3535   0.125   2.373   2.935
  879SOL    HW2 3536   0.053   2.421   3.074
  880SOL     OW 3537   0.189   2.382   3.584
  880SOL    HW1 3538   0.248   2.342   3.514
  880SOL    HW2 3539   0.131   2.453   3.543
  881SOL     OW 3540   1.369   2.812   3.522
  881SOL    HW1 3541   1.408   2.901   3.542
  881SOL    HW2 3542   1.379   2.792   3.425
  882SOL     OW 3543   0.815   2.434   2.187
  882SOL    HW1 3544   0.822   2.345   2.141
  882SOL    HW2 3545   0.721   2.468   2.179
  883SOL     OW 3546   1.657   2.466   3.068
  883SOL    HW1 3547   1.619   2.397   3.130
  883SOL    HW2 3548   1.739   2.430   3.024
  884SOL     OW 3549   0.671   2.326   3.131
  884SOL    HW1 3550   0.637   2.237   3.101
  884SOL    HW2 3551   0.697   2.380   3.051
  885SOL     OW 3552   0.930   3.540   3.327
  885SOL    HW1 3553   0.906   3.522   3.232
  885SOL    HW2 3554   0.960   3.634   3.337
  886SOL     OW 3555   0.473   2.362   2.053
  886SOL    HW1 3556   0.534   2.442   2.057
  886SOL    HW2 3557   0.378   2.393   2.060
  887SOL     OW 3558   1.347   2.921   3.096
  887SOL    HW1 3559   1.371   2.858   3.022
  887SOL    HW2 3560   1.257   2.961   3.078
  888SOL     OW 3561   1.302   2.717   2.171
  888SOL    HW1 3562   1.216   2.686   2.213
  888SOL    HW2 3563   1.298   2.703   2.072
  889SOL     OW 3564   1.759   3.609   3.016
  889SOL    HW1 3565   1.820   3.639   2.943
  889SOL    HW2 3566   1.721   3.520   2.994
  890SOL     OW 3567   1.252   3.593   2.990
  890SOL    HW1 3568   1.336   3.598   2.936
  890SOL    HW2 3569   1.229   3.497   3.008
  891SOL     OW 3570   0.083   3.120   2.884
  891SOL    HW1 3571   0.078   3.119   2.984
  891SOL    HW2 3572   0.000   3.079   2.846
  892SOL     OW 3573   0.688   3.524   3.578
  892SOL    HW1 3574   0.632   3.605   3.587
  892SOL    HW2 3575   0.740   3.528   3.492
  893SOL     OW 3576   1.726   1.997   2.385
  893SOL    HW1 3577   1.799   1.980   2.318
  893SOL    HW2 3578   1.695   1.910   2.423
  894SOL     OW 3579   1.388   3.435   2.339
  894SOL    HW1 3580   1.455   3.447   2.265
  894SOL    HW2 3581   1.348   3.524   2.362
  895SOL     OW 3582   1.280   2.789   2.534
  895SOL    HW1 3583   1.340   2.708   2.536
  895SOL    HW2 3584   1.320   2.858   2.474
  896SOL     OW 3585   0.830   3.135   3.284
  896SOL    HW1 3586   0.825   3.168   3.379
  896SOL    HW2 3587   0.744   3.154   3.238
  897SOL     OW 3588   0.672   3.478   2.016
  897SOL    HW1 3589   0.681   3.488   1.917
  897SOL    HW2 3590   0.632   3.389   2.037
  898SOL     OW 3591   1.650   3.582   3.256
  898SOL    HW1 3592   1.703   3.592   3.172
  898SOL    HW2 3593   1.623   3.672   3.290
  899SOL     OW 3594   1.841   2.037   2.825
  899SOL    HW1 3595   1.880   1.952   2.789
  899SOL    HW2 3596   1.743   2.039   2.806
  900SOL     OW 3597   0.263   2.188   2.582
  900SOL    HW1 3598   0.184   2.239   2.548
  900SOL    HW2 3599   0.254   2.173   2.680
  901SOL     OW 3600   1.194   3.474   1.893
  901SOL    HW1 3601   1.200   3.381   1.930
  901SOL    HW2 3602   1.135   3.474   1.813
  902SOL     OW 3603   0.822   2.864   3.234
  902SOL    HW1 3604   0.862   2.863   3.142
  902SOL    HW2 3605   0.832   2.956   3.274
  903SOL     OW 3606   0.916   2.772   2.153
  903SOL    HW1 3607   0.979   2.810   2.085
  903SOL    HW2 3608   0.956   2.689   2.192
  904SOL     OW 3609   1.504   3.469   1.906
  904SOL    HW1 3610   1.412   3.506   1.913
  904SOL    HW2 3611   1.542   3.489   1.816
  905SOL     OW 3612   1.614   3.154   3.151
  905SOL    HW1 3613   1.674   3.157   3.231
  905SOL    HW2 3614   1.539   3.218   3.164
  906SOL     OW 3615   1.039   2.960   2.558
  906SOL    HW1 3616   0.969   2.913   2.612
  906SOL    HW2 3617   1.098   2.892   2.515
  907SOL     OW 3618   1.014   2.098   2.833
  907SOL    HW1 3619   1.006   2.062   2.740
  907SOL    HW2 3620   1.012   2.022   2.898
  908SOL     OW 3621   0.590   3.349   2.353
  908SOL    HW1 3622   0.632   3.291   2.283
  908SOL    HW2 3623   0.546   3.428   2.309
  909SOL     OW 3624   1.709   2.247   3.243
  909SOL    HW1 3625   1.782   2.316   3.247
  909SOL    HW2 3626   1.737   2.172   3.184
  910SOL     OW 3627   0.255   3.210   2.152
  910SOL    HW1 3628   0.159   3.211   2.125
  910SOL    HW2 3629   0.267   3.263   2.236
  911SOL     OW 3630   0.672   2.065   3.351
  911SOL    HW1 3631   0.762   2.049   3.311
  911SOL    HW2 3632   0.680   2.070   3.450
  912SOL     OW 3633   0.075   2.207   1.895
  912SOL    HW1 3634  -0.017   2.179   1.866
  912SOL    HW2 3635   0.106   2.284   1.839
  913SOL     OW 3636   1.440   2.718   3.260
  913SOL    HW1 3637   1.383   2.770   3.197
  913SOL    HW2 3638   1.536   2.730   3.236
  914SOL     OW 3639   0.072   2.028   2.180
  914SOL    HW1 3640   0.055   2.111   2.126
  914SOL    HW2 3641   0.162   1.991   2.158
  915SOL     OW 3642   1.183   3.197   1.981
  915SOL    HW1 3643   1.084   3.186   1.983
  915SOL    HW2 3644   1.217   3.212   2.074
  916SOL     OW 3645   0.613   2.704   3.293
  916SOL    HW1 3646   0.669   2.785   3.276
  916SOL    HW2 3647   0.672   2.624   3.296
  917SOL     OW 3648   1.493   3.629   2.821
  917SOL    HW1 3649   1.526   3.693   2.752
  917SOL    HW2 3650   1.559   3.623   2.896
  918SOL     OW 3651   0.716   2.427   3.570
  918SOL    HW1 3652   0.735   2.492   3.644
  918SOL    HW2 3653   0.776   2.347   3.579
  919SOL     OW 3654   1.450   3.082   3.495
  919SOL    HW1 3655   1.441   3.072   3.594
  919SOL    HW2 3656   1.546   3.075   3.469
  920SOL     OW 3657   0.390   3.603   3.422
  920SOL    HW1 3658   0.299   3.644   3.420
  920SOL    HW2 3659   0.383   3.509   3.454
  921SOL     OW 3660   1.674   2.745   3.116
  921SOL    HW1 3661   1.647   2.656   3.079
  921SOL    HW2 3662   1.675   2.813   3.043
  922SOL     OW 3663   1.225   2.187   2.311
  922SOL    HW1 3664   1.290   2.113   2.300
  922SOL    HW2 3665   1.245   2.237   2.395
  923SOL     OW 3666   0.594   2.607   2.514
  923SOL    HW1 3667   0.644   2.692   2.495
  923SOL    HW2 3668   0.506   2.609   2.466
  924SOL     OW 3669   1.777   2.204   3.504
  924SOL    HW1 3670   1.760   2.235   3.410
  924SOL    HW2 3671   1.693   2.167   3.542
  925SOL     OW 3672   1.730   2.796   3.379
  925SOL    HW1 3673   1.768   2.887   3.394
  925SOL    HW2 3674   1.722   2.779   3.280
  926SOL     OW 3675   0.859   3.236   1.878
  926SOL    HW1 3676   0.813   3.251   1.966
  926SOL    HW2 3677   0.903   3.321   1.848
  927SOL     OW 3678   0.661   3.652   2.815
  927SOL    HW1 3679   0.615   3.740   2.802
  927SOL    HW2 3680   0.760   3.664   2.808
  928SOL     OW 3681   0.859   2.818   2.723
  928SOL    HW1 3682   0.913   2.749   2.771
  928SOL    HW2 3683   0.827   2.887   2.789
  929SOL     OW 3684   1.083   2.846   1.949
  929SOL    HW1 3685   1.060   2.899   1.867
  929SOL    HW2 3686   1.164   2.790   1.930
  930SOL     OW 3687   1.861   3.431   2.713
  930SOL    HW1 3688   1.790   3.419   2.643
  930SOL    HW2 3689   1.862   3.352   2.773
  931SOL     OW 3690   0.221   3.176   3.706
  931SOL    HW1 3691   0.156   3.103   3.685
  931SOL    HW2 3692   0.225   3.190   3.804
  932SOL     OW 3693   0.079   3.102   2.515
  932SOL    HW1 3694   0.078   3.055   2.603
  932SOL    HW2 3695   0.161   3.074   2.464
  933SOL     OW 3696   0.672   3.253   3.486
  933SOL    HW1 3697   0.594   3.203   3.524
  933SOL    HW2 3698   0.669   3.348   3.517
  934SOL     OW 3699   1.824   2.054   3.089
  934SOL    HW1 3700   1.820   1.964   3.133
  934SOL    HW2 3701   1.827   2.043   2.990
  935SOL     OW 3702   0.428   2.286   2.382
  935SOL    HW1 3703   0.458   2.214   2.320
  935SOL    HW2 3704   0.389   2.246   2.465
  936SOL     OW 3705   1.705   3.349   2.966
  936SOL    HW1 3706   1.612   3.324   2.939
  936SOL    HW2 3707   1.731   3.299   3.048
  937SOL     OW 3708   0.317   2.409   3.142
  937SOL    HW1 3709   0.355   2.350   3.214
  937SOL    HW2 3710   0.357   2.383   3.054
  938SOL     OW 3711   0.812   3.448   2.549
  938SOL    HW1 3712   0.844   3.458   2.455
  938SOL    HW2 3713   0.733   3.386   2.551
  939SOL     OW 3714   1.424   2.076   2.974
  939SOL    HW1 3715   1.476   2.011   3.029
  939SOL    HW2 3716   1.375   2.139   3.035
  940SOL     OW 3717   1.001   1.896   3.016
  940SOL    HW1 3718   0.938   1.824   2.985
  940SOL    HW2 3719   1.094   1.860   3.016
  941SOL     OW 3720   0.770   3.192   2.163
  941SOL    HW1 3721   0.724   3.105   2.180
  941SOL    HW2 3722   0.861   3.189   2.204
  942SOL     OW 3723   0.618   3.429   3.146
  942SOL    HW1 3724   0.613   3.511   3.203
  942SOL    HW2 3725   0.707   3.426   3.101
  943SOL     OW 3726   1.352   1.914   2.030
  943SOL    HW1 3727   1.387   1.873   1.946
  943SOL    HW2 3728   1.262   1.876   2.050
  944SOL     OW 3729   1.300   2.315   2.553
  944SOL    HW1 3730   1.241   2.395   2.557
  944SOL    HW2 3731   1.315   2.280   2.646
  945SOL     OW 3732   1.593   2.083   2.744
  945SOL    HW1 3733   1.509   2.082   2.798
  945SOL    HW2 3734   1.595   2.166   2.688
  946SOL     OW 3735   0.039   2.939   2.162
  946SOL    HW1 3736   0.138   2.928   2.153
  946SOL    HW2 3737  -0.001   2.853   2.194
  947SOL     OW 3738   0.875   3.508   2.199
  947SOL    HW1 3739   0.798   3.473   2.145
  947SOL    HW2 3740   0.843   3.579   2.261
  948SOL     OW 3741   0.230   2.490   3.837
  948SOL    HW1 3742   0.137   2.488   3.874
  948SOL    HW2 3743   0.231   2.451   3.745
  949SOL     OW 3744   0.225   2.137   4.720
  949SOL    HW1 3745   0.260   2.120   4.812
  949SOL    HW2 3746   0.137   2.092   4.708
  950SOL     OW 3747   0.019   2.230   4.371
  950SOL    HW1 3748  -0.063   2.273   4.410
  950SOL    HW2 3749  -0.009   2.157   4.308
  951SOL     OW 3750   0.569   3.137   4.889
  951SOL    HW1 3751   0.476   3.130   4.852
  951SOL    HW2 3752   0.580   3.226   4.933
  952SOL     OW 3753   1.555   3.373   4.427
  952SOL    HW1 3754   1.498   3.357   4.508
  952SOL    HW2 3755   1.496   3.383   4.347
  953SOL     OW 3756   1.135   2.565   4.441
  953SOL    HW1 3757   1.192   2.643   4.416
  953SOL    HW2 3758   1.075   2.591   4.517
  954SOL     OW 3759   1.755   2.469   3.955
  954SOL    HW1 3760   1.743   2.456   3.856
  954SOL    HW2 3761   1.725   2.388   4.004
  955SOL     OW 3762   0.768   3.006   4.747
  955SOL    HW1 3763   0.690   3.023   4.807
  955SOL    HW2 3764   0.802   3.093   4.711
  956SOL     OW 3765   0.685   2.874   4.389
  956SOL    HW1 3766   0.754   2.858   4.459
  956SOL    HW2 3767   0.612   2.931   4.427
  957SOL     OW 3768   0.335   3.297   4.785
  957SOL    HW1 3769   0.257   3.266   4.732
  957SOL    HW2 3770   0.393   3.355   4.728
  958SOL     OW 3771   1.603   2.309   4.461
  958SOL    HW1 3772   1.529   2.355   4.411
  958SOL    HW2 3773   1.654   2.377   4.514
  959SOL     OW 3774   0.231   3.575   4.207
  959SOL    HW1 3775   0.265   3.652   4.261
  959SOL    HW2 3776   0.275   3.575   4.117
  960SOL     OW 3777   0.230   3.296   4.262
  960SOL    HW1 3778   0.204   3.392   4.262
  960SOL    HW2 3779   0.159   3.242   4.307
  961SOL     OW 3780   0.240   2.953   4.610
  961SOL    HW1 3781   0.254   2.869   4.662
  961SOL    HW2 3782   0.185   3.017   4.665
  962SOL     OW 3783   0.620   3.648   5.163
  962SOL    HW1 3784   0.528   3.631   5.198
  962SOL    HW2 3785   0.648   3.740   5.189
  963SOL     OW 3786   0.606   2.826   3.847
  963SOL    HW1 3787   0.613   2.910   3.793
  963SOL    HW2 3788   0.652   2.839   3.935
  964SOL     OW 3789   0.122   2.505   4.287
  964SOL    HW1 3790   0.077   2.417   4.304
  964SOL    HW2 3791   0.121   2.559   4.371
  965SOL     OW 3792   1.842   3.629   4.083
  965SOL    HW1 3793   1.896   3.600   4.163
  965SOL    HW2 3794   1.872   3.719   4.054
  966SOL     OW 3795   0.027   3.458   3.841
  966SOL    HW1 3796   0.008   3.362   3.862
  966SOL    HW2 3797  -0.006   3.516   3.916
  967SOL     OW 3798   1.689   2.784   4.336
  967SOL    HW1 3799   1.784   2.755   4.344
  967SOL    HW2 3800   1.681   2.849   4.261
  968SOL     OW 3801   1.641   2.970   4.156
  968SOL    HW1 3802   1.727   2.972   4.104
  968SOL    HW2 3803   1.655   3.017   4.244
  969SOL     OW 3804   0.613   3.227   4.450
  969SOL    HW1 3805   0.564   3.140   4.459
  969SOL    HW2 3806   0.590   3.270   4.363
  970SOL     OW 3807   0.809   1.866   4.226
  970SOL    HW1 3808   0.849   1.957   4.217
  970SOL    HW2 3809   0.709   1.874   4.232
  971SOL     OW 3810   0.197   2.838   4.988
  971SOL    HW1 3811   0.286   2.793   4.974
  971SOL    HW2 3812   0.124   2.773   4.969
  972SOL     OW 3813   1.525   2.861   3.914
  972SOL    HW1 3814   1.462   2.785   3.927
  972SOL    HW2 3815   1.573   2.879   4.000
  973SOL     OW 3816   1.667   3.576   4.296
  973SOL    HW1 3817   1.626   3.553   4.208
  973SOL    HW2 3818   1.649   3.502   4.361
  974SOL     OW 3819   0.598   2.591   3.994
  974SOL    HW1 3820   0.622   2.660   3.926
  974SOL    HW2 3821   0.520   2.624   4.048
  975SOL     OW 3822   1.281   2.207   4.668
  975SOL    HW1 3823   1.195   2.157   4.655
  975SOL    HW2 3824   1.343   2.153   4.724
  976SOL     OW 3825   1.576   3.524   4.031
  976SOL    HW1 3826   1.665   3.570   4.034
  976SOL    HW2 3827   1.555   3.500   3.936
  977SOL     OW 3828   0.991   2.272   4.966
  977SOL    HW1 3829   0.914   2.306   5.020
  977SOL    HW2 3830   0.957   2.221   4.887
  978SOL     OW 3831   1.041   2.563   4.153
  978SOL    HW1 3832   1.067   2.559   4.249
  978SOL    HW2 3833   0.956   2.512   4.139
  979SOL     OW 3834   0.076   2.673   4.513
  979SOL    HW1 3835   0.175   2.661   4.522
  979SOL    HW2 3836   0.052   2.768   4.534
  980SOL     OW 3837   0.130   3.683   5.295
  980SOL    HW1 3838   0.120   3.668   5.394
  980SOL    HW2 3839   0.044   3.719   5.259
  981SOL     OW 3840   0.865   2.210   3.919
  981SOL    HW1 3841   0.924   2.273   3.870
  981SOL    HW2 3842   0.884   2.116   3.890
  982SOL     OW 3843   1.362   3.006   4.269
  982SOL    HW1 3844   1.445   2.977   4.221
  982SOL    HW2 3845   1.313   3.073   4.213
  983SOL     OW 3846   0.550   2.058   4.609
  983SOL    HW1 3847   0.545   2.053   4.709
  983SOL    HW2 3848   0.552   2.154   4.580
  984SOL     OW 3849   0.351   3.663   4.577
  984SOL    HW1 3850   0.401   3.577   4.583
  984SOL    HW2 3851   0.416   3.740   4.574
  985SOL     OW 3852   1.795   2.928   4.597
  985SOL    HW1 3853   1.733   2.913   4.521
  985SOL    HW2 3854   1.743   2.939   4.682
  986SOL     OW 3855   0.321   2.805   3.966
  986SOL    HW1 3856   0.403   2.844   3.924
  986SOL    HW2 3857   0.294   2.723   3.917
  987SOL     OW 3858   1.458   2.597   4.452
  987SOL    HW1 3859   1.453   2.532   4.527
  987SOL    HW2 3860   1.538   2.656   4.465
  988SOL     OW 3861   1.111   3.638   3.961
  988SOL    HW1 3862   1.051   3.576   4.011
  988SOL    HW2 3863   1.142   3.594   3.876
  989SOL     OW 3864   1.632   3.239   3.805
  989SOL    HW1 3865   1.600   3.333   3.795
  989SOL    HW2 3866   1.556   3.176   3.793
  990SOL     OW 3867   0.464   3.605   4.047
  990SOL    HW1 3868   0.497   3.644   4.133
  990SOL    HW2 3869   0.540   3.598   3.982
  991SOL     OW 3870   1.400   1.969   4.150
  991SOL    HW1 3871   1.376   1.932   4.060
  991SOL    HW2 3872   1.499   1.985   4.154
  992SOL     OW 3873   0.249   3.647   4.965
  992SOL    HW1 3874   0.306   3.582   5.015
  992SOL    HW2 3875   0.233   3.614   4.872
  993SOL     OW 3876   0.382   2.562   4.204
  993SOL    HW1 3877   0.427   2.472   4.201
  993SOL    HW2 3878   0.288   2.551   4.237
  994SOL     OW 3879   0.614   1.984   3.841
  994SOL    HW1 3880   0.712   1.962   3.848
  994SOL    HW2 3881   0.583   1.967   3.748
  995SOL     OW 3882   0.922   2.365   4.623
  995SOL    HW1 3883   0.897   2.356   4.527
  995SOL    HW2 3884   0.970   2.283   4.654
  996SOL     OW 3885   0.539   1.926   4.236
  996SOL    HW1 3886   0.458   1.927   4.294
  996SOL    HW2 3887   0.542   2.009   4.181
  997SOL     OW 3888   1.434   3.050   3.765
  997SOL    HW1 3889   1.466   2.974   3.822
  997SOL    HW2 3890   1.342   3.077   3.795
  998SOL     OW 3891   0.297   1.897   3.895
  998SOL    HW1 3892   0.346   1.981   3.874
  998SOL    HW2 3893   0.359   1.832   3.940
  999SOL     OW 3894   0.935   2.098   4.204
  999SOL    HW1 3895   0.887   2.139   4.126
  999SOL    HW2 3896   1.034   2.096   4.185
 1000SOL     OW 3897   0.459   3.014   4.465
 1000SOL    HW1 3898   0.388   2.987   4.530
 1000SOL    HW2 3899   0.433   2.986   4.372
 1001SOL     OW 3900   1.271   3.659   4.315
 1001SOL    HW1 3901   1.315   3.723   4.251
 1001SOL    HW2 3902   1.221   3.711   4.385
 1002SOL     OW 3903   1.032   2.411   3.740
 1002SOL    HW1 3904   0.991   2.493   3.701
 1002SOL    HW2 3905   1.096   2.437   3.813
 1003SOL     OW 3906   0.561   2.084   4.871
 1003SOL    HW1 3907   0.599   2.000   4.908
 1003SOL    HW2 3908   0.473   2.103   4.915
 1004SOL     OW 3909   0.866   2.316   4.366
 1004SOL    HW1 3910   0.834   2.388   4.304
 1004SOL    HW2 3911   0.890   2.235   4.313
 1005SOL     OW 3912   1.017   1.901   4.477
 1005SOL    HW1 3913   0.945   1.906   4.408
 1005SOL    HW2 3914   0.993   1.832   4.546
 1006SOL     OW 3915   1.429   3.035   4.591
 1006SOL    HW1 3916   1.374   2.951   4.584
 1006SOL    HW2 3917   1.455   3.064   4.499
 1007SOL     OW 3918   1.466   2.452   4.716
 1007SOL    HW1 3919   1.436   2.357   4.723
 1007SOL    HW2 3920   1.539   2.468   4.782
 1008SOL     OW 3921   1.857   2.695   4.101
 1008SOL    HW1 3922   1.899   2.631   4.165
 1008SOL    HW2 3923   1.819   2.644   4.023
 1009SOL     OW 3924   0.488   3.247   3.898
 1009SOL    HW1 3925   0.401   3.232   3.945
 1009SOL    HW2 3926   0.471   3.273   3.803
 1010SOL     OW 3927   1.664   3.142   4.381
 1010SOL    HW1 3928   1.763   3.150   4.395
 1010SOL    HW2 3929   1.619   3.226   4.412
 1011SOL     OW 3930   1.390   2.437   3.802
 1011SOL    HW1 3931   1.336   2.416   3.883
 1011SOL    HW2 3932   1.481   2.396   3.811
 1012SOL     OW 3933   0.527   2.118   4.052
 1012SOL    HW1 3934   0.554   2.059   3.977
 1012SOL    HW2 3935   0.527   2.213   4.021
 1013SOL     OW 3936   1.638   2.961   4.803
 1013SOL    HW1 3937   1.643   3.042   4.862
 1013SOL    HW2 3938   1.552   2.963   4.752
 1014SOL     OW 3939   0.705   2.912   4.092
 1014SOL    HW1 3940   0.691   2.919   4.191
 1014SOL    HW2 3941   0.789   2.861   4.074
 1015SOL     OW 3942   0.410   2.675   4.975
 1015SOL    HW1 3943   0.496   2.687   5.025
 1015SOL    HW2 3944   0.368   2.588   5.002
 1016SOL     OW 3945   1.274   2.248   4.986
 1016SOL    HW1 3946   1.295   2.322   5.050
 1016SOL    HW2 3947   1.185   2.265   4.943
 1017SOL     OW 3948   0.367   2.962   4.225
 1017SOL    HW1 3949   0.360   3.045   4.169
 1017SOL    HW2 3950   0.371   2.882   4.165
 1018SOL     OW 3951   0.566   2.399   4.589
 1018SOL    HW1 3952   0.578   2.465   4.515
 1018SOL    HW2 3953   0.612   2.433   4.672
 1019SOL     OW 3954   1.252   3.210   4.112
 1019SOL    HW1 3955   1.302   3.287   4.152
 1019SOL    HW2 3956   1.157   3.212   4.144
 1020SOL     OW 3957   1.582   2.501   4.196
 1020SOL    HW1 3958   1.551   2.562   4.269
 1020SOL    HW2 3959   1.632   2.553   4.127
 1021SOL     OW 3960   0.354   3.372   5.053
 1021SOL    HW1 3961   0.333   3.328   4.966
 1021SOL    HW2 3962   0.451   3.398   5.056
 1022SOL     OW 3963   0.573   2.732   4.753
 1022SOL    HW1 3964   0.617   2.821   4.744
 1022SOL    HW2 3965   0.510   2.732   4.830
 1023SOL     OW 3966   1.360   2.724   4.769
 1023SOL    HW1 3967   1.285   2.724   4.703
 1023SOL    HW2 3968   1.397   2.632   4.778
 1024SOL     OW 3969   1.209   2.387   3.999
 1024SOL    HW1 3970   1.222   2.303   4.053
 1024SOL    HW2 3971   1.180   2.461   4.059
 1025SOL     OW 3972   0.307   2.075   4.955
 1025SOL    HW1 3973   0.284   2.112   5.045
 1025SOL    HW2 3974   0.277   1.980   4.949
 1026SOL     OW 3975   0.037   3.172   5.006
 1026SOL    HW1 3976   0.090   3.123   5.074
 1026SOL    HW2 3977   0.059   3.270   5.011
 1027SOL     OW 3978   0.732   2.496   4.788
 1027SOL    HW1 3979   0.791   2.470   4.712
 1027SOL    HW2 3980   0.704   2.592   4.777
 1028SOL     OW 3981   0.307   1.925   4.342
 1028SOL    HW1 3982   0.296   2.019   4.375
 1028SOL    HW2 3983   0.302   1.862   4.419
 1029SOL     OW 3984   1.622   2.229   4.098
 1029SOL    HW1 3985   1.624   2.153   4.162
 1029SOL    HW2 3986   1.574   2.306   4.138
 1030SOL     OW 3987   1.023   2.628   4.690
 1030SOL    HW1 3988   1.038   2.649   4.786
 1030SOL    HW2 3989   0.993   2.533   4.681
 1031SOL     OW 3990   1.540   2.136   3.849
 1031SOL    HW1 3991   1.479   2.061   3.872
 1031SOL    HW2 3992   1.562   2.188   3.932
 1032SOL     OW 3993   1.303   2.700   3.766
 1032SOL    HW1 3994   1.337   2.607   3.781
 1032SOL    HW2 3995   1.321   2.727   3.671
 1033SOL     OW 3996   0.319   2.672   4.673
 1033SOL    HW1 3997   0.412   2.708   4.678
 1033SOL    HW2 3998   0.313   2.587   4.725
 1034SOL     OW 3999   0.339   2.371   4.730
 1034SOL    HW1 4000   0.287   2.288   4.713
 1034SOL    HW2 4001   0.416   2.376   4.666
 1035SOL     OW 4002   1.160   2.069   5.201
 1035SOL    HW1 4003   1.160   2.133   5.278
 1035SOL    HW2 4004   1.188   2.117   5.118
 1036SOL     OW 4005   0.008   3.188   3.924
 1036SOL    HW1 4006  -0.085   3.209   3.893
 1036SOL    HW2 4007   0.018   3.089   3.937
 1037SOL     OW 4008   0.088   3.663   4.651
 1037SOL    HW1 4009   0.046   3.577   4.624
 1037SOL    HW2 4010   0.182   3.666   4.617
 1038SOL     OW 4011   0.504   3.430   4.634
 1038SOL    HW1 4012   0.570   3.504   4.643
 1038SOL    HW2 4013   0.548   3.351   4.592
 1039SOL     OW 4014   1.002   2.658   4.962
 1039SOL    HW1 4015   1.043   2.626   5.048
 1039SOL    HW2 4016   0.906   2.631   4.959
 1040SOL     OW 4017   0.040   2.406   4.838
 1040SOL    HW1 4018   0.125   2.373   4.797
 1040SOL    HW2 4019   0.053   2.421   4.936
 1041SOL     OW 4020   0.815   2.434   4.049
 1041SOL    HW1 4021   0.822   2.345   4.003
 1041SOL    HW2 4022   0.721   2.468   4.041
 1042SOL     OW 4023   1.657   2.466   4.930
 1042SOL    HW1 4024   1.619   2.397   4.992
 1042SOL    HW2 4025   1.739   2.430   4.886
 1043SOL     OW 4026   0.671   2.326   4.993
 1043SOL    HW1 4027   0.637   2.237   4.963
 1043SOL    HW2 4028   0.697   2.380   4.913
 1044SOL     OW 4029   0.473   2.362   3.915
 1044SOL    HW1 4030   0.534   2.442   3.919
 1044SOL    HW2 4031   0.378   2.393   3.922
 1045SOL     OW 4032   1.347   2.921   4.958
 1045SOL    HW1 4033   1.371   2.858   4.884
 1045SOL    HW2 4034   1.257   2.961   4.940
 1046SOL     OW 4035   1.302   2.717   4.033
 1046SOL    HW1 4036   1.216   2.686   4.075
 1046SOL    HW2 4037   1.298   2.703   3.934
 1047SOL     OW 4038   1.759   3.609   4.878
 1047SOL    HW1 4039   1.820   3.639   4.805
 1047SOL    HW2 4040   1.721   3.520   4.856
 1048SOL     OW 4041   0.083   3.120   4.746
 1048SOL    HW1 4042   0.078   3.119   4.846
 1048SOL    HW2 4043   0.000   3.079   4.708
 1049SOL     OW 4044   1.388   3.435   4.201
 1049SOL    HW1 4045   1.455   3.447   4.127
 1049SOL    HW2 4046   1.348   3.524   4.224
 1050SOL     OW 4047   1.280   2.789   4.396
 1050SOL    HW1 4048   1.340   2.708   4.398
 1050SOL    HW2 4049   1.320   2.858   4.336
 1051SOL     OW 4050   0.672   3.478   3.878
 1051SOL    HW1 4051   0.681   3.488   3.779
 1051SOL    HW2 4052   0.632   3.389   3.899
 1052SOL     OW 4053   1.650   3.582   5.118
 1052SOL    HW1 4054   1.703   3.592   5.034
 1052SOL    HW2 4055   1.623   3.672   5.152
 1053SOL     OW 4056   0.263   2.188   4.444
 1053SOL    HW1 4057   0.184   2.239   4.410
 1053SOL    HW2 4058   0.254   2.173   4.542
 1054SOL     OW 4059   1.194   3.474   3.755
 1054SOL    HW1 4060   1.200   3.381   3.792
 1054SOL    HW2 4061   1.135   3.474   3.675
 1055SOL     OW 4062   0.822   2.864   5.096
 1055SOL    HW1 4063   0.862   2.863   5.004
 1055SOL    HW2 4064   0.832   2.956   5.136
 1056SOL     OW 4065   0.916   2.772   4.015
 1056SOL    HW1 4066   0.979   2.810   3.947
 1056SOL    HW2 4067   0.956   2.689   4.054
 1057SOL     OW 4068   1.504   3.469   3.768
 1057SOL    HW1 4069   1.412   3.506   3.775
 1057SOL    HW2 4070   1.542   3.489   3.678
 1058SOL     OW 4071   1.039   2.960   4.420
 1058SOL    HW1 4072   0.969   2.913   4.474
 1058SOL    HW2 4073   1.098   2.892   4.377
 1059SOL     OW 4074   1.014   2.098   4.695
 1059SOL    HW1 4075   1.006   2.062   4.602
 1059SOL    HW2 4076   1.012   2.022   4.760
 1060SOL     OW 4077   0.590   3.349   4.215
 1060SOL    HW1 4078   0.632   3.291   4.145
 1060SOL    HW2 4079   0.546   3.428   4.171
 1061SOL     OW 4080   1.709   2.247   5.105
 1061SOL    HW1 4081   1.782   2.316   5.109
 1061SOL    HW2 4082   1.737   2.172   5.046
 1062SOL     OW 4083   0.255   3.210   4.014
 1062SOL    HW1 4084   0.159   3.211   3.987
 1062SOL    HW2 4085   0.267   3.263   4.098
 1063SOL     OW 4086   0.075   2.207   3.757
 1063SOL    HW1 4087  -0.017   2.179   3.728
 1063SOL    HW2 4088   0.106   2.284   3.701
 1064SOL     OW 4089   0.072   2.028   4.042
 1064SOL    HW1 4090   0.055   2.111   3.988
 1064SOL    HW2 4091   0.162   1.991   4.020
 1065SOL     OW 4092   1.183   3.197   3.843
 1065SOL    HW1 4093   1.084   3.186   3.845
 1065SOL    HW2 4094   1.217   3.212   3.936
 1066SOL     OW 4095   1.493   3.629   4.683
 1066SOL    HW1 4096   1.526   3.693   4.614
 1066SOL    HW2 4097   1.559   3.623   4.758
 1067SOL     OW 4098   1.674   2.745   4.978
 1067SOL    HW1 4099   1.647   2.656   4.941
 1067SOL    HW2 4100   1.675   2.813   4.905
 1068SOL     OW 4101   1.225   2.187   4.173
 1068SOL    HW1 4102   1.290   2.113   4.162
 1068SOL    HW2 4103   1.245   2.237   4.257
 1069SOL     OW 4104   0.594   2.607   4.376
 1069SOL    HW1 4105   0.644   2.692   4.357
 1069SOL    HW2 4106   0.506   2.609   4.328
 1070SOL     OW 4107   1.730   2.796   5.241
 1070SOL    HW1 4108   1.768   2.887   5.256
 1070SOL    HW2 4109   1.722   2.779   5.142
 1071SOL     OW 4110   0.859   3.236   3.740
 1071SOL    HW1 4111   0.813   3.251   3.828
 1071SOL    HW2 4112   0.903   3.321   3.710
 1072SOL     OW 4113   0.661   3.652   4.677
 1072SOL    HW1 4114   0.615   3.740   4.664
 1072SOL    HW2 4115   0.760   3.664   4.670
 1073SOL     OW 4116   0.859   2.818   4.585
 1073SOL    HW1 4117   0.913   2.749   4.633
 1073SOL    HW2 4118   0.827   2.887   4.651
 1074SOL     OW 4119   1.083   2.846   3.811
 1074SOL    HW1 4120   1.060   2.899   3.729
 1074SOL    HW2 4121   1.164   2.790   3.792
 1075SOL     OW 4122   1.861   3.431   4.575
 1075SOL    HW1 4123   1.790   3.419   4.505
 1075SOL    HW2 4124   1.862   3.352   4.635
 1076SOL     OW 4125   0.079   3.102   4.377
 1076SOL    HW1 4126   0.078   3.055   4.465
 1076SOL    HW2 4127   0.161   3.074   4.326
 1077SOL     OW 4128   1.824   2.054   4.951
 1077SOL    HW1 4129   1.820   1.964   4.995
 1077SOL    HW2 4130   1.827   2.043   4.852
 1078SOL     OW 4131   0.428   2.286   4.244
 1078SOL    HW1 4132   0.458   2.214   4.182
 1078SOL    HW2 4133   0.389   2.246   4.327
 1079SOL     OW 4134   1.424   2.076   4.836
 1079SOL    HW1 4135   1.476   2.011   4.891
 1079SOL    HW2 4136   1.375   2.139   4.897
 1080SOL     OW 4137   1.001   1.896   4.878
 1080SOL    HW1 4138   0.938   1.824   4.847
 1080SOL    HW2 4139   1.094   1.860   4.878
 1081SOL     OW 4140   0.770   3.192   4.025
 1081SOL    HW1 4141   0.724   3.105   4.042
 1081SOL    HW2 4142   0.861   3.189   4.066
 1082SOL     OW 4143   1.352   1.914   3.892
 1082SOL    HW1 4144   1.387   1.873   3.808
 1082SOL    HW2 4145   1.262   1.876   3.912
 1083SOL     OW 4146   1.300   2.315   4.415
 1083SOL    HW1 4147   1.241   2.395   4.419
 1083SOL    HW2 4148   1.315   2.280   4.508
 1084SOL     OW 4149   0.039   2.939   4.024
 1084SOL    HW1 4150   0.138   2.928   4.015
 1084SOL    HW2 4151  -0.001   2.853   4.056
 1085SOL     OW 4152   0.875   3.508   4.061
 1085SOL    HW1 4153   0.798   3.473   4.007
 1085SOL    HW2 4154   0.843   3.579   4.123
 1086SOL     OW 4155   0.230   4.352   0.113
 1086SOL    HW1 4156   0.137   4.350   0.150
 1086SOL    HW2 4157   0.231   4.313   0.021
 1087SOL     OW 4158   0.225   3.999   0.996
 1087SOL    HW1 4159   0.260   3.982   1.088
 1087SOL    HW2 4160   0.137   3.954   0.984
 1088SOL     OW 4161   0.019   4.092   0.647
 1088SOL    HW1 4162  -0.063   4.135   0.686
 1088SOL    HW2 4163  -0.009   4.019   0.584
 1089SOL     OW 4164   0.569   4.999   1.165
 1089SOL    HW1 4165   0.476   4.992   1.128
 1089SOL    HW2 4166   0.580   5.088   1.209
 1090SOL     OW 4167   1.555   5.235   0.703
 1090SOL    HW1 4168   1.498   5.219   0.784
 1090SOL    HW2 4169   1.496   5.245   0.623
 1091SOL     OW 4170   1.135   4.427   0.717
 1091SOL    HW1 4171   1.192   4.505   0.692
 1091SOL    HW2 4172   1.075   4.453   0.793
 1092SOL     OW 4173   1.755   4.331   0.231
 1092SOL    HW1 4174   1.743   4.318   0.132
 1092SOL    HW2 4175   1.725   4.250   0.280
 1093SOL     OW 4176   0.768   4.868   1.023
 1093SOL    HW1 4177   0.690   4.885   1.083
 1093SOL    HW2 4178   0.802   4.955   0.987
 1094SOL     OW 4179   0.850   4.522   1.823
 1094SOL    HW1 4180   0.846   4.598   1.888
 1094SOL    HW2 4181   0.872   4.558   1.732
 1095SOL     OW 4182   0.685   4.736   0.665
 1095SOL    HW1 4183   0.754   4.720   0.735
 1095SOL    HW2 4184   0.612   4.793   0.703
 1096SOL     OW 4185   0.686   4.885   1.803
 1096SOL    HW1 4186   0.746   4.964   1.817
 1096SOL    HW2 4187   0.600   4.916   1.762
 1097SOL     OW 4188   0.335   5.159   1.061
 1097SOL    HW1 4189   0.257   5.128   1.008
 1097SOL    HW2 4190   0.393   5.217   1.004
 1098SOL     OW 4191   0.438   4.116   1.499
 1098SOL    HW1 4192   0.520   4.060   1.508
 1098SOL    HW2 4193   0.357   4.058   1.503
 1099SOL     OW 4194   1.603   4.171   0.737
 1099SOL    HW1 4195   1.529   4.217   0.687
 1099SOL    HW2 4196   1.654   4.239   0.790
 1100SOL     OW 4197   0.606   4.688   0.123
 1100SOL    HW1 4198   0.613   4.772   0.069
 1100SOL    HW2 4199   0.652   4.701   0.211
 1101SOL     OW 4200   0.122   4.367   0.563
 1101SOL    HW1 4201   0.077   4.279   0.580
 1101SOL    HW2 4202   0.121   4.421   0.647
 1102SOL     OW 4203   1.689   4.646   0.612
 1102SOL    HW1 4204   1.784   4.617   0.620
 1102SOL    HW2 4205   1.681   4.711   0.537
 1103SOL     OW 4206   1.641   4.832   0.432
 1103SOL    HW1 4207   1.727   4.834   0.380
 1103SOL    HW2 4208   1.655   4.879   0.520
 1104SOL     OW 4209   0.113   4.461   1.597
 1104SOL    HW1 4210   0.201   4.448   1.642
 1104SOL    HW2 4211   0.100   4.558   1.575
 1105SOL     OW 4212   1.293   4.952   1.423
 1105SOL    HW1 4213   1.330   4.879   1.365
 1105SOL    HW2 4214   1.345   4.957   1.508
 1106SOL     OW 4215   0.809   3.728   0.502
 1106SOL    HW1 4216   0.849   3.819   0.493
 1106SOL    HW2 4217   0.709   3.736   0.508
 1107SOL     OW 4218   0.197   4.700   1.264
 1107SOL    HW1 4219   0.286   4.655   1.250
 1107SOL    HW2 4220   0.124   4.635   1.245
 1108SOL     OW 4221   1.525   4.723   0.190
 1108SOL    HW1 4222   1.462   4.647   0.203
 1108SOL    HW2 4223   1.573   4.741   0.276
 1109SOL     OW 4224   0.317   3.975   1.801
 1109SOL    HW1 4225   0.388   4.046   1.807
 1109SOL    HW2 4226   0.229   4.014   1.829
 1110SOL     OW 4227   1.466   5.141   0.953
 1110SOL    HW1 4228   1.407   5.147   1.033
 1110SOL    HW2 4229   1.451   5.053   0.907
 1111SOL     OW 4230   0.598   4.453   0.270
 1111SOL    HW1 4231   0.622   4.522   0.202
 1111SOL    HW2 4232   0.520   4.486   0.324
 1112SOL     OW 4233   1.281   4.069   0.944
 1112SOL    HW1 4234   1.195   4.019   0.931
 1112SOL    HW2 4235   1.343   4.015   1.000
 1113SOL     OW 4236   0.807   4.329   1.465
 1113SOL    HW1 4237   0.760   4.326   1.554
 1113SOL    HW2 4238   0.756   4.274   1.399
 1114SOL     OW 4239   0.973   4.614   1.572
 1114SOL    HW1 4240   1.019   4.530   1.543
 1114SOL    HW2 4241   0.917   4.648   1.497
 1115SOL     OW 4242   0.991   4.134   1.242
 1115SOL    HW1 4243   0.914   4.168   1.296
 1115SOL    HW2 4244   0.957   4.083   1.163
 1116SOL     OW 4245   1.041   4.425   0.429
 1116SOL    HW1 4246   1.067   4.421   0.525
 1116SOL    HW2 4247   0.956   4.374   0.415
 1117SOL     OW 4248   0.076   4.535   0.789
 1117SOL    HW1 4249   0.175   4.523   0.798
 1117SOL    HW2 4250   0.052   4.630   0.810
 1118SOL     OW 4251   0.865   4.072   0.195
 1118SOL    HW1 4252   0.924   4.135   0.146
 1118SOL    HW2 4253   0.884   3.978   0.166
 1119SOL     OW 4254   1.719   4.309   1.831
 1119SOL    HW1 4255   1.693   4.398   1.795
 1119SOL    HW2 4256   1.717   4.241   1.758
 1120SOL     OW 4257   1.362   4.868   0.545
 1120SOL    HW1 4258   1.445   4.839   0.497
 1120SOL    HW2 4259   1.313   4.935   0.489
 1121SOL     OW 4260   0.550   3.920   0.885
 1121SOL    HW1 4261   0.545   3.915   0.985
 1121SOL    HW2 4262   0.552   4.016   0.856
 1122SOL     OW 4263   1.795   4.790   0.873
 1122SOL    HW1 4264   1.733   4.775   0.797
 1122SOL    HW2 4265   1.743   4.801   0.958
 1123SOL     OW 4266   1.458   4.459   0.728
 1123SOL    HW1 4267   1.453   4.394   0.803
 1123SOL    HW2 4268   1.538   4.518   0.741
 1124SOL     OW 4269   0.202   4.009   1.498
 1124SOL    HW1 4270   0.122   4.069   1.485
 1124SOL    HW2 4271   0.192   3.960   1.584
 1125SOL     OW 4272   1.632   5.101   0.081
 1125SOL    HW1 4273   1.600   5.195   0.071
 1125SOL    HW2 4274   1.556   5.038   0.069
 1126SOL     OW 4275   1.400   3.831   0.426
 1126SOL    HW1 4276   1.376   3.794   0.336
 1126SOL    HW2 4277   1.499   3.847   0.430
 1127SOL     OW 4278   0.382   4.424   0.480
 1127SOL    HW1 4279   0.427   4.334   0.477
 1127SOL    HW2 4280   0.288   4.413   0.513
 1128SOL     OW 4281   1.547   3.946   1.729
 1128SOL    HW1 4282   1.542   3.983   1.821
 1128SOL    HW2 4283   1.475   3.877   1.717
 1129SOL     OW 4284   0.781   3.988   1.749
 1129SOL    HW1 4285   0.848   3.927   1.792
 1129SOL    HW2 4286   0.708   4.007   1.814
 1130SOL     OW 4287   1.351   4.314   1.433
 1130SOL    HW1 4288   1.379   4.271   1.518
 1130SOL    HW2 4289   1.376   4.410   1.434
 1131SOL     OW 4290   0.803   5.126   0.924
 1131SOL    HW1 4291   0.893   5.140   0.882
 1131SOL    HW2 4292   0.732   5.128   0.853
 1132SOL     OW 4293   0.922   4.227   0.899
 1132SOL    HW1 4294   0.897   4.218   0.803
 1132SOL    HW2 4295   0.970   4.145   0.930
 1133SOL     OW 4296   0.539   3.788   0.512
 1133SOL    HW1 4297   0.458   3.789   0.570
 1133SOL    HW2 4298   0.542   3.871   0.457
 1134SOL     OW 4299   1.434   4.912   0.041
 1134SOL    HW1 4300   1.466   4.836   0.098
 1134SOL    HW2 4301   1.342   4.939   0.071
 1135SOL     OW 4302   0.297   3.759   0.171
 1135SOL    HW1 4303   0.346   3.843   0.150
 1135SOL    HW2 4304   0.359   3.694   0.216
 1136SOL     OW 4305   0.935   3.960   0.480
 1136SOL    HW1 4306   0.887   4.001   0.402
 1136SOL    HW2 4307   1.034   3.958   0.461
 1137SOL     OW 4308   1.076   4.407   1.464
 1137SOL    HW1 4309   0.996   4.346   1.467
 1137SOL    HW2 4310   1.157   4.354   1.440
 1138SOL     OW 4311   1.227   5.294   0.793
 1138SOL    HW1 4312   1.248   5.368   0.728
 1138SOL    HW2 4313   1.295   5.294   0.866
 1139SOL     OW 4314   1.032   4.273   0.016
 1139SOL    HW1 4315   0.991   4.355  -0.023
 1139SOL    HW2 4316   1.096   4.299   0.089
 1140SOL     OW 4317   0.078   4.280   1.386
 1140SOL    HW1 4318   0.170   4.279   1.345
 1140SOL    HW2 4319   0.072   4.354   1.453
 1141SOL     OW 4320   0.561   3.946   1.147
 1141SOL    HW1 4321   0.599   3.862   1.184
 1141SOL    HW2 4322   0.473   3.965   1.191
 1142SOL     OW 4323   0.866   4.178   0.642
 1142SOL    HW1 4324   0.834   4.250   0.580
 1142SOL    HW2 4325   0.890   4.097   0.589
 1143SOL     OW 4326   1.017   3.763   0.753
 1143SOL    HW1 4327   0.945   3.768   0.684
 1143SOL    HW2 4328   0.993   3.694   0.822
 1144SOL     OW 4329   1.429   4.897   0.867
 1144SOL    HW1 4330   1.374   4.813   0.860
 1144SOL    HW2 4331   1.455   4.926   0.775
 1145SOL     OW 4332   1.466   4.314   0.992
 1145SOL    HW1 4333   1.436   4.219   0.999
 1145SOL    HW2 4334   1.539   4.330   1.058
 1146SOL     OW 4335   1.857   4.557   0.377
 1146SOL    HW1 4336   1.899   4.493   0.441
 1146SOL    HW2 4337   1.819   4.506   0.299
 1147SOL     OW 4338   1.664   5.004   0.657
 1147SOL    HW1 4339   1.763   5.012   0.671
 1147SOL    HW2 4340   1.619   5.088   0.688
 1148SOL     OW 4341   1.390   4.299   0.078
 1148SOL    HW1 4342   1.336   4.278   0.159
 1148SOL    HW2 4343   1.481   4.258   0.087
 1149SOL     OW 4344   0.527   3.980   0.328
 1149SOL    HW1 4345   0.554   3.921   0.253
 1149SOL    HW2 4346   0.527   4.075   0.297
 1150SOL     OW 4347   1.754   4.947   1.588
 1150SOL    HW1 4348   1.845   4.908   1.575
 1150SOL    HW2 4349   1.762   5.043   1.612
 1151SOL     OW 4350   1.638   4.823   1.079
 1151SOL    HW1 4351   1.643   4.904   1.138
 1151SOL    HW2 4352   1.552   4.825   1.028
 1152SOL     OW 4353   0.980   4.840   1.719
 1152SOL    HW1 4354   0.881   4.846   1.729
 1152SOL    HW2 4355   1.003   4.760   1.663
 1153SOL     OW 4356   0.410   4.537   1.251
 1153SOL    HW1 4357   0.496   4.549   1.301
 1153SOL    HW2 4358   0.368   4.450   1.278
 1154SOL     OW 4359   1.274   4.110   1.262
 1154SOL    HW1 4360   1.295   4.184   1.326
 1154SOL    HW2 4361   1.185   4.127   1.219
 1155SOL     OW 4362   0.566   4.261   0.865
 1155SOL    HW1 4363   0.578   4.327   0.791
 1155SOL    HW2 4364   0.612   4.295   0.948
 1156SOL     OW 4365   1.582   4.363   0.472
 1156SOL    HW1 4366   1.551   4.424   0.545
 1156SOL    HW2 4367   1.632   4.415   0.403
 1157SOL     OW 4368   0.402   4.475   1.598
 1157SOL    HW1 4369   0.470   4.530   1.551
 1157SOL    HW2 4370   0.442   4.387   1.625
 1158SOL     OW 4371   1.587   4.503   1.670
 1158SOL    HW1 4372   1.495   4.541   1.665
 1158SOL    HW2 4373   1.647   4.550   1.605
 1159SOL     OW 4374   1.013   3.829   1.770
 1159SOL    HW1 4375   1.019   3.914   1.718
 1159SOL    HW2 4376   1.045   3.753   1.713
 1160SOL     OW 4377   0.504   3.774   1.740
 1160SOL    HW1 4378   0.462   3.717   1.670
 1160SOL    HW2 4379   0.438   3.843   1.772
 1161SOL     OW 4380   0.573   4.594   1.029
 1161SOL    HW1 4381   0.617   4.683   1.020
 1161SOL    HW2 4382   0.510   4.594   1.106
 1162SOL     OW 4383   1.360   4.586   1.045
 1162SOL    HW1 4384   1.285   4.586   0.979
 1162SOL    HW2 4385   1.397   4.494   1.054
 1163SOL     OW 4386   1.209   4.249   0.275
 1163SOL    HW1 4387   1.222   4.165   0.329
 1163SOL    HW2 4388   1.180   4.323   0.335
 1164SOL     OW 4389   0.307   3.937   1.231
 1164SOL    HW1 4390   0.284   3.974   1.321
 1164SOL    HW2 4391   0.277   3.842   1.225
 1165SOL     OW 4392   0.037   5.034   1.282
 1165SOL    HW1 4393   0.090   4.985   1.350
 1165SOL    HW2 4394   0.059   5.132   1.287
 1166SOL     OW 4395   0.732   4.358   1.064
 1166SOL    HW1 4396   0.791   4.332   0.988
 1166SOL    HW2 4397   0.704   4.454   1.053
 1167SOL     OW 4398   1.728   4.659   1.854
 1167SOL    HW1 4399   1.682   4.652   1.765
 1167SOL    HW2 4400   1.666   4.703   1.920
 1168SOL     OW 4401   0.307   3.787   0.618
 1168SOL    HW1 4402   0.296   3.881   0.651
 1168SOL    HW2 4403   0.302   3.724   0.695
 1169SOL     OW 4404   1.622   4.091   0.374
 1169SOL    HW1 4405   1.624   4.015   0.438
 1169SOL    HW2 4406   1.574   4.168   0.414
 1170SOL     OW 4407   1.023   4.490   0.966
 1170SOL    HW1 4408   1.038   4.511   1.062
 1170SOL    HW2 4409   0.993   4.395   0.957
 1171SOL     OW 4410   1.859   5.242   1.605
 1171SOL    HW1 4411   1.873   5.269   1.510
 1171SOL    HW2 4412   1.942   5.264   1.658
 1172SOL     OW 4413   0.350   4.622   1.804
 1172SOL    HW1 4414   0.426   4.666   1.852
 1172SOL    HW2 4415   0.385   4.575   1.722
 1173SOL     OW 4416   1.540   3.998   0.125
 1173SOL    HW1 4417   1.479   3.923   0.148
 1173SOL    HW2 4418   1.562   4.050   0.208
 1174SOL     OW 4419   1.303   4.562   0.042
 1174SOL    HW1 4420   1.337   4.469   0.057
 1174SOL    HW2 4421   1.321   4.589  -0.053
 1175SOL     OW 4422   0.319   4.534   0.949
 1175SOL    HW1 4423   0.412   4.570   0.954
 1175SOL    HW2 4424   0.313   4.449   1.001
 1176SOL     OW 4425   0.339   4.233   1.006
 1176SOL    HW1 4426   0.287   4.150   0.989
 1176SOL    HW2 4427   0.416   4.238   0.942
 1177SOL     OW 4428   1.138   4.104   1.678
 1177SOL    HW1 4429   1.093   4.167   1.742
 1177SOL    HW2 4430   1.231   4.135   1.661
 1178SOL     OW 4431   1.160   3.931   1.477
 1178SOL    HW1 4432   1.160   3.995   1.554
 1178SOL    HW2 4433   1.188   3.979   1.394
 1179SOL     OW 4434   0.008   5.050   0.200
 1179SOL    HW1 4435  -0.085   5.071   0.169
 1179SOL    HW2 4436   0.018   4.951   0.213
 1180SOL     OW 4437   1.002   4.520   1.238
 1180SOL    HW1 4438   1.043   4.488   1.324
 1180SOL    HW2 4439   0.906   4.493   1.235
 1181SOL     OW 4440   0.040   4.268   1.114
 1181SOL    HW1 4441   0.125   4.235   1.073
 1181SOL    HW2 4442   0.053   4.283   1.212
 1182SOL     OW 4443   0.189   4.244   1.722
 1182SOL    HW1 4444   0.248   4.204   1.652
 1182SOL    HW2 4445   0.131   4.315   1.681
 1183SOL     OW 4446   1.369   4.674   1.660
 1183SOL    HW1 4447   1.408   4.763   1.680
 1183SOL    HW2 4448   1.379   4.654   1.563
 1184SOL     OW 4449   0.815   4.296   0.325
 1184SOL    HW1 4450   0.822   4.207   0.279
 1184SOL    HW2 4451   0.721   4.330   0.317
 1185SOL     OW 4452   1.657   4.328   1.206
 1185SOL    HW1 4453   1.619   4.259   1.268
 1185SOL    HW2 4454   1.739   4.292   1.162
 1186SOL     OW 4455   0.671   4.188   1.269
 1186SOL    HW1 4456   0.637   4.099   1.239
 1186SOL    HW2 4457   0.697   4.242   1.189
 1187SOL     OW 4458   0.473   4.224   0.191
 1187SOL    HW1 4459   0.534   4.304   0.195
 1187SOL    HW2 4460   0.378   4.255   0.198
 1188SOL     OW 4461   0.159   4.861   1.466
 1188SOL    HW1 4462   0.181   4.800   1.542
 1188SOL    HW2 4463   0.169   4.812   1.380
 1189SOL     OW 4464   1.347   4.783   1.234
 1189SOL    HW1 4465   1.371   4.720   1.160
 1189SOL    HW2 4466   1.257   4.823   1.216
 1190SOL     OW 4467   1.302   4.579   0.309
 1190SOL    HW1 4468   1.216   4.548   0.351
 1190SOL    HW2 4469   1.298   4.565   0.210
 1191SOL     OW 4470   0.083   4.982   1.022
 1191SOL    HW1 4471   0.078   4.981   1.122
 1191SOL    HW2 4472   0.000   4.941   0.984
 1192SOL     OW 4473   0.903   3.810   0.133
 1192SOL    HW1 4474   0.954   3.811   0.047
 1192SOL    HW2 4475   0.959   3.768   0.204
 1193SOL     OW 4476   1.280   4.651   0.672
 1193SOL    HW1 4477   1.340   4.570   0.674
 1193SOL    HW2 4478   1.320   4.720   0.612
 1194SOL     OW 4479   0.830   4.997   1.422
 1194SOL    HW1 4480   0.825   5.030   1.517
 1194SOL    HW2 4481   0.744   5.016   1.376
 1195SOL     OW 4482   1.841   3.899   0.963
 1195SOL    HW1 4483   1.880   3.814   0.927
 1195SOL    HW2 4484   1.743   3.901   0.944
 1196SOL     OW 4485   0.263   4.050   0.720
 1196SOL    HW1 4486   0.184   4.101   0.686
 1196SOL    HW2 4487   0.254   4.035   0.818
 1197SOL     OW 4488   0.822   4.726   1.372
 1197SOL    HW1 4489   0.862   4.725   1.280
 1197SOL    HW2 4490   0.832   4.818   1.412
 1198SOL     OW 4491   0.916   4.634   0.291
 1198SOL    HW1 4492   0.979   4.672   0.223
 1198SOL    HW2 4493   0.956   4.551   0.330
 1199SOL     OW 4494   0.372   5.012   1.490
 1199SOL    HW1 4495   0.359   5.105   1.456
 1199SOL    HW2 4496   0.288   4.960   1.477
 1200SOL     OW 4497   1.614   5.016   1.289
 1200SOL    HW1 4498   1.674   5.019   1.369
 1200SOL    HW2 4499   1.539   5.080   1.302
 1201SOL     OW 4500   1.039   4.822   0.696
 1201SOL    HW1 4501   0.969   4.775   0.750
 1201SOL    HW2 4502   1.098   4.754   0.653
 1202SOL     OW 4503   1.014   3.960   0.971
 1202SOL    HW1 4504   1.006   3.924   0.878
 1202SOL    HW2 4505   1.012   3.884   1.036
 1203SOL     OW 4506   0.105   4.737   1.726
 1203SOL    HW1 4507   0.028   4.704   1.780
 1203SOL    HW2 4508   0.190   4.707   1.768
 1204SOL     OW 4509   0.075   4.069   0.033
 1204SOL    HW1 4510  -0.017   4.041   0.004
 1204SOL    HW2 4511   0.106   4.146  -0.023
 1205SOL     OW 4512   1.440   4.580   1.398
 1205SOL    HW1 4513   1.383   4.632   1.335
 1205SOL    HW2 4514   1.536   4.592   1.374
 1206SOL     OW 4515   0.072   3.890   0.318
 1206SOL    HW1 4516   0.055   3.973   0.264
 1206SOL    HW2 4517   0.162   3.853   0.296
 1207SOL     OW 4518   0.613   4.566   1.431
 1207SOL    HW1 4519   0.669   4.647   1.414
 1207SOL    HW2 4520   0.672   4.486   1.434
 1208SOL     OW 4521   0.716   4.289   1.708
 1208SOL    HW1 4522   0.735   4.354   1.782
 1208SOL    HW2 4523   0.776   4.209   1.717
 1209SOL     OW 4524   1.450   4.944   1.633
 1209SOL    HW1 4525   1.441   4.934   1.732
 1209SOL    HW2 4526   1.546   4.937   1.607
 1210SOL     OW 4527   1.674   4.607   1.254
 1210SOL    HW1 4528   1.647   4.518   1.217
 1210SOL    HW2 4529   1.675   4.675   1.181
 1211SOL     OW 4530   1.225   4.049   0.449
 1211SOL    HW1 4531   1.290   3.975   0.438
 1211SOL    HW2 4532   1.245   4.099   0.533
 1212SOL     OW 4533   0.594   4.469   0.652
 1212SOL    HW1 4534   0.644   4.554   0.633
 1212SOL    HW2 4535   0.506   4.471   0.604
 1213SOL     OW 4536   1.730   4.658   1.517
 1213SOL    HW1 4537   1.768   4.749   1.532
 1213SOL    HW2 4538   1.722   4.641   1.418
 1214SOL     OW 4539   0.859   4.680   0.861
 1214SOL    HW1 4540   0.913   4.611   0.909
 1214SOL    HW2 4541   0.827   4.749   0.927
 1215SOL     OW 4542   1.083   4.708   0.087
 1215SOL    HW1 4543   1.060   4.761   0.005
 1215SOL    HW2 4544   1.164   4.652   0.068
 1216SOL     OW 4545   0.428   4.148   0.520
 1216SOL    HW1 4546   0.458   4.076   0.458
 1216SOL    HW2 4547   0.389   4.108   0.603
 1217SOL     OW 4548   0.317   4.271   1.280
 1217SOL    HW1 4549   0.355   4.212   1.352
 1217SOL    HW2 4550   0.357   4.245   1.192
 1218SOL     OW 4551   1.424   3.938   1.112
 1218SOL    HW1 4552   1.476   3.873   1.167
 1218SOL    HW2 4553   1.375   4.001   1.173
 1219SOL     OW 4554   0.770   5.054   0.301
 1219SOL    HW1 4555   0.724   4.967   0.318
 1219SOL    HW2 4556   0.861   5.051   0.342
 1220SOL     OW 4557   1.352   3.776   0.168
 1220SOL    HW1 4558   1.387   3.735   0.084
 1220SOL    HW2 4559   1.262   3.738   0.188
 1221SOL     OW 4560   1.300   4.177   0.691
 1221SOL    HW1 4561   1.241   4.257   0.695
 1221SOL    HW2 4562   1.315   4.142   0.784
 1222SOL     OW 4563   1.593   3.945   0.882
 1222SOL    HW1 4564   1.509   3.944   0.936
 1222SOL    HW2 4565   1.595   4.028   0.826
 1223SOL     OW 4566   0.225   3.999   2.858
 1223SOL    HW1 4567   0.260   3.982   2.950
 1223SOL    HW2 4568   0.137   3.954   2.846
 1224SOL     OW 4569   0.569   4.999   3.027
 1224SOL    HW1 4570   0.476   4.992   2.990
 1224SOL    HW2 4571   0.580   5.088   3.071
 1225SOL     OW 4572   1.555   5.235   2.565
 1225SOL    HW1 4573   1.498   5.219   2.646
 1225SOL    HW2 4574   1.496   5.245   2.485
 1226SOL     OW 4575   1.755   4.331   2.093
 1226SOL    HW1 4576   1.743   4.318   1.994
 1226SOL    HW2 4577   1.725   4.250   2.142
 1227SOL     OW 4578   0.768   4.868   2.885
 1227SOL    HW1 4579   0.690   4.885   2.945
 1227SOL    HW2 4580   0.802   4.955   2.849
 1228SOL     OW 4581   0.850   4.522   3.685
 1228SOL    HW1 4582   0.846   4.598   3.750
 1228SOL    HW2 4583   0.872   4.558   3.594
 1229SOL     OW 4584   0.685   4.736   2.527
 1229SOL    HW1 4585   0.754   4.720   2.597
 1229SOL    HW2 4586   0.612   4.793   2.565
 1230SOL     OW 4587   0.686   4.885   3.665
 1230SOL    HW1 4588   0.746   4.964   3.679
 1230SOL    HW2 4589   0.600   4.916   3.624
 1231SOL     OW 4590   0.335   5.159   2.923
 1231SOL    HW1 4591   0.257   5.128   2.870
 1231SOL    HW2 4592   0.393   5.217   2.866
 1232SOL     OW 4593   0.438   4.116   3.361
 1232SOL    HW1 4594   0.520   4.060   3.370
 1232SOL    HW2 4595   0.357   4.058   3.365
 1233SOL     OW 4596   0.240   4.815   2.748
 1233SOL    HW1 4597   0.254   4.731   2.800
 1233SOL    HW2 4598   0.185   4.879   2.803
 1234SOL     OW 4599   0.606   4.688   1.985
 1234SOL    HW1 4600   0.613   4.772   1.931
 1234SOL    HW2 4601   0.652   4.701   2.073
 1235SOL     OW 4602   1.594   3.838   3.342
 1235SOL    HW1 4603   1.576   3.905   3.270
 1235SOL    HW2 4604   1.591   3.884   3.431
 1236SOL     OW 4605   1.689   4.646   2.474
 1236SOL    HW1 4606   1.784   4.617   2.482
 1236SOL    HW2 4607   1.681   4.711   2.399
 1237SOL     OW 4608   1.641   4.832   2.294
 1237SOL    HW1 4609   1.727   4.834   2.242
 1237SOL    HW2 4610   1.655   4.879   2.382
 1238SOL     OW 4611   0.113   4.461   3.459
 1238SOL    HW1 4612   0.201   4.448   3.504
 1238SOL    HW2 4613   0.100   4.558   3.437
 1239SOL     OW 4614   1.293   4.952   3.285
 1239SOL    HW1 4615   1.330   4.879   3.227
 1239SOL    HW2 4616   1.345   4.957   3.370
 1240SOL     OW 4617   0.809   3.728   2.364
 1240SOL    HW1 4618   0.849   3.819   2.355
 1240SOL    HW2 4619   0.709   3.736   2.370
 1241SOL     OW 4620   0.197   4.700   3.126
 1241SOL    HW1 4621   0.286   4.655   3.112
 1241SOL    HW2 4622   0.124   4.635   3.107
 1242SOL     OW 4623   1.525   4.723   2.052
 1242SOL    HW1 4624   1.462   4.647   2.065
 1242SOL    HW2 4625   1.573   4.741   2.138
 1243SOL     OW 4626   0.317   3.975   3.663
 1243SOL    HW1 4627   0.388   4.046   3.669
 1243SOL    HW2 4628   0.229   4.014   3.691
 1244SOL     OW 4629   0.598   4.453   2.132
 1244SOL    HW1 4630   0.622   4.522   2.064
 1244SOL    HW2 4631   0.520   4.486   2.186
 1245SOL     OW 4632   0.807   4.329   3.327
 1245SOL    HW1 4633   0.760   4.326   3.416
 1245SOL    HW2 4634   0.756   4.274   3.261
 1246SOL     OW 4635   1.394   4.193   3.536
 1246SOL    HW1 4636   1.374   4.236   3.624
 1246SOL    HW2 4637   1.472   4.131   3.545
 1247SOL     OW 4638   0.973   4.614   3.434
 1247SOL    HW1 4639   1.019   4.530   3.405
 1247SOL    HW2 4640   0.917   4.648   3.359
 1248SOL     OW 4641   0.991   4.134   3.104
 1248SOL    HW1 4642   0.914   4.168   3.158
 1248SOL    HW2 4643   0.957   4.083   3.025
 1249SOL     OW 4644   0.865   4.072   2.057
 1249SOL    HW1 4645   0.924   4.135   2.008
 1249SOL    HW2 4646   0.884   3.978   2.028
 1250SOL     OW 4647   1.719   4.309   3.693
 1250SOL    HW1 4648   1.693   4.398   3.657
 1250SOL    HW2 4649   1.717   4.241   3.620
 1251SOL     OW 4650   1.362   4.868   2.407
 1251SOL    HW1 4651   1.445   4.839   2.359
 1251SOL    HW2 4652   1.313   4.935   2.351
 1252SOL     OW 4653   0.550   3.920   2.747
 1252SOL    HW1 4654   0.545   3.915   2.847
 1252SOL    HW2 4655   0.552   4.016   2.718
 1253SOL     OW 4656   1.795   4.790   2.735
 1253SOL    HW1 4657   1.733   4.775   2.659
 1253SOL    HW2 4658   1.743   4.801   2.820
 1254SOL     OW 4659   0.202   4.009   3.360
 1254SOL    HW1 4660   0.122   4.069   3.347
 1254SOL    HW2 4661   0.192   3.960   3.446
 1255SOL     OW 4662   1.632   5.101   1.943
 1255SOL    HW1 4663   1.600   5.195   1.933
 1255SOL    HW2 4664   1.556   5.038   1.931
 1256SOL     OW 4665   1.400   3.831   2.288
 1256SOL    HW1 4666   1.376   3.794   2.198
 1256SOL    HW2 4667   1.499   3.847   2.292
 1257SOL     OW 4668   0.382   4.424   2.342
 1257SOL    HW1 4669   0.427   4.334   2.339
 1257SOL    HW2 4670   0.288   4.413   2.375
 1258SOL     OW 4671   1.547   3.946   3.591
 1258SOL    HW1 4672   1.542   3.983   3.683
 1258SOL    HW2 4673   1.475   3.877   3.579
 1259SOL     OW 4674   0.614   3.846   1.979
 1259SOL    HW1 4675   0.712   3.824   1.986
 1259SOL    HW2 4676   0.583   3.829   1.886
 1260SOL     OW 4677   0.781   3.988   3.611
 1260SOL    HW1 4678   0.848   3.927   3.654
 1260SOL    HW2 4679   0.708   4.007   3.676
 1261SOL     OW 4680   1.351   4.314   3.295
 1261SOL    HW1 4681   1.379   4.271   3.380
 1261SOL    HW2 4682   1.376   4.410   3.296
 1262SOL     OW 4683   0.803   5.126   2.786
 1262SOL    HW1 4684   0.893   5.140   2.744
 1262SOL    HW2 4685   0.732   5.128   2.715
 1263SOL     OW 4686   0.539   3.788   2.374
 1263SOL    HW1 4687   0.458   3.789   2.432
 1263SOL    HW2 4688   0.542   3.871   2.319
 1264SOL     OW 4689   1.434   4.912   1.903
 1264SOL    HW1 4690   1.466   4.836   1.960
 1264SOL    HW2 4691   1.342   4.939   1.933
 1265SOL     OW 4692   0.297   3.759   2.033
 1265SOL    HW1 4693   0.346   3.843   2.012
 1265SOL    HW2 4694   0.359   3.694   2.078
 1266SOL     OW 4695   0.935   3.960   2.342
 1266SOL    HW1 4696   0.887   4.001   2.264
 1266SOL    HW2 4697   1.034   3.958   2.323
 1267SOL     OW 4698   1.076   4.407   3.326
 1267SOL    HW1 4699   0.996   4.346   3.329
 1267SOL    HW2 4700   1.157   4.354   3.302
 1268SOL     OW 4701   1.227   5.294   2.655
 1268SOL    HW1 4702   1.248   5.368   2.590
 1268SOL    HW2 4703   1.295   5.294   2.728
 1269SOL     OW 4704   1.032   4.273   1.878
 1269SOL    HW1 4705   0.991   4.355   1.839
 1269SOL    HW2 4706   1.096   4.299   1.951
 1270SOL     OW 4707   0.078   4.280   3.248
 1270SOL    HW1 4708   0.170   4.279   3.207
 1270SOL    HW2 4709   0.072   4.354   3.315
 1271SOL     OW 4710   0.561   3.946   3.009
 1271SOL    HW1 4711   0.599   3.862   3.046
 1271SOL    HW2 4712   0.473   3.965   3.053
 1272SOL     OW 4713   1.017   3.763   2.615
 1272SOL    HW1 4714   0.945   3.768   2.546
 1272SOL    HW2 4715   0.993   3.694   2.684
 1273SOL     OW 4716   1.429   4.897   2.729
 1273SOL    HW1 4717   1.374   4.813   2.722
 1273SOL    HW2 4718   1.455   4.926   2.637
 1274SOL     OW 4719   1.857   4.557   2.239
 1274SOL    HW1 4720   1.899   4.493   2.303
 1274SOL    HW2 4721   1.819   4.506   2.161
 1275SOL     OW 4722   1.664   5.004   2.519
 1275SOL    HW1 4723   1.763   5.012   2.533
 1275SOL    HW2 4724   1.619   5.088   2.550
 1276SOL     OW 4725   1.390   4.299   1.940
 1276SOL    HW1 4726   1.336   4.278   2.021
 1276SOL    HW2 4727   1.481   4.258   1.949
 1277SOL     OW 4728   0.527   3.980   2.190
 1277SOL    HW1 4729   0.554   3.921   2.115
 1277SOL    HW2 4730   0.527   4.075   2.159
 1278SOL     OW 4731   1.754   4.947   3.450
 1278SOL    HW1 4732   1.845   4.908   3.437
 1278SOL    HW2 4733   1.762   5.043   3.474
 1279SOL     OW 4734   0.915   3.813   3.264
 1279SOL    HW1 4735   0.940   3.793   3.169
 1279SOL    HW2 4736   0.987   3.869   3.306
 1280SOL     OW 4737   0.980   4.840   3.581
 1280SOL    HW1 4738   0.881   4.846   3.591
 1280SOL    HW2 4739   1.003   4.760   3.525
 1281SOL     OW 4740   0.705   4.774   2.230
 1281SOL    HW1 4741   0.691   4.781   2.329
 1281SOL    HW2 4742   0.789   4.723   2.212
 1282SOL     OW 4743   0.410   4.537   3.113
 1282SOL    HW1 4744   0.496   4.549   3.163
 1282SOL    HW2 4745   0.368   4.450   3.140
 1283SOL     OW 4746   0.566   4.261   2.727
 1283SOL    HW1 4747   0.578   4.327   2.653
 1283SOL    HW2 4748   0.612   4.295   2.810
 1284SOL     OW 4749   0.402   4.475   3.460
 1284SOL    HW1 4750   0.470   4.530   3.413
 1284SOL    HW2 4751   0.442   4.387   3.487
 1285SOL     OW 4752   1.587   4.503   3.532
 1285SOL    HW1 4753   1.495   4.541   3.527
 1285SOL    HW2 4754   1.647   4.550   3.467
 1286SOL     OW 4755   1.013   3.829   3.632
 1286SOL    HW1 4756   1.019   3.914   3.580
 1286SOL    HW2 4757   1.045   3.753   3.575
 1287SOL     OW 4758   0.504   3.774   3.602
 1287SOL    HW1 4759   0.462   3.717   3.532
 1287SOL    HW2 4760   0.438   3.843   3.634
 1288SOL     OW 4761   0.573   4.594   2.891
 1288SOL    HW1 4762   0.617   4.683   2.882
 1288SOL    HW2 4763   0.510   4.594   2.968
 1289SOL     OW 4764   1.360   4.586   2.907
 1289SOL    HW1 4765   1.285   4.586   2.841
 1289SOL    HW2 4766   1.397   4.494   2.916
 1290SOL     OW 4767   1.209   4.249   2.137
 1290SOL    HW1 4768   1.222   4.165   2.191
 1290SOL    HW2 4769   1.180   4.323   2.197
 1291SOL     OW 4770   0.307   3.937   3.093
 1291SOL    HW1 4771   0.284   3.974   3.183
 1291SOL    HW2 4772   0.277   3.842   3.087
 1292SOL     OW 4773   0.732   4.358   2.926
 1292SOL    HW1 4774   0.791   4.332   2.850
 1292SOL    HW2 4775   0.704   4.454   2.915
 1293SOL     OW 4776   1.728   4.659   3.716
 1293SOL    HW1 4777   1.682   4.652   3.627
 1293SOL    HW2 4778   1.666   4.703   3.782
 1294SOL     OW 4779   0.307   3.787   2.480
 1294SOL    HW1 4780   0.296   3.881   2.513
 1294SOL    HW2 4781   0.302   3.724   2.557
 1295SOL     OW 4782   1.622   4.091   2.236
 1295SOL    HW1 4783   1.624   4.015   2.300
 1295SOL    HW2 4784   1.574   4.168   2.276
 1296SOL     OW 4785   1.023   4.490   2.828
 1296SOL    HW1 4786   1.038   4.511   2.924
 1296SOL    HW2 4787   0.993   4.395   2.819
 1297SOL     OW 4788   1.859   5.242   3.467
 1297SOL    HW1 4789   1.873   5.269   3.372
 1297SOL    HW2 4790   1.942   5.264   3.520
 1298SOL     OW 4791   1.540   3.998   1.987
 1298SOL    HW1 4792   1.479   3.923   2.010
 1298SOL    HW2 4793   1.562   4.050   2.070
 1299SOL     OW 4794   1.303   4.562   1.904
 1299SOL    HW1 4795   1.337   4.469   1.919
 1299SOL    HW2 4796   1.321   4.589   1.809
 1300SOL     OW 4797   0.319   4.534   2.811
 1300SOL    HW1 4798   0.412   4.570   2.816
 1300SOL    HW2 4799   0.313   4.449   2.863
 1301SOL     OW 4800   0.339   4.233   2.868
 1301SOL    HW1 4801   0.287   4.150   2.851
 1301SOL    HW2 4802   0.416   4.238   2.804
 1302SOL     OW 4803   1.138   4.104   3.540
 1302SOL    HW1 4804   1.093   4.167   3.604
 1302SOL    HW2 4805   1.231   4.135   3.523
 1303SOL     OW 4806   1.160   3.931   3.339
 1303SOL    HW1 4807   1.160   3.995   3.416
 1303SOL    HW2 4808   1.188   3.979   3.256
 1304SOL     OW 4809   0.008   5.050   2.062
 1304SOL    HW1 4810  -0.085   5.071   2.031
 1304SOL    HW2 4811   0.018   4.951   2.075
 1305SOL     OW 4812   1.002   4.520   3.100
 1305SOL    HW1 4813   1.043   4.488   3.186
 1305SOL    HW2 4814   0.906   4.493   3.097
 1306SOL     OW 4815   0.040   4.268   2.976
 1306SOL    HW1 4816   0.125   4.235   2.935
 1306SOL    HW2 4817   0.053   4.283   3.074
 1307SOL     OW 4818   0.189   4.244   3.584
 1307SOL    HW1 4819   0.248   4.204   3.514
 1307SOL    HW2 4820   0.131   4.315   3.543
 1308SOL     OW 4821   1.369   4.674   3.522
 1308SOL    HW1 4822   1.408   4.763   3.542
 1308SOL    HW2 4823   1.379   4.654   3.425
 1309SOL     OW 4824   0.815   4.296   2.187
 1309SOL    HW1 4825   0.822   4.207   2.141
 1309SOL    HW2 4826   0.721   4.330   2.179
 1310SOL     OW 4827   1.657   4.328   3.068
 1310SOL    HW1 4828   1.619   4.259   3.130
 1310SOL    HW2 4829   1.739   4.292   3.024
 1311SOL     OW 4830   0.671   4.188   3.131
 1311SOL    HW1 4831   0.637   4.099   3.101
 1311SOL    HW2 4832   0.697   4.242   3.051
 1312SOL     OW 4833   0.473   4.224   2.053
 1312SOL    HW1 4834   0.534   4.304   2.057
 1312SOL    HW2 4835   0.378   4.255   2.060
 1313SOL     OW 4836   1.347   4.783   3.096
 1313SOL    HW1 4837   1.371   4.720   3.022
 1313SOL    HW2 4838   1.257   4.823   3.078
 1314SOL     OW 4839   1.726   3.859   2.385
 1314SOL    HW1 4840   1.799   3.842   2.318
 1314SOL    HW2 4841   1.695   3.772   2.423
 1315SOL     OW 4842   1.280   4.651   2.534
 1315SOL    HW1 4843   1.340   4.570   2.536
 1315SOL    HW2 4844   1.320   4.720   2.474
 1316SOL     OW 4845   0.830   4.997   3.284
 1316SOL    HW1 4846   0.825   5.030   3.379
 1316SOL    HW2 4847   0.744   5.016   3.238
 1317SOL     OW 4848   1.841   3.899   2.825
 1317SOL    HW1 4849   1.880   3.814   2.789
 1317SOL    HW2 4850   1.743   3.901   2.806
 1318SOL     OW 4851   0.263   4.050   2.582
 1318SOL    HW1 4852   0.184   4.101   2.548
 1318SOL    HW2 4853   0.254   4.035   2.680
 1319SOL     OW 4854   1.194   5.336   1.893
 1319SOL    HW1 4855   1.200   5.243   1.930
 1319SOL    HW2 4856   1.135   5.336   1.813
 1320SOL     OW 4857   0.822   4.726   3.234
 1320SOL    HW1 4858   0.862   4.725   3.142
 1320SOL    HW2 4859   0.832   4.818   3.274
 1321SOL     OW 4860   0.916   4.634   2.153
 1321SOL    HW1 4861   0.979   4.672   2.085
 1321SOL    HW2 4862   0.956   4.551   2.192
 1322SOL     OW 4863   1.039   4.822   2.558
 1322SOL    HW1 4864   0.969   4.775   2.612
 1322SOL    HW2 4865   1.098   4.754   2.515
 1323SOL     OW 4866   1.014   3.960   2.833
 1323SOL    HW1 4867   1.006   3.924   2.740
 1323SOL    HW2 4868   1.012   3.884   2.898
 1324SOL     OW 4869   1.709   4.109   3.243
 1324SOL    HW1 4870   1.782   4.178   3.247
 1324SOL    HW2 4871   1.737   4.034   3.184
 1325SOL     OW 4872   0.672   3.927   3.351
 1325SOL    HW1 4873   0.762   3.911   3.311
 1325SOL    HW2 4874   0.680   3.932   3.450
 1326SOL     OW 4875   1.440   4.580   3.260
 1326SOL    HW1 4876   1.383   4.632   3.197
 1326SOL    HW2 4877   1.536   4.592   3.236
 1327SOL     OW 4878   0.072   3.890   2.180
 1327SOL    HW1 4879   0.055   3.973   2.126
 1327SOL    HW2 4880   0.162   3.853   2.158
 1328SOL     OW 4881   0.613   4.566   3.293
 1328SOL    HW1 4882   0.669   4.647   3.276
 1328SOL    HW2 4883   0.672   4.486   3.296
 1329SOL     OW 4884   0.716   4.289   3.570
 1329SOL    HW1 4885   0.735   4.354   3.644
 1329SOL    HW2 4886   0.776   4.209   3.579
 1330SOL     OW 4887   1.450   4.944   3.495
 1330SOL    HW1 4888   1.441   4.934   3.594
 1330SOL    HW2 4889   1.546   4.937   3.469
 1331SOL     OW 4890   1.225   4.049   2.311
 1331SOL    HW1 4891   1.290   3.975   2.300
 1331SOL    HW2 4892   1.245   4.099   2.395
 1332SOL     OW 4893   0.594   4.469   2.514
 1332SOL    HW1 4894   0.644   4.554   2.495
 1332SOL    HW2 4895   0.506   4.471   2.466
 1333SOL     OW 4896   1.777   4.066   3.504
 1333SOL    HW1 4897   1.760   4.097   3.410
 1333SOL    HW2 4898   1.693   4.029   3.542
 1334SOL     OW 4899   1.730   4.658   3.379
 1334SOL    HW1 4900   1.768   4.749   3.394
 1334SOL    HW2 4901   1.722   4.641   3.280
 1335SOL     OW 4902   0.859   4.680   2.723
 1335SOL    HW1 4903   0.913   4.611   2.771
 1335SOL    HW2 4904   0.827   4.749   2.789
 1336SOL     OW 4905   1.083   4.708   1.949
 1336SOL    HW1 4906   1.060   4.761   1.867
 1336SOL    HW2 4907   1.164   4.652   1.930
 1337SOL     OW 4908   1.824   3.916   3.089
 1337SOL    HW1 4909   1.820   3.826   3.133
 1337SOL    HW2 4910   1.827   3.905   2.990
 1338SOL     OW 4911   0.428   4.148   2.382
 1338SOL    HW1 4912   0.458   4.076   2.320
 1338SOL    HW2 4913   0.389   4.108   2.465
 1339SOL     OW 4914   0.317   4.271   3.142
 1339SOL    HW1 4915   0.355   4.212   3.214
 1339SOL    HW2 4916   0.357   4.245   3.054
 1340SOL     OW 4917   1.424   3.938   2.974
 1340SOL    HW1 4918   1.476   3.873   3.029
 1340SOL    HW2 4919   1.375   4.001   3.035
 1341SOL     OW 4920   1.001   3.758   3.016
 1341SOL    HW1 4921   0.938   3.686   2.985
 1341SOL    HW2 4922   1.094   3.722   3.016
 1342SOL     OW 4923   0.770   5.054   2.163
 1342SOL    HW1 4924   0.724   4.967   2.180
 1342SOL    HW2 4925   0.861   5.051   2.204
 1343SOL     OW 4926   1.352   3.776   2.030
 1343SOL    HW1 4927   1.387   3.735   1.946
 1343SOL    HW2 4928   1.262   3.738   2.050
 1344SOL     OW 4929   0.039   4.801   2.162
 1344SOL    HW1 4930   0.138   4.790   2.153
 1344SOL    HW2 4931  -0.001   4.715   2.194
 1345SOL     OW 4932   0.230   4.352   3.837
 1345SOL    HW1 4933   0.137   4.350   3.874
 1345SOL    HW2 4934   0.231   4.313   3.745
 1346SOL     OW 4935   0.225   3.999   4.720
 1346SOL    HW1 4936   0.260   3.982   4.812
 1346SOL    HW2 4937   0.137   3.954   4.708
 1347SOL     OW 4938   0.019   4.092   4.371
 1347SOL    HW1 4939  -0.063   4.135   4.410
 1347SOL    HW2 4940  -0.009   4.019   4.308
 1348SOL     OW 4941   1.555   5.235   4.427
 1348SOL    HW1 4942   1.498   5.219   4.508
 1348SOL    HW2 4943   1.496   5.245   4.347
 1349SOL     OW 4944   1.135   4.427   4.441
 1349SOL    HW1 4945   1.192   4.505   4.416
 1349SOL    HW2 4946   1.075   4.453   4.517
 1350SOL     OW 4947   1.755   4.331   3.955
 1350SOL    HW1 4948   1.743   4.318   3.856
 1350SOL    HW2 4949   1.725   4.250   4.004
 1351SOL     OW 4950   0.335   5.159   4.785
 1351SOL    HW1 4951   0.257   5.128   4.732
 1351SOL    HW2 4952   0.393   5.217   4.728
 1352SOL     OW 4953   1.603   4.171   4.461
 1352SOL    HW1 4954   1.529   4.217   4.411
 1352SOL    HW2 4955   1.654   4.239   4.514
 1353SOL     OW 4956   0.240   4.815   4.610
 1353SOL    HW1 4957   0.254   4.731   4.662
 1353SOL    HW2 4958   0.185   4.879   4.665
 1354SOL     OW 4959   0.122   4.367   4.287
 1354SOL    HW1 4960   0.077   4.279   4.304
 1354SOL    HW2 4961   0.121   4.421   4.371
 1355SOL     OW 4962   1.689   4.646   4.336
 1355SOL    HW1 4963   1.784   4.617   4.344
 1355SOL    HW2 4964   1.681   4.711   4.261
 1356SOL     OW 4965   1.641   4.832   4.156
 1356SOL    HW1 4966   1.727   4.834   4.104
 1356SOL    HW2 4967   1.655   4.879   4.244
 1357SOL     OW 4968   0.809   3.728   4.226
 1357SOL    HW1 4969   0.849   3.819   4.217
 1357SOL    HW2 4970   0.709   3.736   4.232
 1358SOL     OW 4971   1.525   4.723   3.914
 1358SOL    HW1 4972   1.462   4.647   3.927
 1358SOL    HW2 4973   1.573   4.741   4.000
 1359SOL     OW 4974   1.466   5.141   4.677
 1359SOL    HW1 4975   1.407   5.147   4.757
 1359SOL    HW2 4976   1.451   5.053   4.631
 1360SOL     OW 4977   1.281   4.069   4.668
 1360SOL    HW1 4978   1.195   4.019   4.655
 1360SOL    HW2 4979   1.343   4.015   4.724
 1361SOL     OW 4980   0.991   4.134   4.966
 1361SOL    HW1 4981   0.914   4.168   5.020
 1361SOL    HW2 4982   0.957   4.083   4.887
 1362SOL     OW 4983   1.041   4.425   4.153
 1362SOL    HW1 4984   1.067   4.421   4.249
 1362SOL    HW2 4985   0.956   4.374   4.139
 1363SOL     OW 4986   0.076   4.535   4.513
 1363SOL    HW1 4987   0.175   4.523   4.522
 1363SOL    HW2 4988   0.052   4.630   4.534
 1364SOL     OW 4989   0.865   4.072   3.919
 1364SOL    HW1 4990   0.924   4.135   3.870
 1364SOL    HW2 4991   0.884   3.978   3.890
 1365SOL     OW 4992   1.362   4.868   4.269
 1365SOL    HW1 4993   1.445   4.839   4.221
 1365SOL    HW2 4994   1.313   4.935   4.213
 1366SOL     OW 4995   0.550   3.920   4.609
 1366SOL    HW1 4996   0.545   3.915   4.709
 1366SOL    HW2 4997   0.552   4.016   4.580
 1367SOL     OW 4998   1.795   4.790   4.597
 1367SOL    HW1 4999   1.733   4.775   4.521
 1367SOL    HW2 5000   1.743   4.801   4.682
 1368SOL     OW 5001   0.321   4.667   3.966
 1368SOL    HW1 5002   0.403   4.706   3.924
 1368SOL    HW2 5003   0.294   4.585   3.917
 1369SOL     OW 5004   1.458   4.459   4.452
 1369SOL    HW1 5005   1.453   4.394   4.527
 1369SOL    HW2 5006   1.538   4.518   4.465
 1370SOL     OW 5007   1.632   5.101   3.805
 1370SOL    HW1 5008   1.600   5.195   3.795
 1370SOL    HW2 5009   1.556   5.038   3.793
 1371SOL     OW 5010   1.400   3.831   4.150
 1371SOL    HW1 5011   1.376   3.794   4.060
 1371SOL    HW2 5012   1.499   3.847   4.154
 1372SOL     OW 5013   0.382   4.424   4.204
 1372SOL    HW1 5014   0.427   4.334   4.201
 1372SOL    HW2 5015   0.288   4.413   4.237
 1373SOL     OW 5016   0.614   3.846   3.841
 1373SOL    HW1 5017   0.712   3.824   3.848
 1373SOL    HW2 5018   0.583   3.829   3.748
 1374SOL     OW 5019   0.922   4.227   4.623
 1374SOL    HW1 5020   0.897   4.218   4.527
 1374SOL    HW2 5021   0.970   4.145   4.654
 1375SOL     OW 5022   0.539   3.788   4.236
 1375SOL    HW1 5023   0.458   3.789   4.294
 1375SOL    HW2 5024   0.542   3.871   4.181
 1376SOL     OW 5025   1.434   4.912   3.765
 1376SOL    HW1 5026   1.466   4.836   3.822
 1376SOL    HW2 5027   1.342   4.939   3.795
 1377SOL     OW 5028   0.297   3.759   3.895
 1377SOL    HW1 5029   0.346   3.843   3.874
 1377SOL    HW2 5030   0.359   3.694   3.940
 1378SOL     OW 5031   0.935   3.960   4.204
 1378SOL    HW1 5032   0.887   4.001   4.126
 1378SOL    HW2 5033   1.034   3.958   4.185
 1379SOL     OW 5034   1.227   5.294   4.517
 1379SOL    HW1 5035   1.248   5.368   4.452
 1379SOL    HW2 5036   1.295   5.294   4.590
 1380SOL     OW 5037   1.032   4.273   3.740
 1380SOL    HW1 5038   0.991   4.355   3.701
 1380SOL    HW2 5039   1.096   4.299   3.813
 1381SOL     OW 5040   0.561   3.946   4.871
 1381SOL    HW1 5041   0.599   3.862   4.908
 1381SOL    HW2 5042   0.473   3.965   4.915
 1382SOL     OW 5043   0.866   4.178   4.366
 1382SOL    HW1 5044   0.834   4.250   4.304
 1382SOL    HW2 5045   0.890   4.097   4.313
 1383SOL     OW 5046   1.017   3.763   4.477
 1383SOL    HW1 5047   0.945   3.768   4.408
 1383SOL    HW2 5048   0.993   3.694   4.546
 1384SOL     OW 5049   1.429   4.897   4.591
 1384SOL    HW1 5050   1.374   4.813   4.584
 1384SOL    HW2 5051   1.455   4.926   4.499
 1385SOL     OW 5052   1.466   4.314   4.716
 1385SOL    HW1 5053   1.436   4.219   4.723
 1385SOL    HW2 5054   1.539   4.330   4.782
 1386SOL     OW 5055   1.857   4.557   4.101
 1386SOL    HW1 5056   1.899   4.493   4.165
 1386SOL    HW2 5057   1.819   4.506   4.023
 1387SOL     OW 5058   1.664   5.004   4.381
 1387SOL    HW1 5059   1.763   5.012   4.395
 1387SOL    HW2 5060   1.619   5.088   4.412
 1388SOL     OW 5061   1.390   4.299   3.802
 1388SOL    HW1 5062   1.336   4.278   3.883
 1388SOL    HW2 5063   1.481   4.258   3.811
 1389SOL     OW 5064   0.527   3.980   4.052
 1389SOL    HW1 5065   0.554   3.921   3.977
 1389SOL    HW2 5066   0.527   4.075   4.021
 1390SOL     OW 5067   1.638   4.823   4.803
 1390SOL    HW1 5068   1.643   4.904   4.862
 1390SOL    HW2 5069   1.552   4.825   4.752
 1391SOL     OW 5070   0.410   4.537   4.975
 1391SOL    HW1 5071   0.496   4.549   5.025
 1391SOL    HW2 5072   0.368   4.450   5.002
 1392SOL     OW 5073   1.274   4.110   4.986
 1392SOL    HW1 5074   1.295   4.184   5.050
 1392SOL    HW2 5075   1.185   4.127   4.943
 1393SOL     OW 5076   0.367   4.824   4.225
 1393SOL    HW1 5077   0.360   4.907   4.169
 1393SOL    HW2 5078   0.371   4.744   4.165
 1394SOL     OW 5079   0.566   4.261   4.589
 1394SOL    HW1 5080   0.578   4.327   4.515
 1394SOL    HW2 5081   0.612   4.295   4.672
 1395SOL     OW 5082   1.582   4.363   4.196
 1395SOL    HW1 5083   1.551   4.424   4.269
 1395SOL    HW2 5084   1.632   4.415   4.127
 1396SOL     OW 5085   0.573   4.594   4.753
 1396SOL    HW1 5086   0.617   4.683   4.744
 1396SOL    HW2 5087   0.510   4.594   4.830
 1397SOL     OW 5088   1.360   4.586   4.769
 1397SOL    HW1 5089   1.285   4.586   4.703
 1397SOL    HW2 5090   1.397   4.494   4.778
 1398SOL     OW 5091   1.209   4.249   3.999
 1398SOL    HW1 5092   1.222   4.165   4.053
 1398SOL    HW2 5093   1.180   4.323   4.059
 1399SOL     OW 5094   0.307   3.937   4.955
 1399SOL    HW1 5095   0.284   3.974   5.045
 1399SOL    HW2 5096   0.277   3.842   4.949
 1400SOL     OW 5097   0.037   5.034   5.006
 1400SOL    HW1 5098   0.090   4.985   5.074
 1400SOL    HW2 5099   0.059   5.132   5.011
 1401SOL     OW 5100   0.732   4.358   4.788
 1401SOL    HW1 5101   0.791   4.332   4.712
 1401SOL    HW2 5102   0.704   4.454   4.777
 1402SOL     OW 5103   0.307   3.787   4.342
 1402SOL    HW1 5104   0.296   3.881   4.375
 1402SOL    HW2 5105   0.302   3.724   4.419
 1403SOL     OW 5106   1.622   4.091   4.098
 1403SOL    HW1 5107   1.624   4.015   4.162
 1403SOL    HW2 5108   1.574   4.168   4.138
 1404SOL     OW 5109   1.023   4.490   4.690
 1404SOL    HW1 5110   1.038   4.511   4.786
 1404SOL    HW2 5111   0.993   4.395   4.681
 1405SOL     OW 5112   1.540   3.998   3.849
 1405SOL    HW1 5113   1.479   3.923   3.872
 1405SOL    HW2 5114   1.562   4.050   3.932
 1406SOL     OW 5115   1.303   4.562   3.766
 1406SOL    HW1 5116   1.337   4.469   3.781
 1406SOL    HW2 5117   1.321   4.589   3.671
 1407SOL     OW 5118   0.319   4.534   4.673
 1407SOL    HW1 5119   0.412   4.570   4.678
 1407SOL    HW2 5120   0.313   4.449   4.725
 1408SOL     OW 5121   0.339   4.233   4.730
 1408SOL    HW1 5122   0.287   4.150   4.713
 1408SOL    HW2 5123   0.416   4.238   4.666
 1409SOL     OW 5124   1.160   3.931   5.201
 1409SOL    HW1 5125   1.160   3.995   5.278
 1409SOL    HW2 5126   1.188   3.979   5.118
 1410SOL     OW 5127   0.008   5.050   3.924
 1410SOL    HW1 5128  -0.085   5.071   3.893
 1410SOL    HW2 5129   0.018   4.951   3.937
 1411SOL     OW 5130   1.002   4.520   4.962
 1411SOL    HW1 5131   1.043   4.488   5.048
 1411SOL    HW2 5132   0.906   4.493   4.959
 1412SOL     OW 5133   0.040   4.268   4.838
 1412SOL    HW1 5134   0.125   4.235   4.797
 1412SOL    HW2 5135   0.053   4.283   4.936
 1413SOL     OW 5136   0.815   4.296   4.049
 1413SOL    HW1 5137   0.822   4.207   4.003
 1413SOL    HW2 5138   0.721   4.330   4.041
 1414SOL     OW 5139   1.657   4.328   4.930
 1414SOL    HW1 5140   1.619   4.259   4.992
 1414SOL    HW2 5141   1.739   4.292   4.886
 1415SOL     OW 5142   0.671   4.188   4.993
 1415SOL    HW1 5143   0.637   4.099   4.963
 1415SOL    HW2 5144   0.697   4.242   4.913
 1416SOL     OW 5145   1.347   4.783   4.958
 1416SOL    HW1 5146   1.371   4.720   4.884
 1416SOL    HW2 5147   1.257   4.823   4.940
 1417SOL     OW 5148   1.302   4.579   4.033
 1417SOL    HW1 5149   1.216   4.548   4.075
 1417SOL    HW2 5150   1.298   4.565   3.934
 1418SOL     OW 5151   0.083   4.982   4.746
 1418SOL    HW1 5152   0.078   4.981   4.846
 1418SOL    HW2 5153   0.000   4.941   4.708
 1419SOL     OW 5154   1.726   3.859   4.247
 1419SOL    HW1 5155   1.799   3.842   4.180
 1419SOL    HW2 5156   1.695   3.772   4.285
 1420SOL     OW 5157   1.280   4.651   4.396
 1420SOL    HW1 5158   1.340   4.570   4.398
 1420SOL    HW2 5159   1.320   4.720   4.336
 1421SOL     OW 5160   0.830   4.997   5.146
 1421SOL    HW1 5161   0.825   5.030   5.241
 1421SOL    HW2 5162   0.744   5.016   5.100
 1422SOL     OW 5163   1.841   3.899   4.687
 1422SOL    HW1 5164   1.880   3.814   4.651
 1422SOL    HW2 5165   1.743   3.901   4.668
 1423SOL     OW 5166   0.263   4.050   4.444
 1423SOL    HW1 5167   0.184   4.101   4.410
 1423SOL    HW2 5168   0.254   4.035   4.542
 1424SOL     OW 5169   1.194   5.336   3.755
 1424SOL    HW1 5170   1.200   5.243   3.792
 1424SOL    HW2 5171   1.135   5.336   3.675
 1425SOL     OW 5172   0.822   4.726   5.096
 1425SOL    HW1 5173   0.862   4.725   5.004
 1425SOL    HW2 5174   0.832   4.818   5.136
 1426SOL     OW 5175   0.916   4.634   4.015
 1426SOL    HW1 5176   0.979   4.672   3.947
 1426SOL    HW2 5177   0.956   4.551   4.054
 1427SOL     OW 5178   1.014   3.960   4.695
 1427SOL    HW1 5179   1.006   3.924   4.602
 1427SOL    HW2 5180   1.012   3.884   4.760
 1428SOL     OW 5181   1.709   4.109   5.105
 1428SOL    HW1 5182   1.782   4.178   5.109
 1428SOL    HW2 5183   1.737   4.034   5.046
 1429SOL     OW 5184   0.075   4.069   3.757
 1429SOL    HW1 5185  -0.017   4.041   3.728
 1429SOL    HW2 5186   0.106   4.146   3.701
 1430SOL     OW 5187   0.072   3.890   4.042
 1430SOL    HW1 5188   0.055   3.973   3.988
 1430SOL    HW2 5189   0.162   3.853   4.020
 1431SOL     OW 5190   1.450   4.944   5.357
 1431SOL    HW1 5191   1.441   4.934   5.456
 1431SOL    HW2 5192   1.546   4.937   5.331
 1432SOL     OW 5193   1.674   4.607   4.978
 1432SOL    HW1 5194   1.647   4.518   4.941
 1432SOL    HW2 5195   1.675   4.675   4.905
 1433SOL     OW 5196   1.225   4.049   4.173
 1433SOL    HW1 5197   1.290   3.975   4.162
 1433SOL    HW2 5198   1.245   4.099   4.257
 1434SOL     OW 5199   0.594   4.469   4.376
 1434SOL    HW1 5200   0.644   4.554   4.357
 1434SOL    HW2 5201   0.506   4.471   4.328
 1435SOL     OW 5202   1.730   4.658   5.241
 1435SOL    HW1 5203   1.768   4.749   5.256
 1435SOL    HW2 5204   1.722   4.641   5.142
 1436SOL     OW 5205   0.859   4.680   4.585
 1436SOL    HW1 5206   0.913   4.611   4.633
 1436SOL    HW2 5207   0.827   4.749   4.651
 1437SOL     OW 5208   1.083   4.708   3.811
 1437SOL    HW1 5209   1.060   4.761   3.729
 1437SOL    HW2 5210   1.164   4.652   3.792
 1438SOL     OW 5211   0.079   4.964   4.377
 1438SOL    HW1 5212   0.078   4.917   4.465
 1438SOL    HW2 5213   0.161   4.936   4.326
 1439SOL     OW 5214   1.824   3.916   4.951
 1439SOL    HW1 5215   1.820   3.826   4.995
 1439SOL    HW2 5216   1.827   3.905   4.852
 1440SOL     OW 5217   0.428   4.148   4.244
 1440SOL    HW1 5218   0.458   4.076   4.182
 1440SOL    HW2 5219   0.389   4.108   4.327
 1441SOL     OW 5220   1.424   3.938   4.836
 1441SOL    HW1 5221   1.476   3.873   4.891
 1441SOL    HW2 5222   1.375   4.001   4.897
 1442SOL     OW 5223   1.001   3.758   4.878
 1442SOL    HW1 5224   0.938   3.686   4.847
 1442SOL    HW2 5225   1.094   3.722   4.878
 1443SOL     OW 5226   1.352   3.776   3.892
 1443SOL    HW1 5227   1.387   3.735   3.808
 1443SOL    HW2 5228   1.262   3.738   3.912
 1444SOL     OW 5229   1.300   4.177   4.415
 1444SOL    HW1 5230   1.241   4.257   4.419
 1444SOL    HW2 5231   1.315   4.142   4.508
 1445SOL     OW 5232   1.593   3.945   4.606
 1445SOL    HW1 5233   1.509   3.944   4.660
 1445SOL    HW2 5234   1.595   4.028   4.550
 1446SOL     OW 5235   0.039   4.801   4.024
 1446SOL    HW1 5236   0.138   4.790   4.015
 1446SOL    HW2 5237  -0.001   4.715   4.056
 1447SOL     OW 5238   2.092   0.628   0.113
 1447SOL    HW1 5239   1.999   0.626   0.150
 1447SOL    HW2 5240   2.093   0.589   0.021
 1448SOL     OW 5241   2.087   0.275   0.996
 1448SOL    HW1 5242   2.122   0.258   1.088
 1448SOL    HW2 5243   1.999   0.230   0.984
 1449SOL     OW 5244   1.881   0.368   0.647
 1449SOL    HW1 5245   1.799   0.411   0.686
 1449SOL    HW2 5246   1.853   0.295   0.584
 1450SOL     OW 5247   2.431   1.275   1.165
 1450SOL    HW1 5248   2.338   1.268   1.128
 1450SOL    HW2 5249   2.442   1.364   1.209
 1451SOL     OW 5250   3.417   1.511   0.703
 1451SOL    HW1 5251   3.360   1.495   0.784
 1451SOL    HW2 5252   3.358   1.521   0.623
 1452SOL     OW 5253   2.997   0.703   0.717
 1452SOL    HW1 5254   3.054   0.781   0.692
 1452SOL    HW2 5255   2.937   0.729   0.793
 1453SOL     OW 5256   3.617   0.607   0.231
 1453SOL    HW1 5257   3.605   0.594   0.132
 1453SOL    HW2 5258   3.587   0.526   0.280
 1454SOL     OW 5259   2.630   1.144   1.023
 1454SOL    HW1 5260   2.552   1.161   1.083
 1454SOL    HW2 5261   2.664   1.231   0.987
 1455SOL     OW 5262   2.547   1.012   0.665
 1455SOL    HW1 5263   2.616   0.996   0.735
 1455SOL    HW2 5264   2.474   1.069   0.703
 1456SOL     OW 5265   2.197   1.435   1.061
 1456SOL    HW1 5266   2.119   1.404   1.008
 1456SOL    HW2 5267   2.255   1.493   1.004
 1457SOL     OW 5268   3.322   1.505   1.339
 1457SOL    HW1 5269   3.346   1.599   1.365
 1457SOL    HW2 5270   3.306   1.451   1.421
 1458SOL     OW 5271   2.300   0.392   1.499
 1458SOL    HW1 5272   2.382   0.336   1.508
 1458SOL    HW2 5273   2.219   0.334   1.503
 1459SOL     OW 5274   3.465   0.447   0.737
 1459SOL    HW1 5275   3.391   0.493   0.687
 1459SOL    HW2 5276   3.516   0.515   0.790
 1460SOL     OW 5277   2.093   1.713   0.483
 1460SOL    HW1 5278   2.127   1.790   0.537
 1460SOL    HW2 5279   2.137   1.713   0.393
 1461SOL     OW 5280   2.092   1.434   0.538
 1461SOL    HW1 5281   2.066   1.530   0.538
 1461SOL    HW2 5282   2.021   1.380   0.583
 1462SOL     OW 5283   2.102   1.091   0.886
 1462SOL    HW1 5284   2.116   1.007   0.938
 1462SOL    HW2 5285   2.047   1.155   0.941
 1463SOL     OW 5286   2.482   1.786   1.439
 1463SOL    HW1 5287   2.390   1.769   1.474
 1463SOL    HW2 5288   2.510   1.878   1.465
 1464SOL     OW 5289   2.468   0.964   0.123
 1464SOL    HW1 5290   2.475   1.048   0.069
 1464SOL    HW2 5291   2.514   0.977   0.211
 1465SOL     OW 5292   1.984   0.643   0.563
 1465SOL    HW1 5293   1.939   0.555   0.580
 1465SOL    HW2 5294   1.983   0.697   0.647
 1466SOL     OW 5295   3.704   1.767   0.359
 1466SOL    HW1 5296   3.758   1.738   0.439
 1466SOL    HW2 5297   3.734   1.857   0.330
 1467SOL     OW 5298   1.889   1.596   0.117
 1467SOL    HW1 5299   1.870   1.500   0.138
 1467SOL    HW2 5300   1.856   1.654   0.192
 1468SOL     OW 5301   3.551   0.922   0.612
 1468SOL    HW1 5302   3.646   0.893   0.620
 1468SOL    HW2 5303   3.543   0.987   0.537
 1469SOL     OW 5304   3.503   1.108   0.432
 1469SOL    HW1 5305   3.589   1.110   0.380
 1469SOL    HW2 5306   3.517   1.155   0.520
 1470SOL     OW 5307   1.975   0.737   1.597
 1470SOL    HW1 5308   2.063   0.724   1.642
 1470SOL    HW2 5309   1.962   0.834   1.575
 1471SOL     OW 5310   2.475   1.365   0.726
 1471SOL    HW1 5311   2.426   1.278   0.735
 1471SOL    HW2 5312   2.452   1.408   0.639
 1472SOL     OW 5313   3.155   1.228   1.423
 1472SOL    HW1 5314   3.192   1.155   1.365
 1472SOL    HW2 5315   3.207   1.233   1.508
 1473SOL     OW 5316   2.671   0.004   0.502
 1473SOL    HW1 5317   2.711   0.095   0.493
 1473SOL    HW2 5318   2.571   0.012   0.508
 1474SOL     OW 5319   2.059   0.976   1.264
 1474SOL    HW1 5320   2.148   0.931   1.250
 1474SOL    HW2 5321   1.986   0.911   1.245
 1475SOL     OW 5322   3.387   0.999   0.190
 1475SOL    HW1 5323   3.324   0.923   0.203
 1475SOL    HW2 5324   3.435   1.017   0.276
 1476SOL     OW 5325   3.049   1.792   1.616
 1476SOL    HW1 5326   3.073   1.852   1.540
 1476SOL    HW2 5327   3.056   1.697   1.586
 1477SOL     OW 5328   2.179   0.251   1.801
 1477SOL    HW1 5329   2.250   0.322   1.807
 1477SOL    HW2 5330   2.091   0.290   1.829
 1478SOL     OW 5331   3.328   1.417   0.953
 1478SOL    HW1 5332   3.269   1.423   1.033
 1478SOL    HW2 5333   3.313   1.329   0.907
 1479SOL     OW 5334   3.529   1.714   0.572
 1479SOL    HW1 5335   3.488   1.691   0.484
 1479SOL    HW2 5336   3.511   1.640   0.637
 1480SOL     OW 5337   2.460   0.729   0.270
 1480SOL    HW1 5338   2.484   0.798   0.202
 1480SOL    HW2 5339   2.382   0.762   0.324
 1481SOL     OW 5340   3.438   1.662   0.307
 1481SOL    HW1 5341   3.527   1.708   0.310
 1481SOL    HW2 5342   3.417   1.638   0.212
 1482SOL     OW 5343   2.669   0.605   1.465
 1482SOL    HW1 5344   2.622   0.602   1.554
 1482SOL    HW2 5345   2.618   0.550   1.399
 1483SOL     OW 5346   3.256   0.469   1.674
 1483SOL    HW1 5347   3.236   0.512   1.762
 1483SOL    HW2 5348   3.334   0.407   1.683
 1484SOL     OW 5349   2.835   0.890   1.572
 1484SOL    HW1 5350   2.881   0.806   1.543
 1484SOL    HW2 5351   2.779   0.924   1.497
 1485SOL     OW 5352   2.853   0.410   1.242
 1485SOL    HW1 5353   2.776   0.444   1.296
 1485SOL    HW2 5354   2.819   0.359   1.163
 1486SOL     OW 5355   2.903   0.701   0.429
 1486SOL    HW1 5356   2.929   0.697   0.525
 1486SOL    HW2 5357   2.818   0.650   0.415
 1487SOL     OW 5358   1.938   0.811   0.789
 1487SOL    HW1 5359   2.037   0.799   0.798
 1487SOL    HW2 5360   1.914   0.906   0.810
 1488SOL     OW 5361   1.992   1.821   1.571
 1488SOL    HW1 5362   1.982   1.806   1.670
 1488SOL    HW2 5363   1.906   1.857   1.535
 1489SOL     OW 5364   2.727   0.348   0.195
 1489SOL    HW1 5365   2.786   0.411   0.146
 1489SOL    HW2 5366   2.746   0.254   0.166
 1490SOL     OW 5367   3.581   0.585   1.831
 1490SOL    HW1 5368   3.555   0.674   1.795
 1490SOL    HW2 5369   3.579   0.517   1.758
 1491SOL     OW 5370   3.224   1.144   0.545
 1491SOL    HW1 5371   3.307   1.115   0.497
 1491SOL    HW2 5372   3.175   1.211   0.489
 1492SOL     OW 5373   2.412   0.196   0.885
 1492SOL    HW1 5374   2.407   0.191   0.985
 1492SOL    HW2 5375   2.414   0.292   0.856
 1493SOL     OW 5376   2.870   1.456   0.477
 1493SOL    HW1 5377   2.824   1.528   0.425
 1493SOL    HW2 5378   2.866   1.476   0.575
 1494SOL     OW 5379   2.213   1.801   0.853
 1494SOL    HW1 5380   2.263   1.715   0.859
 1494SOL    HW2 5381   2.278   1.878   0.850
 1495SOL     OW 5382   3.657   1.066   0.873
 1495SOL    HW1 5383   3.595   1.051   0.797
 1495SOL    HW2 5384   3.605   1.077   0.958
 1496SOL     OW 5385   3.089   1.550   1.506
 1496SOL    HW1 5386   3.095   1.473   1.570
 1496SOL    HW2 5387   3.037   1.524   1.426
 1497SOL     OW 5388   2.183   0.943   0.242
 1497SOL    HW1 5389   2.265   0.982   0.200
 1497SOL    HW2 5390   2.156   0.861   0.193
 1498SOL     OW 5391   3.320   0.735   0.728
 1498SOL    HW1 5392   3.315   0.670   0.803
 1498SOL    HW2 5393   3.400   0.794   0.741
 1499SOL     OW 5394   2.973   1.776   0.237
 1499SOL    HW1 5395   2.913   1.714   0.287
 1499SOL    HW2 5396   3.004   1.732   0.152
 1500SOL     OW 5397   2.064   0.285   1.498
 1500SOL    HW1 5398   1.984   0.345   1.485
 1500SOL    HW2 5399   2.054   0.236   1.584
 1501SOL     OW 5400   3.494   1.377   0.081
 1501SOL    HW1 5401   3.462   1.471   0.071
 1501SOL    HW2 5402   3.418   1.314   0.069
 1502SOL     OW 5403   2.326   1.743   0.323
 1502SOL    HW1 5404   2.359   1.782   0.409
 1502SOL    HW2 5405   2.402   1.736   0.258
 1503SOL     OW 5406   3.262   0.107   0.426
 1503SOL    HW1 5407   3.238   0.070   0.336
 1503SOL    HW2 5408   3.361   0.123   0.430
 1504SOL     OW 5409   2.111   1.785   1.241
 1504SOL    HW1 5410   2.168   1.720   1.291
 1504SOL    HW2 5411   2.095   1.752   1.148
 1505SOL     OW 5412   2.802   1.698   0.904
 1505SOL    HW1 5413   2.882   1.641   0.925
 1505SOL    HW2 5414   2.753   1.658   0.827
 1506SOL     OW 5415   2.244   0.700   0.480
 1506SOL    HW1 5416   2.289   0.610   0.477
 1506SOL    HW2 5417   2.150   0.689   0.513
 1507SOL     OW 5418   3.409   0.222   1.729
 1507SOL    HW1 5419   3.404   0.259   1.821
 1507SOL    HW2 5420   3.337   0.153   1.717
 1508SOL     OW 5421   2.476   0.122   0.117
 1508SOL    HW1 5422   2.574   0.100   0.124
 1508SOL    HW2 5423   2.445   0.105   0.024
 1509SOL     OW 5424   2.643   0.264   1.749
 1509SOL    HW1 5425   2.710   0.203   1.792
 1509SOL    HW2 5426   2.570   0.283   1.814
 1510SOL     OW 5427   2.750   1.514   1.195
 1510SOL    HW1 5428   2.727   1.489   1.101
 1510SOL    HW2 5429   2.811   1.445   1.234
 1511SOL     OW 5430   3.213   0.590   1.433
 1511SOL    HW1 5431   3.241   0.547   1.518
 1511SOL    HW2 5432   3.238   0.686   1.434
 1512SOL     OW 5433   2.665   1.402   0.924
 1512SOL    HW1 5434   2.755   1.416   0.882
 1512SOL    HW2 5435   2.594   1.404   0.853
 1513SOL     OW 5436   2.784   0.503   0.899
 1513SOL    HW1 5437   2.759   0.494   0.803
 1513SOL    HW2 5438   2.832   0.421   0.930
 1514SOL     OW 5439   2.401   0.064   0.512
 1514SOL    HW1 5440   2.320   0.065   0.570
 1514SOL    HW2 5441   2.404   0.147   0.457
 1515SOL     OW 5442   3.296   1.188   0.041
 1515SOL    HW1 5443   3.328   1.112   0.098
 1515SOL    HW2 5444   3.204   1.215   0.071
 1516SOL     OW 5445   2.159   0.035   0.171
 1516SOL    HW1 5446   2.208   0.119   0.150
 1516SOL    HW2 5447   2.221  -0.030   0.216
 1517SOL     OW 5448   2.797   0.236   0.480
 1517SOL    HW1 5449   2.749   0.277   0.402
 1517SOL    HW2 5450   2.896   0.234   0.461
 1518SOL     OW 5451   2.938   0.683   1.464
 1518SOL    HW1 5452   2.858   0.622   1.467
 1518SOL    HW2 5453   3.019   0.630   1.440
 1519SOL     OW 5454   3.089   1.570   0.793
 1519SOL    HW1 5455   3.110   1.644   0.728
 1519SOL    HW2 5456   3.157   1.570   0.866
 1520SOL     OW 5457   2.321   1.152   0.741
 1520SOL    HW1 5458   2.250   1.125   0.806
 1520SOL    HW2 5459   2.295   1.124   0.648
 1521SOL     OW 5460   3.133   1.797   0.591
 1521SOL    HW1 5461   3.177   1.861   0.527
 1521SOL    HW2 5462   3.083   1.849   0.661
 1522SOL     OW 5463   2.894   0.549   0.016
 1522SOL    HW1 5464   2.853   0.631  -0.023
 1522SOL    HW2 5465   2.958   0.575   0.089
 1523SOL     OW 5466   1.940   0.556   1.386
 1523SOL    HW1 5467   2.032   0.555   1.345
 1523SOL    HW2 5468   1.934   0.630   1.453
 1524SOL     OW 5469   2.423   0.222   1.147
 1524SOL    HW1 5470   2.461   0.138   1.184
 1524SOL    HW2 5471   2.335   0.241   1.191
 1525SOL     OW 5472   2.728   0.454   0.642
 1525SOL    HW1 5473   2.696   0.526   0.580
 1525SOL    HW2 5474   2.752   0.373   0.589
 1526SOL     OW 5475   2.879   0.039   0.753
 1526SOL    HW1 5476   2.807   0.044   0.684
 1526SOL    HW2 5477   2.855  -0.030   0.822
 1527SOL     OW 5478   3.291   1.173   0.867
 1527SOL    HW1 5479   3.236   1.089   0.860
 1527SOL    HW2 5480   3.317   1.202   0.775
 1528SOL     OW 5481   3.328   0.590   0.992
 1528SOL    HW1 5482   3.298   0.495   0.999
 1528SOL    HW2 5483   3.401   0.606   1.058
 1529SOL     OW 5484   3.719   0.833   0.377
 1529SOL    HW1 5485   3.761   0.769   0.441
 1529SOL    HW2 5486   3.681   0.782   0.299
 1530SOL     OW 5487   2.350   1.385   0.174
 1530SOL    HW1 5488   2.263   1.370   0.221
 1530SOL    HW2 5489   2.333   1.411   0.079
 1531SOL     OW 5490   3.526   1.280   0.657
 1531SOL    HW1 5491   3.625   1.288   0.671
 1531SOL    HW2 5492   3.481   1.364   0.688
 1532SOL     OW 5493   3.252   0.575   0.078
 1532SOL    HW1 5494   3.198   0.554   0.159
 1532SOL    HW2 5495   3.343   0.534   0.087
 1533SOL     OW 5496   2.389   0.256   0.328
 1533SOL    HW1 5497   2.416   0.197   0.253
 1533SOL    HW2 5498   2.389   0.351   0.297
 1534SOL     OW 5499   3.616   1.223   1.588
 1534SOL    HW1 5500   3.707   1.184   1.575
 1534SOL    HW2 5501   3.624   1.319   1.612
 1535SOL     OW 5502   3.454   1.629   1.625
 1535SOL    HW1 5503   3.481   1.663   1.535
 1535SOL    HW2 5504   3.533   1.591   1.671
 1536SOL     OW 5505   2.973   1.195   1.100
 1536SOL    HW1 5506   2.933   1.239   1.181
 1536SOL    HW2 5507   2.932   1.232   1.017
 1537SOL     OW 5508   3.500   1.099   1.079
 1537SOL    HW1 5509   3.505   1.180   1.138
 1537SOL    HW2 5510   3.414   1.101   1.028
 1538SOL     OW 5511   2.777   0.089   1.402
 1538SOL    HW1 5512   2.802   0.069   1.307
 1538SOL    HW2 5513   2.849   0.145   1.444
 1539SOL     OW 5514   2.567   1.050   0.368
 1539SOL    HW1 5515   2.553   1.057   0.467
 1539SOL    HW2 5516   2.651   0.999   0.350
 1540SOL     OW 5517   2.272   0.813   1.251
 1540SOL    HW1 5518   2.358   0.825   1.301
 1540SOL    HW2 5519   2.230   0.726   1.278
 1541SOL     OW 5520   1.926   1.564   1.331
 1541SOL    HW1 5521   1.880   1.646   1.297
 1541SOL    HW2 5522   2.024   1.583   1.340
 1542SOL     OW 5523   2.229   1.100   0.501
 1542SOL    HW1 5524   2.222   1.183   0.445
 1542SOL    HW2 5525   2.233   1.020   0.441
 1543SOL     OW 5526   2.428   0.537   0.865
 1543SOL    HW1 5527   2.440   0.603   0.791
 1543SOL    HW2 5528   2.474   0.571   0.948
 1544SOL     OW 5529   3.114   1.348   0.388
 1544SOL    HW1 5530   3.164   1.425   0.428
 1544SOL    HW2 5531   3.019   1.350   0.420
 1545SOL     OW 5532   3.134   1.445   1.142
 1545SOL    HW1 5533   3.181   1.458   1.229
 1545SOL    HW2 5534   3.068   1.371   1.151
 1546SOL     OW 5535   3.444   0.639   0.472
 1546SOL    HW1 5536   3.413   0.700   0.545
 1546SOL    HW2 5537   3.494   0.691   0.403
 1547SOL     OW 5538   2.216   1.510   1.329
 1547SOL    HW1 5539   2.195   1.466   1.242
 1547SOL    HW2 5540   2.313   1.536   1.332
 1548SOL     OW 5541   2.264   0.751   1.598
 1548SOL    HW1 5542   2.332   0.806   1.551
 1548SOL    HW2 5543   2.304   0.663   1.625
 1549SOL     OW 5544   3.449   0.779   1.670
 1549SOL    HW1 5545   3.357   0.817   1.665
 1549SOL    HW2 5546   3.509   0.826   1.605
 1550SOL     OW 5547   2.875   0.105   1.770
 1550SOL    HW1 5548   2.881   0.190   1.718
 1550SOL    HW2 5549   2.907   0.029   1.713
 1551SOL     OW 5550   2.366   0.050   1.740
 1551SOL    HW1 5551   2.324  -0.007   1.670
 1551SOL    HW2 5552   2.300   0.119   1.772
 1552SOL     OW 5553   2.435   0.870   1.029
 1552SOL    HW1 5554   2.479   0.959   1.020
 1552SOL    HW2 5555   2.372   0.870   1.106
 1553SOL     OW 5556   3.222   0.862   1.045
 1553SOL    HW1 5557   3.147   0.862   0.979
 1553SOL    HW2 5558   3.259   0.770   1.054
 1554SOL     OW 5559   3.071   0.525   0.275
 1554SOL    HW1 5560   3.084   0.441   0.329
 1554SOL    HW2 5561   3.042   0.599   0.335
 1555SOL     OW 5562   2.169   0.213   1.231
 1555SOL    HW1 5563   2.146   0.250   1.321
 1555SOL    HW2 5564   2.139   0.118   1.225
 1556SOL     OW 5565   1.899   1.310   1.282
 1556SOL    HW1 5566   1.952   1.261   1.350
 1556SOL    HW2 5567   1.921   1.408   1.287
 1557SOL     OW 5568   2.594   0.634   1.064
 1557SOL    HW1 5569   2.653   0.608   0.988
 1557SOL    HW2 5570   2.566   0.730   1.053
 1558SOL     OW 5571   3.590   0.935   1.854
 1558SOL    HW1 5572   3.544   0.928   1.765
 1558SOL    HW2 5573   3.528   0.979   1.920
 1559SOL     OW 5574   2.169   0.063   0.618
 1559SOL    HW1 5575   2.158   0.157   0.651
 1559SOL    HW2 5576   2.164   0.000   0.695
 1560SOL     OW 5577   3.484   0.367   0.374
 1560SOL    HW1 5578   3.486   0.291   0.438
 1560SOL    HW2 5579   3.436   0.444   0.414
 1561SOL     OW 5580   2.885   0.766   0.966
 1561SOL    HW1 5581   2.900   0.787   1.062
 1561SOL    HW2 5582   2.855   0.671   0.957
 1562SOL     OW 5583   3.721   1.518   1.605
 1562SOL    HW1 5584   3.735   1.545   1.510
 1562SOL    HW2 5585   3.804   1.540   1.658
 1563SOL     OW 5586   3.402   0.274   0.125
 1563SOL    HW1 5587   3.341   0.199   0.148
 1563SOL    HW2 5588   3.424   0.326   0.208
 1564SOL     OW 5589   3.165   0.838   0.042
 1564SOL    HW1 5590   3.199   0.745   0.057
 1564SOL    HW2 5591   3.183   0.865  -0.053
 1565SOL     OW 5592   2.930   1.333   0.849
 1565SOL    HW1 5593   2.937   1.249   0.794
 1565SOL    HW2 5594   2.992   1.402   0.813
 1566SOL     OW 5595   2.181   0.810   0.949
 1566SOL    HW1 5596   2.274   0.846   0.954
 1566SOL    HW2 5597   2.175   0.725   1.001
 1567SOL     OW 5598   2.201   0.509   1.006
 1567SOL    HW1 5599   2.149   0.426   0.989
 1567SOL    HW2 5600   2.278   0.514   0.942
 1568SOL     OW 5601   3.000   0.380   1.678
 1568SOL    HW1 5602   2.955   0.443   1.742
 1568SOL    HW2 5603   3.093   0.411   1.661
 1569SOL     OW 5604   3.022   0.207   1.477
 1569SOL    HW1 5605   3.022   0.271   1.554
 1569SOL    HW2 5606   3.050   0.255   1.394
 1570SOL     OW 5607   1.950   1.801   0.927
 1570SOL    HW1 5608   1.908   1.715   0.900
 1570SOL    HW2 5609   2.044   1.804   0.893
 1571SOL     OW 5610   2.366   1.568   0.910
 1571SOL    HW1 5611   2.432   1.642   0.919
 1571SOL    HW2 5612   2.410   1.489   0.868
 1572SOL     OW 5613   2.864   0.796   1.238
 1572SOL    HW1 5614   2.905   0.764   1.324
 1572SOL    HW2 5615   2.768   0.769   1.235
 1573SOL     OW 5616   1.902   0.544   1.114
 1573SOL    HW1 5617   1.987   0.511   1.073
 1573SOL    HW2 5618   1.915   0.559   1.212
 1574SOL     OW 5619   2.051   0.520   1.722
 1574SOL    HW1 5620   2.110   0.480   1.652
 1574SOL    HW2 5621   1.993   0.591   1.681
 1575SOL     OW 5622   3.231   0.950   1.660
 1575SOL    HW1 5623   3.270   1.039   1.680
 1575SOL    HW2 5624   3.241   0.930   1.563
 1576SOL     OW 5625   2.677   0.572   0.325
 1576SOL    HW1 5626   2.684   0.483   0.279
 1576SOL    HW2 5627   2.583   0.606   0.317
 1577SOL     OW 5628   3.519   0.604   1.206
 1577SOL    HW1 5629   3.481   0.535   1.268
 1577SOL    HW2 5630   3.601   0.568   1.162
 1578SOL     OW 5631   2.533   0.464   1.269
 1578SOL    HW1 5632   2.499   0.375   1.239
 1578SOL    HW2 5633   2.559   0.518   1.189
 1579SOL     OW 5634   2.792   1.678   1.465
 1579SOL    HW1 5635   2.768   1.660   1.370
 1579SOL    HW2 5636   2.822   1.772   1.475
 1580SOL     OW 5637   2.335   0.500   0.191
 1580SOL    HW1 5638   2.396   0.580   0.195
 1580SOL    HW2 5639   2.240   0.531   0.198
 1581SOL     OW 5640   2.021   1.137   1.466
 1581SOL    HW1 5641   2.043   1.076   1.542
 1581SOL    HW2 5642   2.031   1.088   1.380
 1582SOL     OW 5643   3.209   1.059   1.234
 1582SOL    HW1 5644   3.233   0.996   1.160
 1582SOL    HW2 5645   3.119   1.099   1.216
 1583SOL     OW 5646   3.164   0.855   0.309
 1583SOL    HW1 5647   3.078   0.824   0.351
 1583SOL    HW2 5648   3.160   0.841   0.210
 1584SOL     OW 5649   3.621   1.747   1.154
 1584SOL    HW1 5650   3.682   1.777   1.081
 1584SOL    HW2 5651   3.583   1.658   1.132
 1585SOL     OW 5652   3.114   1.731   1.128
 1585SOL    HW1 5653   3.198   1.736   1.074
 1585SOL    HW2 5654   3.091   1.635   1.146
 1586SOL     OW 5655   1.945   1.258   1.022
 1586SOL    HW1 5656   1.940   1.257   1.122
 1586SOL    HW2 5657   1.862   1.217   0.984
 1587SOL     OW 5658   2.765   0.086   0.133
 1587SOL    HW1 5659   2.816   0.087   0.047
 1587SOL    HW2 5660   2.821   0.044   0.204
 1588SOL     OW 5661   3.588   0.135   0.523
 1588SOL    HW1 5662   3.661   0.118   0.456
 1588SOL    HW2 5663   3.557   0.048   0.561
 1589SOL     OW 5664   3.250   1.573   0.477
 1589SOL    HW1 5665   3.317   1.585   0.403
 1589SOL    HW2 5666   3.210   1.662   0.500
 1590SOL     OW 5667   1.992   1.794   1.851
 1590SOL    HW1 5668   1.951   1.720   1.904
 1590SOL    HW2 5669   2.056   1.845   1.909
 1591SOL     OW 5670   3.142   0.927   0.672
 1591SOL    HW1 5671   3.202   0.846   0.674
 1591SOL    HW2 5672   3.182   0.996   0.612
 1592SOL     OW 5673   2.534   1.616   0.154
 1592SOL    HW1 5674   2.543   1.626   0.055
 1592SOL    HW2 5675   2.494   1.527   0.175
 1593SOL     OW 5676   3.512   1.720   1.394
 1593SOL    HW1 5677   3.565   1.730   1.310
 1593SOL    HW2 5678   3.485   1.810   1.428
 1594SOL     OW 5679   3.703   0.175   0.963
 1594SOL    HW1 5680   3.742   0.090   0.927
 1594SOL    HW2 5681   3.605   0.177   0.944
 1595SOL     OW 5682   2.125   0.326   0.720
 1595SOL    HW1 5683   2.046   0.377   0.686
 1595SOL    HW2 5684   2.116   0.311   0.818
 1596SOL     OW 5685   3.056   1.612   0.031
 1596SOL    HW1 5686   3.062   1.519   0.068
 1596SOL    HW2 5687   2.997   1.612  -0.049
 1597SOL     OW 5688   2.684   1.002   1.372
 1597SOL    HW1 5689   2.724   1.001   1.280
 1597SOL    HW2 5690   2.694   1.094   1.412
 1598SOL     OW 5691   2.778   0.910   0.291
 1598SOL    HW1 5692   2.841   0.948   0.223
 1598SOL    HW2 5693   2.818   0.827   0.330
 1599SOL     OW 5694   3.366   1.607   0.044
 1599SOL    HW1 5695   3.274   1.644   0.051
 1599SOL    HW2 5696   3.404   1.627  -0.046
 1600SOL     OW 5697   2.234   1.288   1.490
 1600SOL    HW1 5698   2.221   1.381   1.456
 1600SOL    HW2 5699   2.150   1.236   1.477
 1601SOL     OW 5700   3.476   1.292   1.289
 1601SOL    HW1 5701   3.536   1.295   1.369
 1601SOL    HW2 5702   3.401   1.356   1.302
 1602SOL     OW 5703   2.901   1.098   0.696
 1602SOL    HW1 5704   2.831   1.051   0.750
 1602SOL    HW2 5705   2.960   1.030   0.653
 1603SOL     OW 5706   2.452   1.487   0.491
 1603SOL    HW1 5707   2.494   1.429   0.421
 1603SOL    HW2 5708   2.408   1.566   0.447
 1604SOL     OW 5709   2.117   1.348   0.290
 1604SOL    HW1 5710   2.021   1.349   0.263
 1604SOL    HW2 5711   2.129   1.401   0.374
 1605SOL     OW 5712   1.967   1.013   1.726
 1605SOL    HW1 5713   1.890   0.980   1.780
 1605SOL    HW2 5714   2.052   0.983   1.768
 1606SOL     OW 5715   2.534   0.203   1.489
 1606SOL    HW1 5716   2.624   0.187   1.449
 1606SOL    HW2 5717   2.542   0.208   1.588
 1607SOL     OW 5718   3.302   0.856   1.398
 1607SOL    HW1 5719   3.245   0.908   1.335
 1607SOL    HW2 5720   3.398   0.868   1.374
 1608SOL     OW 5721   1.934   0.166   0.318
 1608SOL    HW1 5722   1.917   0.249   0.264
 1608SOL    HW2 5723   2.024   0.129   0.296
 1609SOL     OW 5724   3.045   1.335   0.119
 1609SOL    HW1 5725   2.946   1.324   0.121
 1609SOL    HW2 5726   3.079   1.350   0.212
 1610SOL     OW 5727   2.475   0.842   1.431
 1610SOL    HW1 5728   2.531   0.923   1.414
 1610SOL    HW2 5729   2.534   0.762   1.434
 1611SOL     OW 5730   3.355   1.767   0.959
 1611SOL    HW1 5731   3.388   1.831   0.890
 1611SOL    HW2 5732   3.421   1.761   1.034
 1612SOL     OW 5733   2.578   0.565   1.708
 1612SOL    HW1 5734   2.597   0.630   1.782
 1612SOL    HW2 5735   2.638   0.485   1.717
 1613SOL     OW 5736   3.312   1.220   1.633
 1613SOL    HW1 5737   3.303   1.210   1.732
 1613SOL    HW2 5738   3.408   1.213   1.607
 1614SOL     OW 5739   2.252   1.741   1.560
 1614SOL    HW1 5740   2.161   1.782   1.558
 1614SOL    HW2 5741   2.245   1.647   1.592
 1615SOL     OW 5742   3.536   0.883   1.254
 1615SOL    HW1 5743   3.509   0.794   1.217
 1615SOL    HW2 5744   3.537   0.951   1.181
 1616SOL     OW 5745   3.087   0.325   0.449
 1616SOL    HW1 5746   3.152   0.251   0.438
 1616SOL    HW2 5747   3.107   0.375   0.533
 1617SOL     OW 5748   2.456   0.745   0.652
 1617SOL    HW1 5749   2.506   0.830   0.633
 1617SOL    HW2 5750   2.368   0.747   0.604
 1618SOL     OW 5751   3.592   0.934   1.517
 1618SOL    HW1 5752   3.630   1.025   1.532
 1618SOL    HW2 5753   3.584   0.917   1.418
 1619SOL     OW 5754   2.721   1.374   0.016
 1619SOL    HW1 5755   2.675   1.389   0.104
 1619SOL    HW2 5756   2.765   1.459  -0.014
 1620SOL     OW 5757   2.523   1.790   0.953
 1620SOL    HW1 5758   2.477   1.878   0.940
 1620SOL    HW2 5759   2.622   1.802   0.946
 1621SOL     OW 5760   2.721   0.956   0.861
 1621SOL    HW1 5761   2.775   0.887   0.909
 1621SOL    HW2 5762   2.689   1.025   0.927
 1622SOL     OW 5763   2.945   0.984   0.087
 1622SOL    HW1 5764   2.922   1.037   0.005
 1622SOL    HW2 5765   3.026   0.928   0.068
 1623SOL     OW 5766   3.723   1.569   0.851
 1623SOL    HW1 5767   3.652   1.557   0.781
 1623SOL    HW2 5768   3.724   1.490   0.911
 1624SOL     OW 5769   1.941   1.240   0.653
 1624SOL    HW1 5770   1.940   1.193   0.741
 1624SOL    HW2 5771   2.023   1.212   0.602
 1625SOL     OW 5772   2.290   0.424   0.520
 1625SOL    HW1 5773   2.320   0.352   0.458
 1625SOL    HW2 5774   2.251   0.384   0.603
 1626SOL     OW 5775   3.567   1.487   1.104
 1626SOL    HW1 5776   3.474   1.462   1.077
 1626SOL    HW2 5777   3.593   1.437   1.186
 1627SOL     OW 5778   2.179   0.547   1.280
 1627SOL    HW1 5779   2.217   0.488   1.352
 1627SOL    HW2 5780   2.219   0.521   1.192
 1628SOL     OW 5781   2.674   1.586   0.687
 1628SOL    HW1 5782   2.706   1.596   0.593
 1628SOL    HW2 5783   2.595   1.524   0.689
 1629SOL     OW 5784   2.863   0.034   1.154
 1629SOL    HW1 5785   2.800  -0.038   1.123
 1629SOL    HW2 5786   2.956  -0.002   1.154
 1630SOL     OW 5787   2.632   1.330   0.301
 1630SOL    HW1 5788   2.586   1.243   0.318
 1630SOL    HW2 5789   2.723   1.327   0.342
 1631SOL     OW 5790   2.480   1.567   1.284
 1631SOL    HW1 5791   2.475   1.649   1.341
 1631SOL    HW2 5792   2.569   1.564   1.239
 1632SOL     OW 5793   3.214   0.052   0.168
 1632SOL    HW1 5794   3.249   0.011   0.084
 1632SOL    HW2 5795   3.124   0.014   0.188
 1633SOL     OW 5796   3.162   0.453   0.691
 1633SOL    HW1 5797   3.103   0.533   0.695
 1633SOL    HW2 5798   3.177   0.418   0.784
 1634SOL     OW 5799   3.455   0.221   0.882
 1634SOL    HW1 5800   3.371   0.220   0.936
 1634SOL    HW2 5801   3.457   0.304   0.826
 1635SOL     OW 5802   1.901   1.077   0.300
 1635SOL    HW1 5803   2.000   1.066   0.291
 1635SOL    HW2 5804   1.861   0.991   0.332
 1636SOL     OW 5805   2.737   1.646   0.337
 1636SOL    HW1 5806   2.660   1.611   0.283
 1636SOL    HW2 5807   2.705   1.717   0.399
 1637SOL     OW 5808   2.087   0.275   2.858
 1637SOL    HW1 5809   2.122   0.258   2.950
 1637SOL    HW2 5810   1.999   0.230   2.846
 1638SOL     OW 5811   2.431   1.275   3.027
 1638SOL    HW1 5812   2.338   1.268   2.990
 1638SOL    HW2 5813   2.442   1.364   3.071
 1639SOL     OW 5814   3.417   1.511   2.565
 1639SOL    HW1 5815   3.360   1.495   2.646
 1639SOL    HW2 5816   3.358   1.521   2.485
 1640SOL     OW 5817   2.997   0.703   2.579
 1640SOL    HW1 5818   3.054   0.781   2.554
 1640SOL    HW2 5819   2.937   0.729   2.655
 1641SOL     OW 5820   3.617   0.607   2.093
 1641SOL    HW1 5821   3.605   0.594   1.994
 1641SOL    HW2 5822   3.587   0.526   2.142
 1642SOL     OW 5823   2.630   1.144   2.885
 1642SOL    HW1 5824   2.552   1.161   2.945
 1642SOL    HW2 5825   2.664   1.231   2.849
 1643SOL     OW 5826   2.712   0.798   3.685
 1643SOL    HW1 5827   2.708   0.874   3.750
 1643SOL    HW2 5828   2.734   0.834   3.594
 1644SOL     OW 5829   2.547   1.012   2.527
 1644SOL    HW1 5830   2.616   0.996   2.597
 1644SOL    HW2 5831   2.474   1.069   2.565
 1645SOL     OW 5832   2.548   1.161   3.665
 1645SOL    HW1 5833   2.608   1.240   3.679
 1645SOL    HW2 5834   2.462   1.192   3.624
 1646SOL     OW 5835   2.197   1.435   2.923
 1646SOL    HW1 5836   2.119   1.404   2.870
 1646SOL    HW2 5837   2.255   1.493   2.866
 1647SOL     OW 5838   3.322   1.505   3.201
 1647SOL    HW1 5839   3.346   1.599   3.227
 1647SOL    HW2 5840   3.306   1.451   3.283
 1648SOL     OW 5841   2.300   0.392   3.361
 1648SOL    HW1 5842   2.382   0.336   3.370
 1648SOL    HW2 5843   2.219   0.334   3.365
 1649SOL     OW 5844   3.465   0.447   2.599
 1649SOL    HW1 5845   3.391   0.493   2.549
 1649SOL    HW2 5846   3.516   0.515   2.652
 1650SOL     OW 5847   2.093   1.713   2.345
 1650SOL    HW1 5848   2.127   1.790   2.399
 1650SOL    HW2 5849   2.137   1.713   2.255
 1651SOL     OW 5850   2.989   1.341   3.552
 1651SOL    HW1 5851   3.036   1.341   3.640
 1651SOL    HW2 5852   2.941   1.254   3.541
 1652SOL     OW 5853   2.092   1.434   2.400
 1652SOL    HW1 5854   2.066   1.530   2.400
 1652SOL    HW2 5855   2.021   1.380   2.445
 1653SOL     OW 5856   2.102   1.091   2.748
 1653SOL    HW1 5857   2.116   1.007   2.800
 1653SOL    HW2 5858   2.047   1.155   2.803
 1654SOL     OW 5859   3.456   0.114   3.342
 1654SOL    HW1 5860   3.438   0.181   3.270
 1654SOL    HW2 5861   3.453   0.160   3.431
 1655SOL     OW 5862   1.984   0.643   2.425
 1655SOL    HW1 5863   1.939   0.555   2.442
 1655SOL    HW2 5864   1.983   0.697   2.509
 1656SOL     OW 5865   3.704   1.767   2.221
 1656SOL    HW1 5866   3.758   1.738   2.301
 1656SOL    HW2 5867   3.734   1.857   2.192
 1657SOL     OW 5868   1.889   1.596   1.979
 1657SOL    HW1 5869   1.870   1.500   2.000
 1657SOL    HW2 5870   1.856   1.654   2.054
 1658SOL     OW 5871   3.551   0.922   2.474
 1658SOL    HW1 5872   3.646   0.893   2.482
 1658SOL    HW2 5873   3.543   0.987   2.399
 1659SOL     OW 5874   3.503   1.108   2.294
 1659SOL    HW1 5875   3.589   1.110   2.242
 1659SOL    HW2 5876   3.517   1.155   2.382
 1660SOL     OW 5877   1.975   0.737   3.459
 1660SOL    HW1 5878   2.063   0.724   3.504
 1660SOL    HW2 5879   1.962   0.834   3.437
 1661SOL     OW 5880   2.475   1.365   2.588
 1661SOL    HW1 5881   2.426   1.278   2.597
 1661SOL    HW2 5882   2.452   1.408   2.501
 1662SOL     OW 5883   3.155   1.228   3.285
 1662SOL    HW1 5884   3.192   1.155   3.227
 1662SOL    HW2 5885   3.207   1.233   3.370
 1663SOL     OW 5886   2.059   0.976   3.126
 1663SOL    HW1 5887   2.148   0.931   3.112
 1663SOL    HW2 5888   1.986   0.911   3.107
 1664SOL     OW 5889   3.387   0.999   2.052
 1664SOL    HW1 5890   3.324   0.923   2.065
 1664SOL    HW2 5891   3.435   1.017   2.138
 1665SOL     OW 5892   3.049   1.792   3.478
 1665SOL    HW1 5893   3.073   1.852   3.402
 1665SOL    HW2 5894   3.056   1.697   3.448
 1666SOL     OW 5895   2.179   0.251   3.663
 1666SOL    HW1 5896   2.250   0.322   3.669
 1666SOL    HW2 5897   2.091   0.290   3.691
 1667SOL     OW 5898   3.328   1.417   2.815
 1667SOL    HW1 5899   3.269   1.423   2.895
 1667SOL    HW2 5900   3.313   1.329   2.769
 1668SOL     OW 5901   3.529   1.714   2.434
 1668SOL    HW1 5902   3.488   1.691   2.346
 1668SOL    HW2 5903   3.511   1.640   2.499
 1669SOL     OW 5904   3.143   0.345   2.806
 1669SOL    HW1 5905   3.057   0.295   2.793
 1669SOL    HW2 5906   3.205   0.291   2.862
 1670SOL     OW 5907   3.438   1.662   2.169
 1670SOL    HW1 5908   3.527   1.708   2.172
 1670SOL    HW2 5909   3.417   1.638   2.074
 1671SOL     OW 5910   2.669   0.605   3.327
 1671SOL    HW1 5911   2.622   0.602   3.416
 1671SOL    HW2 5912   2.618   0.550   3.261
 1672SOL     OW 5913   3.256   0.469   3.536
 1672SOL    HW1 5914   3.236   0.512   3.624
 1672SOL    HW2 5915   3.334   0.407   3.545
 1673SOL     OW 5916   2.835   0.890   3.434
 1673SOL    HW1 5917   2.881   0.806   3.405
 1673SOL    HW2 5918   2.779   0.924   3.359
 1674SOL     OW 5919   2.853   0.410   3.104
 1674SOL    HW1 5920   2.776   0.444   3.158
 1674SOL    HW2 5921   2.819   0.359   3.025
 1675SOL     OW 5922   2.903   0.701   2.291
 1675SOL    HW1 5923   2.929   0.697   2.387
 1675SOL    HW2 5924   2.818   0.650   2.277
 1676SOL     OW 5925   1.992   1.821   3.433
 1676SOL    HW1 5926   1.982   1.806   3.532
 1676SOL    HW2 5927   1.906   1.857   3.397
 1677SOL     OW 5928   2.727   0.348   2.057
 1677SOL    HW1 5929   2.786   0.411   2.008
 1677SOL    HW2 5930   2.746   0.254   2.028
 1678SOL     OW 5931   3.581   0.585   3.693
 1678SOL    HW1 5932   3.555   0.674   3.657
 1678SOL    HW2 5933   3.579   0.517   3.620
 1679SOL     OW 5934   3.224   1.144   2.407
 1679SOL    HW1 5935   3.307   1.115   2.359
 1679SOL    HW2 5936   3.175   1.211   2.351
 1680SOL     OW 5937   2.412   0.196   2.747
 1680SOL    HW1 5938   2.407   0.191   2.847
 1680SOL    HW2 5939   2.414   0.292   2.718
 1681SOL     OW 5940   2.870   1.456   2.339
 1681SOL    HW1 5941   2.824   1.528   2.287
 1681SOL    HW2 5942   2.866   1.476   2.437
 1682SOL     OW 5943   2.213   1.801   2.715
 1682SOL    HW1 5944   2.263   1.715   2.721
 1682SOL    HW2 5945   2.278   1.878   2.712
 1683SOL     OW 5946   3.657   1.066   2.735
 1683SOL    HW1 5947   3.595   1.051   2.659
 1683SOL    HW2 5948   3.605   1.077   2.820
 1684SOL     OW 5949   3.089   1.550   3.368
 1684SOL    HW1 5950   3.095   1.473   3.432
 1684SOL    HW2 5951   3.037   1.524   3.288
 1685SOL     OW 5952   2.183   0.943   2.104
 1685SOL    HW1 5953   2.265   0.982   2.062
 1685SOL    HW2 5954   2.156   0.861   2.055
 1686SOL     OW 5955   3.320   0.735   2.590
 1686SOL    HW1 5956   3.315   0.670   2.665
 1686SOL    HW2 5957   3.400   0.794   2.603
 1687SOL     OW 5958   2.323   1.266   3.589
 1687SOL    HW1 5959   2.273   1.267   3.503
 1687SOL    HW2 5960   2.260   1.248   3.665
 1688SOL     OW 5961   2.064   0.285   3.360
 1688SOL    HW1 5962   1.984   0.345   3.347
 1688SOL    HW2 5963   2.054   0.236   3.446
 1689SOL     OW 5964   3.494   1.377   1.943
 1689SOL    HW1 5965   3.462   1.471   1.933
 1689SOL    HW2 5966   3.418   1.314   1.931
 1690SOL     OW 5967   3.262   0.107   2.288
 1690SOL    HW1 5968   3.238   0.070   2.198
 1690SOL    HW2 5969   3.361   0.123   2.292
 1691SOL     OW 5970   2.111   1.785   3.103
 1691SOL    HW1 5971   2.168   1.720   3.153
 1691SOL    HW2 5972   2.095   1.752   3.010
 1692SOL     OW 5973   2.244   0.700   2.342
 1692SOL    HW1 5974   2.289   0.610   2.339
 1692SOL    HW2 5975   2.150   0.689   2.375
 1693SOL     OW 5976   3.409   0.222   3.591
 1693SOL    HW1 5977   3.404   0.259   3.683
 1693SOL    HW2 5978   3.337   0.153   3.579
 1694SOL     OW 5979   2.476   0.122   1.979
 1694SOL    HW1 5980   2.574   0.100   1.986
 1694SOL    HW2 5981   2.445   0.105   1.886
 1695SOL     OW 5982   2.643   0.264   3.611
 1695SOL    HW1 5983   2.710   0.203   3.654
 1695SOL    HW2 5984   2.570   0.283   3.676
 1696SOL     OW 5985   2.750   1.514   3.057
 1696SOL    HW1 5986   2.727   1.489   2.963
 1696SOL    HW2 5987   2.811   1.445   3.096
 1697SOL     OW 5988   3.213   0.590   3.295
 1697SOL    HW1 5989   3.241   0.547   3.380
 1697SOL    HW2 5990   3.238   0.686   3.296
 1698SOL     OW 5991   2.665   1.402   2.786
 1698SOL    HW1 5992   2.755   1.416   2.744
 1698SOL    HW2 5993   2.594   1.404   2.715
 1699SOL     OW 5994   2.784   0.503   2.761
 1699SOL    HW1 5995   2.759   0.494   2.665
 1699SOL    HW2 5996   2.832   0.421   2.792
 1700SOL     OW 5997   2.401   0.064   2.374
 1700SOL    HW1 5998   2.320   0.065   2.432
 1700SOL    HW2 5999   2.404   0.147   2.319
 1701SOL     OW 6000   2.159   0.035   2.033
 1701SOL    HW1 6001   2.208   0.119   2.012
 1701SOL    HW2 6002   2.221  -0.030   2.078
 1702SOL     OW 6003   2.797   0.236   2.342
 1702SOL    HW1 6004   2.749   0.277   2.264
 1702SOL    HW2 6005   2.896   0.234   2.323
 1703SOL     OW 6006   2.938   0.683   3.326
 1703SOL    HW1 6007   2.858   0.622   3.329
 1703SOL    HW2 6008   3.019   0.630   3.302
 1704SOL     OW 6009   3.089   1.570   2.655
 1704SOL    HW1 6010   3.110   1.644   2.590
 1704SOL    HW2 6011   3.157   1.570   2.728
 1705SOL     OW 6012   2.321   1.152   2.603
 1705SOL    HW1 6013   2.250   1.125   2.668
 1705SOL    HW2 6014   2.295   1.124   2.510
 1706SOL     OW 6015   2.894   0.549   1.878
 1706SOL    HW1 6016   2.853   0.631   1.839
 1706SOL    HW2 6017   2.958   0.575   1.951
 1707SOL     OW 6018   1.940   0.556   3.248
 1707SOL    HW1 6019   2.032   0.555   3.207
 1707SOL    HW2 6020   1.934   0.630   3.315
 1708SOL     OW 6021   2.423   0.222   3.009
 1708SOL    HW1 6022   2.461   0.138   3.046
 1708SOL    HW2 6023   2.335   0.241   3.053
 1709SOL     OW 6024   2.728   0.454   2.504
 1709SOL    HW1 6025   2.696   0.526   2.442
 1709SOL    HW2 6026   2.752   0.373   2.451
 1710SOL     OW 6027   3.291   1.173   2.729
 1710SOL    HW1 6028   3.236   1.089   2.722
 1710SOL    HW2 6029   3.317   1.202   2.637
 1711SOL     OW 6030   3.328   0.590   2.854
 1711SOL    HW1 6031   3.298   0.495   2.861
 1711SOL    HW2 6032   3.401   0.606   2.920
 1712SOL     OW 6033   3.719   0.833   2.239
 1712SOL    HW1 6034   3.761   0.769   2.303
 1712SOL    HW2 6035   3.681   0.782   2.161
 1713SOL     OW 6036   3.526   1.280   2.519
 1713SOL    HW1 6037   3.625   1.288   2.533
 1713SOL    HW2 6038   3.481   1.364   2.550
 1714SOL     OW 6039   3.252   0.575   1.940
 1714SOL    HW1 6040   3.198   0.554   2.021
 1714SOL    HW2 6041   3.343   0.534   1.949
 1715SOL     OW 6042   2.389   0.256   2.190
 1715SOL    HW1 6043   2.416   0.197   2.115
 1715SOL    HW2 6044   2.389   0.351   2.159
 1716SOL     OW 6045   3.616   1.223   3.450
 1716SOL    HW1 6046   3.707   1.184   3.437
 1716SOL    HW2 6047   3.624   1.319   3.474
 1717SOL     OW 6048   2.926   1.347   3.202
 1717SOL    HW1 6049   2.846   1.324   3.257
 1717SOL    HW2 6050   3.009   1.321   3.251
 1718SOL     OW 6051   3.454   1.629   3.487
 1718SOL    HW1 6052   3.481   1.663   3.397
 1718SOL    HW2 6053   3.533   1.591   3.533
 1719SOL     OW 6054   2.973   1.195   2.962
 1719SOL    HW1 6055   2.933   1.239   3.043
 1719SOL    HW2 6056   2.932   1.232   2.879
 1720SOL     OW 6057   3.500   1.099   2.941
 1720SOL    HW1 6058   3.505   1.180   3.000
 1720SOL    HW2 6059   3.414   1.101   2.890
 1721SOL     OW 6060   2.842   1.116   3.581
 1721SOL    HW1 6061   2.743   1.122   3.591
 1721SOL    HW2 6062   2.865   1.036   3.525
 1722SOL     OW 6063   2.272   0.813   3.113
 1722SOL    HW1 6064   2.358   0.825   3.163
 1722SOL    HW2 6065   2.230   0.726   3.140
 1723SOL     OW 6066   3.136   0.386   3.124
 1723SOL    HW1 6067   3.157   0.460   3.188
 1723SOL    HW2 6068   3.047   0.403   3.081
 1724SOL     OW 6069   1.926   1.564   3.193
 1724SOL    HW1 6070   1.880   1.646   3.159
 1724SOL    HW2 6071   2.024   1.583   3.202
 1725SOL     OW 6072   2.229   1.100   2.363
 1725SOL    HW1 6073   2.222   1.183   2.307
 1725SOL    HW2 6074   2.233   1.020   2.303
 1726SOL     OW 6075   2.428   0.537   2.727
 1726SOL    HW1 6076   2.440   0.603   2.653
 1726SOL    HW2 6077   2.474   0.571   2.810
 1727SOL     OW 6078   3.114   1.348   2.250
 1727SOL    HW1 6079   3.164   1.425   2.290
 1727SOL    HW2 6080   3.019   1.350   2.282
 1728SOL     OW 6081   3.134   1.445   3.004
 1728SOL    HW1 6082   3.181   1.458   3.091
 1728SOL    HW2 6083   3.068   1.371   3.013
 1729SOL     OW 6084   3.444   0.639   2.334
 1729SOL    HW1 6085   3.413   0.700   2.407
 1729SOL    HW2 6086   3.494   0.691   2.265
 1730SOL     OW 6087   2.216   1.510   3.191
 1730SOL    HW1 6088   2.195   1.466   3.104
 1730SOL    HW2 6089   2.313   1.536   3.194
 1731SOL     OW 6090   2.264   0.751   3.460
 1731SOL    HW1 6091   2.332   0.806   3.413
 1731SOL    HW2 6092   2.304   0.663   3.487
 1732SOL     OW 6093   3.449   0.779   3.532
 1732SOL    HW1 6094   3.357   0.817   3.527
 1732SOL    HW2 6095   3.509   0.826   3.467
 1733SOL     OW 6096   2.875   0.105   3.632
 1733SOL    HW1 6097   2.881   0.190   3.580
 1733SOL    HW2 6098   2.907   0.029   3.575
 1734SOL     OW 6099   2.366   0.050   3.602
 1734SOL    HW1 6100   2.324  -0.007   3.532
 1734SOL    HW2 6101   2.300   0.119   3.634
 1735SOL     OW 6102   2.435   0.870   2.891
 1735SOL    HW1 6103   2.479   0.959   2.882
 1735SOL    HW2 6104   2.372   0.870   2.968
 1736SOL     OW 6105   3.222   0.862   2.907
 1736SOL    HW1 6106   3.147   0.862   2.841
 1736SOL    HW2 6107   3.259   0.770   2.916
 1737SOL     OW 6108   3.071   0.525   2.137
 1737SOL    HW1 6109   3.084   0.441   2.191
 1737SOL    HW2 6110   3.042   0.599   2.197
 1738SOL     OW 6111   2.169   0.213   3.093
 1738SOL    HW1 6112   2.146   0.250   3.183
 1738SOL    HW2 6113   2.139   0.118   3.087
 1739SOL     OW 6114   1.899   1.310   3.144
 1739SOL    HW1 6115   1.952   1.261   3.212
 1739SOL    HW2 6116   1.921   1.408   3.149
 1740SOL     OW 6117   2.594   0.634   2.926
 1740SOL    HW1 6118   2.653   0.608   2.850
 1740SOL    HW2 6119   2.566   0.730   2.915
 1741SOL     OW 6120   3.590   0.935   3.716
 1741SOL    HW1 6121   3.544   0.928   3.627
 1741SOL    HW2 6122   3.528   0.979   3.782
 1742SOL     OW 6123   2.169   0.063   2.480
 1742SOL    HW1 6124   2.158   0.157   2.513
 1742SOL    HW2 6125   2.164   0.000   2.557
 1743SOL     OW 6126   3.484   0.367   2.236
 1743SOL    HW1 6127   3.486   0.291   2.300
 1743SOL    HW2 6128   3.436   0.444   2.276
 1744SOL     OW 6129   2.885   0.766   2.828
 1744SOL    HW1 6130   2.900   0.787   2.924
 1744SOL    HW2 6131   2.855   0.671   2.819
 1745SOL     OW 6132   2.842   1.573   3.562
 1745SOL    HW1 6133   2.822   1.617   3.474
 1745SOL    HW2 6134   2.881   1.482   3.546
 1746SOL     OW 6135   3.721   1.518   3.467
 1746SOL    HW1 6136   3.735   1.545   3.372
 1746SOL    HW2 6137   3.804   1.540   3.520
 1747SOL     OW 6138   2.212   0.898   3.666
 1747SOL    HW1 6139   2.288   0.942   3.714
 1747SOL    HW2 6140   2.247   0.851   3.584
 1748SOL     OW 6141   3.402   0.274   1.987
 1748SOL    HW1 6142   3.341   0.199   2.010
 1748SOL    HW2 6143   3.424   0.326   2.070
 1749SOL     OW 6144   3.165   0.838   1.904
 1749SOL    HW1 6145   3.199   0.745   1.919
 1749SOL    HW2 6146   3.183   0.865   1.809
 1750SOL     OW 6147   2.930   1.333   2.711
 1750SOL    HW1 6148   2.937   1.249   2.656
 1750SOL    HW2 6149   2.992   1.402   2.675
 1751SOL     OW 6150   2.181   0.810   2.811
 1751SOL    HW1 6151   2.274   0.846   2.816
 1751SOL    HW2 6152   2.175   0.725   2.863
 1752SOL     OW 6153   2.201   0.509   2.868
 1752SOL    HW1 6154   2.149   0.426   2.851
 1752SOL    HW2 6155   2.278   0.514   2.804
 1753SOL     OW 6156   3.000   0.380   3.540
 1753SOL    HW1 6157   2.955   0.443   3.604
 1753SOL    HW2 6158   3.093   0.411   3.523
 1754SOL     OW 6159   3.022   0.207   3.339
 1754SOL    HW1 6160   3.022   0.271   3.416
 1754SOL    HW2 6161   3.050   0.255   3.256
 1755SOL     OW 6162   1.870   1.326   2.062
 1755SOL    HW1 6163   1.777   1.347   2.031
 1755SOL    HW2 6164   1.880   1.227   2.075
 1756SOL     OW 6165   1.950   1.801   2.789
 1756SOL    HW1 6166   1.908   1.715   2.762
 1756SOL    HW2 6167   2.044   1.804   2.755
 1757SOL     OW 6168   2.366   1.568   2.772
 1757SOL    HW1 6169   2.432   1.642   2.781
 1757SOL    HW2 6170   2.410   1.489   2.730
 1758SOL     OW 6171   2.864   0.796   3.100
 1758SOL    HW1 6172   2.905   0.764   3.186
 1758SOL    HW2 6173   2.768   0.769   3.097
 1759SOL     OW 6174   1.902   0.544   2.976
 1759SOL    HW1 6175   1.987   0.511   2.935
 1759SOL    HW2 6176   1.915   0.559   3.074
 1760SOL     OW 6177   2.051   0.520   3.584
 1760SOL    HW1 6178   2.110   0.480   3.514
 1760SOL    HW2 6179   1.993   0.591   3.543
 1761SOL     OW 6180   3.231   0.950   3.522
 1761SOL    HW1 6181   3.270   1.039   3.542
 1761SOL    HW2 6182   3.241   0.930   3.425
 1762SOL     OW 6183   2.677   0.572   2.187
 1762SOL    HW1 6184   2.684   0.483   2.141
 1762SOL    HW2 6185   2.583   0.606   2.179
 1763SOL     OW 6186   3.519   0.604   3.068
 1763SOL    HW1 6187   3.481   0.535   3.130
 1763SOL    HW2 6188   3.601   0.568   3.024
 1764SOL     OW 6189   2.114   1.564   3.606
 1764SOL    HW1 6190   2.084   1.621   3.682
 1764SOL    HW2 6191   2.107   1.467   3.632
 1765SOL     OW 6192   2.533   0.464   3.131
 1765SOL    HW1 6193   2.499   0.375   3.101
 1765SOL    HW2 6194   2.559   0.518   3.051
 1766SOL     OW 6195   2.792   1.678   3.327
 1766SOL    HW1 6196   2.768   1.660   3.232
 1766SOL    HW2 6197   2.822   1.772   3.337
 1767SOL     OW 6198   2.335   0.500   2.053
 1767SOL    HW1 6199   2.396   0.580   2.057
 1767SOL    HW2 6200   2.240   0.531   2.060
 1768SOL     OW 6201   2.021   1.137   3.328
 1768SOL    HW1 6202   2.043   1.076   3.404
 1768SOL    HW2 6203   2.031   1.088   3.242
 1769SOL     OW 6204   3.209   1.059   3.096
 1769SOL    HW1 6205   3.233   0.996   3.022
 1769SOL    HW2 6206   3.119   1.099   3.078
 1770SOL     OW 6207   3.164   0.855   2.171
 1770SOL    HW1 6208   3.078   0.824   2.213
 1770SOL    HW2 6209   3.160   0.841   2.072
 1771SOL     OW 6210   3.621   1.747   3.016
 1771SOL    HW1 6211   3.682   1.777   2.943
 1771SOL    HW2 6212   3.583   1.658   2.994
 1772SOL     OW 6213   1.945   1.258   2.884
 1772SOL    HW1 6214   1.940   1.257   2.984
 1772SOL    HW2 6215   1.862   1.217   2.846
 1773SOL     OW 6216   2.550   1.662   3.578
 1773SOL    HW1 6217   2.494   1.743   3.587
 1773SOL    HW2 6218   2.602   1.666   3.492
 1774SOL     OW 6219   3.588   0.135   2.385
 1774SOL    HW1 6220   3.661   0.118   2.318
 1774SOL    HW2 6221   3.557   0.048   2.423
 1775SOL     OW 6222   3.250   1.573   2.339
 1775SOL    HW1 6223   3.317   1.585   2.265
 1775SOL    HW2 6224   3.210   1.662   2.362
 1776SOL     OW 6225   1.992   1.794   3.713
 1776SOL    HW1 6226   1.951   1.720   3.766
 1776SOL    HW2 6227   2.056   1.845   3.771
 1777SOL     OW 6228   3.142   0.927   2.534
 1777SOL    HW1 6229   3.202   0.846   2.536
 1777SOL    HW2 6230   3.182   0.996   2.474
 1778SOL     OW 6231   2.692   1.273   3.284
 1778SOL    HW1 6232   2.687   1.306   3.379
 1778SOL    HW2 6233   2.606   1.292   3.238
 1779SOL     OW 6234   3.512   1.720   3.256
 1779SOL    HW1 6235   3.565   1.730   3.172
 1779SOL    HW2 6236   3.485   1.810   3.290
 1780SOL     OW 6237   3.703   0.175   2.825
 1780SOL    HW1 6238   3.742   0.090   2.789
 1780SOL    HW2 6239   3.605   0.177   2.806
 1781SOL     OW 6240   2.125   0.326   2.582
 1781SOL    HW1 6241   2.046   0.377   2.548
 1781SOL    HW2 6242   2.116   0.311   2.680
 1782SOL     OW 6243   3.056   1.612   1.893
 1782SOL    HW1 6244   3.062   1.519   1.930
 1782SOL    HW2 6245   2.997   1.612   1.813
 1783SOL     OW 6246   2.684   1.002   3.234
 1783SOL    HW1 6247   2.724   1.001   3.142
 1783SOL    HW2 6248   2.694   1.094   3.274
 1784SOL     OW 6249   3.366   1.607   1.906
 1784SOL    HW1 6250   3.274   1.644   1.913
 1784SOL    HW2 6251   3.404   1.627   1.816
 1785SOL     OW 6252   2.234   1.288   3.352
 1785SOL    HW1 6253   2.221   1.381   3.318
 1785SOL    HW2 6254   2.150   1.236   3.339
 1786SOL     OW 6255   3.476   1.292   3.151
 1786SOL    HW1 6256   3.536   1.295   3.231
 1786SOL    HW2 6257   3.401   1.356   3.164
 1787SOL     OW 6258   2.901   1.098   2.558
 1787SOL    HW1 6259   2.831   1.051   2.612
 1787SOL    HW2 6260   2.960   1.030   2.515
 1788SOL     OW 6261   2.452   1.487   2.353
 1788SOL    HW1 6262   2.494   1.429   2.283
 1788SOL    HW2 6263   2.408   1.566   2.309
 1789SOL     OW 6264   3.571   0.385   3.243
 1789SOL    HW1 6265   3.644   0.454   3.247
 1789SOL    HW2 6266   3.599   0.310   3.184
 1790SOL     OW 6267   2.117   1.348   2.152
 1790SOL    HW1 6268   2.021   1.349   2.125
 1790SOL    HW2 6269   2.129   1.401   2.236
 1791SOL     OW 6270   1.967   1.013   3.588
 1791SOL    HW1 6271   1.890   0.980   3.642
 1791SOL    HW2 6272   2.052   0.983   3.630
 1792SOL     OW 6273   2.534   0.203   3.351
 1792SOL    HW1 6274   2.624   0.187   3.311
 1792SOL    HW2 6275   2.542   0.208   3.450
 1793SOL     OW 6276   1.937   0.345   1.895
 1793SOL    HW1 6277   1.845   0.317   1.866
 1793SOL    HW2 6278   1.968   0.422   1.839
 1794SOL     OW 6279   3.302   0.856   3.260
 1794SOL    HW1 6280   3.245   0.908   3.197
 1794SOL    HW2 6281   3.398   0.868   3.236
 1795SOL     OW 6282   1.934   0.166   2.180
 1795SOL    HW1 6283   1.917   0.249   2.126
 1795SOL    HW2 6284   2.024   0.129   2.158
 1796SOL     OW 6285   2.475   0.842   3.293
 1796SOL    HW1 6286   2.531   0.923   3.276
 1796SOL    HW2 6287   2.534   0.762   3.296
 1797SOL     OW 6288   3.355   1.767   2.821
 1797SOL    HW1 6289   3.388   1.831   2.752
 1797SOL    HW2 6290   3.421   1.761   2.896
 1798SOL     OW 6291   2.578   0.565   3.570
 1798SOL    HW1 6292   2.597   0.630   3.644
 1798SOL    HW2 6293   2.638   0.485   3.579
 1799SOL     OW 6294   3.312   1.220   3.495
 1799SOL    HW1 6295   3.303   1.210   3.594
 1799SOL    HW2 6296   3.408   1.213   3.469
 1800SOL     OW 6297   2.252   1.741   3.422
 1800SOL    HW1 6298   2.161   1.782   3.420
 1800SOL    HW2 6299   2.245   1.647   3.454
 1801SOL     OW 6300   3.536   0.883   3.116
 1801SOL    HW1 6301   3.509   0.794   3.079
 1801SOL    HW2 6302   3.537   0.951   3.043
 1802SOL     OW 6303   3.087   0.325   2.311
 1802SOL    HW1 6304   3.152   0.251   2.300
 1802SOL    HW2 6305   3.107   0.375   2.395
 1803SOL     OW 6306   2.456   0.745   2.514
 1803SOL    HW1 6307   2.506   0.830   2.495
 1803SOL    HW2 6308   2.368   0.747   2.466
 1804SOL     OW 6309   3.639   0.342   3.504
 1804SOL    HW1 6310   3.622   0.373   3.410
 1804SOL    HW2 6311   3.555   0.305   3.542
 1805SOL     OW 6312   3.592   0.934   3.379
 1805SOL    HW1 6313   3.630   1.025   3.394
 1805SOL    HW2 6314   3.584   0.917   3.280
 1806SOL     OW 6315   2.523   1.790   2.815
 1806SOL    HW1 6316   2.477   1.878   2.802
 1806SOL    HW2 6317   2.622   1.802   2.808
 1807SOL     OW 6318   2.721   0.956   2.723
 1807SOL    HW1 6319   2.775   0.887   2.771
 1807SOL    HW2 6320   2.689   1.025   2.789
 1808SOL     OW 6321   2.945   0.984   1.949
 1808SOL    HW1 6322   2.922   1.037   1.867
 1808SOL    HW2 6323   3.026   0.928   1.930
 1809SOL     OW 6324   3.723   1.569   2.713
 1809SOL    HW1 6325   3.652   1.557   2.643
 1809SOL    HW2 6326   3.724   1.490   2.773
 1810SOL     OW 6327   2.083   1.314   3.706
 1810SOL    HW1 6328   2.018   1.241   3.685
 1810SOL    HW2 6329   2.087   1.328   3.804
 1811SOL     OW 6330   1.941   1.240   2.515
 1811SOL    HW1 6331   1.940   1.193   2.603
 1811SOL    HW2 6332   2.023   1.212   2.464
 1812SOL     OW 6333   2.534   1.391   3.486
 1812SOL    HW1 6334   2.456   1.341   3.524
 1812SOL    HW2 6335   2.531   1.486   3.517
 1813SOL     OW 6336   3.686   0.192   3.089
 1813SOL    HW1 6337   3.682   0.102   3.133
 1813SOL    HW2 6338   3.689   0.181   2.990
 1814SOL     OW 6339   2.290   0.424   2.382
 1814SOL    HW1 6340   2.320   0.352   2.320
 1814SOL    HW2 6341   2.251   0.384   2.465
 1815SOL     OW 6342   3.567   1.487   2.966
 1815SOL    HW1 6343   3.474   1.462   2.939
 1815SOL    HW2 6344   3.593   1.437   3.048
 1816SOL     OW 6345   2.179   0.547   3.142
 1816SOL    HW1 6346   2.217   0.488   3.214
 1816SOL    HW2 6347   2.219   0.521   3.054
 1817SOL     OW 6348   3.286   0.214   2.974
 1817SOL    HW1 6349   3.338   0.149   3.029
 1817SOL    HW2 6350   3.237   0.277   3.035
 1818SOL     OW 6351   2.480   1.567   3.146
 1818SOL    HW1 6352   2.475   1.649   3.203
 1818SOL    HW2 6353   2.569   1.564   3.101
 1819SOL     OW 6354   3.214   0.052   2.030
 1819SOL    HW1 6355   3.249   0.011   1.946
 1819SOL    HW2 6356   3.124   0.014   2.050
 1820SOL     OW 6357   3.162   0.453   2.553
 1820SOL    HW1 6358   3.103   0.533   2.557
 1820SOL    HW2 6359   3.177   0.418   2.646
 1821SOL     OW 6360   3.455   0.221   2.744
 1821SOL    HW1 6361   3.371   0.220   2.798
 1821SOL    HW2 6362   3.457   0.304   2.688
 1822SOL     OW 6363   1.901   1.077   2.162
 1822SOL    HW1 6364   2.000   1.066   2.153
 1822SOL    HW2 6365   1.861   0.991   2.194
 1823SOL     OW 6366   2.092   0.628   3.837
 1823SOL    HW1 6367   1.999   0.626   3.874
 1823SOL    HW2 6368   2.093   0.589   3.745
 1824SOL     OW 6369   2.087   0.275   4.720
 1824SOL    HW1 6370   2.122   0.258   4.812
 1824SOL    HW2 6371   1.999   0.230   4.708
 1825SOL     OW 6372   1.881   0.368   4.371
 1825SOL    HW1 6373   1.799   0.411   4.410
 1825SOL    HW2 6374   1.853   0.295   4.308
 1826SOL     OW 6375   2.431   1.275   4.889
 1826SOL    HW1 6376   2.338   1.268   4.852
 1826SOL    HW2 6377   2.442   1.364   4.933
 1827SOL     OW 6378   3.417   1.511   4.427
 1827SOL    HW1 6379   3.360   1.495   4.508
 1827SOL    HW2 6380   3.358   1.521   4.347
 1828SOL     OW 6381   2.997   0.703   4.441
 1828SOL    HW1 6382   3.054   0.781   4.416
 1828SOL    HW2 6383   2.937   0.729   4.517
 1829SOL     OW 6384   3.617   0.607   3.955
 1829SOL    HW1 6385   3.605   0.594   3.856
 1829SOL    HW2 6386   3.587   0.526   4.004
 1830SOL     OW 6387   2.630   1.144   4.747
 1830SOL    HW1 6388   2.552   1.161   4.807
 1830SOL    HW2 6389   2.664   1.231   4.711
 1831SOL     OW 6390   2.547   1.012   4.389
 1831SOL    HW1 6391   2.616   0.996   4.459
 1831SOL    HW2 6392   2.474   1.069   4.427
 1832SOL     OW 6393   2.197   1.435   4.785
 1832SOL    HW1 6394   2.119   1.404   4.732
 1832SOL    HW2 6395   2.255   1.493   4.728
 1833SOL     OW 6396   3.465   0.447   4.461
 1833SOL    HW1 6397   3.391   0.493   4.411
 1833SOL    HW2 6398   3.516   0.515   4.514
 1834SOL     OW 6399   2.102   1.091   4.610
 1834SOL    HW1 6400   2.116   1.007   4.662
 1834SOL    HW2 6401   2.047   1.155   4.665
 1835SOL     OW 6402   2.482   1.786   5.163
 1835SOL    HW1 6403   2.390   1.769   5.198
 1835SOL    HW2 6404   2.510   1.878   5.189
 1836SOL     OW 6405   2.468   0.964   3.847
 1836SOL    HW1 6406   2.475   1.048   3.793
 1836SOL    HW2 6407   2.514   0.977   3.935
 1837SOL     OW 6408   1.984   0.643   4.287
 1837SOL    HW1 6409   1.939   0.555   4.304
 1837SOL    HW2 6410   1.983   0.697   4.371
 1838SOL     OW 6411   3.704   1.767   4.083
 1838SOL    HW1 6412   3.758   1.738   4.163
 1838SOL    HW2 6413   3.734   1.857   4.054
 1839SOL     OW 6414   1.889   1.596   3.841
 1839SOL    HW1 6415   1.870   1.500   3.862
 1839SOL    HW2 6416   1.856   1.654   3.916
 1840SOL     OW 6417   3.551   0.922   4.336
 1840SOL    HW1 6418   3.646   0.893   4.344
 1840SOL    HW2 6419   3.543   0.987   4.261
 1841SOL     OW 6420   3.503   1.108   4.156
 1841SOL    HW1 6421   3.589   1.110   4.104
 1841SOL    HW2 6422   3.517   1.155   4.244
 1842SOL     OW 6423   2.475   1.365   4.450
 1842SOL    HW1 6424   2.426   1.278   4.459
 1842SOL    HW2 6425   2.452   1.408   4.363
 1843SOL     OW 6426   2.671   0.004   4.226
 1843SOL    HW1 6427   2.711   0.095   4.217
 1843SOL    HW2 6428   2.571   0.012   4.232
 1844SOL     OW 6429   2.059   0.976   4.988
 1844SOL    HW1 6430   2.148   0.931   4.974
 1844SOL    HW2 6431   1.986   0.911   4.969
 1845SOL     OW 6432   3.387   0.999   3.914
 1845SOL    HW1 6433   3.324   0.923   3.927
 1845SOL    HW2 6434   3.435   1.017   4.000
 1846SOL     OW 6435   3.328   1.417   4.677
 1846SOL    HW1 6436   3.269   1.423   4.757
 1846SOL    HW2 6437   3.313   1.329   4.631
 1847SOL     OW 6438   3.529   1.714   4.296
 1847SOL    HW1 6439   3.488   1.691   4.208
 1847SOL    HW2 6440   3.511   1.640   4.361
 1848SOL     OW 6441   2.460   0.729   3.994
 1848SOL    HW1 6442   2.484   0.798   3.926
 1848SOL    HW2 6443   2.382   0.762   4.048
 1849SOL     OW 6444   3.143   0.345   4.668
 1849SOL    HW1 6445   3.057   0.295   4.655
 1849SOL    HW2 6446   3.205   0.291   4.724
 1850SOL     OW 6447   3.438   1.662   4.031
 1850SOL    HW1 6448   3.527   1.708   4.034
 1850SOL    HW2 6449   3.417   1.638   3.936
 1851SOL     OW 6450   2.853   0.410   4.966
 1851SOL    HW1 6451   2.776   0.444   5.020
 1851SOL    HW2 6452   2.819   0.359   4.887
 1852SOL     OW 6453   2.903   0.701   4.153
 1852SOL    HW1 6454   2.929   0.697   4.249
 1852SOL    HW2 6455   2.818   0.650   4.139
 1853SOL     OW 6456   1.938   0.811   4.513
 1853SOL    HW1 6457   2.037   0.799   4.522
 1853SOL    HW2 6458   1.914   0.906   4.534
 1854SOL     OW 6459   2.727   0.348   3.919
 1854SOL    HW1 6460   2.786   0.411   3.870
 1854SOL    HW2 6461   2.746   0.254   3.890
 1855SOL     OW 6462   3.224   1.144   4.269
 1855SOL    HW1 6463   3.307   1.115   4.221
 1855SOL    HW2 6464   3.175   1.211   4.213
 1856SOL     OW 6465   2.412   0.196   4.609
 1856SOL    HW1 6466   2.407   0.191   4.709
 1856SOL    HW2 6467   2.414   0.292   4.580
 1857SOL     OW 6468   2.870   1.456   4.201
 1857SOL    HW1 6469   2.824   1.528   4.149
 1857SOL    HW2 6470   2.866   1.476   4.299
 1858SOL     OW 6471   3.657   1.066   4.597
 1858SOL    HW1 6472   3.595   1.051   4.521
 1858SOL    HW2 6473   3.605   1.077   4.682
 1859SOL     OW 6474   2.183   0.943   3.966
 1859SOL    HW1 6475   2.265   0.982   3.924
 1859SOL    HW2 6476   2.156   0.861   3.917
 1860SOL     OW 6477   3.320   0.735   4.452
 1860SOL    HW1 6478   3.315   0.670   4.527
 1860SOL    HW2 6479   3.400   0.794   4.465
 1861SOL     OW 6480   2.973   1.776   3.961
 1861SOL    HW1 6481   2.913   1.714   4.011
 1861SOL    HW2 6482   3.004   1.732   3.876
 1862SOL     OW 6483   3.494   1.377   3.805
 1862SOL    HW1 6484   3.462   1.471   3.795
 1862SOL    HW2 6485   3.418   1.314   3.793
 1863SOL     OW 6486   2.326   1.743   4.047
 1863SOL    HW1 6487   2.359   1.782   4.133
 1863SOL    HW2 6488   2.402   1.736   3.982
 1864SOL     OW 6489   3.262   0.107   4.150
 1864SOL    HW1 6490   3.238   0.070   4.060
 1864SOL    HW2 6491   3.361   0.123   4.154
 1865SOL     OW 6492   2.111   1.785   4.965
 1865SOL    HW1 6493   2.168   1.720   5.015
 1865SOL    HW2 6494   2.095   1.752   4.872
 1866SOL     OW 6495   2.802   1.698   4.628
 1866SOL    HW1 6496   2.882   1.641   4.649
 1866SOL    HW2 6497   2.753   1.658   4.551
 1867SOL     OW 6498   2.244   0.700   4.204
 1867SOL    HW1 6499   2.289   0.610   4.201
 1867SOL    HW2 6500   2.150   0.689   4.237
 1868SOL     OW 6501   2.476   0.122   3.841
 1868SOL    HW1 6502   2.574   0.100   3.848
 1868SOL    HW2 6503   2.445   0.105   3.748
 1869SOL     OW 6504   2.665   1.402   4.648
 1869SOL    HW1 6505   2.755   1.416   4.606
 1869SOL    HW2 6506   2.594   1.404   4.577
 1870SOL     OW 6507   2.784   0.503   4.623
 1870SOL    HW1 6508   2.759   0.494   4.527
 1870SOL    HW2 6509   2.832   0.421   4.654
 1871SOL     OW 6510   2.401   0.064   4.236
 1871SOL    HW1 6511   2.320   0.065   4.294
 1871SOL    HW2 6512   2.404   0.147   4.181
 1872SOL     OW 6513   3.296   1.188   3.765
 1872SOL    HW1 6514   3.328   1.112   3.822
 1872SOL    HW2 6515   3.204   1.215   3.795
 1873SOL     OW 6516   2.159   0.035   3.895
 1873SOL    HW1 6517   2.208   0.119   3.874
 1873SOL    HW2 6518   2.221  -0.030   3.940
 1874SOL     OW 6519   2.797   0.236   4.204
 1874SOL    HW1 6520   2.749   0.277   4.126
 1874SOL    HW2 6521   2.896   0.234   4.185
 1875SOL     OW 6522   3.089   1.570   4.517
 1875SOL    HW1 6523   3.110   1.644   4.452
 1875SOL    HW2 6524   3.157   1.570   4.590
 1876SOL     OW 6525   2.321   1.152   4.465
 1876SOL    HW1 6526   2.250   1.125   4.530
 1876SOL    HW2 6527   2.295   1.124   4.372
 1877SOL     OW 6528   3.133   1.797   4.315
 1877SOL    HW1 6529   3.177   1.861   4.251
 1877SOL    HW2 6530   3.083   1.849   4.385
 1878SOL     OW 6531   2.894   0.549   3.740
 1878SOL    HW1 6532   2.853   0.631   3.701
 1878SOL    HW2 6533   2.958   0.575   3.813
 1879SOL     OW 6534   2.423   0.222   4.871
 1879SOL    HW1 6535   2.461   0.138   4.908
 1879SOL    HW2 6536   2.335   0.241   4.915
 1880SOL     OW 6537   2.728   0.454   4.366
 1880SOL    HW1 6538   2.696   0.526   4.304
 1880SOL    HW2 6539   2.752   0.373   4.313
 1881SOL     OW 6540   2.879   0.039   4.477
 1881SOL    HW1 6541   2.807   0.044   4.408
 1881SOL    HW2 6542   2.855  -0.030   4.546
 1882SOL     OW 6543   3.291   1.173   4.591
 1882SOL    HW1 6544   3.236   1.089   4.584
 1882SOL    HW2 6545   3.317   1.202   4.499
 1883SOL     OW 6546   3.328   0.590   4.716
 1883SOL    HW1 6547   3.298   0.495   4.723
 1883SOL    HW2 6548   3.401   0.606   4.782
 1884SOL     OW 6549   3.719   0.833   4.101
 1884SOL    HW1 6550   3.761   0.769   4.165
 1884SOL    HW2 6551   3.681   0.782   4.023
 1885SOL     OW 6552   2.350   1.385   3.898
 1885SOL    HW1 6553   2.263   1.370   3.945
 1885SOL    HW2 6554   2.333   1.411   3.803
 1886SOL     OW 6555   3.526   1.280   4.381
 1886SOL    HW1 6556   3.625   1.288   4.395
 1886SOL    HW2 6557   3.481   1.364   4.412
 1887SOL     OW 6558   3.252   0.575   3.802
 1887SOL    HW1 6559   3.198   0.554   3.883
 1887SOL    HW2 6560   3.343   0.534   3.811
 1888SOL     OW 6561   2.389   0.256   4.052
 1888SOL    HW1 6562   2.416   0.197   3.977
 1888SOL    HW2 6563   2.389   0.351   4.021
 1889SOL     OW 6564   2.973   1.195   4.824
 1889SOL    HW1 6565   2.933   1.239   4.905
 1889SOL    HW2 6566   2.932   1.232   4.741
 1890SOL     OW 6567   3.500   1.099   4.803
 1890SOL    HW1 6568   3.505   1.180   4.862
 1890SOL    HW2 6569   3.414   1.101   4.752
 1891SOL     OW 6570   2.567   1.050   4.092
 1891SOL    HW1 6571   2.553   1.057   4.191
 1891SOL    HW2 6572   2.651   0.999   4.074
 1892SOL     OW 6573   2.272   0.813   4.975
 1892SOL    HW1 6574   2.358   0.825   5.025
 1892SOL    HW2 6575   2.230   0.726   5.002
 1893SOL     OW 6576   3.136   0.386   4.986
 1893SOL    HW1 6577   3.157   0.460   5.050
 1893SOL    HW2 6578   3.047   0.403   4.943
 1894SOL     OW 6579   2.229   1.100   4.225
 1894SOL    HW1 6580   2.222   1.183   4.169
 1894SOL    HW2 6581   2.233   1.020   4.165
 1895SOL     OW 6582   2.428   0.537   4.589
 1895SOL    HW1 6583   2.440   0.603   4.515
 1895SOL    HW2 6584   2.474   0.571   4.672
 1896SOL     OW 6585   3.114   1.348   4.112
 1896SOL    HW1 6586   3.164   1.425   4.152
 1896SOL    HW2 6587   3.019   1.350   4.144
 1897SOL     OW 6588   3.134   1.445   4.866
 1897SOL    HW1 6589   3.181   1.458   4.953
 1897SOL    HW2 6590   3.068   1.371   4.875
 1898SOL     OW 6591   3.444   0.639   4.196
 1898SOL    HW1 6592   3.413   0.700   4.269
 1898SOL    HW2 6593   3.494   0.691   4.127
 1899SOL     OW 6594   2.216   1.510   5.053
 1899SOL    HW1 6595   2.195   1.466   4.966
 1899SOL    HW2 6596   2.313   1.536   5.056
 1900SOL     OW 6597   2.435   0.870   4.753
 1900SOL    HW1 6598   2.479   0.959   4.744
 1900SOL    HW2 6599   2.372   0.870   4.830
 1901SOL     OW 6600   3.222   0.862   4.769
 1901SOL    HW1 6601   3.147   0.862   4.703
 1901SOL    HW2 6602   3.259   0.770   4.778
 1902SOL     OW 6603   3.071   0.525   3.999
 1902SOL    HW1 6604   3.084   0.441   4.053
 1902SOL    HW2 6605   3.042   0.599   4.059
 1903SOL     OW 6606   2.169   0.213   4.955
 1903SOL    HW1 6607   2.146   0.250   5.045
 1903SOL    HW2 6608   2.139   0.118   4.949
 1904SOL     OW 6609   1.899   1.310   5.006
 1904SOL    HW1 6610   1.952   1.261   5.074
 1904SOL    HW2 6611   1.921   1.408   5.011
 1905SOL     OW 6612   2.594   0.634   4.788
 1905SOL    HW1 6613   2.653   0.608   4.712
 1905SOL    HW2 6614   2.566   0.730   4.777
 1906SOL     OW 6615   2.169   0.063   4.342
 1906SOL    HW1 6616   2.158   0.157   4.375
 1906SOL    HW2 6617   2.164   0.000   4.419
 1907SOL     OW 6618   3.484   0.367   4.098
 1907SOL    HW1 6619   3.486   0.291   4.162
 1907SOL    HW2 6620   3.436   0.444   4.138
 1908SOL     OW 6621   2.885   0.766   4.690
 1908SOL    HW1 6622   2.900   0.787   4.786
 1908SOL    HW2 6623   2.855   0.671   4.681
 1909SOL     OW 6624   3.402   0.274   3.849
 1909SOL    HW1 6625   3.341   0.199   3.872
 1909SOL    HW2 6626   3.424   0.326   3.932
 1910SOL     OW 6627   3.165   0.838   3.766
 1910SOL    HW1 6628   3.199   0.745   3.781
 1910SOL    HW2 6629   3.183   0.865   3.671
 1911SOL     OW 6630   2.930   1.333   4.573
 1911SOL    HW1 6631   2.937   1.249   4.518
 1911SOL    HW2 6632   2.992   1.402   4.537
 1912SOL     OW 6633   2.181   0.810   4.673
 1912SOL    HW1 6634   2.274   0.846   4.678
 1912SOL    HW2 6635   2.175   0.725   4.725
 1913SOL     OW 6636   2.201   0.509   4.730
 1913SOL    HW1 6637   2.149   0.426   4.713
 1913SOL    HW2 6638   2.278   0.514   4.666
 1914SOL     OW 6639   3.022   0.207   5.201
 1914SOL    HW1 6640   3.022   0.271   5.278
 1914SOL    HW2 6641   3.050   0.255   5.118
 1915SOL     OW 6642   1.870   1.326   3.924
 1915SOL    HW1 6643   1.777   1.347   3.893
 1915SOL    HW2 6644   1.880   1.227   3.937
 1916SOL     OW 6645   2.366   1.568   4.634
 1916SOL    HW1 6646   2.432   1.642   4.643
 1916SOL    HW2 6647   2.410   1.489   4.592
 1917SOL     OW 6648   2.864   0.796   4.962
 1917SOL    HW1 6649   2.905   0.764   5.048
 1917SOL    HW2 6650   2.768   0.769   4.959
 1918SOL     OW 6651   1.902   0.544   4.838
 1918SOL    HW1 6652   1.987   0.511   4.797
 1918SOL    HW2 6653   1.915   0.559   4.936
 1919SOL     OW 6654   2.677   0.572   4.049
 1919SOL    HW1 6655   2.684   0.483   4.003
 1919SOL    HW2 6656   2.583   0.606   4.041
 1920SOL     OW 6657   3.519   0.604   4.930
 1920SOL    HW1 6658   3.481   0.535   4.992
 1920SOL    HW2 6659   3.601   0.568   4.886
 1921SOL     OW 6660   2.533   0.464   4.993
 1921SOL    HW1 6661   2.499   0.375   4.963
 1921SOL    HW2 6662   2.559   0.518   4.913
 1922SOL     OW 6663   2.792   1.678   5.189
 1922SOL    HW1 6664   2.768   1.660   5.094
 1922SOL    HW2 6665   2.822   1.772   5.199
 1923SOL     OW 6666   2.335   0.500   3.915
 1923SOL    HW1 6667   2.396   0.580   3.919
 1923SOL    HW2 6668   2.240   0.531   3.922
 1924SOL     OW 6669   3.209   1.059   4.958
 1924SOL    HW1 6670   3.233   0.996   4.884
 1924SOL    HW2 6671   3.119   1.099   4.940
 1925SOL     OW 6672   3.164   0.855   4.033
 1925SOL    HW1 6673   3.078   0.824   4.075
 1925SOL    HW2 6674   3.160   0.841   3.934
 1926SOL     OW 6675   3.621   1.747   4.878
 1926SOL    HW1 6676   3.682   1.777   4.805
 1926SOL    HW2 6677   3.583   1.658   4.856
 1927SOL     OW 6678   3.114   1.731   4.852
 1927SOL    HW1 6679   3.198   1.736   4.798
 1927SOL    HW2 6680   3.091   1.635   4.870
 1928SOL     OW 6681   1.945   1.258   4.746
 1928SOL    HW1 6682   1.940   1.257   4.846
 1928SOL    HW2 6683   1.862   1.217   4.708
 1929SOL     OW 6684   3.588   0.135   4.247
 1929SOL    HW1 6685   3.661   0.118   4.180
 1929SOL    HW2 6686   3.557   0.048   4.285
 1930SOL     OW 6687   3.250   1.573   4.201
 1930SOL    HW1 6688   3.317   1.585   4.127
 1930SOL    HW2 6689   3.210   1.662   4.224
 1931SOL     OW 6690   3.142   0.927   4.396
 1931SOL    HW1 6691   3.202   0.846   4.398
 1931SOL    HW2 6692   3.182   0.996   4.336
 1932SOL     OW 6693   2.534   1.616   3.878
 1932SOL    HW1 6694   2.543   1.626   3.779
 1932SOL    HW2 6695   2.494   1.527   3.899
 1933SOL     OW 6696   3.512   1.720   5.118
 1933SOL    HW1 6697   3.565   1.730   5.034
 1933SOL    HW2 6698   3.485   1.810   5.152
 1934SOL     OW 6699   3.703   0.175   4.687
 1934SOL    HW1 6700   3.742   0.090   4.651
 1934SOL    HW2 6701   3.605   0.177   4.668
 1935SOL     OW 6702   2.125   0.326   4.444
 1935SOL    HW1 6703   2.046   0.377   4.410
 1935SOL    HW2 6704   2.116   0.311   4.542
 1936SOL     OW 6705   3.056   1.612   3.755
 1936SOL    HW1 6706   3.062   1.519   3.792
 1936SOL    HW2 6707   2.997   1.612   3.675
 1937SOL     OW 6708   2.684   1.002   5.096
 1937SOL    HW1 6709   2.724   1.001   5.004
 1937SOL    HW2 6710   2.694   1.094   5.136
 1938SOL     OW 6711   2.778   0.910   4.015
 1938SOL    HW1 6712   2.841   0.948   3.947
 1938SOL    HW2 6713   2.818   0.827   4.054
 1939SOL     OW 6714   3.366   1.607   3.768
 1939SOL    HW1 6715   3.274   1.644   3.775
 1939SOL    HW2 6716   3.404   1.627   3.678
 1940SOL     OW 6717   2.901   1.098   4.420
 1940SOL    HW1 6718   2.831   1.051   4.474
 1940SOL    HW2 6719   2.960   1.030   4.377
 1941SOL     OW 6720   2.876   0.236   4.695
 1941SOL    HW1 6721   2.868   0.200   4.602
 1941SOL    HW2 6722   2.874   0.160   4.760
 1942SOL     OW 6723   2.452   1.487   4.215
 1942SOL    HW1 6724   2.494   1.429   4.145
 1942SOL    HW2 6725   2.408   1.566   4.171
 1943SOL     OW 6726   3.571   0.385   5.105
 1943SOL    HW1 6727   3.644   0.454   5.109
 1943SOL    HW2 6728   3.599   0.310   5.046
 1944SOL     OW 6729   1.937   0.345   3.757
 1944SOL    HW1 6730   1.845   0.317   3.728
 1944SOL    HW2 6731   1.968   0.422   3.701
 1945SOL     OW 6732   1.934   0.166   4.042
 1945SOL    HW1 6733   1.917   0.249   3.988
 1945SOL    HW2 6734   2.024   0.129   4.020
 1946SOL     OW 6735   3.045   1.335   3.843
 1946SOL    HW1 6736   2.946   1.324   3.845
 1946SOL    HW2 6737   3.079   1.350   3.936
 1947SOL     OW 6738   3.355   1.767   4.683
 1947SOL    HW1 6739   3.388   1.831   4.614
 1947SOL    HW2 6740   3.421   1.761   4.758
 1948SOL     OW 6741   3.312   1.220   5.357
 1948SOL    HW1 6742   3.303   1.210   5.456
 1948SOL    HW2 6743   3.408   1.213   5.331
 1949SOL     OW 6744   3.536   0.883   4.978
 1949SOL    HW1 6745   3.509   0.794   4.941
 1949SOL    HW2 6746   3.537   0.951   4.905
 1950SOL     OW 6747   3.087   0.325   4.173
 1950SOL    HW1 6748   3.152   0.251   4.162
 1950SOL    HW2 6749   3.107   0.375   4.257
 1951SOL     OW 6750   2.456   0.745   4.376
 1951SOL    HW1 6751   2.506   0.830   4.357
 1951SOL    HW2 6752   2.368   0.747   4.328
 1952SOL     OW 6753   3.592   0.934   5.241
 1952SOL    HW1 6754   3.630   1.025   5.256
 1952SOL    HW2 6755   3.584   0.917   5.142
 1953SOL     OW 6756   2.721   1.374   3.740
 1953SOL    HW1 6757   2.675   1.389   3.828
 1953SOL    HW2 6758   2.765   1.459   3.710
 1954SOL     OW 6759   2.523   1.790   4.677
 1954SOL    HW1 6760   2.477   1.878   4.664
 1954SOL    HW2 6761   2.622   1.802   4.670
 1955SOL     OW 6762   2.721   0.956   4.585
 1955SOL    HW1 6763   2.775   0.887   4.633
 1955SOL    HW2 6764   2.689   1.025   4.651
 1956SOL     OW 6765   2.945   0.984   3.811
 1956SOL    HW1 6766   2.922   1.037   3.729
 1956SOL    HW2 6767   3.026   0.928   3.792
 1957SOL     OW 6768   3.723   1.569   4.575
 1957SOL    HW1 6769   3.652   1.557   4.505
 1957SOL    HW2 6770   3.724   1.490   4.635
 1958SOL     OW 6771   1.941   1.240   4.377
 1958SOL    HW1 6772   1.940   1.193   4.465
 1958SOL    HW2 6773   2.023   1.212   4.326
 1959SOL     OW 6774   3.686   0.192   4.951
 1959SOL    HW1 6775   3.682   0.102   4.995
 1959SOL    HW2 6776   3.689   0.181   4.852
 1960SOL     OW 6777   2.290   0.424   4.244
 1960SOL    HW1 6778   2.320   0.352   4.182
 1960SOL    HW2 6779   2.251   0.384   4.327
 1961SOL     OW 6780   3.567   1.487   4.828
 1961SOL    HW1 6781   3.474   1.462   4.801
 1961SOL    HW2 6782   3.593   1.437   4.910
 1962SOL     OW 6783   2.674   1.586   4.411
 1962SOL    HW1 6784   2.706   1.596   4.317
 1962SOL    HW2 6785   2.595   1.524   4.413
 1963SOL     OW 6786   3.286   0.214   4.836
 1963SOL    HW1 6787   3.338   0.149   4.891
 1963SOL    HW2 6788   3.237   0.277   4.897
 1964SOL     OW 6789   2.863   0.034   4.878
 1964SOL    HW1 6790   2.800  -0.038   4.847
 1964SOL    HW2 6791   2.956  -0.002   4.878
 1965SOL     OW 6792   2.632   1.330   4.025
 1965SOL    HW1 6793   2.586   1.243   4.042
 1965SOL    HW2 6794   2.723   1.327   4.066
 1966SOL     OW 6795   3.214   0.052   3.892
 1966SOL    HW1 6796   3.249   0.011   3.808
 1966SOL    HW2 6797   3.124   0.014   3.912
 1967SOL     OW 6798   3.162   0.453   4.415
 1967SOL    HW1 6799   3.103   0.533   4.419
 1967SOL    HW2 6800   3.177   0.418   4.508
 1968SOL     OW 6801   3.455   0.221   4.606
 1968SOL    HW1 6802   3.371   0.220   4.660
 1968SOL    HW2 6803   3.457   0.304   4.550
 1969SOL     OW 6804   1.901   1.077   4.024
 1969SOL    HW1 6805   2.000   1.066   4.015
 1969SOL    HW2 6806   1.861   0.991   4.056
 1970SOL     OW 6807   2.737   1.646   4.061
 1970SOL    HW1 6808   2.660   1.611   4.007
 1970SOL    HW2 6809   2.705   1.717   4.123
 1971SOL     OW 6810   2.092   2.490   0.113
 1971SOL    HW1 6811   1.999   2.488   0.150
 1971SOL    HW2 6812   2.093   2.451   0.021
 1972SOL     OW 6813   2.087   2.137   0.996
 1972SOL    HW1 6814   2.122   2.120   1.088
 1972SOL    HW2 6815   1.999   2.092   0.984
 1973SOL     OW 6816   1.881   2.230   0.647
 1973SOL    HW1 6817   1.799   2.273   0.686
 1973SOL    HW2 6818   1.853   2.157   0.584
 1974SOL     OW 6819   2.431   3.137   1.165
 1974SOL    HW1 6820   2.338   3.130   1.128
 1974SOL    HW2 6821   2.442   3.226   1.209
 1975SOL     OW 6822   3.417   3.373   0.703
 1975SOL    HW1 6823   3.360   3.357   0.784
 1975SOL    HW2 6824   3.358   3.383   0.623
 1976SOL     OW 6825   2.997   2.565   0.717
 1976SOL    HW1 6826   3.054   2.643   0.692
 1976SOL    HW2 6827   2.937   2.591   0.793
 1977SOL     OW 6828   3.617   2.469   0.231
 1977SOL    HW1 6829   3.605   2.456   0.132
 1977SOL    HW2 6830   3.587   2.388   0.280
 1978SOL     OW 6831   2.630   3.006   1.023
 1978SOL    HW1 6832   2.552   3.023   1.083
 1978SOL    HW2 6833   2.664   3.093   0.987
 1979SOL     OW 6834   2.712   2.660   1.823
 1979SOL    HW1 6835   2.708   2.736   1.888
 1979SOL    HW2 6836   2.734   2.696   1.732
 1980SOL     OW 6837   2.547   2.874   0.665
 1980SOL    HW1 6838   2.616   2.858   0.735
 1980SOL    HW2 6839   2.474   2.931   0.703
 1981SOL     OW 6840   2.548   3.023   1.803
 1981SOL    HW1 6841   2.608   3.102   1.817
 1981SOL    HW2 6842   2.462   3.054   1.762
 1982SOL     OW 6843   3.322   3.367   1.339
 1982SOL    HW1 6844   3.346   3.461   1.365
 1982SOL    HW2 6845   3.306   3.313   1.421
 1983SOL     OW 6846   2.300   2.254   1.499
 1983SOL    HW1 6847   2.382   2.198   1.508
 1983SOL    HW2 6848   2.219   2.196   1.503
 1984SOL     OW 6849   3.465   2.309   0.737
 1984SOL    HW1 6850   3.391   2.355   0.687
 1984SOL    HW2 6851   3.516   2.377   0.790
 1985SOL     OW 6852   2.093   3.575   0.483
 1985SOL    HW1 6853   2.127   3.652   0.537
 1985SOL    HW2 6854   2.137   3.575   0.393
 1986SOL     OW 6855   2.989   3.203   1.690
 1986SOL    HW1 6856   3.036   3.203   1.778
 1986SOL    HW2 6857   2.941   3.116   1.679
 1987SOL     OW 6858   2.092   3.296   0.538
 1987SOL    HW1 6859   2.066   3.392   0.538
 1987SOL    HW2 6860   2.021   3.242   0.583
 1988SOL     OW 6861   2.482   3.648   1.439
 1988SOL    HW1 6862   2.390   3.631   1.474
 1988SOL    HW2 6863   2.510   3.740   1.465
 1989SOL     OW 6864   2.468   2.826   0.123
 1989SOL    HW1 6865   2.475   2.910   0.069
 1989SOL    HW2 6866   2.514   2.839   0.211
 1990SOL     OW 6867   3.456   1.976   1.480
 1990SOL    HW1 6868   3.438   2.043   1.408
 1990SOL    HW2 6869   3.453   2.022   1.569
 1991SOL     OW 6870   1.984   2.505   0.563
 1991SOL    HW1 6871   1.939   2.417   0.580
 1991SOL    HW2 6872   1.983   2.559   0.647
 1992SOL     OW 6873   3.704   3.629   0.359
 1992SOL    HW1 6874   3.758   3.600   0.439
 1992SOL    HW2 6875   3.734   3.719   0.330
 1993SOL     OW 6876   3.551   2.784   0.612
 1993SOL    HW1 6877   3.646   2.755   0.620
 1993SOL    HW2 6878   3.543   2.849   0.537
 1994SOL     OW 6879   3.503   2.970   0.432
 1994SOL    HW1 6880   3.589   2.972   0.380
 1994SOL    HW2 6881   3.517   3.017   0.520
 1995SOL     OW 6882   1.975   2.599   1.597
 1995SOL    HW1 6883   2.063   2.586   1.642
 1995SOL    HW2 6884   1.962   2.696   1.575
 1996SOL     OW 6885   2.475   3.227   0.726
 1996SOL    HW1 6886   2.426   3.140   0.735
 1996SOL    HW2 6887   2.452   3.270   0.639
 1997SOL     OW 6888   3.155   3.090   1.423
 1997SOL    HW1 6889   3.192   3.017   1.365
 1997SOL    HW2 6890   3.207   3.095   1.508
 1998SOL     OW 6891   2.671   1.866   0.502
 1998SOL    HW1 6892   2.711   1.957   0.493
 1998SOL    HW2 6893   2.571   1.874   0.508
 1999SOL     OW 6894   2.059   2.838   1.264
 1999SOL    HW1 6895   2.148   2.793   1.250
 1999SOL    HW2 6896   1.986   2.773   1.245
 2000SOL     OW 6897   3.387   2.861   0.190
 2000SOL    HW1 6898   3.324   2.785   0.203
 2000SOL    HW2 6899   3.435   2.879   0.276
 2001SOL     OW 6900   3.049   3.654   1.616
 2001SOL    HW1 6901   3.073   3.714   1.540
 2001SOL    HW2 6902   3.056   3.559   1.586
 2002SOL     OW 6903   2.179   2.113   1.801
 2002SOL    HW1 6904   2.250   2.184   1.807
 2002SOL    HW2 6905   2.091   2.152   1.829
 2003SOL     OW 6906   3.328   3.279   0.953
 2003SOL    HW1 6907   3.269   3.285   1.033
 2003SOL    HW2 6908   3.313   3.191   0.907
 2004SOL     OW 6909   3.529   3.576   0.572
 2004SOL    HW1 6910   3.488   3.553   0.484
 2004SOL    HW2 6911   3.511   3.502   0.637
 2005SOL     OW 6912   2.460   2.591   0.270
 2005SOL    HW1 6913   2.484   2.660   0.202
 2005SOL    HW2 6914   2.382   2.624   0.324
 2006SOL     OW 6915   3.143   2.207   0.944
 2006SOL    HW1 6916   3.057   2.157   0.931
 2006SOL    HW2 6917   3.205   2.153   1.000
 2007SOL     OW 6918   3.438   3.524   0.307
 2007SOL    HW1 6919   3.527   3.570   0.310
 2007SOL    HW2 6920   3.417   3.500   0.212
 2008SOL     OW 6921   2.669   2.467   1.465
 2008SOL    HW1 6922   2.622   2.464   1.554
 2008SOL    HW2 6923   2.618   2.412   1.399
 2009SOL     OW 6924   3.256   2.331   1.674
 2009SOL    HW1 6925   3.236   2.374   1.762
 2009SOL    HW2 6926   3.334   2.269   1.683
 2010SOL     OW 6927   2.835   2.752   1.572
 2010SOL    HW1 6928   2.881   2.668   1.543
 2010SOL    HW2 6929   2.779   2.786   1.497
 2011SOL     OW 6930   2.853   2.272   1.242
 2011SOL    HW1 6931   2.776   2.306   1.296
 2011SOL    HW2 6932   2.819   2.221   1.163
 2012SOL     OW 6933   2.903   2.563   0.429
 2012SOL    HW1 6934   2.929   2.559   0.525
 2012SOL    HW2 6935   2.818   2.512   0.415
 2013SOL     OW 6936   1.938   2.673   0.789
 2013SOL    HW1 6937   2.037   2.661   0.798
 2013SOL    HW2 6938   1.914   2.768   0.810
 2014SOL     OW 6939   1.992   3.683   1.571
 2014SOL    HW1 6940   1.982   3.668   1.670
 2014SOL    HW2 6941   1.906   3.719   1.535
 2015SOL     OW 6942   2.727   2.210   0.195
 2015SOL    HW1 6943   2.786   2.273   0.146
 2015SOL    HW2 6944   2.746   2.116   0.166
 2016SOL     OW 6945   3.581   2.447   1.831
 2016SOL    HW1 6946   3.555   2.536   1.795
 2016SOL    HW2 6947   3.579   2.379   1.758
 2017SOL     OW 6948   3.224   3.006   0.545
 2017SOL    HW1 6949   3.307   2.977   0.497
 2017SOL    HW2 6950   3.175   3.073   0.489
 2018SOL     OW 6951   2.412   2.058   0.885
 2018SOL    HW1 6952   2.407   2.053   0.985
 2018SOL    HW2 6953   2.414   2.154   0.856
 2019SOL     OW 6954   2.870   3.318   0.477
 2019SOL    HW1 6955   2.824   3.390   0.425
 2019SOL    HW2 6956   2.866   3.338   0.575
 2020SOL     OW 6957   2.213   3.663   0.853
 2020SOL    HW1 6958   2.263   3.577   0.859
 2020SOL    HW2 6959   2.278   3.740   0.850
 2021SOL     OW 6960   3.657   2.928   0.873
 2021SOL    HW1 6961   3.595   2.913   0.797
 2021SOL    HW2 6962   3.605   2.939   0.958
 2022SOL     OW 6963   3.089   3.412   1.506
 2022SOL    HW1 6964   3.095   3.335   1.570
 2022SOL    HW2 6965   3.037   3.386   1.426
 2023SOL     OW 6966   2.183   2.805   0.242
 2023SOL    HW1 6967   2.265   2.844   0.200
 2023SOL    HW2 6968   2.156   2.723   0.193
 2024SOL     OW 6969   3.320   2.597   0.728
 2024SOL    HW1 6970   3.315   2.532   0.803
 2024SOL    HW2 6971   3.400   2.656   0.741
 2025SOL     OW 6972   2.323   3.128   1.727
 2025SOL    HW1 6973   2.273   3.129   1.641
 2025SOL    HW2 6974   2.260   3.110   1.803
 2026SOL     OW 6975   2.973   3.638   0.237
 2026SOL    HW1 6976   2.913   3.576   0.287
 2026SOL    HW2 6977   3.004   3.594   0.152
 2027SOL     OW 6978   2.064   2.147   1.498
 2027SOL    HW1 6979   1.984   2.207   1.485
 2027SOL    HW2 6980   2.054   2.098   1.584
 2028SOL     OW 6981   3.494   3.239   0.081
 2028SOL    HW1 6982   3.462   3.333   0.071
 2028SOL    HW2 6983   3.418   3.176   0.069
 2029SOL     OW 6984   2.326   3.605   0.323
 2029SOL    HW1 6985   2.359   3.644   0.409
 2029SOL    HW2 6986   2.402   3.598   0.258
 2030SOL     OW 6987   3.262   1.969   0.426
 2030SOL    HW1 6988   3.238   1.932   0.336
 2030SOL    HW2 6989   3.361   1.985   0.430
 2031SOL     OW 6990   2.111   3.647   1.241
 2031SOL    HW1 6991   2.168   3.582   1.291
 2031SOL    HW2 6992   2.095   3.614   1.148
 2032SOL     OW 6993   2.802   3.560   0.904
 2032SOL    HW1 6994   2.882   3.503   0.925
 2032SOL    HW2 6995   2.753   3.520   0.827
 2033SOL     OW 6996   2.244   2.562   0.480
 2033SOL    HW1 6997   2.289   2.472   0.477
 2033SOL    HW2 6998   2.150   2.551   0.513
 2034SOL     OW 6999   3.409   2.084   1.729
 2034SOL    HW1 7000   3.404   2.121   1.821
 2034SOL    HW2 7001   3.337   2.015   1.717
 2035SOL     OW 7002   2.643   2.126   1.749
 2035SOL    HW1 7003   2.710   2.065   1.792
 2035SOL    HW2 7004   2.570   2.145   1.814
 2036SOL     OW 7005   2.750   3.376   1.195
 2036SOL    HW1 7006   2.727   3.351   1.101
 2036SOL    HW2 7007   2.811   3.307   1.234
 2037SOL     OW 7008   3.213   2.452   1.433
 2037SOL    HW1 7009   3.241   2.409   1.518
 2037SOL    HW2 7010   3.238   2.548   1.434
 2038SOL     OW 7011   2.665   3.264   0.924
 2038SOL    HW1 7012   2.755   3.278   0.882
 2038SOL    HW2 7013   2.594   3.266   0.853
 2039SOL     OW 7014   2.784   2.365   0.899
 2039SOL    HW1 7015   2.759   2.356   0.803
 2039SOL    HW2 7016   2.832   2.283   0.930
 2040SOL     OW 7017   2.401   1.926   0.512
 2040SOL    HW1 7018   2.320   1.927   0.570
 2040SOL    HW2 7019   2.404   2.009   0.457
 2041SOL     OW 7020   3.296   3.050   0.041
 2041SOL    HW1 7021   3.328   2.974   0.098
 2041SOL    HW2 7022   3.204   3.077   0.071
 2042SOL     OW 7023   2.159   1.897   0.171
 2042SOL    HW1 7024   2.208   1.981   0.150
 2042SOL    HW2 7025   2.221   1.832   0.216
 2043SOL     OW 7026   2.797   2.098   0.480
 2043SOL    HW1 7027   2.749   2.139   0.402
 2043SOL    HW2 7028   2.896   2.096   0.461
 2044SOL     OW 7029   2.938   2.545   1.464
 2044SOL    HW1 7030   2.858   2.484   1.467
 2044SOL    HW2 7031   3.019   2.492   1.440
 2045SOL     OW 7032   3.089   3.432   0.793
 2045SOL    HW1 7033   3.110   3.506   0.728
 2045SOL    HW2 7034   3.157   3.432   0.866
 2046SOL     OW 7035   2.321   3.014   0.741
 2046SOL    HW1 7036   2.250   2.987   0.806
 2046SOL    HW2 7037   2.295   2.986   0.648
 2047SOL     OW 7038   3.133   3.659   0.591
 2047SOL    HW1 7039   3.177   3.723   0.527
 2047SOL    HW2 7040   3.083   3.711   0.661
 2048SOL     OW 7041   2.894   2.411   0.016
 2048SOL    HW1 7042   2.853   2.493  -0.023
 2048SOL    HW2 7043   2.958   2.437   0.089
 2049SOL     OW 7044   1.940   2.418   1.386
 2049SOL    HW1 7045   2.032   2.417   1.345
 2049SOL    HW2 7046   1.934   2.492   1.453
 2050SOL     OW 7047   2.423   2.084   1.147
 2050SOL    HW1 7048   2.461   2.000   1.184
 2050SOL    HW2 7049   2.335   2.103   1.191
 2051SOL     OW 7050   2.728   2.316   0.642
 2051SOL    HW1 7051   2.696   2.388   0.580
 2051SOL    HW2 7052   2.752   2.235   0.589
 2052SOL     OW 7053   2.879   1.901   0.753
 2052SOL    HW1 7054   2.807   1.906   0.684
 2052SOL    HW2 7055   2.855   1.832   0.822
 2053SOL     OW 7056   3.291   3.035   0.867
 2053SOL    HW1 7057   3.236   2.951   0.860
 2053SOL    HW2 7058   3.317   3.064   0.775
 2054SOL     OW 7059   3.328   2.452   0.992
 2054SOL    HW1 7060   3.298   2.357   0.999
 2054SOL    HW2 7061   3.401   2.468   1.058
 2055SOL     OW 7062   3.719   2.695   0.377
 2055SOL    HW1 7063   3.761   2.631   0.441
 2055SOL    HW2 7064   3.681   2.644   0.299
 2056SOL     OW 7065   2.350   3.247   0.174
 2056SOL    HW1 7066   2.263   3.232   0.221
 2056SOL    HW2 7067   2.333   3.273   0.079
 2057SOL     OW 7068   3.526   3.142   0.657
 2057SOL    HW1 7069   3.625   3.150   0.671
 2057SOL    HW2 7070   3.481   3.226   0.688
 2058SOL     OW 7071   3.252   2.437   0.078
 2058SOL    HW1 7072   3.198   2.416   0.159
 2058SOL    HW2 7073   3.343   2.396   0.087
 2059SOL     OW 7074   2.389   2.118   0.328
 2059SOL    HW1 7075   2.416   2.059   0.253
 2059SOL    HW2 7076   2.389   2.213   0.297
 2060SOL     OW 7077   3.616   3.085   1.588
 2060SOL    HW1 7078   3.707   3.046   1.575
 2060SOL    HW2 7079   3.624   3.181   1.612
 2061SOL     OW 7080   2.926   3.209   1.340
 2061SOL    HW1 7081   2.846   3.186   1.395
 2061SOL    HW2 7082   3.009   3.183   1.389
 2062SOL     OW 7083   3.454   3.491   1.625
 2062SOL    HW1 7084   3.481   3.525   1.535
 2062SOL    HW2 7085   3.533   3.453   1.671
 2063SOL     OW 7086   2.973   3.057   1.100
 2063SOL    HW1 7087   2.933   3.101   1.181
 2063SOL    HW2 7088   2.932   3.094   1.017
 2064SOL     OW 7089   3.500   2.961   1.079
 2064SOL    HW1 7090   3.505   3.042   1.138
 2064SOL    HW2 7091   3.414   2.963   1.028
 2065SOL     OW 7092   2.777   1.951   1.402
 2065SOL    HW1 7093   2.802   1.931   1.307
 2065SOL    HW2 7094   2.849   2.007   1.444
 2066SOL     OW 7095   2.842   2.978   1.719
 2066SOL    HW1 7096   2.743   2.984   1.729
 2066SOL    HW2 7097   2.865   2.898   1.663
 2067SOL     OW 7098   2.567   2.912   0.368
 2067SOL    HW1 7099   2.553   2.919   0.467
 2067SOL    HW2 7100   2.651   2.861   0.350
 2068SOL     OW 7101   2.272   2.675   1.251
 2068SOL    HW1 7102   2.358   2.687   1.301
 2068SOL    HW2 7103   2.230   2.588   1.278
 2069SOL     OW 7104   3.136   2.248   1.262
 2069SOL    HW1 7105   3.157   2.322   1.326
 2069SOL    HW2 7106   3.047   2.265   1.219
 2070SOL     OW 7107   1.926   3.426   1.331
 2070SOL    HW1 7108   1.880   3.508   1.297
 2070SOL    HW2 7109   2.024   3.445   1.340
 2071SOL     OW 7110   2.229   2.962   0.501
 2071SOL    HW1 7111   2.222   3.045   0.445
 2071SOL    HW2 7112   2.233   2.882   0.441
 2072SOL     OW 7113   2.428   2.399   0.865
 2072SOL    HW1 7114   2.440   2.465   0.791
 2072SOL    HW2 7115   2.474   2.433   0.948
 2073SOL     OW 7116   3.114   3.210   0.388
 2073SOL    HW1 7117   3.164   3.287   0.428
 2073SOL    HW2 7118   3.019   3.212   0.420
 2074SOL     OW 7119   3.134   3.307   1.142
 2074SOL    HW1 7120   3.181   3.320   1.229
 2074SOL    HW2 7121   3.068   3.233   1.151
 2075SOL     OW 7122   3.444   2.501   0.472
 2075SOL    HW1 7123   3.413   2.562   0.545
 2075SOL    HW2 7124   3.494   2.553   0.403
 2076SOL     OW 7125   2.216   3.372   1.329
 2076SOL    HW1 7126   2.195   3.328   1.242
 2076SOL    HW2 7127   2.313   3.398   1.332
 2077SOL     OW 7128   2.264   2.613   1.598
 2077SOL    HW1 7129   2.332   2.668   1.551
 2077SOL    HW2 7130   2.304   2.525   1.625
 2078SOL     OW 7131   3.449   2.641   1.670
 2078SOL    HW1 7132   3.357   2.679   1.665
 2078SOL    HW2 7133   3.509   2.688   1.605
 2079SOL     OW 7134   2.875   1.967   1.770
 2079SOL    HW1 7135   2.881   2.052   1.718
 2079SOL    HW2 7136   2.907   1.891   1.713
 2080SOL     OW 7137   2.435   2.732   1.029
 2080SOL    HW1 7138   2.479   2.821   1.020
 2080SOL    HW2 7139   2.372   2.732   1.106
 2081SOL     OW 7140   3.222   2.724   1.045
 2081SOL    HW1 7141   3.147   2.724   0.979
 2081SOL    HW2 7142   3.259   2.632   1.054
 2082SOL     OW 7143   3.071   2.387   0.275
 2082SOL    HW1 7144   3.084   2.303   0.329
 2082SOL    HW2 7145   3.042   2.461   0.335
 2083SOL     OW 7146   2.169   2.075   1.231
 2083SOL    HW1 7147   2.146   2.112   1.321
 2083SOL    HW2 7148   2.139   1.980   1.225
 2084SOL     OW 7149   1.899   3.172   1.282
 2084SOL    HW1 7150   1.952   3.123   1.350
 2084SOL    HW2 7151   1.921   3.270   1.287
 2085SOL     OW 7152   2.594   2.496   1.064
 2085SOL    HW1 7153   2.653   2.470   0.988
 2085SOL    HW2 7154   2.566   2.592   1.053
 2086SOL     OW 7155   3.590   2.797   1.854
 2086SOL    HW1 7156   3.544   2.790   1.765
 2086SOL    HW2 7157   3.528   2.841   1.920
 2087SOL     OW 7158   2.169   1.925   0.618
 2087SOL    HW1 7159   2.158   2.019   0.651
 2087SOL    HW2 7160   2.164   1.862   0.695
 2088SOL     OW 7161   3.484   2.229   0.374
 2088SOL    HW1 7162   3.486   2.153   0.438
 2088SOL    HW2 7163   3.436   2.306   0.414
 2089SOL     OW 7164   2.885   2.628   0.966
 2089SOL    HW1 7165   2.900   2.649   1.062
 2089SOL    HW2 7166   2.855   2.533   0.957
 2090SOL     OW 7167   2.842   3.435   1.700
 2090SOL    HW1 7168   2.822   3.479   1.612
 2090SOL    HW2 7169   2.881   3.344   1.684
 2091SOL     OW 7170   3.721   3.380   1.605
 2091SOL    HW1 7171   3.735   3.407   1.510
 2091SOL    HW2 7172   3.804   3.402   1.658
 2092SOL     OW 7173   2.212   2.760   1.804
 2092SOL    HW1 7174   2.288   2.804   1.852
 2092SOL    HW2 7175   2.247   2.713   1.722
 2093SOL     OW 7176   3.402   2.136   0.125
 2093SOL    HW1 7177   3.341   2.061   0.148
 2093SOL    HW2 7178   3.424   2.188   0.208
 2094SOL     OW 7179   3.165   2.700   0.042
 2094SOL    HW1 7180   3.199   2.607   0.057
 2094SOL    HW2 7181   3.183   2.727  -0.053
 2095SOL     OW 7182   2.930   3.195   0.849
 2095SOL    HW1 7183   2.937   3.111   0.794
 2095SOL    HW2 7184   2.992   3.264   0.813
 2096SOL     OW 7185   2.181   2.672   0.949
 2096SOL    HW1 7186   2.274   2.708   0.954
 2096SOL    HW2 7187   2.175   2.587   1.001
 2097SOL     OW 7188   2.201   2.371   1.006
 2097SOL    HW1 7189   2.149   2.288   0.989
 2097SOL    HW2 7190   2.278   2.376   0.942
 2098SOL     OW 7191   3.000   2.242   1.678
 2098SOL    HW1 7192   2.955   2.305   1.742
 2098SOL    HW2 7193   3.093   2.273   1.661
 2099SOL     OW 7194   3.022   2.069   1.477
 2099SOL    HW1 7195   3.022   2.133   1.554
 2099SOL    HW2 7196   3.050   2.117   1.394
 2100SOL     OW 7197   1.950   3.663   0.927
 2100SOL    HW1 7198   1.908   3.577   0.900
 2100SOL    HW2 7199   2.044   3.666   0.893
 2101SOL     OW 7200   2.366   3.430   0.910
 2101SOL    HW1 7201   2.432   3.504   0.919
 2101SOL    HW2 7202   2.410   3.351   0.868
 2102SOL     OW 7203   2.864   2.658   1.238
 2102SOL    HW1 7204   2.905   2.626   1.324
 2102SOL    HW2 7205   2.768   2.631   1.235
 2103SOL     OW 7206   1.902   2.406   1.114
 2103SOL    HW1 7207   1.987   2.373   1.073
 2103SOL    HW2 7208   1.915   2.421   1.212
 2104SOL     OW 7209   2.051   2.382   1.722
 2104SOL    HW1 7210   2.110   2.342   1.652
 2104SOL    HW2 7211   1.993   2.453   1.681
 2105SOL     OW 7212   3.231   2.812   1.660
 2105SOL    HW1 7213   3.270   2.901   1.680
 2105SOL    HW2 7214   3.241   2.792   1.563
 2106SOL     OW 7215   2.677   2.434   0.325
 2106SOL    HW1 7216   2.684   2.345   0.279
 2106SOL    HW2 7217   2.583   2.468   0.317
 2107SOL     OW 7218   3.519   2.466   1.206
 2107SOL    HW1 7219   3.481   2.397   1.268
 2107SOL    HW2 7220   3.601   2.430   1.162
 2108SOL     OW 7221   2.114   3.426   1.744
 2108SOL    HW1 7222   2.084   3.483   1.820
 2108SOL    HW2 7223   2.107   3.329   1.770
 2109SOL     OW 7224   2.533   2.326   1.269
 2109SOL    HW1 7225   2.499   2.237   1.239
 2109SOL    HW2 7226   2.559   2.380   1.189
 2110SOL     OW 7227   2.792   3.540   1.465
 2110SOL    HW1 7228   2.768   3.522   1.370
 2110SOL    HW2 7229   2.822   3.634   1.475
 2111SOL     OW 7230   2.335   2.362   0.191
 2111SOL    HW1 7231   2.396   2.442   0.195
 2111SOL    HW2 7232   2.240   2.393   0.198
 2112SOL     OW 7233   2.021   2.999   1.466
 2112SOL    HW1 7234   2.043   2.938   1.542
 2112SOL    HW2 7235   2.031   2.950   1.380
 2113SOL     OW 7236   3.209   2.921   1.234
 2113SOL    HW1 7237   3.233   2.858   1.160
 2113SOL    HW2 7238   3.119   2.961   1.216
 2114SOL     OW 7239   3.164   2.717   0.309
 2114SOL    HW1 7240   3.078   2.686   0.351
 2114SOL    HW2 7241   3.160   2.703   0.210
 2115SOL     OW 7242   3.621   3.609   1.154
 2115SOL    HW1 7243   3.682   3.639   1.081
 2115SOL    HW2 7244   3.583   3.520   1.132
 2116SOL     OW 7245   3.114   3.593   1.128
 2116SOL    HW1 7246   3.198   3.598   1.074
 2116SOL    HW2 7247   3.091   3.497   1.146
 2117SOL     OW 7248   2.550   3.524   1.716
 2117SOL    HW1 7249   2.494   3.605   1.725
 2117SOL    HW2 7250   2.602   3.528   1.630
 2118SOL     OW 7251   2.765   1.948   0.133
 2118SOL    HW1 7252   2.816   1.949   0.047
 2118SOL    HW2 7253   2.821   1.906   0.204
 2119SOL     OW 7254   3.588   1.997   0.523
 2119SOL    HW1 7255   3.661   1.980   0.456
 2119SOL    HW2 7256   3.557   1.910   0.561
 2120SOL     OW 7257   3.250   3.435   0.477
 2120SOL    HW1 7258   3.317   3.447   0.403
 2120SOL    HW2 7259   3.210   3.524   0.500
 2121SOL     OW 7260   1.992   3.656   1.851
 2121SOL    HW1 7261   1.951   3.582   1.904
 2121SOL    HW2 7262   2.056   3.707   1.909
 2122SOL     OW 7263   3.142   2.789   0.672
 2122SOL    HW1 7264   3.202   2.708   0.674
 2122SOL    HW2 7265   3.182   2.858   0.612
 2123SOL     OW 7266   2.692   3.135   1.422
 2123SOL    HW1 7267   2.687   3.168   1.517
 2123SOL    HW2 7268   2.606   3.154   1.376
 2124SOL     OW 7269   2.534   3.478   0.154
 2124SOL    HW1 7270   2.543   3.488   0.055
 2124SOL    HW2 7271   2.494   3.389   0.175
 2125SOL     OW 7272   3.512   3.582   1.394
 2125SOL    HW1 7273   3.565   3.592   1.310
 2125SOL    HW2 7274   3.485   3.672   1.428
 2126SOL     OW 7275   3.703   2.037   0.963
 2126SOL    HW1 7276   3.742   1.952   0.927
 2126SOL    HW2 7277   3.605   2.039   0.944
 2127SOL     OW 7278   2.125   2.188   0.720
 2127SOL    HW1 7279   2.046   2.239   0.686
 2127SOL    HW2 7280   2.116   2.173   0.818
 2128SOL     OW 7281   3.056   3.474   0.031
 2128SOL    HW1 7282   3.062   3.381   0.068
 2128SOL    HW2 7283   2.997   3.474  -0.049
 2129SOL     OW 7284   2.684   2.864   1.372
 2129SOL    HW1 7285   2.724   2.863   1.280
 2129SOL    HW2 7286   2.694   2.956   1.412
 2130SOL     OW 7287   2.778   2.772   0.291
 2130SOL    HW1 7288   2.841   2.810   0.223
 2130SOL    HW2 7289   2.818   2.689   0.330
 2131SOL     OW 7290   3.366   3.469   0.044
 2131SOL    HW1 7291   3.274   3.506   0.051
 2131SOL    HW2 7292   3.404   3.489  -0.046
 2132SOL     OW 7293   2.234   3.150   1.490
 2132SOL    HW1 7294   2.221   3.243   1.456
 2132SOL    HW2 7295   2.150   3.098   1.477
 2133SOL     OW 7296   3.476   3.154   1.289
 2133SOL    HW1 7297   3.536   3.157   1.369
 2133SOL    HW2 7298   3.401   3.218   1.302
 2134SOL     OW 7299   2.901   2.960   0.696
 2134SOL    HW1 7300   2.831   2.913   0.750
 2134SOL    HW2 7301   2.960   2.892   0.653
 2135SOL     OW 7302   2.876   2.098   0.971
 2135SOL    HW1 7303   2.868   2.062   0.878
 2135SOL    HW2 7304   2.874   2.022   1.036
 2136SOL     OW 7305   2.452   3.349   0.491
 2136SOL    HW1 7306   2.494   3.291   0.421
 2136SOL    HW2 7307   2.408   3.428   0.447
 2137SOL     OW 7308   3.571   2.247   1.381
 2137SOL    HW1 7309   3.644   2.316   1.385
 2137SOL    HW2 7310   3.599   2.172   1.322
 2138SOL     OW 7311   2.117   3.210   0.290
 2138SOL    HW1 7312   2.021   3.211   0.263
 2138SOL    HW2 7313   2.129   3.263   0.374
 2139SOL     OW 7314   1.967   2.875   1.726
 2139SOL    HW1 7315   1.890   2.842   1.780
 2139SOL    HW2 7316   2.052   2.845   1.768
 2140SOL     OW 7317   2.534   2.065   1.489
 2140SOL    HW1 7318   2.624   2.049   1.449
 2140SOL    HW2 7319   2.542   2.070   1.588
 2141SOL     OW 7320   3.302   2.718   1.398
 2141SOL    HW1 7321   3.245   2.770   1.335
 2141SOL    HW2 7322   3.398   2.730   1.374
 2142SOL     OW 7323   1.934   2.028   0.318
 2142SOL    HW1 7324   1.917   2.111   0.264
 2142SOL    HW2 7325   2.024   1.991   0.296
 2143SOL     OW 7326   3.045   3.197   0.119
 2143SOL    HW1 7327   2.946   3.186   0.121
 2143SOL    HW2 7328   3.079   3.212   0.212
 2144SOL     OW 7329   2.475   2.704   1.431
 2144SOL    HW1 7330   2.531   2.785   1.414
 2144SOL    HW2 7331   2.534   2.624   1.434
 2145SOL     OW 7332   2.578   2.427   1.708
 2145SOL    HW1 7333   2.597   2.492   1.782
 2145SOL    HW2 7334   2.638   2.347   1.717
 2146SOL     OW 7335   3.312   3.082   1.633
 2146SOL    HW1 7336   3.303   3.072   1.732
 2146SOL    HW2 7337   3.408   3.075   1.607
 2147SOL     OW 7338   2.252   3.603   1.560
 2147SOL    HW1 7339   2.161   3.644   1.558
 2147SOL    HW2 7340   2.245   3.509   1.592
 2148SOL     OW 7341   3.536   2.745   1.254
 2148SOL    HW1 7342   3.509   2.656   1.217
 2148SOL    HW2 7343   3.537   2.813   1.181
 2149SOL     OW 7344   3.087   2.187   0.449
 2149SOL    HW1 7345   3.152   2.113   0.438
 2149SOL    HW2 7346   3.107   2.237   0.533
 2150SOL     OW 7347   2.456   2.607   0.652
 2150SOL    HW1 7348   2.506   2.692   0.633
 2150SOL    HW2 7349   2.368   2.609   0.604
 2151SOL     OW 7350   3.639   2.204   1.642
 2151SOL    HW1 7351   3.622   2.235   1.548
 2151SOL    HW2 7352   3.555   2.167   1.680
 2152SOL     OW 7353   3.592   2.796   1.517
 2152SOL    HW1 7354   3.630   2.887   1.532
 2152SOL    HW2 7355   3.584   2.779   1.418
 2153SOL     OW 7356   2.721   3.236   0.016
 2153SOL    HW1 7357   2.675   3.251   0.104
 2153SOL    HW2 7358   2.765   3.321  -0.014
 2154SOL     OW 7359   2.523   3.652   0.953
 2154SOL    HW1 7360   2.477   3.740   0.940
 2154SOL    HW2 7361   2.622   3.664   0.946
 2155SOL     OW 7362   2.721   2.818   0.861
 2155SOL    HW1 7363   2.775   2.749   0.909
 2155SOL    HW2 7364   2.689   2.887   0.927
 2156SOL     OW 7365   2.945   2.846   0.087
 2156SOL    HW1 7366   2.922   2.899   0.005
 2156SOL    HW2 7367   3.026   2.790   0.068
 2157SOL     OW 7368   3.723   3.431   0.851
 2157SOL    HW1 7369   3.652   3.419   0.781
 2157SOL    HW2 7370   3.724   3.352   0.911
 2158SOL     OW 7371   2.083   3.176   1.844
 2158SOL    HW1 7372   2.018   3.103   1.823
 2158SOL    HW2 7373   2.087   3.190   1.942
 2159SOL     OW 7374   2.534   3.253   1.624
 2159SOL    HW1 7375   2.456   3.203   1.662
 2159SOL    HW2 7376   2.531   3.348   1.655
 2160SOL     OW 7377   3.686   2.054   1.227
 2160SOL    HW1 7378   3.682   1.964   1.271
 2160SOL    HW2 7379   3.689   2.043   1.128
 2161SOL     OW 7380   2.290   2.286   0.520
 2161SOL    HW1 7381   2.320   2.214   0.458
 2161SOL    HW2 7382   2.251   2.246   0.603
 2162SOL     OW 7383   3.567   3.349   1.104
 2162SOL    HW1 7384   3.474   3.324   1.077
 2162SOL    HW2 7385   3.593   3.299   1.186
 2163SOL     OW 7386   2.179   2.409   1.280
 2163SOL    HW1 7387   2.217   2.350   1.352
 2163SOL    HW2 7388   2.219   2.383   1.192
 2164SOL     OW 7389   2.674   3.448   0.687
 2164SOL    HW1 7390   2.706   3.458   0.593
 2164SOL    HW2 7391   2.595   3.386   0.689
 2165SOL     OW 7392   3.286   2.076   1.112
 2165SOL    HW1 7393   3.338   2.011   1.167
 2165SOL    HW2 7394   3.237   2.139   1.173
 2166SOL     OW 7395   2.863   1.896   1.154
 2166SOL    HW1 7396   2.800   1.824   1.123
 2166SOL    HW2 7397   2.956   1.860   1.154
 2167SOL     OW 7398   2.632   3.192   0.301
 2167SOL    HW1 7399   2.586   3.105   0.318
 2167SOL    HW2 7400   2.723   3.189   0.342
 2168SOL     OW 7401   2.480   3.429   1.284
 2168SOL    HW1 7402   2.475   3.511   1.341
 2168SOL    HW2 7403   2.569   3.426   1.239
 2169SOL     OW 7404   3.214   1.914   0.168
 2169SOL    HW1 7405   3.249   1.873   0.084
 2169SOL    HW2 7406   3.124   1.876   0.188
 2170SOL     OW 7407   3.162   2.315   0.691
 2170SOL    HW1 7408   3.103   2.395   0.695
 2170SOL    HW2 7409   3.177   2.280   0.784
 2171SOL     OW 7410   3.455   2.083   0.882
 2171SOL    HW1 7411   3.371   2.082   0.936
 2171SOL    HW2 7412   3.457   2.166   0.826
 2172SOL     OW 7413   1.901   2.939   0.300
 2172SOL    HW1 7414   2.000   2.928   0.291
 2172SOL    HW2 7415   1.861   2.853   0.332
 2173SOL     OW 7416   2.737   3.508   0.337
 2173SOL    HW1 7417   2.660   3.473   0.283
 2173SOL    HW2 7418   2.705   3.579   0.399
 2174SOL     OW 7419   2.092   2.490   1.975
 2174SOL    HW1 7420   1.999   2.488   2.012
 2174SOL    HW2 7421   2.093   2.451   1.883
 2175SOL     OW 7422   1.881   2.230   2.509
 2175SOL    HW1 7423   1.799   2.273   2.548
 2175SOL    HW2 7424   1.853   2.157   2.446
 2176SOL     OW 7425   2.431   3.137   3.027
 2176SOL    HW1 7426   2.338   3.130   2.990
 2176SOL    HW2 7427   2.442   3.226   3.071
 2177SOL     OW 7428   3.417   3.373   2.565
 2177SOL    HW1 7429   3.360   3.357   2.646
 2177SOL    HW2 7430   3.358   3.383   2.485
 2178SOL     OW 7431   3.617   2.469   2.093
 2178SOL    HW1 7432   3.605   2.456   1.994
 2178SOL    HW2 7433   3.587   2.388   2.142
 2179SOL     OW 7434   2.630   3.006   2.885
 2179SOL    HW1 7435   2.552   3.023   2.945
 2179SOL    HW2 7436   2.664   3.093   2.849
 2180SOL     OW 7437   2.712   2.660   3.685
 2180SOL    HW1 7438   2.708   2.736   3.750
 2180SOL    HW2 7439   2.734   2.696   3.594
 2181SOL     OW 7440   2.548   3.023   3.665
 2181SOL    HW1 7441   2.608   3.102   3.679
 2181SOL    HW2 7442   2.462   3.054   3.624
 2182SOL     OW 7443   2.197   3.297   2.923
 2182SOL    HW1 7444   2.119   3.266   2.870
 2182SOL    HW2 7445   2.255   3.355   2.866
 2183SOL     OW 7446   3.322   3.367   3.201
 2183SOL    HW1 7447   3.346   3.461   3.227
 2183SOL    HW2 7448   3.306   3.313   3.283
 2184SOL     OW 7449   3.465   2.309   2.599
 2184SOL    HW1 7450   3.391   2.355   2.549
 2184SOL    HW2 7451   3.516   2.377   2.652
 2185SOL     OW 7452   2.093   3.575   2.345
 2185SOL    HW1 7453   2.127   3.652   2.399
 2185SOL    HW2 7454   2.137   3.575   2.255
 2186SOL     OW 7455   2.989   3.203   3.552
 2186SOL    HW1 7456   3.036   3.203   3.640
 2186SOL    HW2 7457   2.941   3.116   3.541
 2187SOL     OW 7458   2.092   3.296   2.400
 2187SOL    HW1 7459   2.066   3.392   2.400
 2187SOL    HW2 7460   2.021   3.242   2.445
 2188SOL     OW 7461   2.102   2.953   2.748
 2188SOL    HW1 7462   2.116   2.869   2.800
 2188SOL    HW2 7463   2.047   3.017   2.803
 2189SOL     OW 7464   2.482   3.648   3.301
 2189SOL    HW1 7465   2.390   3.631   3.336
 2189SOL    HW2 7466   2.510   3.740   3.327
 2190SOL     OW 7467   2.468   2.826   1.985
 2190SOL    HW1 7468   2.475   2.910   1.931
 2190SOL    HW2 7469   2.514   2.839   2.073
 2191SOL     OW 7470   3.456   1.976   3.342
 2191SOL    HW1 7471   3.438   2.043   3.270
 2191SOL    HW2 7472   3.453   2.022   3.431
 2192SOL     OW 7473   3.704   3.629   2.221
 2192SOL    HW1 7474   3.758   3.600   2.301
 2192SOL    HW2 7475   3.734   3.719   2.192
 2193SOL     OW 7476   1.889   3.458   1.979
 2193SOL    HW1 7477   1.870   3.362   2.000
 2193SOL    HW2 7478   1.856   3.516   2.054
 2194SOL     OW 7479   3.551   2.784   2.474
 2194SOL    HW1 7480   3.646   2.755   2.482
 2194SOL    HW2 7481   3.543   2.849   2.399
 2195SOL     OW 7482   3.503   2.970   2.294
 2195SOL    HW1 7483   3.589   2.972   2.242
 2195SOL    HW2 7484   3.517   3.017   2.382
 2196SOL     OW 7485   1.975   2.599   3.459
 2196SOL    HW1 7486   2.063   2.586   3.504
 2196SOL    HW2 7487   1.962   2.696   3.437
 2197SOL     OW 7488   2.475   3.227   2.588
 2197SOL    HW1 7489   2.426   3.140   2.597
 2197SOL    HW2 7490   2.452   3.270   2.501
 2198SOL     OW 7491   3.155   3.090   3.285
 2198SOL    HW1 7492   3.192   3.017   3.227
 2198SOL    HW2 7493   3.207   3.095   3.370
 2199SOL     OW 7494   2.059   2.838   3.126
 2199SOL    HW1 7495   2.148   2.793   3.112
 2199SOL    HW2 7496   1.986   2.773   3.107
 2200SOL     OW 7497   3.387   2.861   2.052
 2200SOL    HW1 7498   3.324   2.785   2.065
 2200SOL    HW2 7499   3.435   2.879   2.138
 2201SOL     OW 7500   3.049   3.654   3.478
 2201SOL    HW1 7501   3.073   3.714   3.402
 2201SOL    HW2 7502   3.056   3.559   3.448
 2202SOL     OW 7503   3.328   3.279   2.815
 2202SOL    HW1 7504   3.269   3.285   2.895
 2202SOL    HW2 7505   3.313   3.191   2.769
 2203SOL     OW 7506   3.529   3.576   2.434
 2203SOL    HW1 7507   3.488   3.553   2.346
 2203SOL    HW2 7508   3.511   3.502   2.499
 2204SOL     OW 7509   2.460   2.591   2.132
 2204SOL    HW1 7510   2.484   2.660   2.064
 2204SOL    HW2 7511   2.382   2.624   2.186
 2205SOL     OW 7512   3.438   3.524   2.169
 2205SOL    HW1 7513   3.527   3.570   2.172
 2205SOL    HW2 7514   3.417   3.500   2.074
 2206SOL     OW 7515   3.256   2.331   3.536
 2206SOL    HW1 7516   3.236   2.374   3.624
 2206SOL    HW2 7517   3.334   2.269   3.545
 2207SOL     OW 7518   2.835   2.752   3.434
 2207SOL    HW1 7519   2.881   2.668   3.405
 2207SOL    HW2 7520   2.779   2.786   3.359
 2208SOL     OW 7521   2.853   2.272   3.104
 2208SOL    HW1 7522   2.776   2.306   3.158
 2208SOL    HW2 7523   2.819   2.221   3.025
 2209SOL     OW 7524   2.903   2.563   2.291
 2209SOL    HW1 7525   2.929   2.559   2.387
 2209SOL    HW2 7526   2.818   2.512   2.277
 2210SOL     OW 7527   1.938   2.673   2.651
 2210SOL    HW1 7528   2.037   2.661   2.660
 2210SOL    HW2 7529   1.914   2.768   2.672
 2211SOL     OW 7530   1.992   3.683   3.433
 2211SOL    HW1 7531   1.982   3.668   3.532
 2211SOL    HW2 7532   1.906   3.719   3.397
 2212SOL     OW 7533   2.727   2.210   2.057
 2212SOL    HW1 7534   2.786   2.273   2.008
 2212SOL    HW2 7535   2.746   2.116   2.028
 2213SOL     OW 7536   3.581   2.447   3.693
 2213SOL    HW1 7537   3.555   2.536   3.657
 2213SOL    HW2 7538   3.579   2.379   3.620
 2214SOL     OW 7539   3.224   3.006   2.407
 2214SOL    HW1 7540   3.307   2.977   2.359
 2214SOL    HW2 7541   3.175   3.073   2.351
 2215SOL     OW 7542   2.412   2.058   2.747
 2215SOL    HW1 7543   2.407   2.053   2.847
 2215SOL    HW2 7544   2.414   2.154   2.718
 2216SOL     OW 7545   2.870   3.318   2.339
 2216SOL    HW1 7546   2.824   3.390   2.287
 2216SOL    HW2 7547   2.866   3.338   2.437
 2217SOL     OW 7548   2.213   3.663   2.715
 2217SOL    HW1 7549   2.263   3.577   2.721
 2217SOL    HW2 7550   2.278   3.740   2.712
 2218SOL     OW 7551   3.657   2.928   2.735
 2218SOL    HW1 7552   3.595   2.913   2.659
 2218SOL    HW2 7553   3.605   2.939   2.820
 2219SOL     OW 7554   3.089   3.412   3.368
 2219SOL    HW1 7555   3.095   3.335   3.432
 2219SOL    HW2 7556   3.037   3.386   3.288
 2220SOL     OW 7557   2.183   2.805   2.104
 2220SOL    HW1 7558   2.265   2.844   2.062
 2220SOL    HW2 7559   2.156   2.723   2.055
 2221SOL     OW 7560   3.320   2.597   2.590
 2221SOL    HW1 7561   3.315   2.532   2.665
 2221SOL    HW2 7562   3.400   2.656   2.603
 2222SOL     OW 7563   2.323   3.128   3.589
 2222SOL    HW1 7564   2.273   3.129   3.503
 2222SOL    HW2 7565   2.260   3.110   3.665
 2223SOL     OW 7566   2.973   3.638   2.099
 2223SOL    HW1 7567   2.913   3.576   2.149
 2223SOL    HW2 7568   3.004   3.594   2.014
 2224SOL     OW 7569   3.494   3.239   1.943
 2224SOL    HW1 7570   3.462   3.333   1.933
 2224SOL    HW2 7571   3.418   3.176   1.931
 2225SOL     OW 7572   2.326   3.605   2.185
 2225SOL    HW1 7573   2.359   3.644   2.271
 2225SOL    HW2 7574   2.402   3.598   2.120
 2226SOL     OW 7575   3.262   1.969   2.288
 2226SOL    HW1 7576   3.238   1.932   2.198
 2226SOL    HW2 7577   3.361   1.985   2.292
 2227SOL     OW 7578   2.111   3.647   3.103
 2227SOL    HW1 7579   2.168   3.582   3.153
 2227SOL    HW2 7580   2.095   3.614   3.010
 2228SOL     OW 7581   2.802   3.560   2.766
 2228SOL    HW1 7582   2.882   3.503   2.787
 2228SOL    HW2 7583   2.753   3.520   2.689
 2229SOL     OW 7584   2.244   2.562   2.342
 2229SOL    HW1 7585   2.289   2.472   2.339
 2229SOL    HW2 7586   2.150   2.551   2.375
 2230SOL     OW 7587   3.409   2.084   3.591
 2230SOL    HW1 7588   3.404   2.121   3.683
 2230SOL    HW2 7589   3.337   2.015   3.579
 2231SOL     OW 7590   2.476   1.984   1.979
 2231SOL    HW1 7591   2.574   1.962   1.986
 2231SOL    HW2 7592   2.445   1.967   1.886
 2232SOL     OW 7593   2.643   2.126   3.611
 2232SOL    HW1 7594   2.710   2.065   3.654
 2232SOL    HW2 7595   2.570   2.145   3.676
 2233SOL     OW 7596   2.750   3.376   3.057
 2233SOL    HW1 7597   2.727   3.351   2.963
 2233SOL    HW2 7598   2.811   3.307   3.096
 2234SOL     OW 7599   3.213   2.452   3.295
 2234SOL    HW1 7600   3.241   2.409   3.380
 2234SOL    HW2 7601   3.238   2.548   3.296
 2235SOL     OW 7602   2.665   3.264   2.786
 2235SOL    HW1 7603   2.755   3.278   2.744
 2235SOL    HW2 7604   2.594   3.266   2.715
 2236SOL     OW 7605   2.401   1.926   2.374
 2236SOL    HW1 7606   2.320   1.927   2.432
 2236SOL    HW2 7607   2.404   2.009   2.319
 2237SOL     OW 7608   3.296   3.050   1.903
 2237SOL    HW1 7609   3.328   2.974   1.960
 2237SOL    HW2 7610   3.204   3.077   1.933
 2238SOL     OW 7611   2.159   1.897   2.033
 2238SOL    HW1 7612   2.208   1.981   2.012
 2238SOL    HW2 7613   2.221   1.832   2.078
 2239SOL     OW 7614   2.797   2.098   2.342
 2239SOL    HW1 7615   2.749   2.139   2.264
 2239SOL    HW2 7616   2.896   2.096   2.323
 2240SOL     OW 7617   2.938   2.545   3.326
 2240SOL    HW1 7618   2.858   2.484   3.329
 2240SOL    HW2 7619   3.019   2.492   3.302
 2241SOL     OW 7620   3.089   3.432   2.655
 2241SOL    HW1 7621   3.110   3.506   2.590
 2241SOL    HW2 7622   3.157   3.432   2.728
 2242SOL     OW 7623   2.321   3.014   2.603
 2242SOL    HW1 7624   2.250   2.987   2.668
 2242SOL    HW2 7625   2.295   2.986   2.510
 2243SOL     OW 7626   3.133   3.659   2.453
 2243SOL    HW1 7627   3.177   3.723   2.389
 2243SOL    HW2 7628   3.083   3.711   2.523
 2244SOL     OW 7629   2.894   2.411   1.878
 2244SOL    HW1 7630   2.853   2.493   1.839
 2244SOL    HW2 7631   2.958   2.437   1.951
 2245SOL     OW 7632   3.291   3.035   2.729
 2245SOL    HW1 7633   3.236   2.951   2.722
 2245SOL    HW2 7634   3.317   3.064   2.637
 2246SOL     OW 7635   3.719   2.695   2.239
 2246SOL    HW1 7636   3.761   2.631   2.303
 2246SOL    HW2 7637   3.681   2.644   2.161
 2247SOL     OW 7638   2.350   3.247   2.036
 2247SOL    HW1 7639   2.263   3.232   2.083
 2247SOL    HW2 7640   2.333   3.273   1.941
 2248SOL     OW 7641   3.526   3.142   2.519
 2248SOL    HW1 7642   3.625   3.150   2.533
 2248SOL    HW2 7643   3.481   3.226   2.550
 2249SOL     OW 7644   3.252   2.437   1.940
 2249SOL    HW1 7645   3.198   2.416   2.021
 2249SOL    HW2 7646   3.343   2.396   1.949
 2250SOL     OW 7647   2.389   2.118   2.190
 2250SOL    HW1 7648   2.416   2.059   2.115
 2250SOL    HW2 7649   2.389   2.213   2.159
 2251SOL     OW 7650   3.616   3.085   3.450
 2251SOL    HW1 7651   3.707   3.046   3.437
 2251SOL    HW2 7652   3.624   3.181   3.474
 2252SOL     OW 7653   2.926   3.209   3.202
 2252SOL    HW1 7654   2.846   3.186   3.257
 2252SOL    HW2 7655   3.009   3.183   3.251
 2253SOL     OW 7656   3.454   3.491   3.487
 2253SOL    HW1 7657   3.481   3.525   3.397
 2253SOL    HW2 7658   3.533   3.453   3.533
 2254SOL     OW 7659   2.973   3.057   2.962
 2254SOL    HW1 7660   2.933   3.101   3.043
 2254SOL    HW2 7661   2.932   3.094   2.879
 2255SOL     OW 7662   3.500   2.961   2.941
 2255SOL    HW1 7663   3.505   3.042   3.000
 2255SOL    HW2 7664   3.414   2.963   2.890
 2256SOL     OW 7665   2.777   1.951   3.264
 2256SOL    HW1 7666   2.802   1.931   3.169
 2256SOL    HW2 7667   2.849   2.007   3.306
 2257SOL     OW 7668   2.842   2.978   3.581
 2257SOL    HW1 7669   2.743   2.984   3.591
 2257SOL    HW2 7670   2.865   2.898   3.525
 2258SOL     OW 7671   2.272   2.675   3.113
 2258SOL    HW1 7672   2.358   2.687   3.163
 2258SOL    HW2 7673   2.230   2.588   3.140
 2259SOL     OW 7674   3.136   2.248   3.124
 2259SOL    HW1 7675   3.157   2.322   3.188
 2259SOL    HW2 7676   3.047   2.265   3.081
 2260SOL     OW 7677   1.926   3.426   3.193
 2260SOL    HW1 7678   1.880   3.508   3.159
 2260SOL    HW2 7679   2.024   3.445   3.202
 2261SOL     OW 7680   2.229   2.962   2.363
 2261SOL    HW1 7681   2.222   3.045   2.307
 2261SOL    HW2 7682   2.233   2.882   2.303
 2262SOL     OW 7683   3.114   3.210   2.250
 2262SOL    HW1 7684   3.164   3.287   2.290
 2262SOL    HW2 7685   3.019   3.212   2.282
 2263SOL     OW 7686   3.134   3.307   3.004
 2263SOL    HW1 7687   3.181   3.320   3.091
 2263SOL    HW2 7688   3.068   3.233   3.013
 2264SOL     OW 7689   3.444   2.501   2.334
 2264SOL    HW1 7690   3.413   2.562   2.407
 2264SOL    HW2 7691   3.494   2.553   2.265
 2265SOL     OW 7692   2.216   3.372   3.191
 2265SOL    HW1 7693   2.195   3.328   3.104
 2265SOL    HW2 7694   2.313   3.398   3.194
 2266SOL     OW 7695   2.264   2.613   3.460
 2266SOL    HW1 7696   2.332   2.668   3.413
 2266SOL    HW2 7697   2.304   2.525   3.487
 2267SOL     OW 7698   3.449   2.641   3.532
 2267SOL    HW1 7699   3.357   2.679   3.527
 2267SOL    HW2 7700   3.509   2.688   3.467
 2268SOL     OW 7701   2.875   1.967   3.632
 2268SOL    HW1 7702   2.881   2.052   3.580
 2268SOL    HW2 7703   2.907   1.891   3.575
 2269SOL     OW 7704   2.435   2.732   2.891
 2269SOL    HW1 7705   2.479   2.821   2.882
 2269SOL    HW2 7706   2.372   2.732   2.968
 2270SOL     OW 7707   3.222   2.724   2.907
 2270SOL    HW1 7708   3.147   2.724   2.841
 2270SOL    HW2 7709   3.259   2.632   2.916
 2271SOL     OW 7710   3.071   2.387   2.137
 2271SOL    HW1 7711   3.084   2.303   2.191
 2271SOL    HW2 7712   3.042   2.461   2.197
 2272SOL     OW 7713   1.899   3.172   3.144
 2272SOL    HW1 7714   1.952   3.123   3.212
 2272SOL    HW2 7715   1.921   3.270   3.149
 2273SOL     OW 7716   3.590   2.797   3.716
 2273SOL    HW1 7717   3.544   2.790   3.627
 2273SOL    HW2 7718   3.528   2.841   3.782
 2274SOL     OW 7719   2.169   1.925   2.480
 2274SOL    HW1 7720   2.158   2.019   2.513
 2274SOL    HW2 7721   2.164   1.862   2.557
 2275SOL     OW 7722   3.484   2.229   2.236
 2275SOL    HW1 7723   3.486   2.153   2.300
 2275SOL    HW2 7724   3.436   2.306   2.276
 2276SOL     OW 7725   2.885   2.628   2.828
 2276SOL    HW1 7726   2.900   2.649   2.924
 2276SOL    HW2 7727   2.855   2.533   2.819
 2277SOL     OW 7728   2.842   3.435   3.562
 2277SOL    HW1 7729   2.822   3.479   3.474
 2277SOL    HW2 7730   2.881   3.344   3.546
 2278SOL     OW 7731   3.721   3.380   3.467
 2278SOL    HW1 7732   3.735   3.407   3.372
 2278SOL    HW2 7733   3.804   3.402   3.520
 2279SOL     OW 7734   2.212   2.760   3.666
 2279SOL    HW1 7735   2.288   2.804   3.714
 2279SOL    HW2 7736   2.247   2.713   3.584
 2280SOL     OW 7737   3.402   2.136   1.987
 2280SOL    HW1 7738   3.341   2.061   2.010
 2280SOL    HW2 7739   3.424   2.188   2.070
 2281SOL     OW 7740   3.165   2.700   1.904
 2281SOL    HW1 7741   3.199   2.607   1.919
 2281SOL    HW2 7742   3.183   2.727   1.809
 2282SOL     OW 7743   2.930   3.195   2.711
 2282SOL    HW1 7744   2.937   3.111   2.656
 2282SOL    HW2 7745   2.992   3.264   2.675
 2283SOL     OW 7746   2.181   2.672   2.811
 2283SOL    HW1 7747   2.274   2.708   2.816
 2283SOL    HW2 7748   2.175   2.587   2.863
 2284SOL     OW 7749   2.201   2.371   2.868
 2284SOL    HW1 7750   2.149   2.288   2.851
 2284SOL    HW2 7751   2.278   2.376   2.804
 2285SOL     OW 7752   3.000   2.242   3.540
 2285SOL    HW1 7753   2.955   2.305   3.604
 2285SOL    HW2 7754   3.093   2.273   3.523
 2286SOL     OW 7755   3.022   2.069   3.339
 2286SOL    HW1 7756   3.022   2.133   3.416
 2286SOL    HW2 7757   3.050   2.117   3.256
 2287SOL     OW 7758   1.870   3.188   2.062
 2287SOL    HW1 7759   1.777   3.209   2.031
 2287SOL    HW2 7760   1.880   3.089   2.075
 2288SOL     OW 7761   1.950   3.663   2.789
 2288SOL    HW1 7762   1.908   3.577   2.762
 2288SOL    HW2 7763   2.044   3.666   2.755
 2289SOL     OW 7764   2.366   3.430   2.772
 2289SOL    HW1 7765   2.432   3.504   2.781
 2289SOL    HW2 7766   2.410   3.351   2.730
 2290SOL     OW 7767   2.864   2.658   3.100
 2290SOL    HW1 7768   2.905   2.626   3.186
 2290SOL    HW2 7769   2.768   2.631   3.097
 2291SOL     OW 7770   3.231   2.812   3.522
 2291SOL    HW1 7771   3.270   2.901   3.542
 2291SOL    HW2 7772   3.241   2.792   3.425
 2292SOL     OW 7773   2.677   2.434   2.187
 2292SOL    HW1 7774   2.684   2.345   2.141
 2292SOL    HW2 7775   2.583   2.468   2.179
 2293SOL     OW 7776   3.519   2.466   3.068
 2293SOL    HW1 7777   3.481   2.397   3.130
 2293SOL    HW2 7778   3.601   2.430   3.024
 2294SOL     OW 7779   2.114   3.426   3.606
 2294SOL    HW1 7780   2.084   3.483   3.682
 2294SOL    HW2 7781   2.107   3.329   3.632
 2295SOL     OW 7782   2.533   2.326   3.131
 2295SOL    HW1 7783   2.499   2.237   3.101
 2295SOL    HW2 7784   2.559   2.380   3.051
 2296SOL     OW 7785   2.792   3.540   3.327
 2296SOL    HW1 7786   2.768   3.522   3.232
 2296SOL    HW2 7787   2.822   3.634   3.337
 2297SOL     OW 7788   2.335   2.362   2.053
 2297SOL    HW1 7789   2.396   2.442   2.057
 2297SOL    HW2 7790   2.240   2.393   2.060
 2298SOL     OW 7791   2.021   2.999   3.328
 2298SOL    HW1 7792   2.043   2.938   3.404
 2298SOL    HW2 7793   2.031   2.950   3.242
 2299SOL     OW 7794   3.209   2.921   3.096
 2299SOL    HW1 7795   3.233   2.858   3.022
 2299SOL    HW2 7796   3.119   2.961   3.078
 2300SOL     OW 7797   3.164   2.717   2.171
 2300SOL    HW1 7798   3.078   2.686   2.213
 2300SOL    HW2 7799   3.160   2.703   2.072
 2301SOL     OW 7800   3.621   3.609   3.016
 2301SOL    HW1 7801   3.682   3.639   2.943
 2301SOL    HW2 7802   3.583   3.520   2.994
 2302SOL     OW 7803   3.114   3.593   2.990
 2302SOL    HW1 7804   3.198   3.598   2.936
 2302SOL    HW2 7805   3.091   3.497   3.008
 2303SOL     OW 7806   1.945   3.120   2.884
 2303SOL    HW1 7807   1.940   3.119   2.984
 2303SOL    HW2 7808   1.862   3.079   2.846
 2304SOL     OW 7809   2.550   3.524   3.578
 2304SOL    HW1 7810   2.494   3.605   3.587
 2304SOL    HW2 7811   2.602   3.528   3.492
 2305SOL     OW 7812   3.588   1.997   2.385
 2305SOL    HW1 7813   3.661   1.980   2.318
 2305SOL    HW2 7814   3.557   1.910   2.423
 2306SOL     OW 7815   3.250   3.435   2.339
 2306SOL    HW1 7816   3.317   3.447   2.265
 2306SOL    HW2 7817   3.210   3.524   2.362
 2307SOL     OW 7818   1.992   3.656   3.713
 2307SOL    HW1 7819   1.951   3.582   3.766
 2307SOL    HW2 7820   2.056   3.707   3.771
 2308SOL     OW 7821   3.142   2.789   2.534
 2308SOL    HW1 7822   3.202   2.708   2.536
 2308SOL    HW2 7823   3.182   2.858   2.474
 2309SOL     OW 7824   2.692   3.135   3.284
 2309SOL    HW1 7825   2.687   3.168   3.379
 2309SOL    HW2 7826   2.606   3.154   3.238
 2310SOL     OW 7827   2.534   3.478   2.016
 2310SOL    HW1 7828   2.543   3.488   1.917
 2310SOL    HW2 7829   2.494   3.389   2.037
 2311SOL     OW 7830   3.512   3.582   3.256
 2311SOL    HW1 7831   3.565   3.592   3.172
 2311SOL    HW2 7832   3.485   3.672   3.290
 2312SOL     OW 7833   3.703   2.037   2.825
 2312SOL    HW1 7834   3.742   1.952   2.789
 2312SOL    HW2 7835   3.605   2.039   2.806
 2313SOL     OW 7836   3.056   3.474   1.893
 2313SOL    HW1 7837   3.062   3.381   1.930
 2313SOL    HW2 7838   2.997   3.474   1.813
 2314SOL     OW 7839   2.684   2.864   3.234
 2314SOL    HW1 7840   2.724   2.863   3.142
 2314SOL    HW2 7841   2.694   2.956   3.274
 2315SOL     OW 7842   2.778   2.772   2.153
 2315SOL    HW1 7843   2.841   2.810   2.085
 2315SOL    HW2 7844   2.818   2.689   2.192
 2316SOL     OW 7845   3.366   3.469   1.906
 2316SOL    HW1 7846   3.274   3.506   1.913
 2316SOL    HW2 7847   3.404   3.489   1.816
 2317SOL     OW 7848   2.234   3.150   3.352
 2317SOL    HW1 7849   2.221   3.243   3.318
 2317SOL    HW2 7850   2.150   3.098   3.339
 2318SOL     OW 7851   3.476   3.154   3.151
 2318SOL    HW1 7852   3.536   3.157   3.231
 2318SOL    HW2 7853   3.401   3.218   3.164
 2319SOL     OW 7854   2.901   2.960   2.558
 2319SOL    HW1 7855   2.831   2.913   2.612
 2319SOL    HW2 7856   2.960   2.892   2.515
 2320SOL     OW 7857   2.452   3.349   2.353
 2320SOL    HW1 7858   2.494   3.291   2.283
 2320SOL    HW2 7859   2.408   3.428   2.309
 2321SOL     OW 7860   3.571   2.247   3.243
 2321SOL    HW1 7861   3.644   2.316   3.247
 2321SOL    HW2 7862   3.599   2.172   3.184
 2322SOL     OW 7863   2.117   3.210   2.152
 2322SOL    HW1 7864   2.021   3.211   2.125
 2322SOL    HW2 7865   2.129   3.263   2.236
 2323SOL     OW 7866   1.967   2.875   3.588
 2323SOL    HW1 7867   1.890   2.842   3.642
 2323SOL    HW2 7868   2.052   2.845   3.630
 2324SOL     OW 7869   1.937   2.207   1.895
 2324SOL    HW1 7870   1.845   2.179   1.866
 2324SOL    HW2 7871   1.968   2.284   1.839
 2325SOL     OW 7872   3.302   2.718   3.260
 2325SOL    HW1 7873   3.245   2.770   3.197
 2325SOL    HW2 7874   3.398   2.730   3.236
 2326SOL     OW 7875   1.934   2.028   2.180
 2326SOL    HW1 7876   1.917   2.111   2.126
 2326SOL    HW2 7877   2.024   1.991   2.158
 2327SOL     OW 7878   3.045   3.197   1.981
 2327SOL    HW1 7879   2.946   3.186   1.983
 2327SOL    HW2 7880   3.079   3.212   2.074
 2328SOL     OW 7881   2.475   2.704   3.293
 2328SOL    HW1 7882   2.531   2.785   3.276
 2328SOL    HW2 7883   2.534   2.624   3.296
 2329SOL     OW 7884   3.355   3.629   2.821
 2329SOL    HW1 7885   3.388   3.693   2.752
 2329SOL    HW2 7886   3.421   3.623   2.896
 2330SOL     OW 7887   3.312   3.082   3.495
 2330SOL    HW1 7888   3.303   3.072   3.594
 2330SOL    HW2 7889   3.408   3.075   3.469
 2331SOL     OW 7890   2.252   3.603   3.422
 2331SOL    HW1 7891   2.161   3.644   3.420
 2331SOL    HW2 7892   2.245   3.509   3.454
 2332SOL     OW 7893   3.536   2.745   3.116
 2332SOL    HW1 7894   3.509   2.656   3.079
 2332SOL    HW2 7895   3.537   2.813   3.043
 2333SOL     OW 7896   3.087   2.187   2.311
 2333SOL    HW1 7897   3.152   2.113   2.300
 2333SOL    HW2 7898   3.107   2.237   2.395
 2334SOL     OW 7899   3.639   2.204   3.504
 2334SOL    HW1 7900   3.622   2.235   3.410
 2334SOL    HW2 7901   3.555   2.167   3.542
 2335SOL     OW 7902   3.592   2.796   3.379
 2335SOL    HW1 7903   3.630   2.887   3.394
 2335SOL    HW2 7904   3.584   2.779   3.280
 2336SOL     OW 7905   2.721   3.236   1.878
 2336SOL    HW1 7906   2.675   3.251   1.966
 2336SOL    HW2 7907   2.765   3.321   1.848
 2337SOL     OW 7908   2.523   3.652   2.815
 2337SOL    HW1 7909   2.477   3.740   2.802
 2337SOL    HW2 7910   2.622   3.664   2.808
 2338SOL     OW 7911   2.945   2.846   1.949
 2338SOL    HW1 7912   2.922   2.899   1.867
 2338SOL    HW2 7913   3.026   2.790   1.930
 2339SOL     OW 7914   3.723   3.431   2.713
 2339SOL    HW1 7915   3.652   3.419   2.643
 2339SOL    HW2 7916   3.724   3.352   2.773
 2340SOL     OW 7917   2.083   3.176   3.706
 2340SOL    HW1 7918   2.018   3.103   3.685
 2340SOL    HW2 7919   2.087   3.190   3.804
 2341SOL     OW 7920   1.941   3.102   2.515
 2341SOL    HW1 7921   1.940   3.055   2.603
 2341SOL    HW2 7922   2.023   3.074   2.464
 2342SOL     OW 7923   2.534   3.253   3.486
 2342SOL    HW1 7924   2.456   3.203   3.524
 2342SOL    HW2 7925   2.531   3.348   3.517
 2343SOL     OW 7926   3.686   2.054   3.089
 2343SOL    HW1 7927   3.682   1.964   3.133
 2343SOL    HW2 7928   3.689   2.043   2.990
 2344SOL     OW 7929   3.567   3.349   2.966
 2344SOL    HW1 7930   3.474   3.324   2.939
 2344SOL    HW2 7931   3.593   3.299   3.048
 2345SOL     OW 7932   2.674   3.448   2.549
 2345SOL    HW1 7933   2.706   3.458   2.455
 2345SOL    HW2 7934   2.595   3.386   2.551
 2346SOL     OW 7935   2.632   3.192   2.163
 2346SOL    HW1 7936   2.586   3.105   2.180
 2346SOL    HW2 7937   2.723   3.189   2.204
 2347SOL     OW 7938   2.480   3.429   3.146
 2347SOL    HW1 7939   2.475   3.511   3.203
 2347SOL    HW2 7940   2.569   3.426   3.101
 2348SOL     OW 7941   3.214   1.914   2.030
 2348SOL    HW1 7942   3.249   1.873   1.946
 2348SOL    HW2 7943   3.124   1.876   2.050
 2349SOL     OW 7944   3.455   2.083   2.744
 2349SOL    HW1 7945   3.371   2.082   2.798
 2349SOL    HW2 7946   3.457   2.166   2.688
 2350SOL     OW 7947   1.901   2.939   2.162
 2350SOL    HW1 7948   2.000   2.928   2.153
 2350SOL    HW2 7949   1.861   2.853   2.194
 2351SOL     OW 7950   2.737   3.508   2.199
 2351SOL    HW1 7951   2.660   3.473   2.145
 2351SOL    HW2 7952   2.705   3.579   2.261
 2352SOL     OW 7953   2.431   3.137   4.889
 2352SOL    HW1 7954   2.338   3.130   4.852
 2352SOL    HW2 7955   2.442   3.226   4.933
 2353SOL     OW 7956   3.417   3.373   4.427
 2353SOL    HW1 7957   3.360   3.357   4.508
 2353SOL    HW2 7958   3.358   3.383   4.347
 2354SOL     OW 7959   3.617   2.469   3.955
 2354SOL    HW1 7960   3.605   2.456   3.856
 2354SOL    HW2 7961   3.587   2.388   4.004
 2355SOL     OW 7962   2.197   3.297   4.785
 2355SOL    HW1 7963   2.119   3.266   4.732
 2355SOL    HW2 7964   2.255   3.355   4.728
 2356SOL     OW 7965   3.465   2.309   4.461
 2356SOL    HW1 7966   3.391   2.355   4.411
 2356SOL    HW2 7967   3.516   2.377   4.514
 2357SOL     OW 7968   2.093   3.575   4.207
 2357SOL    HW1 7969   2.127   3.652   4.261
 2357SOL    HW2 7970   2.137   3.575   4.117
 2358SOL     OW 7971   2.092   3.296   4.262
 2358SOL    HW1 7972   2.066   3.392   4.262
 2358SOL    HW2 7973   2.021   3.242   4.307
 2359SOL     OW 7974   2.102   2.953   4.610
 2359SOL    HW1 7975   2.116   2.869   4.662
 2359SOL    HW2 7976   2.047   3.017   4.665
 2360SOL     OW 7977   2.482   3.648   5.163
 2360SOL    HW1 7978   2.390   3.631   5.198
 2360SOL    HW2 7979   2.510   3.740   5.189
 2361SOL     OW 7980   2.468   2.826   3.847
 2361SOL    HW1 7981   2.475   2.910   3.793
 2361SOL    HW2 7982   2.514   2.839   3.935
 2362SOL     OW 7983   1.984   2.505   4.287
 2362SOL    HW1 7984   1.939   2.417   4.304
 2362SOL    HW2 7985   1.983   2.559   4.371
 2363SOL     OW 7986   3.704   3.629   4.083
 2363SOL    HW1 7987   3.758   3.600   4.163
 2363SOL    HW2 7988   3.734   3.719   4.054
 2364SOL     OW 7989   1.889   3.458   3.841
 2364SOL    HW1 7990   1.870   3.362   3.862
 2364SOL    HW2 7991   1.856   3.516   3.916
 2365SOL     OW 7992   3.551   2.784   4.336
 2365SOL    HW1 7993   3.646   2.755   4.344
 2365SOL    HW2 7994   3.543   2.849   4.261
 2366SOL     OW 7995   3.503   2.970   4.156
 2366SOL    HW1 7996   3.589   2.972   4.104
 2366SOL    HW2 7997   3.517   3.017   4.244
 2367SOL     OW 7998   2.475   3.227   4.450
 2367SOL    HW1 7999   2.426   3.140   4.459
 2367SOL    HW2 8000   2.452   3.270   4.363
 2368SOL     OW 8001   2.671   1.866   4.226
 2368SOL    HW1 8002   2.711   1.957   4.217
 2368SOL    HW2 8003   2.571   1.874   4.232
 2369SOL     OW 8004   2.059   2.838   4.988
 2369SOL    HW1 8005   2.148   2.793   4.974
 2369SOL    HW2 8006   1.986   2.773   4.969
 2370SOL     OW 8007   3.387   2.861   3.914
 2370SOL    HW1 8008   3.324   2.785   3.927
 2370SOL    HW2 8009   3.435   2.879   4.000
 2371SOL     OW 8010   3.328   3.279   4.677
 2371SOL    HW1 8011   3.269   3.285   4.757
 2371SOL    HW2 8012   3.313   3.191   4.631
 2372SOL     OW 8013   3.529   3.576   4.296
 2372SOL    HW1 8014   3.488   3.553   4.208
 2372SOL    HW2 8015   3.511   3.502   4.361
 2373SOL     OW 8016   2.460   2.591   3.994
 2373SOL    HW1 8017   2.484   2.660   3.926
 2373SOL    HW2 8018   2.382   2.624   4.048
 2374SOL     OW 8019   3.143   2.207   4.668
 2374SOL    HW1 8020   3.057   2.157   4.655
 2374SOL    HW2 8021   3.205   2.153   4.724
 2375SOL     OW 8022   3.438   3.524   4.031
 2375SOL    HW1 8023   3.527   3.570   4.034
 2375SOL    HW2 8024   3.417   3.500   3.936
 2376SOL     OW 8025   2.853   2.272   4.966
 2376SOL    HW1 8026   2.776   2.306   5.020
 2376SOL    HW2 8027   2.819   2.221   4.887
 2377SOL     OW 8028   1.938   2.673   4.513
 2377SOL    HW1 8029   2.037   2.661   4.522
 2377SOL    HW2 8030   1.914   2.768   4.534
 2378SOL     OW 8031   2.727   2.210   3.919
 2378SOL    HW1 8032   2.786   2.273   3.870
 2378SOL    HW2 8033   2.746   2.116   3.890
 2379SOL     OW 8034   3.224   3.006   4.269
 2379SOL    HW1 8035   3.307   2.977   4.221
 2379SOL    HW2 8036   3.175   3.073   4.213
 2380SOL     OW 8037   2.412   2.058   4.609
 2380SOL    HW1 8038   2.407   2.053   4.709
 2380SOL    HW2 8039   2.414   2.154   4.580
 2381SOL     OW 8040   2.870   3.318   4.201
 2381SOL    HW1 8041   2.824   3.390   4.149
 2381SOL    HW2 8042   2.866   3.338   4.299
 2382SOL     OW 8043   2.213   3.663   4.577
 2382SOL    HW1 8044   2.263   3.577   4.583
 2382SOL    HW2 8045   2.278   3.740   4.574
 2383SOL     OW 8046   3.657   2.928   4.597
 2383SOL    HW1 8047   3.595   2.913   4.521
 2383SOL    HW2 8048   3.605   2.939   4.682
 2384SOL     OW 8049   2.183   2.805   3.966
 2384SOL    HW1 8050   2.265   2.844   3.924
 2384SOL    HW2 8051   2.156   2.723   3.917
 2385SOL     OW 8052   3.320   2.597   4.452
 2385SOL    HW1 8053   3.315   2.532   4.527
 2385SOL    HW2 8054   3.400   2.656   4.465
 2386SOL     OW 8055   2.973   3.638   3.961
 2386SOL    HW1 8056   2.913   3.576   4.011
 2386SOL    HW2 8057   3.004   3.594   3.876
 2387SOL     OW 8058   3.494   3.239   3.805
 2387SOL    HW1 8059   3.462   3.333   3.795
 2387SOL    HW2 8060   3.418   3.176   3.793
 2388SOL     OW 8061   2.326   3.605   4.047
 2388SOL    HW1 8062   2.359   3.644   4.133
 2388SOL    HW2 8063   2.402   3.598   3.982
 2389SOL     OW 8064   3.262   1.969   4.150
 2389SOL    HW1 8065   3.238   1.932   4.060
 2389SOL    HW2 8066   3.361   1.985   4.154
 2390SOL     OW 8067   2.111   3.647   4.965
 2390SOL    HW1 8068   2.168   3.582   5.015
 2390SOL    HW2 8069   2.095   3.614   4.872
 2391SOL     OW 8070   2.802   3.560   4.628
 2391SOL    HW1 8071   2.882   3.503   4.649
 2391SOL    HW2 8072   2.753   3.520   4.551
 2392SOL     OW 8073   2.244   2.562   4.204
 2392SOL    HW1 8074   2.289   2.472   4.201
 2392SOL    HW2 8075   2.150   2.551   4.237
 2393SOL     OW 8076   2.476   1.984   3.841
 2393SOL    HW1 8077   2.574   1.962   3.848
 2393SOL    HW2 8078   2.445   1.967   3.748
 2394SOL     OW 8079   2.665   3.264   4.648
 2394SOL    HW1 8080   2.755   3.278   4.606
 2394SOL    HW2 8081   2.594   3.266   4.577
 2395SOL     OW 8082   2.784   2.365   4.623
 2395SOL    HW1 8083   2.759   2.356   4.527
 2395SOL    HW2 8084   2.832   2.283   4.654
 2396SOL     OW 8085   3.296   3.050   3.765
 2396SOL    HW1 8086   3.328   2.974   3.822
 2396SOL    HW2 8087   3.204   3.077   3.795
 2397SOL     OW 8088   2.159   1.897   3.895
 2397SOL    HW1 8089   2.208   1.981   3.874
 2397SOL    HW2 8090   2.221   1.832   3.940
 2398SOL     OW 8091   2.797   2.098   4.204
 2398SOL    HW1 8092   2.749   2.139   4.126
 2398SOL    HW2 8093   2.896   2.096   4.185
 2399SOL     OW 8094   3.089   3.432   4.517
 2399SOL    HW1 8095   3.110   3.506   4.452
 2399SOL    HW2 8096   3.157   3.432   4.590
 2400SOL     OW 8097   2.321   3.014   4.465
 2400SOL    HW1 8098   2.250   2.987   4.530
 2400SOL    HW2 8099   2.295   2.986   4.372
 2401SOL     OW 8100   3.133   3.659   4.315
 2401SOL    HW1 8101   3.177   3.723   4.251
 2401SOL    HW2 8102   3.083   3.711   4.385
 2402SOL     OW 8103   2.894   2.411   3.740
 2402SOL    HW1 8104   2.853   2.493   3.701
 2402SOL    HW2 8105   2.958   2.437   3.813
 2403SOL     OW 8106   2.423   2.084   4.871
 2403SOL    HW1 8107   2.461   2.000   4.908
 2403SOL    HW2 8108   2.335   2.103   4.915
 2404SOL     OW 8109   2.728   2.316   4.366
 2404SOL    HW1 8110   2.696   2.388   4.304
 2404SOL    HW2 8111   2.752   2.235   4.313
 2405SOL     OW 8112   2.879   1.901   4.477
 2405SOL    HW1 8113   2.807   1.906   4.408
 2405SOL    HW2 8114   2.855   1.832   4.546
 2406SOL     OW 8115   3.291   3.035   4.591
 2406SOL    HW1 8116   3.236   2.951   4.584
 2406SOL    HW2 8117   3.317   3.064   4.499
 2407SOL     OW 8118   3.328   2.452   4.716
 2407SOL    HW1 8119   3.298   2.357   4.723
 2407SOL    HW2 8120   3.401   2.468   4.782
 2408SOL     OW 8121   3.719   2.695   4.101
 2408SOL    HW1 8122   3.761   2.631   4.165
 2408SOL    HW2 8123   3.681   2.644   4.023
 2409SOL     OW 8124   2.350   3.247   3.898
 2409SOL    HW1 8125   2.263   3.232   3.945
 2409SOL    HW2 8126   2.333   3.273   3.803
 2410SOL     OW 8127   3.526   3.142   4.381
 2410SOL    HW1 8128   3.625   3.150   4.395
 2410SOL    HW2 8129   3.481   3.226   4.412
 2411SOL     OW 8130   3.252   2.437   3.802
 2411SOL    HW1 8131   3.198   2.416   3.883
 2411SOL    HW2 8132   3.343   2.396   3.811
 2412SOL     OW 8133   2.389   2.118   4.052
 2412SOL    HW1 8134   2.416   2.059   3.977
 2412SOL    HW2 8135   2.389   2.213   4.021
 2413SOL     OW 8136   3.500   2.961   4.803
 2413SOL    HW1 8137   3.505   3.042   4.862
 2413SOL    HW2 8138   3.414   2.963   4.752
 2414SOL     OW 8139   2.272   2.675   4.975
 2414SOL    HW1 8140   2.358   2.687   5.025
 2414SOL    HW2 8141   2.230   2.588   5.002
 2415SOL     OW 8142   3.136   2.248   4.986
 2415SOL    HW1 8143   3.157   2.322   5.050
 2415SOL    HW2 8144   3.047   2.265   4.943
 2416SOL     OW 8145   2.229   2.962   4.225
 2416SOL    HW1 8146   2.222   3.045   4.169
 2416SOL    HW2 8147   2.233   2.882   4.165
 2417SOL     OW 8148   3.114   3.210   4.112
 2417SOL    HW1 8149   3.164   3.287   4.152
 2417SOL    HW2 8150   3.019   3.212   4.144
 2418SOL     OW 8151   3.134   3.307   4.866
 2418SOL    HW1 8152   3.181   3.320   4.953
 2418SOL    HW2 8153   3.068   3.233   4.875
 2419SOL     OW 8154   3.444   2.501   4.196
 2419SOL    HW1 8155   3.413   2.562   4.269
 2419SOL    HW2 8156   3.494   2.553   4.127
 2420SOL     OW 8157   2.216   3.372   5.053
 2420SOL    HW1 8158   2.195   3.328   4.966
 2420SOL    HW2 8159   2.313   3.398   5.056
 2421SOL     OW 8160   2.435   2.732   4.753
 2421SOL    HW1 8161   2.479   2.821   4.744
 2421SOL    HW2 8162   2.372   2.732   4.830
 2422SOL     OW 8163   3.222   2.724   4.769
 2422SOL    HW1 8164   3.147   2.724   4.703
 2422SOL    HW2 8165   3.259   2.632   4.778
 2423SOL     OW 8166   3.071   2.387   3.999
 2423SOL    HW1 8167   3.084   2.303   4.053
 2423SOL    HW2 8168   3.042   2.461   4.059
 2424SOL     OW 8169   2.169   2.075   4.955
 2424SOL    HW1 8170   2.146   2.112   5.045
 2424SOL    HW2 8171   2.139   1.980   4.949
 2425SOL     OW 8172   1.899   3.172   5.006
 2425SOL    HW1 8173   1.952   3.123   5.074
 2425SOL    HW2 8174   1.921   3.270   5.011
 2426SOL     OW 8175   3.484   2.229   4.098
 2426SOL    HW1 8176   3.486   2.153   4.162
 2426SOL    HW2 8177   3.436   2.306   4.138
 2427SOL     OW 8178   2.885   2.628   4.690
 2427SOL    HW1 8179   2.900   2.649   4.786
 2427SOL    HW2 8180   2.855   2.533   4.681
 2428SOL     OW 8181   3.402   2.136   3.849
 2428SOL    HW1 8182   3.341   2.061   3.872
 2428SOL    HW2 8183   3.424   2.188   3.932
 2429SOL     OW 8184   3.165   2.700   3.766
 2429SOL    HW1 8185   3.199   2.607   3.781
 2429SOL    HW2 8186   3.183   2.727   3.671
 2430SOL     OW 8187   2.930   3.195   4.573
 2430SOL    HW1 8188   2.937   3.111   4.518
 2430SOL    HW2 8189   2.992   3.264   4.537
 2431SOL     OW 8190   2.181   2.672   4.673
 2431SOL    HW1 8191   2.274   2.708   4.678
 2431SOL    HW2 8192   2.175   2.587   4.725
 2432SOL     OW 8193   2.201   2.371   4.730
 2432SOL    HW1 8194   2.149   2.288   4.713
 2432SOL    HW2 8195   2.278   2.376   4.666
 2433SOL     OW 8196   3.022   2.069   5.201
 2433SOL    HW1 8197   3.022   2.133   5.278
 2433SOL    HW2 8198   3.050   2.117   5.118
 2434SOL     OW 8199   1.870   3.188   3.924
 2434SOL    HW1 8200   1.777   3.209   3.893
 2434SOL    HW2 8201   1.880   3.089   3.937
 2435SOL     OW 8202   1.950   3.663   4.651
 2435SOL    HW1 8203   1.908   3.577   4.624
 2435SOL    HW2 8204   2.044   3.666   4.617
 2436SOL     OW 8205   2.366   3.430   4.634
 2436SOL    HW1 8206   2.432   3.504   4.643
 2436SOL    HW2 8207   2.410   3.351   4.592
 2437SOL     OW 8208   1.902   2.406   4.838
 2437SOL    HW1 8209   1.987   2.373   4.797
 2437SOL    HW2 8210   1.915   2.421   4.936
 2438SOL     OW 8211   2.677   2.434   4.049
 2438SOL    HW1 8212   2.684   2.345   4.003
 2438SOL    HW2 8213   2.583   2.468   4.041
 2439SOL     OW 8214   3.519   2.466   4.930
 2439SOL    HW1 8215   3.481   2.397   4.992
 2439SOL    HW2 8216   3.601   2.430   4.886
 2440SOL     OW 8217   2.533   2.326   4.993
 2440SOL    HW1 8218   2.499   2.237   4.963
 2440SOL    HW2 8219   2.559   2.380   4.913
 2441SOL     OW 8220   2.792   3.540   5.189
 2441SOL    HW1 8221   2.768   3.522   5.094
 2441SOL    HW2 8222   2.822   3.634   5.199
 2442SOL     OW 8223   2.335   2.362   3.915
 2442SOL    HW1 8224   2.396   2.442   3.919
 2442SOL    HW2 8225   2.240   2.393   3.922
 2443SOL     OW 8226   3.209   2.921   4.958
 2443SOL    HW1 8227   3.233   2.858   4.884
 2443SOL    HW2 8228   3.119   2.961   4.940
 2444SOL     OW 8229   3.164   2.717   4.033
 2444SOL    HW1 8230   3.078   2.686   4.075
 2444SOL    HW2 8231   3.160   2.703   3.934
 2445SOL     OW 8232   3.621   3.609   4.878
 2445SOL    HW1 8233   3.682   3.639   4.805
 2445SOL    HW2 8234   3.583   3.520   4.856
 2446SOL     OW 8235   3.114   3.593   4.852
 2446SOL    HW1 8236   3.198   3.598   4.798
 2446SOL    HW2 8237   3.091   3.497   4.870
 2447SOL     OW 8238   1.945   3.120   4.746
 2447SOL    HW1 8239   1.940   3.119   4.846
 2447SOL    HW2 8240   1.862   3.079   4.708
 2448SOL     OW 8241   3.588   1.997   4.247
 2448SOL    HW1 8242   3.661   1.980   4.180
 2448SOL    HW2 8243   3.557   1.910   4.285
 2449SOL     OW 8244   3.250   3.435   4.201
 2449SOL    HW1 8245   3.317   3.447   4.127
 2449SOL    HW2 8246   3.210   3.524   4.224
 2450SOL     OW 8247   3.142   2.789   4.396
 2450SOL    HW1 8248   3.202   2.708   4.398
 2450SOL    HW2 8249   3.182   2.858   4.336
 2451SOL     OW 8250   2.534   3.478   3.878
 2451SOL    HW1 8251   2.543   3.488   3.779
 2451SOL    HW2 8252   2.494   3.389   3.899
 2452SOL     OW 8253   3.512   3.582   5.118
 2452SOL    HW1 8254   3.565   3.592   5.034
 2452SOL    HW2 8255   3.485   3.672   5.152
 2453SOL     OW 8256   3.703   2.037   4.687
 2453SOL    HW1 8257   3.742   1.952   4.651
 2453SOL    HW2 8258   3.605   2.039   4.668
 2454SOL     OW 8259   3.056   3.474   3.755
 2454SOL    HW1 8260   3.062   3.381   3.792
 2454SOL    HW2 8261   2.997   3.474   3.675
 2455SOL     OW 8262   2.684   2.864   5.096
 2455SOL    HW1 8263   2.724   2.863   5.004
 2455SOL    HW2 8264   2.694   2.956   5.136
 2456SOL     OW 8265   2.778   2.772   4.015
 2456SOL    HW1 8266   2.841   2.810   3.947
 2456SOL    HW2 8267   2.818   2.689   4.054
 2457SOL     OW 8268   3.366   3.469   3.768
 2457SOL    HW1 8269   3.274   3.506   3.775
 2457SOL    HW2 8270   3.404   3.489   3.678
 2458SOL     OW 8271   2.876   2.098   4.695
 2458SOL    HW1 8272   2.868   2.062   4.602
 2458SOL    HW2 8273   2.874   2.022   4.760
 2459SOL     OW 8274   2.452   3.349   4.215
 2459SOL    HW1 8275   2.494   3.291   4.145
 2459SOL    HW2 8276   2.408   3.428   4.171
 2460SOL     OW 8277   3.571   2.247   5.105
 2460SOL    HW1 8278   3.644   2.316   5.109
 2460SOL    HW2 8279   3.599   2.172   5.046
 2461SOL     OW 8280   2.117   3.210   4.014
 2461SOL    HW1 8281   2.021   3.211   3.987
 2461SOL    HW2 8282   2.129   3.263   4.098
 2462SOL     OW 8283   1.934   2.028   4.042
 2462SOL    HW1 8284   1.917   2.111   3.988
 2462SOL    HW2 8285   2.024   1.991   4.020
 2463SOL     OW 8286   3.045   3.197   3.843
 2463SOL    HW1 8287   2.946   3.186   3.845
 2463SOL    HW2 8288   3.079   3.212   3.936
 2464SOL     OW 8289   3.355   3.629   4.683
 2464SOL    HW1 8290   3.388   3.693   4.614
 2464SOL    HW2 8291   3.421   3.623   4.758
 2465SOL     OW 8292   3.312   3.082   5.357
 2465SOL    HW1 8293   3.303   3.072   5.456
 2465SOL    HW2 8294   3.408   3.075   5.331
 2466SOL     OW 8295   3.536   2.745   4.978
 2466SOL    HW1 8296   3.509   2.656   4.941
 2466SOL    HW2 8297   3.537   2.813   4.905
 2467SOL     OW 8298   3.087   2.187   4.173
 2467SOL    HW1 8299   3.152   2.113   4.162
 2467SOL    HW2 8300   3.107   2.237   4.257
 2468SOL     OW 8301   3.592   2.796   5.241
 2468SOL    HW1 8302   3.630   2.887   5.256
 2468SOL    HW2 8303   3.584   2.779   5.142
 2469SOL     OW 8304   2.721   3.236   3.740
 2469SOL    HW1 8305   2.675   3.251   3.828
 2469SOL    HW2 8306   2.765   3.321   3.710
 2470SOL     OW 8307   2.523   3.652   4.677
 2470SOL    HW1 8308   2.477   3.740   4.664
 2470SOL    HW2 8309   2.622   3.664   4.670
 2471SOL     OW 8310   2.945   2.846   3.811
 2471SOL    HW1 8311   2.922   2.899   3.729
 2471SOL    HW2 8312   3.026   2.790   3.792
 2472SOL     OW 8313   3.723   3.431   4.575
 2472SOL    HW1 8314   3.652   3.419   4.505
 2472SOL    HW2 8315   3.724   3.352   4.635
 2473SOL     OW 8316   1.941   3.102   4.377
 2473SOL    HW1 8317   1.940   3.055   4.465
 2473SOL    HW2 8318   2.023   3.074   4.326
 2474SOL     OW 8319   3.686   2.054   4.951
 2474SOL    HW1 8320   3.682   1.964   4.995
 2474SOL    HW2 8321   3.689   2.043   4.852
 2475SOL     OW 8322   2.290   2.286   4.244
 2475SOL    HW1 8323   2.320   2.214   4.182
 2475SOL    HW2 8324   2.251   2.246   4.327
 2476SOL     OW 8325   3.567   3.349   4.828
 2476SOL    HW1 8326   3.474   3.324   4.801
 2476SOL    HW2 8327   3.593   3.299   4.910
 2477SOL     OW 8328   3.286   2.076   4.836
 2477SOL    HW1 8329   3.338   2.011   4.891
 2477SOL    HW2 8330   3.237   2.139   4.897
 2478SOL     OW 8331   2.863   1.896   4.878
 2478SOL    HW1 8332   2.800   1.824   4.847
 2478SOL    HW2 8333   2.956   1.860   4.878
 2479SOL     OW 8334   3.214   1.914   3.892
 2479SOL    HW1 8335   3.249   1.873   3.808
 2479SOL    HW2 8336   3.124   1.876   3.912
 2480SOL     OW 8337   3.162   2.315   4.415
 2480SOL    HW1 8338   3.103   2.395   4.419
 2480SOL    HW2 8339   3.177   2.280   4.508
 2481SOL     OW 8340   3.455   2.083   4.606
 2481SOL    HW1 8341   3.371   2.082   4.660
 2481SOL    HW2 8342   3.457   2.166   4.550
 2482SOL     OW 8343   1.901   2.939   4.024
 2482SOL    HW1 8344   2.000   2.928   4.015
 2482SOL    HW2 8345   1.861   2.853   4.056
 2483SOL     OW 8346   2.737   3.508   4.061
 2483SOL    HW1 8347   2.660   3.473   4.007
 2483SOL    HW2 8348   2.705   3.579   4.123
 2484SOL     OW 8349   2.092   4.352   0.113
 2484SOL    HW1 8350   1.999   4.350   0.150
 2484SOL    HW2 8351   2.093   4.313   0.021
 2485SOL     OW 8352   2.087   3.999   0.996
 2485SOL    HW1 8353   2.122   3.982   1.088
 2485SOL    HW2 8354   1.999   3.954   0.984
 2486SOL     OW 8355   1.881   4.092   0.647
 2486SOL    HW1 8356   1.799   4.135   0.686
 2486SOL    HW2 8357   1.853   4.019   0.584
 2487SOL     OW 8358   2.431   4.999   1.165
 2487SOL    HW1 8359   2.338   4.992   1.128
 2487SOL    HW2 8360   2.442   5.088   1.209
 2488SOL     OW 8361   3.417   5.235   0.703
 2488SOL    HW1 8362   3.360   5.219   0.784
 2488SOL    HW2 8363   3.358   5.245   0.623
 2489SOL     OW 8364   2.997   4.427   0.717
 2489SOL    HW1 8365   3.054   4.505   0.692
 2489SOL    HW2 8366   2.937   4.453   0.793
 2490SOL     OW 8367   3.617   4.331   0.231
 2490SOL    HW1 8368   3.605   4.318   0.132
 2490SOL    HW2 8369   3.587   4.250   0.280
 2491SOL     OW 8370   2.630   4.868   1.023
 2491SOL    HW1 8371   2.552   4.885   1.083
 2491SOL    HW2 8372   2.664   4.955   0.987
 2492SOL     OW 8373   2.712   4.522   1.823
 2492SOL    HW1 8374   2.708   4.598   1.888
 2492SOL    HW2 8375   2.734   4.558   1.732
 2493SOL     OW 8376   2.547   4.736   0.665
 2493SOL    HW1 8377   2.616   4.720   0.735
 2493SOL    HW2 8378   2.474   4.793   0.703
 2494SOL     OW 8379   2.548   4.885   1.803
 2494SOL    HW1 8380   2.608   4.964   1.817
 2494SOL    HW2 8381   2.462   4.916   1.762
 2495SOL     OW 8382   2.197   5.159   1.061
 2495SOL    HW1 8383   2.119   5.128   1.008
 2495SOL    HW2 8384   2.255   5.217   1.004
 2496SOL     OW 8385   2.300   4.116   1.499
 2496SOL    HW1 8386   2.382   4.060   1.508
 2496SOL    HW2 8387   2.219   4.058   1.503
 2497SOL     OW 8388   2.102   4.815   0.886
 2497SOL    HW1 8389   2.116   4.731   0.938
 2497SOL    HW2 8390   2.047   4.879   0.941
 2498SOL     OW 8391   2.468   4.688   0.123
 2498SOL    HW1 8392   2.475   4.772   0.069
 2498SOL    HW2 8393   2.514   4.701   0.211
 2499SOL     OW 8394   3.456   3.838   1.480
 2499SOL    HW1 8395   3.438   3.905   1.408
 2499SOL    HW2 8396   3.453   3.884   1.569
 2500SOL     OW 8397   1.984   4.367   0.563
 2500SOL    HW1 8398   1.939   4.279   0.580
 2500SOL    HW2 8399   1.983   4.421   0.647
 2501SOL     OW 8400   3.551   4.646   0.612
 2501SOL    HW1 8401   3.646   4.617   0.620
 2501SOL    HW2 8402   3.543   4.711   0.537
 2502SOL     OW 8403   3.503   4.832   0.432
 2502SOL    HW1 8404   3.589   4.834   0.380
 2502SOL    HW2 8405   3.517   4.879   0.520
 2503SOL     OW 8406   1.975   4.461   1.597
 2503SOL    HW1 8407   2.063   4.448   1.642
 2503SOL    HW2 8408   1.962   4.558   1.575
 2504SOL     OW 8409   3.155   4.952   1.423
 2504SOL    HW1 8410   3.192   4.879   1.365
 2504SOL    HW2 8411   3.207   4.957   1.508
 2505SOL     OW 8412   2.671   3.728   0.502
 2505SOL    HW1 8413   2.711   3.819   0.493
 2505SOL    HW2 8414   2.571   3.736   0.508
 2506SOL     OW 8415   2.059   4.700   1.264
 2506SOL    HW1 8416   2.148   4.655   1.250
 2506SOL    HW2 8417   1.986   4.635   1.245
 2507SOL     OW 8418   3.387   4.723   0.190
 2507SOL    HW1 8419   3.324   4.647   0.203
 2507SOL    HW2 8420   3.435   4.741   0.276
 2508SOL     OW 8421   2.179   3.975   1.801
 2508SOL    HW1 8422   2.250   4.046   1.807
 2508SOL    HW2 8423   2.091   4.014   1.829
 2509SOL     OW 8424   2.460   4.453   0.270
 2509SOL    HW1 8425   2.484   4.522   0.202
 2509SOL    HW2 8426   2.382   4.486   0.324
 2510SOL     OW 8427   3.143   4.069   0.944
 2510SOL    HW1 8428   3.057   4.019   0.931
 2510SOL    HW2 8429   3.205   4.015   1.000
 2511SOL     OW 8430   2.669   4.329   1.465
 2511SOL    HW1 8431   2.622   4.326   1.554
 2511SOL    HW2 8432   2.618   4.274   1.399
 2512SOL     OW 8433   3.256   4.193   1.674
 2512SOL    HW1 8434   3.236   4.236   1.762
 2512SOL    HW2 8435   3.334   4.131   1.683
 2513SOL     OW 8436   2.835   4.614   1.572
 2513SOL    HW1 8437   2.881   4.530   1.543
 2513SOL    HW2 8438   2.779   4.648   1.497
 2514SOL     OW 8439   2.853   4.134   1.242
 2514SOL    HW1 8440   2.776   4.168   1.296
 2514SOL    HW2 8441   2.819   4.083   1.163
 2515SOL     OW 8442   2.903   4.425   0.429
 2515SOL    HW1 8443   2.929   4.421   0.525
 2515SOL    HW2 8444   2.818   4.374   0.415
 2516SOL     OW 8445   1.938   4.535   0.789
 2516SOL    HW1 8446   2.037   4.523   0.798
 2516SOL    HW2 8447   1.914   4.630   0.810
 2517SOL     OW 8448   2.727   4.072   0.195
 2517SOL    HW1 8449   2.786   4.135   0.146
 2517SOL    HW2 8450   2.746   3.978   0.166
 2518SOL     OW 8451   3.581   4.309   1.831
 2518SOL    HW1 8452   3.555   4.398   1.795
 2518SOL    HW2 8453   3.579   4.241   1.758
 2519SOL     OW 8454   3.224   4.868   0.545
 2519SOL    HW1 8455   3.307   4.839   0.497
 2519SOL    HW2 8456   3.175   4.935   0.489
 2520SOL     OW 8457   2.412   3.920   0.885
 2520SOL    HW1 8458   2.407   3.915   0.985
 2520SOL    HW2 8459   2.414   4.016   0.856
 2521SOL     OW 8460   3.657   4.790   0.873
 2521SOL    HW1 8461   3.595   4.775   0.797
 2521SOL    HW2 8462   3.605   4.801   0.958
 2522SOL     OW 8463   2.183   4.667   0.242
 2522SOL    HW1 8464   2.265   4.706   0.200
 2522SOL    HW2 8465   2.156   4.585   0.193
 2523SOL     OW 8466   3.320   4.459   0.728
 2523SOL    HW1 8467   3.315   4.394   0.803
 2523SOL    HW2 8468   3.400   4.518   0.741
 2524SOL     OW 8469   3.494   5.101   0.081
 2524SOL    HW1 8470   3.462   5.195   0.071
 2524SOL    HW2 8471   3.418   5.038   0.069
 2525SOL     OW 8472   2.244   4.424   0.480
 2525SOL    HW1 8473   2.289   4.334   0.477
 2525SOL    HW2 8474   2.150   4.413   0.513
 2526SOL     OW 8475   3.409   3.946   1.729
 2526SOL    HW1 8476   3.404   3.983   1.821
 2526SOL    HW2 8477   3.337   3.877   1.717
 2527SOL     OW 8478   2.643   3.988   1.749
 2527SOL    HW1 8479   2.710   3.927   1.792
 2527SOL    HW2 8480   2.570   4.007   1.814
 2528SOL     OW 8481   3.213   4.314   1.433
 2528SOL    HW1 8482   3.241   4.271   1.518
 2528SOL    HW2 8483   3.238   4.410   1.434
 2529SOL     OW 8484   2.665   5.126   0.924
 2529SOL    HW1 8485   2.755   5.140   0.882
 2529SOL    HW2 8486   2.594   5.128   0.853
 2530SOL     OW 8487   2.784   4.227   0.899
 2530SOL    HW1 8488   2.759   4.218   0.803
 2530SOL    HW2 8489   2.832   4.145   0.930
 2531SOL     OW 8490   2.401   3.788   0.512
 2531SOL    HW1 8491   2.320   3.789   0.570
 2531SOL    HW2 8492   2.404   3.871   0.457
 2532SOL     OW 8493   3.296   4.912   0.041
 2532SOL    HW1 8494   3.328   4.836   0.098
 2532SOL    HW2 8495   3.204   4.939   0.071
 2533SOL     OW 8496   2.159   3.759   0.171
 2533SOL    HW1 8497   2.208   3.843   0.150
 2533SOL    HW2 8498   2.221   3.694   0.216
 2534SOL     OW 8499   2.797   3.960   0.480
 2534SOL    HW1 8500   2.749   4.001   0.402
 2534SOL    HW2 8501   2.896   3.958   0.461
 2535SOL     OW 8502   2.938   4.407   1.464
 2535SOL    HW1 8503   2.858   4.346   1.467
 2535SOL    HW2 8504   3.019   4.354   1.440
 2536SOL     OW 8505   3.089   5.294   0.793
 2536SOL    HW1 8506   3.110   5.368   0.728
 2536SOL    HW2 8507   3.157   5.294   0.866
 2537SOL     OW 8508   2.321   4.876   0.741
 2537SOL    HW1 8509   2.250   4.849   0.806
 2537SOL    HW2 8510   2.295   4.848   0.648
 2538SOL     OW 8511   2.894   4.273   0.016
 2538SOL    HW1 8512   2.853   4.355  -0.023
 2538SOL    HW2 8513   2.958   4.299   0.089
 2539SOL     OW 8514   1.940   4.280   1.386
 2539SOL    HW1 8515   2.032   4.279   1.345
 2539SOL    HW2 8516   1.934   4.354   1.453
 2540SOL     OW 8517   2.423   3.946   1.147
 2540SOL    HW1 8518   2.461   3.862   1.184
 2540SOL    HW2 8519   2.335   3.965   1.191
 2541SOL     OW 8520   2.728   4.178   0.642
 2541SOL    HW1 8521   2.696   4.250   0.580
 2541SOL    HW2 8522   2.752   4.097   0.589
 2542SOL     OW 8523   2.879   3.763   0.753
 2542SOL    HW1 8524   2.807   3.768   0.684
 2542SOL    HW2 8525   2.855   3.694   0.822
 2543SOL     OW 8526   3.291   4.897   0.867
 2543SOL    HW1 8527   3.236   4.813   0.860
 2543SOL    HW2 8528   3.317   4.926   0.775
 2544SOL     OW 8529   3.328   4.314   0.992
 2544SOL    HW1 8530   3.298   4.219   0.999
 2544SOL    HW2 8531   3.401   4.330   1.058
 2545SOL     OW 8532   3.719   4.557   0.377
 2545SOL    HW1 8533   3.761   4.493   0.441
 2545SOL    HW2 8534   3.681   4.506   0.299
 2546SOL     OW 8535   3.526   5.004   0.657
 2546SOL    HW1 8536   3.625   5.012   0.671
 2546SOL    HW2 8537   3.481   5.088   0.688
 2547SOL     OW 8538   3.252   4.299   0.078
 2547SOL    HW1 8539   3.198   4.278   0.159
 2547SOL    HW2 8540   3.343   4.258   0.087
 2548SOL     OW 8541   2.389   3.980   0.328
 2548SOL    HW1 8542   2.416   3.921   0.253
 2548SOL    HW2 8543   2.389   4.075   0.297
 2549SOL     OW 8544   2.777   3.813   1.402
 2549SOL    HW1 8545   2.802   3.793   1.307
 2549SOL    HW2 8546   2.849   3.869   1.444
 2550SOL     OW 8547   2.842   4.840   1.719
 2550SOL    HW1 8548   2.743   4.846   1.729
 2550SOL    HW2 8549   2.865   4.760   1.663
 2551SOL     OW 8550   2.567   4.774   0.368
 2551SOL    HW1 8551   2.553   4.781   0.467
 2551SOL    HW2 8552   2.651   4.723   0.350
 2552SOL     OW 8553   2.272   4.537   1.251
 2552SOL    HW1 8554   2.358   4.549   1.301
 2552SOL    HW2 8555   2.230   4.450   1.278
 2553SOL     OW 8556   3.136   4.110   1.262
 2553SOL    HW1 8557   3.157   4.184   1.326
 2553SOL    HW2 8558   3.047   4.127   1.219
 2554SOL     OW 8559   2.229   4.824   0.501
 2554SOL    HW1 8560   2.222   4.907   0.445
 2554SOL    HW2 8561   2.233   4.744   0.441
 2555SOL     OW 8562   2.428   4.261   0.865
 2555SOL    HW1 8563   2.440   4.327   0.791
 2555SOL    HW2 8564   2.474   4.295   0.948
 2556SOL     OW 8565   2.264   4.475   1.598
 2556SOL    HW1 8566   2.332   4.530   1.551
 2556SOL    HW2 8567   2.304   4.387   1.625
 2557SOL     OW 8568   3.449   4.503   1.670
 2557SOL    HW1 8569   3.357   4.541   1.665
 2557SOL    HW2 8570   3.509   4.550   1.605
 2558SOL     OW 8571   2.875   3.829   1.770
 2558SOL    HW1 8572   2.881   3.914   1.718
 2558SOL    HW2 8573   2.907   3.753   1.713
 2559SOL     OW 8574   2.366   3.774   1.740
 2559SOL    HW1 8575   2.324   3.717   1.670
 2559SOL    HW2 8576   2.300   3.843   1.772
 2560SOL     OW 8577   2.435   4.594   1.029
 2560SOL    HW1 8578   2.479   4.683   1.020
 2560SOL    HW2 8579   2.372   4.594   1.106
 2561SOL     OW 8580   3.222   4.586   1.045
 2561SOL    HW1 8581   3.147   4.586   0.979
 2561SOL    HW2 8582   3.259   4.494   1.054
 2562SOL     OW 8583   3.071   4.249   0.275
 2562SOL    HW1 8584   3.084   4.165   0.329
 2562SOL    HW2 8585   3.042   4.323   0.335
 2563SOL     OW 8586   2.169   3.937   1.231
 2563SOL    HW1 8587   2.146   3.974   1.321
 2563SOL    HW2 8588   2.139   3.842   1.225
 2564SOL     OW 8589   2.594   4.358   1.064
 2564SOL    HW1 8590   2.653   4.332   0.988
 2564SOL    HW2 8591   2.566   4.454   1.053
 2565SOL     OW 8592   3.590   4.659   1.854
 2565SOL    HW1 8593   3.544   4.652   1.765
 2565SOL    HW2 8594   3.528   4.703   1.920
 2566SOL     OW 8595   2.169   3.787   0.618
 2566SOL    HW1 8596   2.158   3.881   0.651
 2566SOL    HW2 8597   2.164   3.724   0.695
 2567SOL     OW 8598   2.885   4.490   0.966
 2567SOL    HW1 8599   2.900   4.511   1.062
 2567SOL    HW2 8600   2.855   4.395   0.957
 2568SOL     OW 8601   2.212   4.622   1.804
 2568SOL    HW1 8602   2.288   4.666   1.852
 2568SOL    HW2 8603   2.247   4.575   1.722
 2569SOL     OW 8604   3.402   3.998   0.125
 2569SOL    HW1 8605   3.341   3.923   0.148
 2569SOL    HW2 8606   3.424   4.050   0.208
 2570SOL     OW 8607   3.165   4.562   0.042
 2570SOL    HW1 8608   3.199   4.469   0.057
 2570SOL    HW2 8609   3.183   4.589  -0.053
 2571SOL     OW 8610   2.181   4.534   0.949
 2571SOL    HW1 8611   2.274   4.570   0.954
 2571SOL    HW2 8612   2.175   4.449   1.001
 2572SOL     OW 8613   2.201   4.233   1.006
 2572SOL    HW1 8614   2.149   4.150   0.989
 2572SOL    HW2 8615   2.278   4.238   0.942
 2573SOL     OW 8616   3.000   4.104   1.678
 2573SOL    HW1 8617   2.955   4.167   1.742
 2573SOL    HW2 8618   3.093   4.135   1.661
 2574SOL     OW 8619   3.022   3.931   1.477
 2574SOL    HW1 8620   3.022   3.995   1.554
 2574SOL    HW2 8621   3.050   3.979   1.394
 2575SOL     OW 8622   2.864   4.520   1.238
 2575SOL    HW1 8623   2.905   4.488   1.324
 2575SOL    HW2 8624   2.768   4.493   1.235
 2576SOL     OW 8625   1.902   4.268   1.114
 2576SOL    HW1 8626   1.987   4.235   1.073
 2576SOL    HW2 8627   1.915   4.283   1.212
 2577SOL     OW 8628   2.051   4.244   1.722
 2577SOL    HW1 8629   2.110   4.204   1.652
 2577SOL    HW2 8630   1.993   4.315   1.681
 2578SOL     OW 8631   3.231   4.674   1.660
 2578SOL    HW1 8632   3.270   4.763   1.680
 2578SOL    HW2 8633   3.241   4.654   1.563
 2579SOL     OW 8634   2.677   4.296   0.325
 2579SOL    HW1 8635   2.684   4.207   0.279
 2579SOL    HW2 8636   2.583   4.330   0.317
 2580SOL     OW 8637   3.519   4.328   1.206
 2580SOL    HW1 8638   3.481   4.259   1.268
 2580SOL    HW2 8639   3.601   4.292   1.162
 2581SOL     OW 8640   2.533   4.188   1.269
 2581SOL    HW1 8641   2.499   4.099   1.239
 2581SOL    HW2 8642   2.559   4.242   1.189
 2582SOL     OW 8643   2.335   4.224   0.191
 2582SOL    HW1 8644   2.396   4.304   0.195
 2582SOL    HW2 8645   2.240   4.255   0.198
 2583SOL     OW 8646   2.021   4.861   1.466
 2583SOL    HW1 8647   2.043   4.800   1.542
 2583SOL    HW2 8648   2.031   4.812   1.380
 2584SOL     OW 8649   3.209   4.783   1.234
 2584SOL    HW1 8650   3.233   4.720   1.160
 2584SOL    HW2 8651   3.119   4.823   1.216
 2585SOL     OW 8652   3.164   4.579   0.309
 2585SOL    HW1 8653   3.078   4.548   0.351
 2585SOL    HW2 8654   3.160   4.565   0.210
 2586SOL     OW 8655   1.945   4.982   1.022
 2586SOL    HW1 8656   1.940   4.981   1.122
 2586SOL    HW2 8657   1.862   4.941   0.984
 2587SOL     OW 8658   2.765   3.810   0.133
 2587SOL    HW1 8659   2.816   3.811   0.047
 2587SOL    HW2 8660   2.821   3.768   0.204
 2588SOL     OW 8661   3.142   4.651   0.672
 2588SOL    HW1 8662   3.202   4.570   0.674
 2588SOL    HW2 8663   3.182   4.720   0.612
 2589SOL     OW 8664   2.692   4.997   1.422
 2589SOL    HW1 8665   2.687   5.030   1.517
 2589SOL    HW2 8666   2.606   5.016   1.376
 2590SOL     OW 8667   2.125   4.050   0.720
 2590SOL    HW1 8668   2.046   4.101   0.686
 2590SOL    HW2 8669   2.116   4.035   0.818
 2591SOL     OW 8670   2.684   4.726   1.372
 2591SOL    HW1 8671   2.724   4.725   1.280
 2591SOL    HW2 8672   2.694   4.818   1.412
 2592SOL     OW 8673   2.778   4.634   0.291
 2592SOL    HW1 8674   2.841   4.672   0.223
 2592SOL    HW2 8675   2.818   4.551   0.330
 2593SOL     OW 8676   2.234   5.012   1.490
 2593SOL    HW1 8677   2.221   5.105   1.456
 2593SOL    HW2 8678   2.150   4.960   1.477
 2594SOL     OW 8679   2.901   4.822   0.696
 2594SOL    HW1 8680   2.831   4.775   0.750
 2594SOL    HW2 8681   2.960   4.754   0.653
 2595SOL     OW 8682   2.876   3.960   0.971
 2595SOL    HW1 8683   2.868   3.924   0.878
 2595SOL    HW2 8684   2.874   3.884   1.036
 2596SOL     OW 8685   3.571   4.109   1.381
 2596SOL    HW1 8686   3.644   4.178   1.385
 2596SOL    HW2 8687   3.599   4.034   1.322
 2597SOL     OW 8688   1.967   4.737   1.726
 2597SOL    HW1 8689   1.890   4.704   1.780
 2597SOL    HW2 8690   2.052   4.707   1.768
 2598SOL     OW 8691   2.534   3.927   1.489
 2598SOL    HW1 8692   2.624   3.911   1.449
 2598SOL    HW2 8693   2.542   3.932   1.588
 2599SOL     OW 8694   3.302   4.580   1.398
 2599SOL    HW1 8695   3.245   4.632   1.335
 2599SOL    HW2 8696   3.398   4.592   1.374
 2600SOL     OW 8697   1.934   3.890   0.318
 2600SOL    HW1 8698   1.917   3.973   0.264
 2600SOL    HW2 8699   2.024   3.853   0.296
 2601SOL     OW 8700   2.475   4.566   1.431
 2601SOL    HW1 8701   2.531   4.647   1.414
 2601SOL    HW2 8702   2.534   4.486   1.434
 2602SOL     OW 8703   2.578   4.289   1.708
 2602SOL    HW1 8704   2.597   4.354   1.782
 2602SOL    HW2 8705   2.638   4.209   1.717
 2603SOL     OW 8706   3.312   4.944   1.633
 2603SOL    HW1 8707   3.303   4.934   1.732
 2603SOL    HW2 8708   3.408   4.937   1.607
 2604SOL     OW 8709   3.536   4.607   1.254
 2604SOL    HW1 8710   3.509   4.518   1.217
 2604SOL    HW2 8711   3.537   4.675   1.181
 2605SOL     OW 8712   3.087   4.049   0.449
 2605SOL    HW1 8713   3.152   3.975   0.438
 2605SOL    HW2 8714   3.107   4.099   0.533
 2606SOL     OW 8715   2.456   4.469   0.652
 2606SOL    HW1 8716   2.506   4.554   0.633
 2606SOL    HW2 8717   2.368   4.471   0.604
 2607SOL     OW 8718   3.639   4.066   1.642
 2607SOL    HW1 8719   3.622   4.097   1.548
 2607SOL    HW2 8720   3.555   4.029   1.680
 2608SOL     OW 8721   3.592   4.658   1.517
 2608SOL    HW1 8722   3.630   4.749   1.532
 2608SOL    HW2 8723   3.584   4.641   1.418
 2609SOL     OW 8724   2.721   4.680   0.861
 2609SOL    HW1 8725   2.775   4.611   0.909
 2609SOL    HW2 8726   2.689   4.749   0.927
 2610SOL     OW 8727   2.945   4.708   0.087
 2610SOL    HW1 8728   2.922   4.761   0.005
 2610SOL    HW2 8729   3.026   4.652   0.068
 2611SOL     OW 8730   1.941   4.964   0.653
 2611SOL    HW1 8731   1.940   4.917   0.741
 2611SOL    HW2 8732   2.023   4.936   0.602
 2612SOL     OW 8733   3.686   3.916   1.227
 2612SOL    HW1 8734   3.682   3.826   1.271
 2612SOL    HW2 8735   3.689   3.905   1.128
 2613SOL     OW 8736   2.290   4.148   0.520
 2613SOL    HW1 8737   2.320   4.076   0.458
 2613SOL    HW2 8738   2.251   4.108   0.603
 2614SOL     OW 8739   2.179   4.271   1.280
 2614SOL    HW1 8740   2.217   4.212   1.352
 2614SOL    HW2 8741   2.219   4.245   1.192
 2615SOL     OW 8742   3.286   3.938   1.112
 2615SOL    HW1 8743   3.338   3.873   1.167
 2615SOL    HW2 8744   3.237   4.001   1.173
 2616SOL     OW 8745   2.863   3.758   1.154
 2616SOL    HW1 8746   2.800   3.686   1.123
 2616SOL    HW2 8747   2.956   3.722   1.154
 2617SOL     OW 8748   2.632   5.054   0.301
 2617SOL    HW1 8749   2.586   4.967   0.318
 2617SOL    HW2 8750   2.723   5.051   0.342
 2618SOL     OW 8751   3.214   3.776   0.168
 2618SOL    HW1 8752   3.249   3.735   0.084
 2618SOL    HW2 8753   3.124   3.738   0.188
 2619SOL     OW 8754   3.162   4.177   0.691
 2619SOL    HW1 8755   3.103   4.257   0.695
 2619SOL    HW2 8756   3.177   4.142   0.784
 2620SOL     OW 8757   1.901   4.801   0.300
 2620SOL    HW1 8758   2.000   4.790   0.291
 2620SOL    HW2 8759   1.861   4.715   0.332
 2621SOL     OW 8760   2.092   4.352   1.975
 2621SOL    HW1 8761   1.999   4.350   2.012
 2621SOL    HW2 8762   2.093   4.313   1.883
 2622SOL     OW 8763   2.087   3.999   2.858
 2622SOL    HW1 8764   2.122   3.982   2.950
 2622SOL    HW2 8765   1.999   3.954   2.846
 2623SOL     OW 8766   1.881   4.092   2.509
 2623SOL    HW1 8767   1.799   4.135   2.548
 2623SOL    HW2 8768   1.853   4.019   2.446
 2624SOL     OW 8769   2.431   4.999   3.027
 2624SOL    HW1 8770   2.338   4.992   2.990
 2624SOL    HW2 8771   2.442   5.088   3.071
 2625SOL     OW 8772   3.417   5.235   2.565
 2625SOL    HW1 8773   3.360   5.219   2.646
 2625SOL    HW2 8774   3.358   5.245   2.485
 2626SOL     OW 8775   3.617   4.331   2.093
 2626SOL    HW1 8776   3.605   4.318   1.994
 2626SOL    HW2 8777   3.587   4.250   2.142
 2627SOL     OW 8778   2.630   4.868   2.885
 2627SOL    HW1 8779   2.552   4.885   2.945
 2627SOL    HW2 8780   2.664   4.955   2.849
 2628SOL     OW 8781   2.712   4.522   3.685
 2628SOL    HW1 8782   2.708   4.598   3.750
 2628SOL    HW2 8783   2.734   4.558   3.594
 2629SOL     OW 8784   2.547   4.736   2.527
 2629SOL    HW1 8785   2.616   4.720   2.597
 2629SOL    HW2 8786   2.474   4.793   2.565
 2630SOL     OW 8787   2.548   4.885   3.665
 2630SOL    HW1 8788   2.608   4.964   3.679
 2630SOL    HW2 8789   2.462   4.916   3.624
 2631SOL     OW 8790   2.197   5.159   2.923
 2631SOL    HW1 8791   2.119   5.128   2.870
 2631SOL    HW2 8792   2.255   5.217   2.866
 2632SOL     OW 8793   2.300   4.116   3.361
 2632SOL    HW1 8794   2.382   4.060   3.370
 2632SOL    HW2 8795   2.219   4.058   3.365
 2633SOL     OW 8796   3.465   4.171   2.599
 2633SOL    HW1 8797   3.391   4.217   2.549
 2633SOL    HW2 8798   3.516   4.239   2.652
 2634SOL     OW 8799   2.102   4.815   2.748
 2634SOL    HW1 8800   2.116   4.731   2.800
 2634SOL    HW2 8801   2.047   4.879   2.803
 2635SOL     OW 8802   2.468   4.688   1.985
 2635SOL    HW1 8803   2.475   4.772   1.931
 2635SOL    HW2 8804   2.514   4.701   2.073
 2636SOL     OW 8805   3.456   3.838   3.342
 2636SOL    HW1 8806   3.438   3.905   3.270
 2636SOL    HW2 8807   3.453   3.884   3.431
 2637SOL     OW 8808   1.984   4.367   2.425
 2637SOL    HW1 8809   1.939   4.279   2.442
 2637SOL    HW2 8810   1.983   4.421   2.509
 2638SOL     OW 8811   3.551   4.646   2.474
 2638SOL    HW1 8812   3.646   4.617   2.482
 2638SOL    HW2 8813   3.543   4.711   2.399
 2639SOL     OW 8814   3.503   4.832   2.294
 2639SOL    HW1 8815   3.589   4.834   2.242
 2639SOL    HW2 8816   3.517   4.879   2.382
 2640SOL     OW 8817   1.975   4.461   3.459
 2640SOL    HW1 8818   2.063   4.448   3.504
 2640SOL    HW2 8819   1.962   4.558   3.437
 2641SOL     OW 8820   3.155   4.952   3.285
 2641SOL    HW1 8821   3.192   4.879   3.227
 2641SOL    HW2 8822   3.207   4.957   3.370
 2642SOL     OW 8823   2.671   3.728   2.364
 2642SOL    HW1 8824   2.711   3.819   2.355
 2642SOL    HW2 8825   2.571   3.736   2.370
 2643SOL     OW 8826   2.059   4.700   3.126
 2643SOL    HW1 8827   2.148   4.655   3.112
 2643SOL    HW2 8828   1.986   4.635   3.107
 2644SOL     OW 8829   3.387   4.723   2.052
 2644SOL    HW1 8830   3.324   4.647   2.065
 2644SOL    HW2 8831   3.435   4.741   2.138
 2645SOL     OW 8832   2.179   3.975   3.663
 2645SOL    HW1 8833   2.250   4.046   3.669
 2645SOL    HW2 8834   2.091   4.014   3.691
 2646SOL     OW 8835   3.328   5.141   2.815
 2646SOL    HW1 8836   3.269   5.147   2.895
 2646SOL    HW2 8837   3.313   5.053   2.769
 2647SOL     OW 8838   2.460   4.453   2.132
 2647SOL    HW1 8839   2.484   4.522   2.064
 2647SOL    HW2 8840   2.382   4.486   2.186
 2648SOL     OW 8841   3.143   4.069   2.806
 2648SOL    HW1 8842   3.057   4.019   2.793
 2648SOL    HW2 8843   3.205   4.015   2.862
 2649SOL     OW 8844   2.669   4.329   3.327
 2649SOL    HW1 8845   2.622   4.326   3.416
 2649SOL    HW2 8846   2.618   4.274   3.261
 2650SOL     OW 8847   2.835   4.614   3.434
 2650SOL    HW1 8848   2.881   4.530   3.405
 2650SOL    HW2 8849   2.779   4.648   3.359
 2651SOL     OW 8850   2.853   4.134   3.104
 2651SOL    HW1 8851   2.776   4.168   3.158
 2651SOL    HW2 8852   2.819   4.083   3.025
 2652SOL     OW 8853   2.903   4.425   2.291
 2652SOL    HW1 8854   2.929   4.421   2.387
 2652SOL    HW2 8855   2.818   4.374   2.277
 2653SOL     OW 8856   1.938   4.535   2.651
 2653SOL    HW1 8857   2.037   4.523   2.660
 2653SOL    HW2 8858   1.914   4.630   2.672
 2654SOL     OW 8859   2.727   4.072   2.057
 2654SOL    HW1 8860   2.786   4.135   2.008
 2654SOL    HW2 8861   2.746   3.978   2.028
 2655SOL     OW 8862   3.224   4.868   2.407
 2655SOL    HW1 8863   3.307   4.839   2.359
 2655SOL    HW2 8864   3.175   4.935   2.351
 2656SOL     OW 8865   2.412   3.920   2.747
 2656SOL    HW1 8866   2.407   3.915   2.847
 2656SOL    HW2 8867   2.414   4.016   2.718
 2657SOL     OW 8868   3.657   4.790   2.735
 2657SOL    HW1 8869   3.595   4.775   2.659
 2657SOL    HW2 8870   3.605   4.801   2.820
 2658SOL     OW 8871   2.183   4.667   2.104
 2658SOL    HW1 8872   2.265   4.706   2.062
 2658SOL    HW2 8873   2.156   4.585   2.055
 2659SOL     OW 8874   3.320   4.459   2.590
 2659SOL    HW1 8875   3.315   4.394   2.665
 2659SOL    HW2 8876   3.400   4.518   2.603
 2660SOL     OW 8877   2.064   4.009   3.360
 2660SOL    HW1 8878   1.984   4.069   3.347
 2660SOL    HW2 8879   2.054   3.960   3.446
 2661SOL     OW 8880   3.494   5.101   1.943
 2661SOL    HW1 8881   3.462   5.195   1.933
 2661SOL    HW2 8882   3.418   5.038   1.931
 2662SOL     OW 8883   3.262   3.831   2.288
 2662SOL    HW1 8884   3.238   3.794   2.198
 2662SOL    HW2 8885   3.361   3.847   2.292
 2663SOL     OW 8886   2.244   4.424   2.342
 2663SOL    HW1 8887   2.289   4.334   2.339
 2663SOL    HW2 8888   2.150   4.413   2.375
 2664SOL     OW 8889   3.409   3.946   3.591
 2664SOL    HW1 8890   3.404   3.983   3.683
 2664SOL    HW2 8891   3.337   3.877   3.579
 2665SOL     OW 8892   2.476   3.846   1.979
 2665SOL    HW1 8893   2.574   3.824   1.986
 2665SOL    HW2 8894   2.445   3.829   1.886
 2666SOL     OW 8895   2.643   3.988   3.611
 2666SOL    HW1 8896   2.710   3.927   3.654
 2666SOL    HW2 8897   2.570   4.007   3.676
 2667SOL     OW 8898   2.784   4.227   2.761
 2667SOL    HW1 8899   2.759   4.218   2.665
 2667SOL    HW2 8900   2.832   4.145   2.792
 2668SOL     OW 8901   2.401   3.788   2.374
 2668SOL    HW1 8902   2.320   3.789   2.432
 2668SOL    HW2 8903   2.404   3.871   2.319
 2669SOL     OW 8904   3.296   4.912   1.903
 2669SOL    HW1 8905   3.328   4.836   1.960
 2669SOL    HW2 8906   3.204   4.939   1.933
 2670SOL     OW 8907   2.159   3.759   2.033
 2670SOL    HW1 8908   2.208   3.843   2.012
 2670SOL    HW2 8909   2.221   3.694   2.078
 2671SOL     OW 8910   2.797   3.960   2.342
 2671SOL    HW1 8911   2.749   4.001   2.264
 2671SOL    HW2 8912   2.896   3.958   2.323
 2672SOL     OW 8913   2.938   4.407   3.326
 2672SOL    HW1 8914   2.858   4.346   3.329
 2672SOL    HW2 8915   3.019   4.354   3.302
 2673SOL     OW 8916   3.089   5.294   2.655
 2673SOL    HW1 8917   3.110   5.368   2.590
 2673SOL    HW2 8918   3.157   5.294   2.728
 2674SOL     OW 8919   2.321   4.876   2.603
 2674SOL    HW1 8920   2.250   4.849   2.668
 2674SOL    HW2 8921   2.295   4.848   2.510
 2675SOL     OW 8922   2.894   4.273   1.878
 2675SOL    HW1 8923   2.853   4.355   1.839
 2675SOL    HW2 8924   2.958   4.299   1.951
 2676SOL     OW 8925   1.940   4.280   3.248
 2676SOL    HW1 8926   2.032   4.279   3.207
 2676SOL    HW2 8927   1.934   4.354   3.315
 2677SOL     OW 8928   2.423   3.946   3.009
 2677SOL    HW1 8929   2.461   3.862   3.046
 2677SOL    HW2 8930   2.335   3.965   3.053
 2678SOL     OW 8931   2.728   4.178   2.504
 2678SOL    HW1 8932   2.696   4.250   2.442
 2678SOL    HW2 8933   2.752   4.097   2.451
 2679SOL     OW 8934   2.879   3.763   2.615
 2679SOL    HW1 8935   2.807   3.768   2.546
 2679SOL    HW2 8936   2.855   3.694   2.684
 2680SOL     OW 8937   3.291   4.897   2.729
 2680SOL    HW1 8938   3.236   4.813   2.722
 2680SOL    HW2 8939   3.317   4.926   2.637
 2681SOL     OW 8940   3.328   4.314   2.854
 2681SOL    HW1 8941   3.298   4.219   2.861
 2681SOL    HW2 8942   3.401   4.330   2.920
 2682SOL     OW 8943   3.719   4.557   2.239
 2682SOL    HW1 8944   3.761   4.493   2.303
 2682SOL    HW2 8945   3.681   4.506   2.161
 2683SOL     OW 8946   3.526   5.004   2.519
 2683SOL    HW1 8947   3.625   5.012   2.533
 2683SOL    HW2 8948   3.481   5.088   2.550
 2684SOL     OW 8949   3.252   4.299   1.940
 2684SOL    HW1 8950   3.198   4.278   2.021
 2684SOL    HW2 8951   3.343   4.258   1.949
 2685SOL     OW 8952   2.389   3.980   2.190
 2685SOL    HW1 8953   2.416   3.921   2.115
 2685SOL    HW2 8954   2.389   4.075   2.159
 2686SOL     OW 8955   3.616   4.947   3.450
 2686SOL    HW1 8956   3.707   4.908   3.437
 2686SOL    HW2 8957   3.624   5.043   3.474
 2687SOL     OW 8958   3.500   4.823   2.941
 2687SOL    HW1 8959   3.505   4.904   3.000
 2687SOL    HW2 8960   3.414   4.825   2.890
 2688SOL     OW 8961   2.777   3.813   3.264
 2688SOL    HW1 8962   2.802   3.793   3.169
 2688SOL    HW2 8963   2.849   3.869   3.306
 2689SOL     OW 8964   2.842   4.840   3.581
 2689SOL    HW1 8965   2.743   4.846   3.591
 2689SOL    HW2 8966   2.865   4.760   3.525
 2690SOL     OW 8967   2.567   4.774   2.230
 2690SOL    HW1 8968   2.553   4.781   2.329
 2690SOL    HW2 8969   2.651   4.723   2.212
 2691SOL     OW 8970   2.272   4.537   3.113
 2691SOL    HW1 8971   2.358   4.549   3.163
 2691SOL    HW2 8972   2.230   4.450   3.140
 2692SOL     OW 8973   3.136   4.110   3.124
 2692SOL    HW1 8974   3.157   4.184   3.188
 2692SOL    HW2 8975   3.047   4.127   3.081
 2693SOL     OW 8976   2.229   4.824   2.363
 2693SOL    HW1 8977   2.222   4.907   2.307
 2693SOL    HW2 8978   2.233   4.744   2.303
 2694SOL     OW 8979   2.428   4.261   2.727
 2694SOL    HW1 8980   2.440   4.327   2.653
 2694SOL    HW2 8981   2.474   4.295   2.810
 2695SOL     OW 8982   3.444   4.363   2.334
 2695SOL    HW1 8983   3.413   4.424   2.407
 2695SOL    HW2 8984   3.494   4.415   2.265
 2696SOL     OW 8985   2.264   4.475   3.460
 2696SOL    HW1 8986   2.332   4.530   3.413
 2696SOL    HW2 8987   2.304   4.387   3.487
 2697SOL     OW 8988   2.366   3.774   3.602
 2697SOL    HW1 8989   2.324   3.717   3.532
 2697SOL    HW2 8990   2.300   3.843   3.634
 2698SOL     OW 8991   2.435   4.594   2.891
 2698SOL    HW1 8992   2.479   4.683   2.882
 2698SOL    HW2 8993   2.372   4.594   2.968
 2699SOL     OW 8994   3.222   4.586   2.907
 2699SOL    HW1 8995   3.147   4.586   2.841
 2699SOL    HW2 8996   3.259   4.494   2.916
 2700SOL     OW 8997   3.071   4.249   2.137
 2700SOL    HW1 8998   3.084   4.165   2.191
 2700SOL    HW2 8999   3.042   4.323   2.197
 2701SOL     OW 9000   2.169   3.937   3.093
 2701SOL    HW1 9001   2.146   3.974   3.183
 2701SOL    HW2 9002   2.139   3.842   3.087
 2702SOL     OW 9003   2.594   4.358   2.926
 2702SOL    HW1 9004   2.653   4.332   2.850
 2702SOL    HW2 9005   2.566   4.454   2.915
 2703SOL     OW 9006   3.590   4.659   3.716
 2703SOL    HW1 9007   3.544   4.652   3.627
 2703SOL    HW2 9008   3.528   4.703   3.782
 2704SOL     OW 9009   2.169   3.787   2.480
 2704SOL    HW1 9010   2.158   3.881   2.513
 2704SOL    HW2 9011   2.164   3.724   2.557
 2705SOL     OW 9012   3.484   4.091   2.236
 2705SOL    HW1 9013   3.486   4.015   2.300
 2705SOL    HW2 9014   3.436   4.168   2.276
 2706SOL     OW 9015   2.885   4.490   2.828
 2706SOL    HW1 9016   2.900   4.511   2.924
 2706SOL    HW2 9017   2.855   4.395   2.819
 2707SOL     OW 9018   3.721   5.242   3.467
 2707SOL    HW1 9019   3.735   5.269   3.372
 2707SOL    HW2 9020   3.804   5.264   3.520
 2708SOL     OW 9021   2.212   4.622   3.666
 2708SOL    HW1 9022   2.288   4.666   3.714
 2708SOL    HW2 9023   2.247   4.575   3.584
 2709SOL     OW 9024   3.402   3.998   1.987
 2709SOL    HW1 9025   3.341   3.923   2.010
 2709SOL    HW2 9026   3.424   4.050   2.070
 2710SOL     OW 9027   3.165   4.562   1.904
 2710SOL    HW1 9028   3.199   4.469   1.919
 2710SOL    HW2 9029   3.183   4.589   1.809
 2711SOL     OW 9030   2.181   4.534   2.811
 2711SOL    HW1 9031   2.274   4.570   2.816
 2711SOL    HW2 9032   2.175   4.449   2.863
 2712SOL     OW 9033   2.201   4.233   2.868
 2712SOL    HW1 9034   2.149   4.150   2.851
 2712SOL    HW2 9035   2.278   4.238   2.804
 2713SOL     OW 9036   1.870   5.050   2.062
 2713SOL    HW1 9037   1.777   5.071   2.031
 2713SOL    HW2 9038   1.880   4.951   2.075
 2714SOL     OW 9039   2.864   4.520   3.100
 2714SOL    HW1 9040   2.905   4.488   3.186
 2714SOL    HW2 9041   2.768   4.493   3.097
 2715SOL     OW 9042   2.051   4.244   3.584
 2715SOL    HW1 9043   2.110   4.204   3.514
 2715SOL    HW2 9044   1.993   4.315   3.543
 2716SOL     OW 9045   2.677   4.296   2.187
 2716SOL    HW1 9046   2.684   4.207   2.141
 2716SOL    HW2 9047   2.583   4.330   2.179
 2717SOL     OW 9048   3.519   4.328   3.068
 2717SOL    HW1 9049   3.481   4.259   3.130
 2717SOL    HW2 9050   3.601   4.292   3.024
 2718SOL     OW 9051   2.533   4.188   3.131
 2718SOL    HW1 9052   2.499   4.099   3.101
 2718SOL    HW2 9053   2.559   4.242   3.051
 2719SOL     OW 9054   2.335   4.224   2.053
 2719SOL    HW1 9055   2.396   4.304   2.057
 2719SOL    HW2 9056   2.240   4.255   2.060
 2720SOL     OW 9057   2.021   4.861   3.328
 2720SOL    HW1 9058   2.043   4.800   3.404
 2720SOL    HW2 9059   2.031   4.812   3.242
 2721SOL     OW 9060   3.209   4.783   3.096
 2721SOL    HW1 9061   3.233   4.720   3.022
 2721SOL    HW2 9062   3.119   4.823   3.078
 2722SOL     OW 9063   3.164   4.579   2.171
 2722SOL    HW1 9064   3.078   4.548   2.213
 2722SOL    HW2 9065   3.160   4.565   2.072
 2723SOL     OW 9066   1.945   4.982   2.884
 2723SOL    HW1 9067   1.940   4.981   2.984
 2723SOL    HW2 9068   1.862   4.941   2.846
 2724SOL     OW 9069   3.588   3.859   2.385
 2724SOL    HW1 9070   3.661   3.842   2.318
 2724SOL    HW2 9071   3.557   3.772   2.423
 2725SOL     OW 9072   2.692   4.997   3.284
 2725SOL    HW1 9073   2.687   5.030   3.379
 2725SOL    HW2 9074   2.606   5.016   3.238
 2726SOL     OW 9075   3.703   3.899   2.825
 2726SOL    HW1 9076   3.742   3.814   2.789
 2726SOL    HW2 9077   3.605   3.901   2.806
 2727SOL     OW 9078   2.125   4.050   2.582
 2727SOL    HW1 9079   2.046   4.101   2.548
 2727SOL    HW2 9080   2.116   4.035   2.680
 2728SOL     OW 9081   3.056   5.336   1.893
 2728SOL    HW1 9082   3.062   5.243   1.930
 2728SOL    HW2 9083   2.997   5.336   1.813
 2729SOL     OW 9084   2.684   4.726   3.234
 2729SOL    HW1 9085   2.724   4.725   3.142
 2729SOL    HW2 9086   2.694   4.818   3.274
 2730SOL     OW 9087   2.778   4.634   2.153
 2730SOL    HW1 9088   2.841   4.672   2.085
 2730SOL    HW2 9089   2.818   4.551   2.192
 2731SOL     OW 9090   2.234   5.012   3.352
 2731SOL    HW1 9091   2.221   5.105   3.318
 2731SOL    HW2 9092   2.150   4.960   3.339
 2732SOL     OW 9093   3.476   5.016   3.151
 2732SOL    HW1 9094   3.536   5.019   3.231
 2732SOL    HW2 9095   3.401   5.080   3.164
 2733SOL     OW 9096   2.876   3.960   2.833
 2733SOL    HW1 9097   2.868   3.924   2.740
 2733SOL    HW2 9098   2.874   3.884   2.898
 2734SOL     OW 9099   3.571   4.109   3.243
 2734SOL    HW1 9100   3.644   4.178   3.247
 2734SOL    HW2 9101   3.599   4.034   3.184
 2735SOL     OW 9102   1.967   4.737   3.588
 2735SOL    HW1 9103   1.890   4.704   3.642
 2735SOL    HW2 9104   2.052   4.707   3.630
 2736SOL     OW 9105   2.534   3.927   3.351
 2736SOL    HW1 9106   2.624   3.911   3.311
 2736SOL    HW2 9107   2.542   3.932   3.450
 2737SOL     OW 9108   1.937   4.069   1.895
 2737SOL    HW1 9109   1.845   4.041   1.866
 2737SOL    HW2 9110   1.968   4.146   1.839
 2738SOL     OW 9111   1.934   3.890   2.180
 2738SOL    HW1 9112   1.917   3.973   2.126
 2738SOL    HW2 9113   2.024   3.853   2.158
 2739SOL     OW 9114   2.475   4.566   3.293
 2739SOL    HW1 9115   2.531   4.647   3.276
 2739SOL    HW2 9116   2.534   4.486   3.296
 2740SOL     OW 9117   2.578   4.289   3.570
 2740SOL    HW1 9118   2.597   4.354   3.644
 2740SOL    HW2 9119   2.638   4.209   3.579
 2741SOL     OW 9120   3.312   4.944   3.495
 2741SOL    HW1 9121   3.303   4.934   3.594
 2741SOL    HW2 9122   3.408   4.937   3.469
 2742SOL     OW 9123   3.536   4.607   3.116
 2742SOL    HW1 9124   3.509   4.518   3.079
 2742SOL    HW2 9125   3.537   4.675   3.043
 2743SOL     OW 9126   3.087   4.049   2.311
 2743SOL    HW1 9127   3.152   3.975   2.300
 2743SOL    HW2 9128   3.107   4.099   2.395
 2744SOL     OW 9129   2.456   4.469   2.514
 2744SOL    HW1 9130   2.506   4.554   2.495
 2744SOL    HW2 9131   2.368   4.471   2.466
 2745SOL     OW 9132   3.639   4.066   3.504
 2745SOL    HW1 9133   3.622   4.097   3.410
 2745SOL    HW2 9134   3.555   4.029   3.542
 2746SOL     OW 9135   3.592   4.658   3.379
 2746SOL    HW1 9136   3.630   4.749   3.394
 2746SOL    HW2 9137   3.584   4.641   3.280
 2747SOL     OW 9138   2.945   4.708   1.949
 2747SOL    HW1 9139   2.922   4.761   1.867
 2747SOL    HW2 9140   3.026   4.652   1.930
 2748SOL     OW 9141   1.941   4.964   2.515
 2748SOL    HW1 9142   1.940   4.917   2.603
 2748SOL    HW2 9143   2.023   4.936   2.464
 2749SOL     OW 9144   3.686   3.916   3.089
 2749SOL    HW1 9145   3.682   3.826   3.133
 2749SOL    HW2 9146   3.689   3.905   2.990
 2750SOL     OW 9147   2.290   4.148   2.382
 2750SOL    HW1 9148   2.320   4.076   2.320
 2750SOL    HW2 9149   2.251   4.108   2.465
 2751SOL     OW 9150   2.179   4.271   3.142
 2751SOL    HW1 9151   2.217   4.212   3.214
 2751SOL    HW2 9152   2.219   4.245   3.054
 2752SOL     OW 9153   3.286   3.938   2.974
 2752SOL    HW1 9154   3.338   3.873   3.029
 2752SOL    HW2 9155   3.237   4.001   3.035
 2753SOL     OW 9156   2.863   3.758   3.016
 2753SOL    HW1 9157   2.800   3.686   2.985
 2753SOL    HW2 9158   2.956   3.722   3.016
 2754SOL     OW 9159   2.632   5.054   2.163
 2754SOL    HW1 9160   2.586   4.967   2.180
 2754SOL    HW2 9161   2.723   5.051   2.204
 2755SOL     OW 9162   3.214   3.776   2.030
 2755SOL    HW1 9163   3.249   3.735   1.946
 2755SOL    HW2 9164   3.124   3.738   2.050
 2756SOL     OW 9165   3.162   4.177   2.553
 2756SOL    HW1 9166   3.103   4.257   2.557
 2756SOL    HW2 9167   3.177   4.142   2.646
 2757SOL     OW 9168   3.455   3.945   2.744
 2757SOL    HW1 9169   3.371   3.944   2.798
 2757SOL    HW2 9170   3.457   4.028   2.688
 2758SOL     OW 9171   1.901   4.801   2.162
 2758SOL    HW1 9172   2.000   4.790   2.153
 2758SOL    HW2 9173   1.861   4.715   2.194
 2759SOL     OW 9174   2.092   4.352   3.837
 2759SOL    HW1 9175   1.999   4.350   3.874
 2759SOL    HW2 9176   2.093   4.313   3.745
 2760SOL     OW 9177   2.087   3.999   4.720
 2760SOL    HW1 9178   2.122   3.982   4.812
 2760SOL    HW2 9179   1.999   3.954   4.708
 2761SOL     OW 9180   1.881   4.092   4.371
 2761SOL    HW1 9181   1.799   4.135   4.410
 2761SOL    HW2 9182   1.853   4.019   4.308
 2762SOL     OW 9183   2.431   4.999   4.889
 2762SOL    HW1 9184   2.338   4.992   4.852
 2762SOL    HW2 9185   2.442   5.088   4.933
 2763SOL     OW 9186   3.417   5.235   4.427
 2763SOL    HW1 9187   3.360   5.219   4.508
 2763SOL    HW2 9188   3.358   5.245   4.347
 2764SOL     OW 9189   2.997   4.427   4.441
 2764SOL    HW1 9190   3.054   4.505   4.416
 2764SOL    HW2 9191   2.937   4.453   4.517
 2765SOL     OW 9192   2.630   4.868   4.747
 2765SOL    HW1 9193   2.552   4.885   4.807
 2765SOL    HW2 9194   2.664   4.955   4.711
 2766SOL     OW 9195   2.547   4.736   4.389
 2766SOL    HW1 9196   2.616   4.720   4.459
 2766SOL    HW2 9197   2.474   4.793   4.427
 2767SOL     OW 9198   2.197   5.159   4.785
 2767SOL    HW1 9199   2.119   5.128   4.732
 2767SOL    HW2 9200   2.255   5.217   4.728
 2768SOL     OW 9201   3.465   4.171   4.461
 2768SOL    HW1 9202   3.391   4.217   4.411
 2768SOL    HW2 9203   3.516   4.239   4.514
 2769SOL     OW 9204   2.102   4.815   4.610
 2769SOL    HW1 9205   2.116   4.731   4.662
 2769SOL    HW2 9206   2.047   4.879   4.665
 2770SOL     OW 9207   2.468   4.688   3.847
 2770SOL    HW1 9208   2.475   4.772   3.793
 2770SOL    HW2 9209   2.514   4.701   3.935
 2771SOL     OW 9210   1.984   4.367   4.287
 2771SOL    HW1 9211   1.939   4.279   4.304
 2771SOL    HW2 9212   1.983   4.421   4.371
 2772SOL     OW 9213   3.503   4.832   4.156
 2772SOL    HW1 9214   3.589   4.834   4.104
 2772SOL    HW2 9215   3.517   4.879   4.244
 2773SOL     OW 9216   2.671   3.728   4.226
 2773SOL    HW1 9217   2.711   3.819   4.217
 2773SOL    HW2 9218   2.571   3.736   4.232
 2774SOL     OW 9219   2.059   4.700   4.988
 2774SOL    HW1 9220   2.148   4.655   4.974
 2774SOL    HW2 9221   1.986   4.635   4.969
 2775SOL     OW 9222   3.328   5.141   4.677
 2775SOL    HW1 9223   3.269   5.147   4.757
 2775SOL    HW2 9224   3.313   5.053   4.631
 2776SOL     OW 9225   2.460   4.453   3.994
 2776SOL    HW1 9226   2.484   4.522   3.926
 2776SOL    HW2 9227   2.382   4.486   4.048
 2777SOL     OW 9228   3.143   4.069   4.668
 2777SOL    HW1 9229   3.057   4.019   4.655
 2777SOL    HW2 9230   3.205   4.015   4.724
 2778SOL     OW 9231   2.853   4.134   4.966
 2778SOL    HW1 9232   2.776   4.168   5.020
 2778SOL    HW2 9233   2.819   4.083   4.887
 2779SOL     OW 9234   2.903   4.425   4.153
 2779SOL    HW1 9235   2.929   4.421   4.249
 2779SOL    HW2 9236   2.818   4.374   4.139
 2780SOL     OW 9237   1.938   4.535   4.513
 2780SOL    HW1 9238   2.037   4.523   4.522
 2780SOL    HW2 9239   1.914   4.630   4.534
 2781SOL     OW 9240   2.727   4.072   3.919
 2781SOL    HW1 9241   2.786   4.135   3.870
 2781SOL    HW2 9242   2.746   3.978   3.890
 2782SOL     OW 9243   3.224   4.868   4.269
 2782SOL    HW1 9244   3.307   4.839   4.221
 2782SOL    HW2 9245   3.175   4.935   4.213
 2783SOL     OW 9246   2.412   3.920   4.609
 2783SOL    HW1 9247   2.407   3.915   4.709
 2783SOL    HW2 9248   2.414   4.016   4.580
 2784SOL     OW 9249   3.657   4.790   4.597
 2784SOL    HW1 9250   3.595   4.775   4.521
 2784SOL    HW2 9251   3.605   4.801   4.682
 2785SOL     OW 9252   2.183   4.667   3.966
 2785SOL    HW1 9253   2.265   4.706   3.924
 2785SOL    HW2 9254   2.156   4.585   3.917
 2786SOL     OW 9255   3.320   4.459   4.452
 2786SOL    HW1 9256   3.315   4.394   4.527
 2786SOL    HW2 9257   3.400   4.518   4.465
 2787SOL     OW 9258   3.494   5.101   3.805
 2787SOL    HW1 9259   3.462   5.195   3.795
 2787SOL    HW2 9260   3.418   5.038   3.793
 2788SOL     OW 9261   3.262   3.831   4.150
 2788SOL    HW1 9262   3.238   3.794   4.060
 2788SOL    HW2 9263   3.361   3.847   4.154
 2789SOL     OW 9264   2.244   4.424   4.204
 2789SOL    HW1 9265   2.289   4.334   4.201
 2789SOL    HW2 9266   2.150   4.413   4.237
 2790SOL     OW 9267   2.476   3.846   3.841
 2790SOL    HW1 9268   2.574   3.824   3.848
 2790SOL    HW2 9269   2.445   3.829   3.748
 2791SOL     OW 9270   2.665   5.126   4.648
 2791SOL    HW1 9271   2.755   5.140   4.606
 2791SOL    HW2 9272   2.594   5.128   4.577
 2792SOL     OW 9273   2.784   4.227   4.623
 2792SOL    HW1 9274   2.759   4.218   4.527
 2792SOL    HW2 9275   2.832   4.145   4.654
 2793SOL     OW 9276   2.401   3.788   4.236
 2793SOL    HW1 9277   2.320   3.789   4.294
 2793SOL    HW2 9278   2.404   3.871   4.181
 2794SOL     OW 9279   3.296   4.912   3.765
 2794SOL    HW1 9280   3.328   4.836   3.822
 2794SOL    HW2 9281   3.204   4.939   3.795
 2795SOL     OW 9282   2.159   3.759   3.895
 2795SOL    HW1 9283   2.208   3.843   3.874
 2795SOL    HW2 9284   2.221   3.694   3.940
 2796SOL     OW 9285   2.797   3.960   4.204
 2796SOL    HW1 9286   2.749   4.001   4.126
 2796SOL    HW2 9287   2.896   3.958   4.185
 2797SOL     OW 9288   3.089   5.294   4.517
 2797SOL    HW1 9289   3.110   5.368   4.452
 2797SOL    HW2 9290   3.157   5.294   4.590
 2798SOL     OW 9291   2.321   4.876   4.465
 2798SOL    HW1 9292   2.250   4.849   4.530
 2798SOL    HW2 9293   2.295   4.848   4.372
 2799SOL     OW 9294   2.423   3.946   4.871
 2799SOL    HW1 9295   2.461   3.862   4.908
 2799SOL    HW2 9296   2.335   3.965   4.915
 2800SOL     OW 9297   2.728   4.178   4.366
 2800SOL    HW1 9298   2.696   4.250   4.304
 2800SOL    HW2 9299   2.752   4.097   4.313
 2801SOL     OW 9300   2.879   3.763   4.477
 2801SOL    HW1 9301   2.807   3.768   4.408
 2801SOL    HW2 9302   2.855   3.694   4.546
 2802SOL     OW 9303   3.291   4.897   4.591
 2802SOL    HW1 9304   3.236   4.813   4.584
 2802SOL    HW2 9305   3.317   4.926   4.499
 2803SOL     OW 9306   3.328   4.314   4.716
 2803SOL    HW1 9307   3.298   4.219   4.723
 2803SOL    HW2 9308   3.401   4.330   4.782
 2804SOL     OW 9309   3.526   5.004   4.381
 2804SOL    HW1 9310   3.625   5.012   4.395
 2804SOL    HW2 9311   3.481   5.088   4.412
 2805SOL     OW 9312   2.389   3.980   4.052
 2805SOL    HW1 9313   2.416   3.921   3.977
 2805SOL    HW2 9314   2.389   4.075   4.021
 2806SOL     OW 9315   3.500   4.823   4.803
 2806SOL    HW1 9316   3.505   4.904   4.862
 2806SOL    HW2 9317   3.414   4.825   4.752
 2807SOL     OW 9318   2.567   4.774   4.092
 2807SOL    HW1 9319   2.553   4.781   4.191
 2807SOL    HW2 9320   2.651   4.723   4.074
 2808SOL     OW 9321   2.272   4.537   4.975
 2808SOL    HW1 9322   2.358   4.549   5.025
 2808SOL    HW2 9323   2.230   4.450   5.002
 2809SOL     OW 9324   3.136   4.110   4.986
 2809SOL    HW1 9325   3.157   4.184   5.050
 2809SOL    HW2 9326   3.047   4.127   4.943
 2810SOL     OW 9327   2.229   4.824   4.225
 2810SOL    HW1 9328   2.222   4.907   4.169
 2810SOL    HW2 9329   2.233   4.744   4.165
 2811SOL     OW 9330   2.428   4.261   4.589
 2811SOL    HW1 9331   2.440   4.327   4.515
 2811SOL    HW2 9332   2.474   4.295   4.672
 2812SOL     OW 9333   3.444   4.363   4.196
 2812SOL    HW1 9334   3.413   4.424   4.269
 2812SOL    HW2 9335   3.494   4.415   4.127
 2813SOL     OW 9336   2.435   4.594   4.753
 2813SOL    HW1 9337   2.479   4.683   4.744
 2813SOL    HW2 9338   2.372   4.594   4.830
 2814SOL     OW 9339   3.222   4.586   4.769
 2814SOL    HW1 9340   3.147   4.586   4.703
 2814SOL    HW2 9341   3.259   4.494   4.778
 2815SOL     OW 9342   2.169   3.937   4.955
 2815SOL    HW1 9343   2.146   3.974   5.045
 2815SOL    HW2 9344   2.139   3.842   4.949
 2816SOL     OW 9345   2.594   4.358   4.788
 2816SOL    HW1 9346   2.653   4.332   4.712
 2816SOL    HW2 9347   2.566   4.454   4.777
 2817SOL     OW 9348   2.169   3.787   4.342
 2817SOL    HW1 9349   2.158   3.881   4.375
 2817SOL    HW2 9350   2.164   3.724   4.419
 2818SOL     OW 9351   3.484   4.091   4.098
 2818SOL    HW1 9352   3.486   4.015   4.162
 2818SOL    HW2 9353   3.436   4.168   4.138
 2819SOL     OW 9354   2.885   4.490   4.690
 2819SOL    HW1 9355   2.900   4.511   4.786
 2819SOL    HW2 9356   2.855   4.395   4.681
 2820SOL     OW 9357   3.402   3.998   3.849
 2820SOL    HW1 9358   3.341   3.923   3.872
 2820SOL    HW2 9359   3.424   4.050   3.932
 2821SOL     OW 9360   2.181   4.534   4.673
 2821SOL    HW1 9361   2.274   4.570   4.678
 2821SOL    HW2 9362   2.175   4.449   4.725
 2822SOL     OW 9363   2.201   4.233   4.730
 2822SOL    HW1 9364   2.149   4.150   4.713
 2822SOL    HW2 9365   2.278   4.238   4.666
 2823SOL     OW 9366   3.022   3.931   5.201
 2823SOL    HW1 9367   3.022   3.995   5.278
 2823SOL    HW2 9368   3.050   3.979   5.118
 2824SOL     OW 9369   1.870   5.050   3.924
 2824SOL    HW1 9370   1.777   5.071   3.893
 2824SOL    HW2 9371   1.880   4.951   3.937
 2825SOL     OW 9372   2.864   4.520   4.962
 2825SOL    HW1 9373   2.905   4.488   5.048
 2825SOL    HW2 9374   2.768   4.493   4.959
 2826SOL     OW 9375   1.902   4.268   4.838
 2826SOL    HW1 9376   1.987   4.235   4.797
 2826SOL    HW2 9377   1.915   4.283   4.936
 2827SOL     OW 9378   2.677   4.296   4.049
 2827SOL    HW1 9379   2.684   4.207   4.003
 2827SOL    HW2 9380   2.583   4.330   4.041
 2828SOL     OW 9381   3.519   4.328   4.930
 2828SOL    HW1 9382   3.481   4.259   4.992
 2828SOL    HW2 9383   3.601   4.292   4.886
 2829SOL     OW 9384   2.533   4.188   4.993
 2829SOL    HW1 9385   2.499   4.099   4.963
 2829SOL    HW2 9386   2.559   4.242   4.913
 2830SOL     OW 9387   2.335   4.224   3.915
 2830SOL    HW1 9388   2.396   4.304   3.919
 2830SOL    HW2 9389   2.240   4.255   3.922
 2831SOL     OW 9390   3.209   4.783   4.958
 2831SOL    HW1 9391   3.233   4.720   4.884
 2831SOL    HW2 9392   3.119   4.823   4.940
 2832SOL     OW 9393   1.945   4.982   4.746
 2832SOL    HW1 9394   1.940   4.981   4.846
 2832SOL    HW2 9395   1.862   4.941   4.708
 2833SOL     OW 9396   3.588   3.859   4.247
 2833SOL    HW1 9397   3.661   3.842   4.180
 2833SOL    HW2 9398   3.557   3.772   4.285
 2834SOL     OW 9399   3.142   4.651   4.396
 2834SOL    HW1 9400   3.202   4.570   4.398
 2834SOL    HW2 9401   3.182   4.720   4.336
 2835SOL     OW 9402   2.692   4.997   5.146
 2835SOL    HW1 9403   2.687   5.030   5.241
 2835SOL    HW2 9404   2.606   5.016   5.100
 2836SOL     OW 9405   3.703   3.899   4.687
 2836SOL    HW1 9406   3.742   3.814   4.651
 2836SOL    HW2 9407   3.605   3.901   4.668
 2837SOL     OW 9408   2.125   4.050   4.444
 2837SOL    HW1 9409   2.046   4.101   4.410
 2837SOL    HW2 9410   2.116   4.035   4.542
 2838SOL     OW 9411   3.056   5.336   3.755
 2838SOL    HW1 9412   3.062   5.243   3.792
 2838SOL    HW2 9413   2.997   5.336   3.675
 2839SOL     OW 9414   2.684   4.726   5.096
 2839SOL    HW1 9415   2.724   4.725   5.004
 2839SOL    HW2 9416   2.694   4.818   5.136
 2840SOL     OW 9417   2.778   4.634   4.015
 2840SOL    HW1 9418   2.841   4.672   3.947
 2840SOL    HW2 9419   2.818   4.551   4.054
 2841SOL     OW 9420   2.901   4.822   4.420
 2841SOL    HW1 9421   2.831   4.775   4.474
 2841SOL    HW2 9422   2.960   4.754   4.377
 2842SOL     OW 9423   2.876   3.960   4.695
 2842SOL    HW1 9424   2.868   3.924   4.602
 2842SOL    HW2 9425   2.874   3.884   4.760
 2843SOL     OW 9426   3.571   4.109   5.105
 2843SOL    HW1 9427   3.644   4.178   5.109
 2843SOL    HW2 9428   3.599   4.034   5.046
 2844SOL     OW 9429   1.937   4.069   3.757
 2844SOL    HW1 9430   1.845   4.041   3.728
 2844SOL    HW2 9431   1.968   4.146   3.701
 2845SOL     OW 9432   1.934   3.890   4.042
 2845SOL    HW1 9433   1.917   3.973   3.988
 2845SOL    HW2 9434   2.024   3.853   4.020
 2846SOL     OW 9435   3.312   4.944   5.357
 2846SOL    HW1 9436   3.303   4.934   5.456
 2846SOL    HW2 9437   3.408   4.937   5.331
 2847SOL     OW 9438   3.536   4.607   4.978
 2847SOL    HW1 9439   3.509   4.518   4.941
 2847SOL    HW2 9440   3.537   4.675   4.905
 2848SOL     OW 9441   3.087   4.049   4.173
 2848SOL    HW1 9442   3.152   3.975   4.162
 2848SOL    HW2 9443   3.107   4.099   4.257
 2849SOL     OW 9444   2.456   4.469   4.376
 2849SOL    HW1 9445   2.506   4.554   4.357
 2849SOL    HW2 9446   2.368   4.471   4.328
 2850SOL     OW 9447   3.592   4.658   5.241
 2850SOL    HW1 9448   3.630   4.749   5.256
 2850SOL    HW2 9449   3.584   4.641   5.142
 2851SOL     OW 9450   2.721   4.680   4.585
 2851SOL    HW1 9451   2.775   4.611   4.633
 2851SOL    HW2 9452   2.689   4.749   4.651
 2852SOL     OW 9453   2.945   4.708   3.811
 2852SOL    HW1 9454   2.922   4.761   3.729
 2852SOL    HW2 9455   3.026   4.652   3.792
 2853SOL     OW 9456   1.941   4.964   4.377
 2853SOL    HW1 9457   1.940   4.917   4.465
 2853SOL    HW2 9458   2.023   4.936   4.326
 2854SOL     OW 9459   3.686   3.916   4.951
 2854SOL    HW1 9460   3.682   3.826   4.995
 2854SOL    HW2 9461   3.689   3.905   4.852
 2855SOL     OW 9462   2.290   4.148   4.244
 2855SOL    HW1 9463   2.320   4.076   4.182
 2855SOL    HW2 9464   2.251   4.108   4.327
 2856SOL     OW 9465   3.286   3.938   4.836
 2856SOL    HW1 9466   3.338   3.873   4.891
 2856SOL    HW2 9467   3.237   4.001   4.897
 2857SOL     OW 9468   2.863   3.758   4.878
 2857SOL    HW1 9469   2.800   3.686   4.847
 2857SOL    HW2 9470   2.956   3.722   4.878
 2858SOL     OW 9471   2.632   5.054   4.025
 2858SOL    HW1 9472   2.586   4.967   4.042
 2858SOL    HW2 9473   2.723   5.051   4.066
 2859SOL     OW 9474   3.214   3.776   3.892
 2859SOL    HW1 9475   3.249   3.735   3.808
 2859SOL    HW2 9476   3.124   3.738   3.912
 2860SOL     OW 9477   3.162   4.177   4.415
 2860SOL    HW1 9478   3.103   4.257   4.419
 2860SOL    HW2 9479   3.177   4.142   4.508
 2861SOL     OW 9480   3.455   3.945   4.606
 2861SOL    HW1 9481   3.371   3.944   4.660
 2861SOL    HW2 9482   3.457   4.028   4.550
 2862SOL     OW 9483   1.901   4.801   4.024
 2862SOL    HW1 9484   2.000   4.790   4.015
 2862SOL    HW2 9485   1.861   4.715   4.056
 2863SOL     OW 9486   3.954   0.628   0.113
 2863SOL    HW1 9487   3.861   0.626   0.150
 2863SOL    HW2 9488   3.955   0.589   0.021
 2864SOL     OW 9489   3.949   0.275   0.996
 2864SOL    HW1 9490   3.984   0.258   1.088
 2864SOL    HW2 9491   3.861   0.230   0.984
 2865SOL     OW 9492   3.743   0.368   0.647
 2865SOL    HW1 9493   3.661   0.411   0.686
 2865SOL    HW2 9494   3.715   0.295   0.584
 2866SOL     OW 9495   4.293   1.275   1.165
 2866SOL    HW1 9496   4.200   1.268   1.128
 2866SOL    HW2 9497   4.304   1.364   1.209
 2867SOL     OW 9498   4.859   0.703   0.717
 2867SOL    HW1 9499   4.916   0.781   0.692
 2867SOL    HW2 9500   4.799   0.729   0.793
 2868SOL     OW 9501   4.492   1.144   1.023
 2868SOL    HW1 9502   4.414   1.161   1.083
 2868SOL    HW2 9503   4.526   1.231   0.987
 2869SOL     OW 9504   4.574   0.798   1.823
 2869SOL    HW1 9505   4.570   0.874   1.888
 2869SOL    HW2 9506   4.596   0.834   1.732
 2870SOL     OW 9507   4.409   1.012   0.665
 2870SOL    HW1 9508   4.478   0.996   0.735
 2870SOL    HW2 9509   4.336   1.069   0.703
 2871SOL     OW 9510   4.410   1.161   1.803
 2871SOL    HW1 9511   4.470   1.240   1.817
 2871SOL    HW2 9512   4.324   1.192   1.762
 2872SOL     OW 9513   4.059   1.435   1.061
 2872SOL    HW1 9514   3.981   1.404   1.008
 2872SOL    HW2 9515   4.117   1.493   1.004
 2873SOL     OW 9516   4.162   0.392   1.499
 2873SOL    HW1 9517   4.244   0.336   1.508
 2873SOL    HW2 9518   4.081   0.334   1.503
 2874SOL     OW 9519   3.955   1.713   0.483
 2874SOL    HW1 9520   3.989   1.790   0.537
 2874SOL    HW2 9521   3.999   1.713   0.393
 2875SOL     OW 9522   4.851   1.341   1.690
 2875SOL    HW1 9523   4.898   1.341   1.778
 2875SOL    HW2 9524   4.803   1.254   1.679
 2876SOL     OW 9525   3.954   1.434   0.538
 2876SOL    HW1 9526   3.928   1.530   0.538
 2876SOL    HW2 9527   3.883   1.380   0.583
 2877SOL     OW 9528   3.964   1.091   0.886
 2877SOL    HW1 9529   3.978   1.007   0.938
 2877SOL    HW2 9530   3.909   1.155   0.941
 2878SOL     OW 9531   4.344   1.786   1.439
 2878SOL    HW1 9532   4.252   1.769   1.474
 2878SOL    HW2 9533   4.372   1.878   1.465
 2879SOL     OW 9534   4.330   0.964   0.123
 2879SOL    HW1 9535   4.337   1.048   0.069
 2879SOL    HW2 9536   4.376   0.977   0.211
 2880SOL     OW 9537   3.846   0.643   0.563
 2880SOL    HW1 9538   3.801   0.555   0.580
 2880SOL    HW2 9539   3.845   0.697   0.647
 2881SOL     OW 9540   3.751   1.596   0.117
 2881SOL    HW1 9541   3.732   1.500   0.138
 2881SOL    HW2 9542   3.718   1.654   0.192
 2882SOL     OW 9543   3.837   0.737   1.597
 2882SOL    HW1 9544   3.925   0.724   1.642
 2882SOL    HW2 9545   3.824   0.834   1.575
 2883SOL     OW 9546   4.337   1.365   0.726
 2883SOL    HW1 9547   4.288   1.278   0.735
 2883SOL    HW2 9548   4.314   1.408   0.639
 2884SOL     OW 9549   5.017   1.228   1.423
 2884SOL    HW1 9550   5.054   1.155   1.365
 2884SOL    HW2 9551   5.069   1.233   1.508
 2885SOL     OW 9552   4.533   0.004   0.502
 2885SOL    HW1 9553   4.573   0.095   0.493
 2885SOL    HW2 9554   4.433   0.012   0.508
 2886SOL     OW 9555   3.921   0.976   1.264
 2886SOL    HW1 9556   4.010   0.931   1.250
 2886SOL    HW2 9557   3.848   0.911   1.245
 2887SOL     OW 9558   4.041   0.251   1.801
 2887SOL    HW1 9559   4.112   0.322   1.807
 2887SOL    HW2 9560   3.953   0.290   1.829
 2888SOL     OW 9561   4.322   0.729   0.270
 2888SOL    HW1 9562   4.346   0.798   0.202
 2888SOL    HW2 9563   4.244   0.762   0.324
 2889SOL     OW 9564   5.005   0.345   0.944
 2889SOL    HW1 9565   4.919   0.295   0.931
 2889SOL    HW2 9566   5.067   0.291   1.000
 2890SOL     OW 9567   4.531   0.605   1.465
 2890SOL    HW1 9568   4.484   0.602   1.554
 2890SOL    HW2 9569   4.480   0.550   1.399
 2891SOL     OW 9570   4.697   0.890   1.572
 2891SOL    HW1 9571   4.743   0.806   1.543
 2891SOL    HW2 9572   4.641   0.924   1.497
 2892SOL     OW 9573   4.715   0.410   1.242
 2892SOL    HW1 9574   4.638   0.444   1.296
 2892SOL    HW2 9575   4.681   0.359   1.163
 2893SOL     OW 9576   4.765   0.701   0.429
 2893SOL    HW1 9577   4.791   0.697   0.525
 2893SOL    HW2 9578   4.680   0.650   0.415
 2894SOL     OW 9579   3.800   0.811   0.789
 2894SOL    HW1 9580   3.899   0.799   0.798
 2894SOL    HW2 9581   3.776   0.906   0.810
 2895SOL     OW 9582   3.854   1.821   1.571
 2895SOL    HW1 9583   3.844   1.806   1.670
 2895SOL    HW2 9584   3.768   1.857   1.535
 2896SOL     OW 9585   4.589   0.348   0.195
 2896SOL    HW1 9586   4.648   0.411   0.146
 2896SOL    HW2 9587   4.608   0.254   0.166
 2897SOL     OW 9588   4.274   0.196   0.885
 2897SOL    HW1 9589   4.269   0.191   0.985
 2897SOL    HW2 9590   4.276   0.292   0.856
 2898SOL     OW 9591   4.732   1.456   0.477
 2898SOL    HW1 9592   4.686   1.528   0.425
 2898SOL    HW2 9593   4.728   1.476   0.575
 2899SOL     OW 9594   4.075   1.801   0.853
 2899SOL    HW1 9595   4.125   1.715   0.859
 2899SOL    HW2 9596   4.140   1.878   0.850
 2900SOL     OW 9597   4.045   0.943   0.242
 2900SOL    HW1 9598   4.127   0.982   0.200
 2900SOL    HW2 9599   4.018   0.861   0.193
 2901SOL     OW 9600   4.185   1.266   1.727
 2901SOL    HW1 9601   4.135   1.267   1.641
 2901SOL    HW2 9602   4.122   1.248   1.803
 2902SOL     OW 9603   4.835   1.776   0.237
 2902SOL    HW1 9604   4.775   1.714   0.287
 2902SOL    HW2 9605   4.866   1.732   0.152
 2903SOL     OW 9606   3.926   0.285   1.498
 2903SOL    HW1 9607   3.846   0.345   1.485
 2903SOL    HW2 9608   3.916   0.236   1.584
 2904SOL     OW 9609   5.356   1.377   0.081
 2904SOL    HW1 9610   5.324   1.471   0.071
 2904SOL    HW2 9611   5.280   1.314   0.069
 2905SOL     OW 9612   4.188   1.743   0.323
 2905SOL    HW1 9613   4.221   1.782   0.409
 2905SOL    HW2 9614   4.264   1.736   0.258
 2906SOL     OW 9615   3.973   1.785   1.241
 2906SOL    HW1 9616   4.030   1.720   1.291
 2906SOL    HW2 9617   3.957   1.752   1.148
 2907SOL     OW 9618   4.664   1.698   0.904
 2907SOL    HW1 9619   4.744   1.641   0.925
 2907SOL    HW2 9620   4.615   1.658   0.827
 2908SOL     OW 9621   4.106   0.700   0.480
 2908SOL    HW1 9622   4.151   0.610   0.477
 2908SOL    HW2 9623   4.012   0.689   0.513
 2909SOL     OW 9624   4.338   0.122   0.117
 2909SOL    HW1 9625   4.436   0.100   0.124
 2909SOL    HW2 9626   4.307   0.105   0.024
 2910SOL     OW 9627   4.505   0.264   1.749
 2910SOL    HW1 9628   4.572   0.203   1.792
 2910SOL    HW2 9629   4.432   0.283   1.814
 2911SOL     OW 9630   4.612   1.514   1.195
 2911SOL    HW1 9631   4.589   1.489   1.101
 2911SOL    HW2 9632   4.673   1.445   1.234
 2912SOL     OW 9633   4.527   1.402   0.924
 2912SOL    HW1 9634   4.617   1.416   0.882
 2912SOL    HW2 9635   4.456   1.404   0.853
 2913SOL     OW 9636   4.646   0.503   0.899
 2913SOL    HW1 9637   4.621   0.494   0.803
 2913SOL    HW2 9638   4.694   0.421   0.930
 2914SOL     OW 9639   4.263   0.064   0.512
 2914SOL    HW1 9640   4.182   0.065   0.570
 2914SOL    HW2 9641   4.266   0.147   0.457
 2915SOL     OW 9642   4.021   0.035   0.171
 2915SOL    HW1 9643   4.070   0.119   0.150
 2915SOL    HW2 9644   4.083  -0.030   0.216
 2916SOL     OW 9645   4.659   0.236   0.480
 2916SOL    HW1 9646   4.611   0.277   0.402
 2916SOL    HW2 9647   4.758   0.234   0.461
 2917SOL     OW 9648   4.800   0.683   1.464
 2917SOL    HW1 9649   4.720   0.622   1.467
 2917SOL    HW2 9650   4.881   0.630   1.440
 2918SOL     OW 9651   4.951   1.570   0.793
 2918SOL    HW1 9652   4.972   1.644   0.728
 2918SOL    HW2 9653   5.019   1.570   0.866
 2919SOL     OW 9654   4.183   1.152   0.741
 2919SOL    HW1 9655   4.112   1.125   0.806
 2919SOL    HW2 9656   4.157   1.124   0.648
 2920SOL     OW 9657   4.995   1.797   0.591
 2920SOL    HW1 9658   5.039   1.861   0.527
 2920SOL    HW2 9659   4.945   1.849   0.661
 2921SOL     OW 9660   4.756   0.549   0.016
 2921SOL    HW1 9661   4.715   0.631  -0.023
 2921SOL    HW2 9662   4.820   0.575   0.089
 2922SOL     OW 9663   3.802   0.556   1.386
 2922SOL    HW1 9664   3.894   0.555   1.345
 2922SOL    HW2 9665   3.796   0.630   1.453
 2923SOL     OW 9666   4.285   0.222   1.147
 2923SOL    HW1 9667   4.323   0.138   1.184
 2923SOL    HW2 9668   4.197   0.241   1.191
 2924SOL     OW 9669   4.590   0.454   0.642
 2924SOL    HW1 9670   4.558   0.526   0.580
 2924SOL    HW2 9671   4.614   0.373   0.589
 2925SOL     OW 9672   4.741   0.039   0.753
 2925SOL    HW1 9673   4.669   0.044   0.684
 2925SOL    HW2 9674   4.717  -0.030   0.822
 2926SOL     OW 9675   4.212   1.385   0.174
 2926SOL    HW1 9676   4.125   1.370   0.221
 2926SOL    HW2 9677   4.195   1.411   0.079
 2927SOL     OW 9678   5.388   1.280   0.657
 2927SOL    HW1 9679   5.487   1.288   0.671
 2927SOL    HW2 9680   5.343   1.364   0.688
 2928SOL     OW 9681   4.251   0.256   0.328
 2928SOL    HW1 9682   4.278   0.197   0.253
 2928SOL    HW2 9683   4.251   0.351   0.297
 2929SOL     OW 9684   4.835   1.195   1.100
 2929SOL    HW1 9685   4.795   1.239   1.181
 2929SOL    HW2 9686   4.794   1.232   1.017
 2930SOL     OW 9687   4.639   0.089   1.402
 2930SOL    HW1 9688   4.664   0.069   1.307
 2930SOL    HW2 9689   4.711   0.145   1.444
 2931SOL     OW 9690   4.704   1.116   1.719
 2931SOL    HW1 9691   4.605   1.122   1.729
 2931SOL    HW2 9692   4.727   1.036   1.663
 2932SOL     OW 9693   4.429   1.050   0.368
 2932SOL    HW1 9694   4.415   1.057   0.467
 2932SOL    HW2 9695   4.513   0.999   0.350
 2933SOL     OW 9696   4.134   0.813   1.251
 2933SOL    HW1 9697   4.220   0.825   1.301
 2933SOL    HW2 9698   4.092   0.726   1.278
 2934SOL     OW 9699   4.998   0.386   1.262
 2934SOL    HW1 9700   5.019   0.460   1.326
 2934SOL    HW2 9701   4.909   0.403   1.219
 2935SOL     OW 9702   3.788   1.564   1.331
 2935SOL    HW1 9703   3.742   1.646   1.297
 2935SOL    HW2 9704   3.886   1.583   1.340
 2936SOL     OW 9705   4.091   1.100   0.501
 2936SOL    HW1 9706   4.084   1.183   0.445
 2936SOL    HW2 9707   4.095   1.020   0.441
 2937SOL     OW 9708   4.290   0.537   0.865
 2937SOL    HW1 9709   4.302   0.603   0.791
 2937SOL    HW2 9710   4.336   0.571   0.948
 2938SOL     OW 9711   4.976   1.348   0.388
 2938SOL    HW1 9712   5.026   1.425   0.428
 2938SOL    HW2 9713   4.881   1.350   0.420
 2939SOL     OW 9714   4.078   1.510   1.329
 2939SOL    HW1 9715   4.057   1.466   1.242
 2939SOL    HW2 9716   4.175   1.536   1.332
 2940SOL     OW 9717   4.126   0.751   1.598
 2940SOL    HW1 9718   4.194   0.806   1.551
 2940SOL    HW2 9719   4.166   0.663   1.625
 2941SOL     OW 9720   4.737   0.105   1.770
 2941SOL    HW1 9721   4.743   0.190   1.718
 2941SOL    HW2 9722   4.769   0.029   1.713
 2942SOL     OW 9723   4.228   0.050   1.740
 2942SOL    HW1 9724   4.186  -0.007   1.670
 2942SOL    HW2 9725   4.162   0.119   1.772
 2943SOL     OW 9726   4.297   0.870   1.029
 2943SOL    HW1 9727   4.341   0.959   1.020
 2943SOL    HW2 9728   4.234   0.870   1.106
 2944SOL     OW 9729   5.084   0.862   1.045
 2944SOL    HW1 9730   5.009   0.862   0.979
 2944SOL    HW2 9731   5.121   0.770   1.054
 2945SOL     OW 9732   4.933   0.525   0.275
 2945SOL    HW1 9733   4.946   0.441   0.329
 2945SOL    HW2 9734   4.904   0.599   0.335
 2946SOL     OW 9735   4.031   0.213   1.231
 2946SOL    HW1 9736   4.008   0.250   1.321
 2946SOL    HW2 9737   4.001   0.118   1.225
 2947SOL     OW 9738   3.761   1.310   1.282
 2947SOL    HW1 9739   3.814   1.261   1.350
 2947SOL    HW2 9740   3.783   1.408   1.287
 2948SOL     OW 9741   4.456   0.634   1.064
 2948SOL    HW1 9742   4.515   0.608   0.988
 2948SOL    HW2 9743   4.428   0.730   1.053
 2949SOL     OW 9744   4.031   0.063   0.618
 2949SOL    HW1 9745   4.020   0.157   0.651
 2949SOL    HW2 9746   4.026   0.000   0.695
 2950SOL     OW 9747   5.346   0.367   0.374
 2950SOL    HW1 9748   5.348   0.291   0.438
 2950SOL    HW2 9749   5.298   0.444   0.414
 2951SOL     OW 9750   4.747   0.766   0.966
 2951SOL    HW1 9751   4.762   0.787   1.062
 2951SOL    HW2 9752   4.717   0.671   0.957
 2952SOL     OW 9753   4.074   0.898   1.804
 2952SOL    HW1 9754   4.150   0.942   1.852
 2952SOL    HW2 9755   4.109   0.851   1.722
 2953SOL     OW 9756   5.027   0.838   0.042
 2953SOL    HW1 9757   5.061   0.745   0.057
 2953SOL    HW2 9758   5.045   0.865  -0.053
 2954SOL     OW 9759   4.792   1.333   0.849
 2954SOL    HW1 9760   4.799   1.249   0.794
 2954SOL    HW2 9761   4.854   1.402   0.813
 2955SOL     OW 9762   4.043   0.810   0.949
 2955SOL    HW1 9763   4.136   0.846   0.954
 2955SOL    HW2 9764   4.037   0.725   1.001
 2956SOL     OW 9765   4.063   0.509   1.006
 2956SOL    HW1 9766   4.011   0.426   0.989
 2956SOL    HW2 9767   4.140   0.514   0.942
 2957SOL     OW 9768   4.862   0.380   1.678
 2957SOL    HW1 9769   4.817   0.443   1.742
 2957SOL    HW2 9770   4.955   0.411   1.661
 2958SOL     OW 9771   4.884   0.207   1.477
 2958SOL    HW1 9772   4.884   0.271   1.554
 2958SOL    HW2 9773   4.912   0.255   1.394
 2959SOL     OW 9774   3.812   1.801   0.927
 2959SOL    HW1 9775   3.770   1.715   0.900
 2959SOL    HW2 9776   3.906   1.804   0.893
 2960SOL     OW 9777   4.228   1.568   0.910
 2960SOL    HW1 9778   4.294   1.642   0.919
 2960SOL    HW2 9779   4.272   1.489   0.868
 2961SOL     OW 9780   4.726   0.796   1.238
 2961SOL    HW1 9781   4.767   0.764   1.324
 2961SOL    HW2 9782   4.630   0.769   1.235
 2962SOL     OW 9783   3.764   0.544   1.114
 2962SOL    HW1 9784   3.849   0.511   1.073
 2962SOL    HW2 9785   3.777   0.559   1.212
 2963SOL     OW 9786   3.913   0.520   1.722
 2963SOL    HW1 9787   3.972   0.480   1.652
 2963SOL    HW2 9788   3.855   0.591   1.681
 2964SOL     OW 9789   4.539   0.572   0.325
 2964SOL    HW1 9790   4.546   0.483   0.279
 2964SOL    HW2 9791   4.445   0.606   0.317
 2965SOL     OW 9792   3.976   1.564   1.744
 2965SOL    HW1 9793   3.946   1.621   1.820
 2965SOL    HW2 9794   3.969   1.467   1.770
 2966SOL     OW 9795   4.395   0.464   1.269
 2966SOL    HW1 9796   4.361   0.375   1.239
 2966SOL    HW2 9797   4.421   0.518   1.189
 2967SOL     OW 9798   4.197   0.500   0.191
 2967SOL    HW1 9799   4.258   0.580   0.195
 2967SOL    HW2 9800   4.102   0.531   0.198
 2968SOL     OW 9801   3.883   1.137   1.466
 2968SOL    HW1 9802   3.905   1.076   1.542
 2968SOL    HW2 9803   3.893   1.088   1.380
 2969SOL     OW 9804   5.071   1.059   1.234
 2969SOL    HW1 9805   5.095   0.996   1.160
 2969SOL    HW2 9806   4.981   1.099   1.216
 2970SOL     OW 9807   4.976   1.731   1.128
 2970SOL    HW1 9808   5.060   1.736   1.074
 2970SOL    HW2 9809   4.953   1.635   1.146
 2971SOL     OW 9810   3.807   1.258   1.022
 2971SOL    HW1 9811   3.802   1.257   1.122
 2971SOL    HW2 9812   3.724   1.217   0.984
 2972SOL     OW 9813   4.627   0.086   0.133
 2972SOL    HW1 9814   4.678   0.087   0.047
 2972SOL    HW2 9815   4.683   0.044   0.204
 2973SOL     OW 9816   5.112   1.573   0.477
 2973SOL    HW1 9817   5.179   1.585   0.403
 2973SOL    HW2 9818   5.072   1.662   0.500
 2974SOL     OW 9819   3.854   1.794   1.851
 2974SOL    HW1 9820   3.813   1.720   1.904
 2974SOL    HW2 9821   3.918   1.845   1.909
 2975SOL     OW 9822   5.004   0.927   0.672
 2975SOL    HW1 9823   5.064   0.846   0.674
 2975SOL    HW2 9824   5.044   0.996   0.612
 2976SOL     OW 9825   4.396   1.616   0.154
 2976SOL    HW1 9826   4.405   1.626   0.055
 2976SOL    HW2 9827   4.356   1.527   0.175
 2977SOL     OW 9828   3.987   0.326   0.720
 2977SOL    HW1 9829   3.908   0.377   0.686
 2977SOL    HW2 9830   3.978   0.311   0.818
 2978SOL     OW 9831   4.918   1.612   0.031
 2978SOL    HW1 9832   4.924   1.519   0.068
 2978SOL    HW2 9833   4.859   1.612  -0.049
 2979SOL     OW 9834   4.546   1.002   1.372
 2979SOL    HW1 9835   4.586   1.001   1.280
 2979SOL    HW2 9836   4.556   1.094   1.412
 2980SOL     OW 9837   4.640   0.910   0.291
 2980SOL    HW1 9838   4.703   0.948   0.223
 2980SOL    HW2 9839   4.680   0.827   0.330
 2981SOL     OW 9840   4.096   1.288   1.490
 2981SOL    HW1 9841   4.083   1.381   1.456
 2981SOL    HW2 9842   4.012   1.236   1.477
 2982SOL     OW 9843   4.763   1.098   0.696
 2982SOL    HW1 9844   4.693   1.051   0.750
 2982SOL    HW2 9845   4.822   1.030   0.653
 2983SOL     OW 9846   4.738   0.236   0.971
 2983SOL    HW1 9847   4.730   0.200   0.878
 2983SOL    HW2 9848   4.736   0.160   1.036
 2984SOL     OW 9849   4.314   1.487   0.491
 2984SOL    HW1 9850   4.356   1.429   0.421
 2984SOL    HW2 9851   4.270   1.566   0.447
 2985SOL     OW 9852   3.979   1.348   0.290
 2985SOL    HW1 9853   3.883   1.349   0.263
 2985SOL    HW2 9854   3.991   1.401   0.374
 2986SOL     OW 9855   3.829   1.013   1.726
 2986SOL    HW1 9856   3.752   0.980   1.780
 2986SOL    HW2 9857   3.914   0.983   1.768
 2987SOL     OW 9858   4.396   0.203   1.489
 2987SOL    HW1 9859   4.486   0.187   1.449
 2987SOL    HW2 9860   4.404   0.208   1.588
 2988SOL     OW 9861   5.164   0.856   1.398
 2988SOL    HW1 9862   5.107   0.908   1.335
 2988SOL    HW2 9863   5.260   0.868   1.374
 2989SOL     OW 9864   3.796   0.166   0.318
 2989SOL    HW1 9865   3.779   0.249   0.264
 2989SOL    HW2 9866   3.886   0.129   0.296
 2990SOL     OW 9867   4.337   0.842   1.431
 2990SOL    HW1 9868   4.393   0.923   1.414
 2990SOL    HW2 9869   4.396   0.762   1.434
 2991SOL     OW 9870   4.440   0.565   1.708
 2991SOL    HW1 9871   4.459   0.630   1.782
 2991SOL    HW2 9872   4.500   0.485   1.717
 2992SOL     OW 9873   4.114   1.741   1.560
 2992SOL    HW1 9874   4.023   1.782   1.558
 2992SOL    HW2 9875   4.107   1.647   1.592
 2993SOL     OW 9876   4.949   0.325   0.449
 2993SOL    HW1 9877   5.014   0.251   0.438
 2993SOL    HW2 9878   4.969   0.375   0.533
 2994SOL     OW 9879   4.318   0.745   0.652
 2994SOL    HW1 9880   4.368   0.830   0.633
 2994SOL    HW2 9881   4.230   0.747   0.604
 2995SOL     OW 9882   4.583   1.374   0.016
 2995SOL    HW1 9883   4.537   1.389   0.104
 2995SOL    HW2 9884   4.627   1.459  -0.014
 2996SOL     OW 9885   4.385   1.790   0.953
 2996SOL    HW1 9886   4.339   1.878   0.940
 2996SOL    HW2 9887   4.484   1.802   0.946
 2997SOL     OW 9888   4.583   0.956   0.861
 2997SOL    HW1 9889   4.637   0.887   0.909
 2997SOL    HW2 9890   4.551   1.025   0.927
 2998SOL     OW 9891   4.807   0.984   0.087
 2998SOL    HW1 9892   4.784   1.037   0.005
 2998SOL    HW2 9893   4.888   0.928   0.068
 2999SOL     OW 9894   3.945   1.314   1.844
 2999SOL    HW1 9895   3.880   1.241   1.823
 2999SOL    HW2 9896   3.949   1.328   1.942
 3000SOL     OW 9897   3.803   1.240   0.653
 3000SOL    HW1 9898   3.802   1.193   0.741
 3000SOL    HW2 9899   3.885   1.212   0.602
 3001SOL     OW 9900   4.152   0.424   0.520
 3001SOL    HW1 9901   4.182   0.352   0.458
 3001SOL    HW2 9902   4.113   0.384   0.603
 3002SOL     OW 9903   4.041   0.547   1.280
 3002SOL    HW1 9904   4.079   0.488   1.352
 3002SOL    HW2 9905   4.081   0.521   1.192
 3003SOL     OW 9906   4.536   1.586   0.687
 3003SOL    HW1 9907   4.568   1.596   0.593
 3003SOL    HW2 9908   4.457   1.524   0.689
 3004SOL     OW 9909   4.725   0.034   1.154
 3004SOL    HW1 9910   4.662  -0.038   1.123
 3004SOL    HW2 9911   4.818  -0.002   1.154
 3005SOL     OW 9912   4.494   1.330   0.301
 3005SOL    HW1 9913   4.448   1.243   0.318
 3005SOL    HW2 9914   4.585   1.327   0.342
 3006SOL     OW 9915   4.342   1.567   1.284
 3006SOL    HW1 9916   4.337   1.649   1.341
 3006SOL    HW2 9917   4.431   1.564   1.239
 3007SOL     OW 9918   3.763   1.077   0.300
 3007SOL    HW1 9919   3.862   1.066   0.291
 3007SOL    HW2 9920   3.723   0.991   0.332
 3008SOL     OW 9921   4.599   1.646   0.337
 3008SOL    HW1 9922   4.522   1.611   0.283
 3008SOL    HW2 9923   4.567   1.717   0.399
 3009SOL     OW 9924   3.954   0.628   1.975
 3009SOL    HW1 9925   3.861   0.626   2.012
 3009SOL    HW2 9926   3.955   0.589   1.883
 3010SOL     OW 9927   3.949   0.275   2.858
 3010SOL    HW1 9928   3.984   0.258   2.950
 3010SOL    HW2 9929   3.861   0.230   2.846
 3011SOL     OW 9930   3.743   0.368   2.509
 3011SOL    HW1 9931   3.661   0.411   2.548
 3011SOL    HW2 9932   3.715   0.295   2.446
 3012SOL     OW 9933   4.293   1.275   3.027
 3012SOL    HW1 9934   4.200   1.268   2.990
 3012SOL    HW2 9935   4.304   1.364   3.071
 3013SOL     OW 9936   4.574   0.798   3.685
 3013SOL    HW1 9937   4.570   0.874   3.750
 3013SOL    HW2 9938   4.596   0.834   3.594
 3014SOL     OW 9939   4.410   1.161   3.665
 3014SOL    HW1 9940   4.470   1.240   3.679
 3014SOL    HW2 9941   4.324   1.192   3.624
 3015SOL     OW 9942   4.059   1.435   2.923
 3015SOL    HW1 9943   3.981   1.404   2.870
 3015SOL    HW2 9944   4.117   1.493   2.866
 3016SOL     OW 9945   4.162   0.392   3.361
 3016SOL    HW1 9946   4.244   0.336   3.370
 3016SOL    HW2 9947   4.081   0.334   3.365
 3017SOL     OW 9948   3.955   1.713   2.345
 3017SOL    HW1 9949   3.989   1.790   2.399
 3017SOL    HW2 9950   3.999   1.713   2.255
 3018SOL     OW 9951   4.851   1.341   3.552
 3018SOL    HW1 9952   4.898   1.341   3.640
 3018SOL    HW2 9953   4.803   1.254   3.541
 3019SOL     OW 9954   3.954   1.434   2.400
 3019SOL    HW1 9955   3.928   1.530   2.400
 3019SOL    HW2 9956   3.883   1.380   2.445
 3020SOL     OW 9957   3.964   1.091   2.748
 3020SOL    HW1 9958   3.978   1.007   2.800
 3020SOL    HW2 9959   3.909   1.155   2.803
 3021SOL     OW 9960   3.846   0.643   2.425
 3021SOL    HW1 9961   3.801   0.555   2.442
 3021SOL    HW2 9962   3.845   0.697   2.509
 3022SOL     OW 9963   3.751   1.596   1.979
 3022SOL    HW1 9964   3.732   1.500   2.000
 3022SOL    HW2 9965   3.718   1.654   2.054
 3023SOL     OW 9966   3.837   0.737   3.459
 3023SOL    HW1 9967   3.925   0.724   3.504
 3023SOL    HW2 9968   3.824   0.834   3.437
 3024SOL     OW 9969   4.337   1.365   2.588
 3024SOL    HW1 9970   4.288   1.278   2.597
 3024SOL    HW2 9971   4.314   1.408   2.501
 3025SOL     OW 9972   5.017   1.228   3.285
 3025SOL    HW1 9973   5.054   1.155   3.227
 3025SOL    HW2 9974   5.069   1.233   3.370
 3026SOL     OW 9975   4.533   0.004   2.364
 3026SOL    HW1 9976   4.573   0.095   2.355
 3026SOL    HW2 9977   4.433   0.012   2.370
 3027SOL     OW 9978   3.921   0.976   3.126
 3027SOL    HW1 9979   4.010   0.931   3.112
 3027SOL    HW2 9980   3.848   0.911   3.107
 3028SOL     OW 9981   4.911   1.792   3.478
 3028SOL    HW1 9982   4.935   1.852   3.402
 3028SOL    HW2 9983   4.918   1.697   3.448
 3029SOL     OW 9984   4.041   0.251   3.663
 3029SOL    HW1 9985   4.112   0.322   3.669
 3029SOL    HW2 9986   3.953   0.290   3.691
 3030SOL     OW 9987   5.005   0.345   2.806
 3030SOL    HW1 9988   4.919   0.295   2.793
 3030SOL    HW2 9989   5.067   0.291   2.862
 3031SOL     OW 9990   4.531   0.605   3.327
 3031SOL    HW1 9991   4.484   0.602   3.416
 3031SOL    HW2 9992   4.480   0.550   3.261
 3032SOL     OW 9993   4.697   0.890   3.434
 3032SOL    HW1 9994   4.743   0.806   3.405
 3032SOL    HW2 9995   4.641   0.924   3.359
 3033SOL     OW 9996   4.715   0.410   3.104
 3033SOL    HW1 9997   4.638   0.444   3.158
 3033SOL    HW2 9998   4.681   0.359   3.025
 3034SOL     OW 9999   3.800   0.811   2.651
 3034SOL    HW110000   3.899   0.799   2.660
 3034SOL    HW210001   3.776   0.906   2.672
 3035SOL     OW10002   3.854   1.821   3.433
 3035SOL    HW110003   3.844   1.806   3.532
 3035SOL    HW210004   3.768   1.857   3.397
 3036SOL     OW10005   4.589   0.348   2.057
 3036SOL    HW110006   4.648   0.411   2.008
 3036SOL    HW210007   4.608   0.254   2.028
 3037SOL     OW10008   4.274   0.196   2.747
 3037SOL    HW110009   4.269   0.191   2.847
 3037SOL    HW210010   4.276   0.292   2.718
 3038SOL     OW10011   4.732   1.456   2.339
 3038SOL    HW110012   4.686   1.528   2.287
 3038SOL    HW210013   4.728   1.476   2.437
 3039SOL     OW10014   4.075   1.801   2.715
 3039SOL    HW110015   4.125   1.715   2.721
 3039SOL    HW210016   4.140   1.878   2.712
 3040SOL     OW10017   4.951   1.550   3.368
 3040SOL    HW110018   4.957   1.473   3.432
 3040SOL    HW210019   4.899   1.524   3.288
 3041SOL     OW10020   4.185   1.266   3.589
 3041SOL    HW110021   4.135   1.267   3.503
 3041SOL    HW210022   4.122   1.248   3.665
 3042SOL     OW10023   3.926   0.285   3.360
 3042SOL    HW110024   3.846   0.345   3.347
 3042SOL    HW210025   3.916   0.236   3.446
 3043SOL     OW10026   3.973   1.785   3.103
 3043SOL    HW110027   4.030   1.720   3.153
 3043SOL    HW210028   3.957   1.752   3.010
 3044SOL     OW10029   4.664   1.698   2.766
 3044SOL    HW110030   4.744   1.641   2.787
 3044SOL    HW210031   4.615   1.658   2.689
 3045SOL     OW10032   4.106   0.700   2.342
 3045SOL    HW110033   4.151   0.610   2.339
 3045SOL    HW210034   4.012   0.689   2.375
 3046SOL     OW10035   4.338   0.122   1.979
 3046SOL    HW110036   4.436   0.100   1.986
 3046SOL    HW210037   4.307   0.105   1.886
 3047SOL     OW10038   4.505   0.264   3.611
 3047SOL    HW110039   4.572   0.203   3.654
 3047SOL    HW210040   4.432   0.283   3.676
 3048SOL     OW10041   4.527   1.402   2.786
 3048SOL    HW110042   4.617   1.416   2.744
 3048SOL    HW210043   4.456   1.404   2.715
 3049SOL     OW10044   4.646   0.503   2.761
 3049SOL    HW110045   4.621   0.494   2.665
 3049SOL    HW210046   4.694   0.421   2.792
 3050SOL     OW10047   4.263   0.064   2.374
 3050SOL    HW110048   4.182   0.065   2.432
 3050SOL    HW210049   4.266   0.147   2.319
 3051SOL     OW10050   4.021   0.035   2.033
 3051SOL    HW110051   4.070   0.119   2.012
 3051SOL    HW210052   4.083  -0.030   2.078
 3052SOL     OW10053   4.659   0.236   2.342
 3052SOL    HW110054   4.611   0.277   2.264
 3052SOL    HW210055   4.758   0.234   2.323
 3053SOL     OW10056   4.800   0.683   3.326
 3053SOL    HW110057   4.720   0.622   3.329
 3053SOL    HW210058   4.881   0.630   3.302
 3054SOL     OW10059   4.951   1.570   2.655
 3054SOL    HW110060   4.972   1.644   2.590
 3054SOL    HW210061   5.019   1.570   2.728
 3055SOL     OW10062   4.183   1.152   2.603
 3055SOL    HW110063   4.112   1.125   2.668
 3055SOL    HW210064   4.157   1.124   2.510
 3056SOL     OW10065   4.995   1.797   2.453
 3056SOL    HW110066   5.039   1.861   2.389
 3056SOL    HW210067   4.945   1.849   2.523
 3057SOL     OW10068   4.756   0.549   1.878
 3057SOL    HW110069   4.715   0.631   1.839
 3057SOL    HW210070   4.820   0.575   1.951
 3058SOL     OW10071   3.802   0.556   3.248
 3058SOL    HW110072   3.894   0.555   3.207
 3058SOL    HW210073   3.796   0.630   3.315
 3059SOL     OW10074   4.285   0.222   3.009
 3059SOL    HW110075   4.323   0.138   3.046
 3059SOL    HW210076   4.197   0.241   3.053
 3060SOL     OW10077   4.590   0.454   2.504
 3060SOL    HW110078   4.558   0.526   2.442
 3060SOL    HW210079   4.614   0.373   2.451
 3061SOL     OW10080   4.741   0.039   2.615
 3061SOL    HW110081   4.669   0.044   2.546
 3061SOL    HW210082   4.717  -0.030   2.684
 3062SOL     OW10083   4.212   1.385   2.036
 3062SOL    HW110084   4.125   1.370   2.083
 3062SOL    HW210085   4.195   1.411   1.941
 3063SOL     OW10086   5.388   1.280   2.519
 3063SOL    HW110087   5.487   1.288   2.533
 3063SOL    HW210088   5.343   1.364   2.550
 3064SOL     OW10089   4.251   0.256   2.190
 3064SOL    HW110090   4.278   0.197   2.115
 3064SOL    HW210091   4.251   0.351   2.159
 3065SOL     OW10092   4.788   1.347   3.202
 3065SOL    HW110093   4.708   1.324   3.257
 3065SOL    HW210094   4.871   1.321   3.251
 3066SOL     OW10095   4.835   1.195   2.962
 3066SOL    HW110096   4.795   1.239   3.043
 3066SOL    HW210097   4.794   1.232   2.879
 3067SOL     OW10098   4.639   0.089   3.264
 3067SOL    HW110099   4.664   0.069   3.169
 3067SOL    HW210100   4.711   0.145   3.306
 3068SOL     OW10101   4.704   1.116   3.581
 3068SOL    HW110102   4.605   1.122   3.591
 3068SOL    HW210103   4.727   1.036   3.525
 3069SOL     OW10104   4.134   0.813   3.113
 3069SOL    HW110105   4.220   0.825   3.163
 3069SOL    HW210106   4.092   0.726   3.140
 3070SOL     OW10107   4.998   0.386   3.124
 3070SOL    HW110108   5.019   0.460   3.188
 3070SOL    HW210109   4.909   0.403   3.081
 3071SOL     OW10110   3.788   1.564   3.193
 3071SOL    HW110111   3.742   1.646   3.159
 3071SOL    HW210112   3.886   1.583   3.202
 3072SOL     OW10113   4.290   0.537   2.727
 3072SOL    HW110114   4.302   0.603   2.653
 3072SOL    HW210115   4.336   0.571   2.810
 3073SOL     OW10116   4.976   1.348   2.250
 3073SOL    HW110117   5.026   1.425   2.290
 3073SOL    HW210118   4.881   1.350   2.282
 3074SOL     OW10119   4.078   1.510   3.191
 3074SOL    HW110120   4.057   1.466   3.104
 3074SOL    HW210121   4.175   1.536   3.194
 3075SOL     OW10122   4.126   0.751   3.460
 3075SOL    HW110123   4.194   0.806   3.413
 3075SOL    HW210124   4.166   0.663   3.487
 3076SOL     OW10125   4.737   0.105   3.632
 3076SOL    HW110126   4.743   0.190   3.580
 3076SOL    HW210127   4.769   0.029   3.575
 3077SOL     OW10128   4.228   0.050   3.602
 3077SOL    HW110129   4.186  -0.007   3.532
 3077SOL    HW210130   4.162   0.119   3.634
 3078SOL     OW10131   4.297   0.870   2.891
 3078SOL    HW110132   4.341   0.959   2.882
 3078SOL    HW210133   4.234   0.870   2.968
 3079SOL     OW10134   5.084   0.862   2.907
 3079SOL    HW110135   5.009   0.862   2.841
 3079SOL    HW210136   5.121   0.770   2.916
 3080SOL     OW10137   4.933   0.525   2.137
 3080SOL    HW110138   4.946   0.441   2.191
 3080SOL    HW210139   4.904   0.599   2.197
 3081SOL     OW10140   4.031   0.213   3.093
 3081SOL    HW110141   4.008   0.250   3.183
 3081SOL    HW210142   4.001   0.118   3.087
 3082SOL     OW10143   3.761   1.310   3.144
 3082SOL    HW110144   3.814   1.261   3.212
 3082SOL    HW210145   3.783   1.408   3.149
 3083SOL     OW10146   4.456   0.634   2.926
 3083SOL    HW110147   4.515   0.608   2.850
 3083SOL    HW210148   4.428   0.730   2.915
 3084SOL     OW10149   4.031   0.063   2.480
 3084SOL    HW110150   4.020   0.157   2.513
 3084SOL    HW210151   4.026   0.000   2.557
 3085SOL     OW10152   5.346   0.367   2.236
 3085SOL    HW110153   5.348   0.291   2.300
 3085SOL    HW210154   5.298   0.444   2.276
 3086SOL     OW10155   4.747   0.766   2.828
 3086SOL    HW110156   4.762   0.787   2.924
 3086SOL    HW210157   4.717   0.671   2.819
 3087SOL     OW10158   4.074   0.898   3.666
 3087SOL    HW110159   4.150   0.942   3.714
 3087SOL    HW210160   4.109   0.851   3.584
 3088SOL     OW10161   5.027   0.838   1.904
 3088SOL    HW110162   5.061   0.745   1.919
 3088SOL    HW210163   5.045   0.865   1.809
 3089SOL     OW10164   4.792   1.333   2.711
 3089SOL    HW110165   4.799   1.249   2.656
 3089SOL    HW210166   4.854   1.402   2.675
 3090SOL     OW10167   4.043   0.810   2.811
 3090SOL    HW110168   4.136   0.846   2.816
 3090SOL    HW210169   4.037   0.725   2.863
 3091SOL     OW10170   4.063   0.509   2.868
 3091SOL    HW110171   4.011   0.426   2.851
 3091SOL    HW210172   4.140   0.514   2.804
 3092SOL     OW10173   4.862   0.380   3.540
 3092SOL    HW110174   4.817   0.443   3.604
 3092SOL    HW210175   4.955   0.411   3.523
 3093SOL     OW10176   3.732   1.326   2.062
 3093SOL    HW110177   3.639   1.347   2.031
 3093SOL    HW210178   3.742   1.227   2.075
 3094SOL     OW10179   3.812   1.801   2.789
 3094SOL    HW110180   3.770   1.715   2.762
 3094SOL    HW210181   3.906   1.804   2.755
 3095SOL     OW10182   4.228   1.568   2.772
 3095SOL    HW110183   4.294   1.642   2.781
 3095SOL    HW210184   4.272   1.489   2.730
 3096SOL     OW10185   4.726   0.796   3.100
 3096SOL    HW110186   4.767   0.764   3.186
 3096SOL    HW210187   4.630   0.769   3.097
 3097SOL     OW10188   3.764   0.544   2.976
 3097SOL    HW110189   3.849   0.511   2.935
 3097SOL    HW210190   3.777   0.559   3.074
 3098SOL     OW10191   3.913   0.520   3.584
 3098SOL    HW110192   3.972   0.480   3.514
 3098SOL    HW210193   3.855   0.591   3.543
 3099SOL     OW10194   4.539   0.572   2.187
 3099SOL    HW110195   4.546   0.483   2.141
 3099SOL    HW210196   4.445   0.606   2.179
 3100SOL     OW10197   3.976   1.564   3.606
 3100SOL    HW110198   3.946   1.621   3.682
 3100SOL    HW210199   3.969   1.467   3.632
 3101SOL     OW10200   4.395   0.464   3.131
 3101SOL    HW110201   4.361   0.375   3.101
 3101SOL    HW210202   4.421   0.518   3.051
 3102SOL     OW10203   4.197   0.500   2.053
 3102SOL    HW110204   4.258   0.580   2.057
 3102SOL    HW210205   4.102   0.531   2.060
 3103SOL     OW10206   3.883   1.137   3.328
 3103SOL    HW110207   3.905   1.076   3.404
 3103SOL    HW210208   3.893   1.088   3.242
 3104SOL     OW10209   5.071   1.059   3.096
 3104SOL    HW110210   5.095   0.996   3.022
 3104SOL    HW210211   4.981   1.099   3.078
 3105SOL     OW10212   4.976   1.731   2.990
 3105SOL    HW110213   5.060   1.736   2.936
 3105SOL    HW210214   4.953   1.635   3.008
 3106SOL     OW10215   3.807   1.258   2.884
 3106SOL    HW110216   3.802   1.257   2.984
 3106SOL    HW210217   3.724   1.217   2.846
 3107SOL     OW10218   5.112   1.573   2.339
 3107SOL    HW110219   5.179   1.585   2.265
 3107SOL    HW210220   5.072   1.662   2.362
 3108SOL     OW10221   3.854   1.794   3.713
 3108SOL    HW110222   3.813   1.720   3.766
 3108SOL    HW210223   3.918   1.845   3.771
 3109SOL     OW10224   4.554   1.273   3.284
 3109SOL    HW110225   4.549   1.306   3.379
 3109SOL    HW210226   4.468   1.292   3.238
 3110SOL     OW10227   3.987   0.326   2.582
 3110SOL    HW110228   3.908   0.377   2.548
 3110SOL    HW210229   3.978   0.311   2.680
 3111SOL     OW10230   4.546   1.002   3.234
 3111SOL    HW110231   4.586   1.001   3.142
 3111SOL    HW210232   4.556   1.094   3.274
 3112SOL     OW10233   4.096   1.288   3.352
 3112SOL    HW110234   4.083   1.381   3.318
 3112SOL    HW210235   4.012   1.236   3.339
 3113SOL     OW10236   4.738   0.236   2.833
 3113SOL    HW110237   4.730   0.200   2.740
 3113SOL    HW210238   4.736   0.160   2.898
 3114SOL     OW10239   4.314   1.487   2.353
 3114SOL    HW110240   4.356   1.429   2.283
 3114SOL    HW210241   4.270   1.566   2.309
 3115SOL     OW10242   3.979   1.348   2.152
 3115SOL    HW110243   3.883   1.349   2.125
 3115SOL    HW210244   3.991   1.401   2.236
 3116SOL     OW10245   3.829   1.013   3.588
 3116SOL    HW110246   3.752   0.980   3.642
 3116SOL    HW210247   3.914   0.983   3.630
 3117SOL     OW10248   4.396   0.203   3.351
 3117SOL    HW110249   4.486   0.187   3.311
 3117SOL    HW210250   4.404   0.208   3.450
 3118SOL     OW10251   3.799   0.345   1.895
 3118SOL    HW110252   3.707   0.317   1.866
 3118SOL    HW210253   3.830   0.422   1.839
 3119SOL     OW10254   3.796   0.166   2.180
 3119SOL    HW110255   3.779   0.249   2.126
 3119SOL    HW210256   3.886   0.129   2.158
 3120SOL     OW10257   4.337   0.842   3.293
 3120SOL    HW110258   4.393   0.923   3.276
 3120SOL    HW210259   4.396   0.762   3.296
 3121SOL     OW10260   4.440   0.565   3.570
 3121SOL    HW110261   4.459   0.630   3.644
 3121SOL    HW210262   4.500   0.485   3.579
 3122SOL     OW10263   4.114   1.741   3.422
 3122SOL    HW110264   4.023   1.782   3.420
 3122SOL    HW210265   4.107   1.647   3.454
 3123SOL     OW10266   4.949   0.325   2.311
 3123SOL    HW110267   5.014   0.251   2.300
 3123SOL    HW210268   4.969   0.375   2.395
 3124SOL     OW10269   4.583   1.374   1.878
 3124SOL    HW110270   4.537   1.389   1.966
 3124SOL    HW210271   4.627   1.459   1.848
 3125SOL     OW10272   4.385   1.790   2.815
 3125SOL    HW110273   4.339   1.878   2.802
 3125SOL    HW210274   4.484   1.802   2.808
 3126SOL     OW10275   4.807   0.984   1.949
 3126SOL    HW110276   4.784   1.037   1.867
 3126SOL    HW210277   4.888   0.928   1.930
 3127SOL     OW10278   3.945   1.314   3.706
 3127SOL    HW110279   3.880   1.241   3.685
 3127SOL    HW210280   3.949   1.328   3.804
 3128SOL     OW10281   3.803   1.240   2.515
 3128SOL    HW110282   3.802   1.193   2.603
 3128SOL    HW210283   3.885   1.212   2.464
 3129SOL     OW10284   4.396   1.391   3.486
 3129SOL    HW110285   4.318   1.341   3.524
 3129SOL    HW210286   4.393   1.486   3.517
 3130SOL     OW10287   4.152   0.424   2.382
 3130SOL    HW110288   4.182   0.352   2.320
 3130SOL    HW210289   4.113   0.384   2.465
 3131SOL     OW10290   4.041   0.547   3.142
 3131SOL    HW110291   4.079   0.488   3.214
 3131SOL    HW210292   4.081   0.521   3.054
 3132SOL     OW10293   4.536   1.586   2.549
 3132SOL    HW110294   4.568   1.596   2.455
 3132SOL    HW210295   4.457   1.524   2.551
 3133SOL     OW10296   4.725   0.034   3.016
 3133SOL    HW110297   4.662  -0.038   2.985
 3133SOL    HW210298   4.818  -0.002   3.016
 3134SOL     OW10299   4.494   1.330   2.163
 3134SOL    HW110300   4.448   1.243   2.180
 3134SOL    HW210301   4.585   1.327   2.204
 3135SOL     OW10302   4.342   1.567   3.146
 3135SOL    HW110303   4.337   1.649   3.203
 3135SOL    HW210304   4.431   1.564   3.101
 3136SOL     OW10305   3.763   1.077   2.162
 3136SOL    HW110306   3.862   1.066   2.153
 3136SOL    HW210307   3.723   0.991   2.194
 3137SOL     OW10308   4.599   1.646   2.199
 3137SOL    HW110309   4.522   1.611   2.145
 3137SOL    HW210310   4.567   1.717   2.261
 3138SOL     OW10311   3.954   0.628   3.837
 3138SOL    HW110312   3.861   0.626   3.874
 3138SOL    HW210313   3.955   0.589   3.745
 3139SOL     OW10314   3.949   0.275   4.720
 3139SOL    HW110315   3.984   0.258   4.812
 3139SOL    HW210316   3.861   0.230   4.708
 3140SOL     OW10317   3.743   0.368   4.371
 3140SOL    HW110318   3.661   0.411   4.410
 3140SOL    HW210319   3.715   0.295   4.308
 3141SOL     OW10320   4.293   1.275   4.889
 3141SOL    HW110321   4.200   1.268   4.852
 3141SOL    HW210322   4.304   1.364   4.933
 3142SOL     OW10323   4.859   0.703   4.441
 3142SOL    HW110324   4.916   0.781   4.416
 3142SOL    HW210325   4.799   0.729   4.517
 3143SOL     OW10326   4.492   1.144   4.747
 3143SOL    HW110327   4.414   1.161   4.807
 3143SOL    HW210328   4.526   1.231   4.711
 3144SOL     OW10329   4.409   1.012   4.389
 3144SOL    HW110330   4.478   0.996   4.459
 3144SOL    HW210331   4.336   1.069   4.427
 3145SOL     OW10332   4.059   1.435   4.785
 3145SOL    HW110333   3.981   1.404   4.732
 3145SOL    HW210334   4.117   1.493   4.728
 3146SOL     OW10335   3.955   1.713   4.207
 3146SOL    HW110336   3.989   1.790   4.261
 3146SOL    HW210337   3.999   1.713   4.117
 3147SOL     OW10338   3.954   1.434   4.262
 3147SOL    HW110339   3.928   1.530   4.262
 3147SOL    HW210340   3.883   1.380   4.307
 3148SOL     OW10341   3.964   1.091   4.610
 3148SOL    HW110342   3.978   1.007   4.662
 3148SOL    HW210343   3.909   1.155   4.665
 3149SOL     OW10344   4.344   1.786   5.163
 3149SOL    HW110345   4.252   1.769   5.198
 3149SOL    HW210346   4.372   1.878   5.189
 3150SOL     OW10347   4.330   0.964   3.847
 3150SOL    HW110348   4.337   1.048   3.793
 3150SOL    HW210349   4.376   0.977   3.935
 3151SOL     OW10350   3.846   0.643   4.287
 3151SOL    HW110351   3.801   0.555   4.304
 3151SOL    HW210352   3.845   0.697   4.371
 3152SOL     OW10353   3.751   1.596   3.841
 3152SOL    HW110354   3.732   1.500   3.862
 3152SOL    HW210355   3.718   1.654   3.916
 3153SOL     OW10356   4.337   1.365   4.450
 3153SOL    HW110357   4.288   1.278   4.459
 3153SOL    HW210358   4.314   1.408   4.363
 3154SOL     OW10359   4.533   0.004   4.226
 3154SOL    HW110360   4.573   0.095   4.217
 3154SOL    HW210361   4.433   0.012   4.232
 3155SOL     OW10362   3.921   0.976   4.988
 3155SOL    HW110363   4.010   0.931   4.974
 3155SOL    HW210364   3.848   0.911   4.969
 3156SOL     OW10365   4.322   0.729   3.994
 3156SOL    HW110366   4.346   0.798   3.926
 3156SOL    HW210367   4.244   0.762   4.048
 3157SOL     OW10368   5.005   0.345   4.668
 3157SOL    HW110369   4.919   0.295   4.655
 3157SOL    HW210370   5.067   0.291   4.724
 3158SOL     OW10371   4.715   0.410   4.966
 3158SOL    HW110372   4.638   0.444   5.020
 3158SOL    HW210373   4.681   0.359   4.887
 3159SOL     OW10374   4.765   0.701   4.153
 3159SOL    HW110375   4.791   0.697   4.249
 3159SOL    HW210376   4.680   0.650   4.139
 3160SOL     OW10377   3.800   0.811   4.513
 3160SOL    HW110378   3.899   0.799   4.522
 3160SOL    HW210379   3.776   0.906   4.534
 3161SOL     OW10380   4.589   0.348   3.919
 3161SOL    HW110381   4.648   0.411   3.870
 3161SOL    HW210382   4.608   0.254   3.890
 3162SOL     OW10383   4.274   0.196   4.609
 3162SOL    HW110384   4.269   0.191   4.709
 3162SOL    HW210385   4.276   0.292   4.580
 3163SOL     OW10386   4.732   1.456   4.201
 3163SOL    HW110387   4.686   1.528   4.149
 3163SOL    HW210388   4.728   1.476   4.299
 3164SOL     OW10389   4.075   1.801   4.577
 3164SOL    HW110390   4.125   1.715   4.583
 3164SOL    HW210391   4.140   1.878   4.574
 3165SOL     OW10392   4.045   0.943   3.966
 3165SOL    HW110393   4.127   0.982   3.924
 3165SOL    HW210394   4.018   0.861   3.917
 3166SOL     OW10395   4.835   1.776   3.961
 3166SOL    HW110396   4.775   1.714   4.011
 3166SOL    HW210397   4.866   1.732   3.876
 3167SOL     OW10398   4.188   1.743   4.047
 3167SOL    HW110399   4.221   1.782   4.133
 3167SOL    HW210400   4.264   1.736   3.982
 3168SOL     OW10401   3.973   1.785   4.965
 3168SOL    HW110402   4.030   1.720   5.015
 3168SOL    HW210403   3.957   1.752   4.872
 3169SOL     OW10404   4.664   1.698   4.628
 3169SOL    HW110405   4.744   1.641   4.649
 3169SOL    HW210406   4.615   1.658   4.551
 3170SOL     OW10407   4.106   0.700   4.204
 3170SOL    HW110408   4.151   0.610   4.201
 3170SOL    HW210409   4.012   0.689   4.237
 3171SOL     OW10410   4.338   0.122   3.841
 3171SOL    HW110411   4.436   0.100   3.848
 3171SOL    HW210412   4.307   0.105   3.748
 3172SOL     OW10413   4.527   1.402   4.648
 3172SOL    HW110414   4.617   1.416   4.606
 3172SOL    HW210415   4.456   1.404   4.577
 3173SOL     OW10416   4.646   0.503   4.623
 3173SOL    HW110417   4.621   0.494   4.527
 3173SOL    HW210418   4.694   0.421   4.654
 3174SOL     OW10419   4.263   0.064   4.236
 3174SOL    HW110420   4.182   0.065   4.294
 3174SOL    HW210421   4.266   0.147   4.181
 3175SOL     OW10422   4.021   0.035   3.895
 3175SOL    HW110423   4.070   0.119   3.874
 3175SOL    HW210424   4.083  -0.030   3.940
 3176SOL     OW10425   4.659   0.236   4.204
 3176SOL    HW110426   4.611   0.277   4.126
 3176SOL    HW210427   4.758   0.234   4.185
 3177SOL     OW10428   4.951   1.570   4.517
 3177SOL    HW110429   4.972   1.644   4.452
 3177SOL    HW210430   5.019   1.570   4.590
 3178SOL     OW10431   4.183   1.152   4.465
 3178SOL    HW110432   4.112   1.125   4.530
 3178SOL    HW210433   4.157   1.124   4.372
 3179SOL     OW10434   4.995   1.797   4.315
 3179SOL    HW110435   5.039   1.861   4.251
 3179SOL    HW210436   4.945   1.849   4.385
 3180SOL     OW10437   4.756   0.549   3.740
 3180SOL    HW110438   4.715   0.631   3.701
 3180SOL    HW210439   4.820   0.575   3.813
 3181SOL     OW10440   4.285   0.222   4.871
 3181SOL    HW110441   4.323   0.138   4.908
 3181SOL    HW210442   4.197   0.241   4.915
 3182SOL     OW10443   4.590   0.454   4.366
 3182SOL    HW110444   4.558   0.526   4.304
 3182SOL    HW210445   4.614   0.373   4.313
 3183SOL     OW10446   4.741   0.039   4.477
 3183SOL    HW110447   4.669   0.044   4.408
 3183SOL    HW210448   4.717  -0.030   4.546
 3184SOL     OW10449   4.212   1.385   3.898
 3184SOL    HW110450   4.125   1.370   3.945
 3184SOL    HW210451   4.195   1.411   3.803
 3185SOL     OW10452   5.388   1.280   4.381
 3185SOL    HW110453   5.487   1.288   4.395
 3185SOL    HW210454   5.343   1.364   4.412
 3186SOL     OW10455   4.251   0.256   4.052
 3186SOL    HW110456   4.278   0.197   3.977
 3186SOL    HW210457   4.251   0.351   4.021
 3187SOL     OW10458   5.316   1.629   5.349
 3187SOL    HW110459   5.343   1.663   5.259
 3187SOL    HW210460   5.395   1.591   5.395
 3188SOL     OW10461   4.835   1.195   4.824
 3188SOL    HW110462   4.795   1.239   4.905
 3188SOL    HW210463   4.794   1.232   4.741
 3189SOL     OW10464   4.429   1.050   4.092
 3189SOL    HW110465   4.415   1.057   4.191
 3189SOL    HW210466   4.513   0.999   4.074
 3190SOL     OW10467   4.134   0.813   4.975
 3190SOL    HW110468   4.220   0.825   5.025
 3190SOL    HW210469   4.092   0.726   5.002
 3191SOL     OW10470   4.091   1.100   4.225
 3191SOL    HW110471   4.084   1.183   4.169
 3191SOL    HW210472   4.095   1.020   4.165
 3192SOL     OW10473   4.290   0.537   4.589
 3192SOL    HW110474   4.302   0.603   4.515
 3192SOL    HW210475   4.336   0.571   4.672
 3193SOL     OW10476   4.976   1.348   4.112
 3193SOL    HW110477   5.026   1.425   4.152
 3193SOL    HW210478   4.881   1.350   4.144
 3194SOL     OW10479   4.078   1.510   5.053
 3194SOL    HW110480   4.057   1.466   4.966
 3194SOL    HW210481   4.175   1.536   5.056
 3195SOL     OW10482   4.297   0.870   4.753
 3195SOL    HW110483   4.341   0.959   4.744
 3195SOL    HW210484   4.234   0.870   4.830
 3196SOL     OW10485   5.084   0.862   4.769
 3196SOL    HW110486   5.009   0.862   4.703
 3196SOL    HW210487   5.121   0.770   4.778
 3197SOL     OW10488   4.933   0.525   3.999
 3197SOL    HW110489   4.946   0.441   4.053
 3197SOL    HW210490   4.904   0.599   4.059
 3198SOL     OW10491   4.031   0.213   4.955
 3198SOL    HW110492   4.008   0.250   5.045
 3198SOL    HW210493   4.001   0.118   4.949
 3199SOL     OW10494   3.761   1.310   5.006
 3199SOL    HW110495   3.814   1.261   5.074
 3199SOL    HW210496   3.783   1.408   5.011
 3200SOL     OW10497   4.456   0.634   4.788
 3200SOL    HW110498   4.515   0.608   4.712
 3200SOL    HW210499   4.428   0.730   4.777
 3201SOL     OW10500   4.031   0.063   4.342
 3201SOL    HW110501   4.020   0.157   4.375
 3201SOL    HW210502   4.026   0.000   4.419
 3202SOL     OW10503   5.346   0.367   4.098
 3202SOL    HW110504   5.348   0.291   4.162
 3202SOL    HW210505   5.298   0.444   4.138
 3203SOL     OW10506   4.747   0.766   4.690
 3203SOL    HW110507   4.762   0.787   4.786
 3203SOL    HW210508   4.717   0.671   4.681
 3204SOL     OW10509   5.027   0.838   3.766
 3204SOL    HW110510   5.061   0.745   3.781
 3204SOL    HW210511   5.045   0.865   3.671
 3205SOL     OW10512   4.792   1.333   4.573
 3205SOL    HW110513   4.799   1.249   4.518
 3205SOL    HW210514   4.854   1.402   4.537
 3206SOL     OW10515   4.043   0.810   4.673
 3206SOL    HW110516   4.136   0.846   4.678
 3206SOL    HW210517   4.037   0.725   4.725
 3207SOL     OW10518   4.063   0.509   4.730
 3207SOL    HW110519   4.011   0.426   4.713
 3207SOL    HW210520   4.140   0.514   4.666
 3208SOL     OW10521   4.884   0.207   5.201
 3208SOL    HW110522   4.884   0.271   5.278
 3208SOL    HW210523   4.912   0.255   5.118
 3209SOL     OW10524   3.732   1.326   3.924
 3209SOL    HW110525   3.639   1.347   3.893
 3209SOL    HW210526   3.742   1.227   3.937
 3210SOL     OW10527   3.812   1.801   4.651
 3210SOL    HW110528   3.770   1.715   4.624
 3210SOL    HW210529   3.906   1.804   4.617
 3211SOL     OW10530   4.228   1.568   4.634
 3211SOL    HW110531   4.294   1.642   4.643
 3211SOL    HW210532   4.272   1.489   4.592
 3212SOL     OW10533   4.726   0.796   4.962
 3212SOL    HW110534   4.767   0.764   5.048
 3212SOL    HW210535   4.630   0.769   4.959
 3213SOL     OW10536   3.764   0.544   4.838
 3213SOL    HW110537   3.849   0.511   4.797
 3213SOL    HW210538   3.777   0.559   4.936
 3214SOL     OW10539   4.539   0.572   4.049
 3214SOL    HW110540   4.546   0.483   4.003
 3214SOL    HW210541   4.445   0.606   4.041
 3215SOL     OW10542   4.395   0.464   4.993
 3215SOL    HW110543   4.361   0.375   4.963
 3215SOL    HW210544   4.421   0.518   4.913
 3216SOL     OW10545   4.654   1.678   5.189
 3216SOL    HW110546   4.630   1.660   5.094
 3216SOL    HW210547   4.684   1.772   5.199
 3217SOL     OW10548   4.197   0.500   3.915
 3217SOL    HW110549   4.258   0.580   3.919
 3217SOL    HW210550   4.102   0.531   3.922
 3218SOL     OW10551   5.071   1.059   4.958
 3218SOL    HW110552   5.095   0.996   4.884
 3218SOL    HW210553   4.981   1.099   4.940
 3219SOL     OW10554   4.976   1.731   4.852
 3219SOL    HW110555   5.060   1.736   4.798
 3219SOL    HW210556   4.953   1.635   4.870
 3220SOL     OW10557   3.807   1.258   4.746
 3220SOL    HW110558   3.802   1.257   4.846
 3220SOL    HW210559   3.724   1.217   4.708
 3221SOL     OW10560   5.112   1.573   4.201
 3221SOL    HW110561   5.179   1.585   4.127
 3221SOL    HW210562   5.072   1.662   4.224
 3222SOL     OW10563   5.004   0.927   4.396
 3222SOL    HW110564   5.064   0.846   4.398
 3222SOL    HW210565   5.044   0.996   4.336
 3223SOL     OW10566   4.396   1.616   3.878
 3223SOL    HW110567   4.405   1.626   3.779
 3223SOL    HW210568   4.356   1.527   3.899
 3224SOL     OW10569   3.987   0.326   4.444
 3224SOL    HW110570   3.908   0.377   4.410
 3224SOL    HW210571   3.978   0.311   4.542
 3225SOL     OW10572   4.918   1.612   3.755
 3225SOL    HW110573   4.924   1.519   3.792
 3225SOL    HW210574   4.859   1.612   3.675
 3226SOL     OW10575   4.546   1.002   5.096
 3226SOL    HW110576   4.586   1.001   5.004
 3226SOL    HW210577   4.556   1.094   5.136
 3227SOL     OW10578   4.640   0.910   4.015
 3227SOL    HW110579   4.703   0.948   3.947
 3227SOL    HW210580   4.680   0.827   4.054
 3228SOL     OW10581   4.763   1.098   4.420
 3228SOL    HW110582   4.693   1.051   4.474
 3228SOL    HW210583   4.822   1.030   4.377
 3229SOL     OW10584   4.738   0.236   4.695
 3229SOL    HW110585   4.730   0.200   4.602
 3229SOL    HW210586   4.736   0.160   4.760
 3230SOL     OW10587   4.314   1.487   4.215
 3230SOL    HW110588   4.356   1.429   4.145
 3230SOL    HW210589   4.270   1.566   4.171
 3231SOL     OW10590   3.979   1.348   4.014
 3231SOL    HW110591   3.883   1.349   3.987
 3231SOL    HW210592   3.991   1.401   4.098
 3232SOL     OW10593   3.799   0.345   3.757
 3232SOL    HW110594   3.707   0.317   3.728
 3232SOL    HW210595   3.830   0.422   3.701
 3233SOL     OW10596   3.796   0.166   4.042
 3233SOL    HW110597   3.779   0.249   3.988
 3233SOL    HW210598   3.886   0.129   4.020
 3234SOL     OW10599   4.949   0.325   4.173
 3234SOL    HW110600   5.014   0.251   4.162
 3234SOL    HW210601   4.969   0.375   4.257
 3235SOL     OW10602   4.318   0.745   4.376
 3235SOL    HW110603   4.368   0.830   4.357
 3235SOL    HW210604   4.230   0.747   4.328
 3236SOL     OW10605   4.583   1.374   3.740
 3236SOL    HW110606   4.537   1.389   3.828
 3236SOL    HW210607   4.627   1.459   3.710
 3237SOL     OW10608   4.385   1.790   4.677
 3237SOL    HW110609   4.339   1.878   4.664
 3237SOL    HW210610   4.484   1.802   4.670
 3238SOL     OW10611   4.583   0.956   4.585
 3238SOL    HW110612   4.637   0.887   4.633
 3238SOL    HW210613   4.551   1.025   4.651
 3239SOL     OW10614   4.807   0.984   3.811
 3239SOL    HW110615   4.784   1.037   3.729
 3239SOL    HW210616   4.888   0.928   3.792
 3240SOL     OW10617   3.803   1.240   4.377
 3240SOL    HW110618   3.802   1.193   4.465
 3240SOL    HW210619   3.885   1.212   4.326
 3241SOL     OW10620   4.152   0.424   4.244
 3241SOL    HW110621   4.182   0.352   4.182
 3241SOL    HW210622   4.113   0.384   4.327
 3242SOL     OW10623   4.536   1.586   4.411
 3242SOL    HW110624   4.568   1.596   4.317
 3242SOL    HW210625   4.457   1.524   4.413
 3243SOL     OW10626   4.725   0.034   4.878
 3243SOL    HW110627   4.662  -0.038   4.847
 3243SOL    HW210628   4.818  -0.002   4.878
 3244SOL     OW10629   4.494   1.330   4.025
 3244SOL    HW110630   4.448   1.243   4.042
 3244SOL    HW210631   4.585   1.327   4.066
 3245SOL     OW10632   3.763   1.077   4.024
 3245SOL    HW110633   3.862   1.066   4.015
 3245SOL    HW210634   3.723   0.991   4.056
 3246SOL     OW10635   4.599   1.646   4.061
 3246SOL    HW110636   4.522   1.611   4.007
 3246SOL    HW210637   4.567   1.717   4.123
 3247SOL     OW10638   3.954   2.490   0.113
 3247SOL    HW110639   3.861   2.488   0.150
 3247SOL    HW210640   3.955   2.451   0.021
 3248SOL     OW10641   3.949   2.137   0.996
 3248SOL    HW110642   3.984   2.120   1.088
 3248SOL    HW210643   3.861   2.092   0.984
 3249SOL     OW10644   3.743   2.230   0.647
 3249SOL    HW110645   3.661   2.273   0.686
 3249SOL    HW210646   3.715   2.157   0.584
 3250SOL     OW10647   4.293   3.137   1.165
 3250SOL    HW110648   4.200   3.130   1.128
 3250SOL    HW210649   4.304   3.226   1.209
 3251SOL     OW10650   4.859   2.565   0.717
 3251SOL    HW110651   4.916   2.643   0.692
 3251SOL    HW210652   4.799   2.591   0.793
 3252SOL     OW10653   4.492   3.006   1.023
 3252SOL    HW110654   4.414   3.023   1.083
 3252SOL    HW210655   4.526   3.093   0.987
 3253SOL     OW10656   4.574   2.660   1.823
 3253SOL    HW110657   4.570   2.736   1.888
 3253SOL    HW210658   4.596   2.696   1.732
 3254SOL     OW10659   4.409   2.874   0.665
 3254SOL    HW110660   4.478   2.858   0.735
 3254SOL    HW210661   4.336   2.931   0.703
 3255SOL     OW10662   4.410   3.023   1.803
 3255SOL    HW110663   4.470   3.102   1.817
 3255SOL    HW210664   4.324   3.054   1.762
 3256SOL     OW10665   4.059   3.297   1.061
 3256SOL    HW110666   3.981   3.266   1.008
 3256SOL    HW210667   4.117   3.355   1.004
 3257SOL     OW10668   4.162   2.254   1.499
 3257SOL    HW110669   4.244   2.198   1.508
 3257SOL    HW210670   4.081   2.196   1.503
 3258SOL     OW10671   3.955   3.575   0.483
 3258SOL    HW110672   3.989   3.652   0.537
 3258SOL    HW210673   3.999   3.575   0.393
 3259SOL     OW10674   4.851   3.203   1.690
 3259SOL    HW110675   4.898   3.203   1.778
 3259SOL    HW210676   4.803   3.116   1.679
 3260SOL     OW10677   3.954   3.296   0.538
 3260SOL    HW110678   3.928   3.392   0.538
 3260SOL    HW210679   3.883   3.242   0.583
 3261SOL     OW10680   3.964   2.953   0.886
 3261SOL    HW110681   3.978   2.869   0.938
 3261SOL    HW210682   3.909   3.017   0.941
 3262SOL     OW10683   3.846   2.505   0.563
 3262SOL    HW110684   3.801   2.417   0.580
 3262SOL    HW210685   3.845   2.559   0.647
 3263SOL     OW10686   3.751   3.458   0.117
 3263SOL    HW110687   3.732   3.362   0.138
 3263SOL    HW210688   3.718   3.516   0.192
 3264SOL     OW10689   3.837   2.599   1.597
 3264SOL    HW110690   3.925   2.586   1.642
 3264SOL    HW210691   3.824   2.696   1.575
 3265SOL     OW10692   5.017   3.090   1.423
 3265SOL    HW110693   5.054   3.017   1.365
 3265SOL    HW210694   5.069   3.095   1.508
 3266SOL     OW10695   4.533   1.866   0.502
 3266SOL    HW110696   4.573   1.957   0.493
 3266SOL    HW210697   4.433   1.874   0.508
 3267SOL     OW10698   3.921   2.838   1.264
 3267SOL    HW110699   4.010   2.793   1.250
 3267SOL    HW210700   3.848   2.773   1.245
 3268SOL     OW10701   4.911   3.654   1.616
 3268SOL    HW110702   4.935   3.714   1.540
 3268SOL    HW210703   4.918   3.559   1.586
 3269SOL     OW10704   4.041   2.113   1.801
 3269SOL    HW110705   4.112   2.184   1.807
 3269SOL    HW210706   3.953   2.152   1.829
 3270SOL     OW10707   5.005   2.207   0.944
 3270SOL    HW110708   4.919   2.157   0.931
 3270SOL    HW210709   5.067   2.153   1.000
 3271SOL     OW10710   4.531   2.467   1.465
 3271SOL    HW110711   4.484   2.464   1.554
 3271SOL    HW210712   4.480   2.412   1.399
 3272SOL     OW10713   4.697   2.752   1.572
 3272SOL    HW110714   4.743   2.668   1.543
 3272SOL    HW210715   4.641   2.786   1.497
 3273SOL     OW10716   4.715   2.272   1.242
 3273SOL    HW110717   4.638   2.306   1.296
 3273SOL    HW210718   4.681   2.221   1.163
 3274SOL     OW10719   4.765   2.563   0.429
 3274SOL    HW110720   4.791   2.559   0.525
 3274SOL    HW210721   4.680   2.512   0.415
 3275SOL     OW10722   3.800   2.673   0.789
 3275SOL    HW110723   3.899   2.661   0.798
 3275SOL    HW210724   3.776   2.768   0.810
 3276SOL     OW10725   3.854   3.683   1.571
 3276SOL    HW110726   3.844   3.668   1.670
 3276SOL    HW210727   3.768   3.719   1.535
 3277SOL     OW10728   4.589   2.210   0.195
 3277SOL    HW110729   4.648   2.273   0.146
 3277SOL    HW210730   4.608   2.116   0.166
 3278SOL     OW10731   4.274   2.058   0.885
 3278SOL    HW110732   4.269   2.053   0.985
 3278SOL    HW210733   4.276   2.154   0.856
 3279SOL     OW10734   4.732   3.318   0.477
 3279SOL    HW110735   4.686   3.390   0.425
 3279SOL    HW210736   4.728   3.338   0.575
 3280SOL     OW10737   4.075   3.663   0.853
 3280SOL    HW110738   4.125   3.577   0.859
 3280SOL    HW210739   4.140   3.740   0.850
 3281SOL     OW10740   4.951   3.412   1.506
 3281SOL    HW110741   4.957   3.335   1.570
 3281SOL    HW210742   4.899   3.386   1.426
 3282SOL     OW10743   4.185   3.128   1.727
 3282SOL    HW110744   4.135   3.129   1.641
 3282SOL    HW210745   4.122   3.110   1.803
 3283SOL     OW10746   4.835   3.638   0.237
 3283SOL    HW110747   4.775   3.576   0.287
 3283SOL    HW210748   4.866   3.594   0.152
 3284SOL     OW10749   3.926   2.147   1.498
 3284SOL    HW110750   3.846   2.207   1.485
 3284SOL    HW210751   3.916   2.098   1.584
 3285SOL     OW10752   5.356   3.239   0.081
 3285SOL    HW110753   5.324   3.333   0.071
 3285SOL    HW210754   5.280   3.176   0.069
 3286SOL     OW10755   4.188   3.605   0.323
 3286SOL    HW110756   4.221   3.644   0.409
 3286SOL    HW210757   4.264   3.598   0.258
 3287SOL     OW10758   4.106   2.562   0.480
 3287SOL    HW110759   4.151   2.472   0.477
 3287SOL    HW210760   4.012   2.551   0.513
 3288SOL     OW10761   4.505   2.126   1.749
 3288SOL    HW110762   4.572   2.065   1.792
 3288SOL    HW210763   4.432   2.145   1.814
 3289SOL     OW10764   4.612   3.376   1.195
 3289SOL    HW110765   4.589   3.351   1.101
 3289SOL    HW210766   4.673   3.307   1.234
 3290SOL     OW10767   4.527   3.264   0.924
 3290SOL    HW110768   4.617   3.278   0.882
 3290SOL    HW210769   4.456   3.266   0.853
 3291SOL     OW10770   4.646   2.365   0.899
 3291SOL    HW110771   4.621   2.356   0.803
 3291SOL    HW210772   4.694   2.283   0.930
 3292SOL     OW10773   4.263   1.926   0.512
 3292SOL    HW110774   4.182   1.927   0.570
 3292SOL    HW210775   4.266   2.009   0.457
 3293SOL     OW10776   4.021   1.897   0.171
 3293SOL    HW110777   4.070   1.981   0.150
 3293SOL    HW210778   4.083   1.832   0.216
 3294SOL     OW10779   4.659   2.098   0.480
 3294SOL    HW110780   4.611   2.139   0.402
 3294SOL    HW210781   4.758   2.096   0.461
 3295SOL     OW10782   4.800   2.545   1.464
 3295SOL    HW110783   4.720   2.484   1.467
 3295SOL    HW210784   4.881   2.492   1.440
 3296SOL     OW10785   4.951   3.432   0.793
 3296SOL    HW110786   4.972   3.506   0.728
 3296SOL    HW210787   5.019   3.432   0.866
 3297SOL     OW10788   4.183   3.014   0.741
 3297SOL    HW110789   4.112   2.987   0.806
 3297SOL    HW210790   4.157   2.986   0.648
 3298SOL     OW10791   4.995   3.659   0.591
 3298SOL    HW110792   5.039   3.723   0.527
 3298SOL    HW210793   4.945   3.711   0.661
 3299SOL     OW10794   4.756   2.411   0.016
 3299SOL    HW110795   4.715   2.493  -0.023
 3299SOL    HW210796   4.820   2.437   0.089
 3300SOL     OW10797   3.802   2.418   1.386
 3300SOL    HW110798   3.894   2.417   1.345
 3300SOL    HW210799   3.796   2.492   1.453
 3301SOL     OW10800   4.285   2.084   1.147
 3301SOL    HW110801   4.323   2.000   1.184
 3301SOL    HW210802   4.197   2.103   1.191
 3302SOL     OW10803   4.590   2.316   0.642
 3302SOL    HW110804   4.558   2.388   0.580
 3302SOL    HW210805   4.614   2.235   0.589
 3303SOL     OW10806   4.741   1.901   0.753
 3303SOL    HW110807   4.669   1.906   0.684
 3303SOL    HW210808   4.717   1.832   0.822
 3304SOL     OW10809   4.212   3.247   0.174
 3304SOL    HW110810   4.125   3.232   0.221
 3304SOL    HW210811   4.195   3.273   0.079
 3305SOL     OW10812   5.388   3.142   0.657
 3305SOL    HW110813   5.487   3.150   0.671
 3305SOL    HW210814   5.343   3.226   0.688
 3306SOL     OW10815   4.251   2.118   0.328
 3306SOL    HW110816   4.278   2.059   0.253
 3306SOL    HW210817   4.251   2.213   0.297
 3307SOL     OW10818   4.788   3.209   1.340
 3307SOL    HW110819   4.708   3.186   1.395
 3307SOL    HW210820   4.871   3.183   1.389
 3308SOL     OW10821   4.835   3.057   1.100
 3308SOL    HW110822   4.795   3.101   1.181
 3308SOL    HW210823   4.794   3.094   1.017
 3309SOL     OW10824   4.639   1.951   1.402
 3309SOL    HW110825   4.664   1.931   1.307
 3309SOL    HW210826   4.711   2.007   1.444
 3310SOL     OW10827   4.704   2.978   1.719
 3310SOL    HW110828   4.605   2.984   1.729
 3310SOL    HW210829   4.727   2.898   1.663
 3311SOL     OW10830   4.134   2.675   1.251
 3311SOL    HW110831   4.220   2.687   1.301
 3311SOL    HW210832   4.092   2.588   1.278
 3312SOL     OW10833   4.998   2.248   1.262
 3312SOL    HW110834   5.019   2.322   1.326
 3312SOL    HW210835   4.909   2.265   1.219
 3313SOL     OW10836   3.788   3.426   1.331
 3313SOL    HW110837   3.742   3.508   1.297
 3313SOL    HW210838   3.886   3.445   1.340
 3314SOL     OW10839   4.290   2.399   0.865
 3314SOL    HW110840   4.302   2.465   0.791
 3314SOL    HW210841   4.336   2.433   0.948
 3315SOL     OW10842   4.976   3.210   0.388
 3315SOL    HW110843   5.026   3.287   0.428
 3315SOL    HW210844   4.881   3.212   0.420
 3316SOL     OW10845   4.078   3.372   1.329
 3316SOL    HW110846   4.057   3.328   1.242
 3316SOL    HW210847   4.175   3.398   1.332
 3317SOL     OW10848   4.126   2.613   1.598
 3317SOL    HW110849   4.194   2.668   1.551
 3317SOL    HW210850   4.166   2.525   1.625
 3318SOL     OW10851   4.228   1.912   1.740
 3318SOL    HW110852   4.186   1.855   1.670
 3318SOL    HW210853   4.162   1.981   1.772
 3319SOL     OW10854   4.297   2.732   1.029
 3319SOL    HW110855   4.341   2.821   1.020
 3319SOL    HW210856   4.234   2.732   1.106
 3320SOL     OW10857   5.084   2.724   1.045
 3320SOL    HW110858   5.009   2.724   0.979
 3320SOL    HW210859   5.121   2.632   1.054
 3321SOL     OW10860   4.933   2.387   0.275
 3321SOL    HW110861   4.946   2.303   0.329
 3321SOL    HW210862   4.904   2.461   0.335
 3322SOL     OW10863   4.031   2.075   1.231
 3322SOL    HW110864   4.008   2.112   1.321
 3322SOL    HW210865   4.001   1.980   1.225
 3323SOL     OW10866   3.761   3.172   1.282
 3323SOL    HW110867   3.814   3.123   1.350
 3323SOL    HW210868   3.783   3.270   1.287
 3324SOL     OW10869   4.456   2.496   1.064
 3324SOL    HW110870   4.515   2.470   0.988
 3324SOL    HW210871   4.428   2.592   1.053
 3325SOL     OW10872   4.031   1.925   0.618
 3325SOL    HW110873   4.020   2.019   0.651
 3325SOL    HW210874   4.026   1.862   0.695
 3326SOL     OW10875   5.346   2.229   0.374
 3326SOL    HW110876   5.348   2.153   0.438
 3326SOL    HW210877   5.298   2.306   0.414
 3327SOL     OW10878   4.747   2.628   0.966
 3327SOL    HW110879   4.762   2.649   1.062
 3327SOL    HW210880   4.717   2.533   0.957
 3328SOL     OW10881   4.704   3.435   1.700
 3328SOL    HW110882   4.684   3.479   1.612
 3328SOL    HW210883   4.743   3.344   1.684
 3329SOL     OW10884   4.074   2.760   1.804
 3329SOL    HW110885   4.150   2.804   1.852
 3329SOL    HW210886   4.109   2.713   1.722
 3330SOL     OW10887   5.027   2.700   0.042
 3330SOL    HW110888   5.061   2.607   0.057
 3330SOL    HW210889   5.045   2.727  -0.053
 3331SOL     OW10890   4.792   3.195   0.849
 3331SOL    HW110891   4.799   3.111   0.794
 3331SOL    HW210892   4.854   3.264   0.813
 3332SOL     OW10893   4.043   2.672   0.949
 3332SOL    HW110894   4.136   2.708   0.954
 3332SOL    HW210895   4.037   2.587   1.001
 3333SOL     OW10896   4.063   2.371   1.006
 3333SOL    HW110897   4.011   2.288   0.989
 3333SOL    HW210898   4.140   2.376   0.942
 3334SOL     OW10899   4.862   2.242   1.678
 3334SOL    HW110900   4.817   2.305   1.742
 3334SOL    HW210901   4.955   2.273   1.661
 3335SOL     OW10902   4.884   2.069   1.477
 3335SOL    HW110903   4.884   2.133   1.554
 3335SOL    HW210904   4.912   2.117   1.394
 3336SOL     OW10905   3.812   3.663   0.927
 3336SOL    HW110906   3.770   3.577   0.900
 3336SOL    HW210907   3.906   3.666   0.893
 3337SOL     OW10908   4.726   2.658   1.238
 3337SOL    HW110909   4.767   2.626   1.324
 3337SOL    HW210910   4.630   2.631   1.235
 3338SOL     OW10911   3.764   2.406   1.114
 3338SOL    HW110912   3.849   2.373   1.073
 3338SOL    HW210913   3.777   2.421   1.212
 3339SOL     OW10914   3.913   2.382   1.722
 3339SOL    HW110915   3.972   2.342   1.652
 3339SOL    HW210916   3.855   2.453   1.681
 3340SOL     OW10917   4.539   2.434   0.325
 3340SOL    HW110918   4.546   2.345   0.279
 3340SOL    HW210919   4.445   2.468   0.317
 3341SOL     OW10920   3.976   3.426   1.744
 3341SOL    HW110921   3.946   3.483   1.820
 3341SOL    HW210922   3.969   3.329   1.770
 3342SOL     OW10923   4.395   2.326   1.269
 3342SOL    HW110924   4.361   2.237   1.239
 3342SOL    HW210925   4.421   2.380   1.189
 3343SOL     OW10926   4.197   2.362   0.191
 3343SOL    HW110927   4.258   2.442   0.195
 3343SOL    HW210928   4.102   2.393   0.198
 3344SOL     OW10929   3.883   2.999   1.466
 3344SOL    HW110930   3.905   2.938   1.542
 3344SOL    HW210931   3.893   2.950   1.380
 3345SOL     OW10932   5.071   2.921   1.234
 3345SOL    HW110933   5.095   2.858   1.160
 3345SOL    HW210934   4.981   2.961   1.216
 3346SOL     OW10935   4.976   3.593   1.128
 3346SOL    HW110936   5.060   3.598   1.074
 3346SOL    HW210937   4.953   3.497   1.146
 3347SOL     OW10938   3.807   3.120   1.022
 3347SOL    HW110939   3.802   3.119   1.122
 3347SOL    HW210940   3.724   3.079   0.984
 3348SOL     OW10941   4.412   3.524   1.716
 3348SOL    HW110942   4.356   3.605   1.725
 3348SOL    HW210943   4.464   3.528   1.630
 3349SOL     OW10944   4.627   1.948   0.133
 3349SOL    HW110945   4.678   1.949   0.047
 3349SOL    HW210946   4.683   1.906   0.204
 3350SOL     OW10947   5.112   3.435   0.477
 3350SOL    HW110948   5.179   3.447   0.403
 3350SOL    HW210949   5.072   3.524   0.500
 3351SOL     OW10950   3.854   3.656   1.851
 3351SOL    HW110951   3.813   3.582   1.904
 3351SOL    HW210952   3.918   3.707   1.909
 3352SOL     OW10953   5.004   2.789   0.672
 3352SOL    HW110954   5.064   2.708   0.674
 3352SOL    HW210955   5.044   2.858   0.612
 3353SOL     OW10956   4.554   3.135   1.422
 3353SOL    HW110957   4.549   3.168   1.517
 3353SOL    HW210958   4.468   3.154   1.376
 3354SOL     OW10959   4.396   3.478   0.154
 3354SOL    HW110960   4.405   3.488   0.055
 3354SOL    HW210961   4.356   3.389   0.175
 3355SOL     OW10962   3.987   2.188   0.720
 3355SOL    HW110963   3.908   2.239   0.686
 3355SOL    HW210964   3.978   2.173   0.818
 3356SOL     OW10965   4.918   3.474   0.031
 3356SOL    HW110966   4.924   3.381   0.068
 3356SOL    HW210967   4.859   3.474  -0.049
 3357SOL     OW10968   4.546   2.864   1.372
 3357SOL    HW110969   4.586   2.863   1.280
 3357SOL    HW210970   4.556   2.956   1.412
 3358SOL     OW10971   4.640   2.772   0.291
 3358SOL    HW110972   4.703   2.810   0.223
 3358SOL    HW210973   4.680   2.689   0.330
 3359SOL     OW10974   4.096   3.150   1.490
 3359SOL    HW110975   4.083   3.243   1.456
 3359SOL    HW210976   4.012   3.098   1.477
 3360SOL     OW10977   4.763   2.960   0.696
 3360SOL    HW110978   4.693   2.913   0.750
 3360SOL    HW210979   4.822   2.892   0.653
 3361SOL     OW10980   4.738   2.098   0.971
 3361SOL    HW110981   4.730   2.062   0.878
 3361SOL    HW210982   4.736   2.022   1.036
 3362SOL     OW10983   3.979   3.210   0.290
 3362SOL    HW110984   3.883   3.211   0.263
 3362SOL    HW210985   3.991   3.263   0.374
 3363SOL     OW10986   3.829   2.875   1.726
 3363SOL    HW110987   3.752   2.842   1.780
 3363SOL    HW210988   3.914   2.845   1.768
 3364SOL     OW10989   5.164   2.718   1.398
 3364SOL    HW110990   5.107   2.770   1.335
 3364SOL    HW210991   5.260   2.730   1.374
 3365SOL     OW10992   3.796   2.028   0.318
 3365SOL    HW110993   3.779   2.111   0.264
 3365SOL    HW210994   3.886   1.991   0.296
 3366SOL     OW10995   4.337   2.704   1.431
 3366SOL    HW110996   4.393   2.785   1.414
 3366SOL    HW210997   4.396   2.624   1.434
 3367SOL     OW10998   4.440   2.427   1.708
 3367SOL    HW110999   4.459   2.492   1.782
 3367SOL    HW211000   4.500   2.347   1.717
 3368SOL     OW11001   4.114   3.603   1.560
 3368SOL    HW111002   4.023   3.644   1.558
 3368SOL    HW211003   4.107   3.509   1.592
 3369SOL     OW11004   4.949   2.187   0.449
 3369SOL    HW111005   5.014   2.113   0.438
 3369SOL    HW211006   4.969   2.237   0.533
 3370SOL     OW11007   4.318   2.607   0.652
 3370SOL    HW111008   4.368   2.692   0.633
 3370SOL    HW211009   4.230   2.609   0.604
 3371SOL     OW11010   4.583   3.236   0.016
 3371SOL    HW111011   4.537   3.251   0.104
 3371SOL    HW211012   4.627   3.321  -0.014
 3372SOL     OW11013   4.385   3.652   0.953
 3372SOL    HW111014   4.339   3.740   0.940
 3372SOL    HW211015   4.484   3.664   0.946
 3373SOL     OW11016   4.583   2.818   0.861
 3373SOL    HW111017   4.637   2.749   0.909
 3373SOL    HW211018   4.551   2.887   0.927
 3374SOL     OW11019   4.807   2.846   0.087
 3374SOL    HW111020   4.784   2.899   0.005
 3374SOL    HW211021   4.888   2.790   0.068
 3375SOL     OW11022   3.945   3.176   1.844
 3375SOL    HW111023   3.880   3.103   1.823
 3375SOL    HW211024   3.949   3.190   1.942
 3376SOL     OW11025   3.803   3.102   0.653
 3376SOL    HW111026   3.802   3.055   0.741
 3376SOL    HW211027   3.885   3.074   0.602
 3377SOL     OW11028   4.396   3.253   1.624
 3377SOL    HW111029   4.318   3.203   1.662
 3377SOL    HW211030   4.393   3.348   1.655
 3378SOL     OW11031   4.152   2.286   0.520
 3378SOL    HW111032   4.182   2.214   0.458
 3378SOL    HW211033   4.113   2.246   0.603
 3379SOL     OW11034   4.041   2.409   1.280
 3379SOL    HW111035   4.079   2.350   1.352
 3379SOL    HW211036   4.081   2.383   1.192
 3380SOL     OW11037   4.725   1.896   1.154
 3380SOL    HW111038   4.662   1.824   1.123
 3380SOL    HW211039   4.818   1.860   1.154
 3381SOL     OW11040   4.599   3.508   0.337
 3381SOL    HW111041   4.522   3.473   0.283
 3381SOL    HW211042   4.567   3.579   0.399
 3382SOL     OW11043   3.954   2.490   1.975
 3382SOL    HW111044   3.861   2.488   2.012
 3382SOL    HW211045   3.955   2.451   1.883
 3383SOL     OW11046   3.949   2.137   2.858
 3383SOL    HW111047   3.984   2.120   2.950
 3383SOL    HW211048   3.861   2.092   2.846
 3384SOL     OW11049   3.743   2.230   2.509
 3384SOL    HW111050   3.661   2.273   2.548
 3384SOL    HW211051   3.715   2.157   2.446
 3385SOL     OW11052   4.293   3.137   3.027
 3385SOL    HW111053   4.200   3.130   2.990
 3385SOL    HW211054   4.304   3.226   3.071
 3386SOL     OW11055   4.859   2.565   2.579
 3386SOL    HW111056   4.916   2.643   2.554
 3386SOL    HW211057   4.799   2.591   2.655
 3387SOL     OW11058   4.492   3.006   2.885
 3387SOL    HW111059   4.414   3.023   2.945
 3387SOL    HW211060   4.526   3.093   2.849
 3388SOL     OW11061   4.574   2.660   3.685
 3388SOL    HW111062   4.570   2.736   3.750
 3388SOL    HW211063   4.596   2.696   3.594
 3389SOL     OW11064   4.409   2.874   2.527
 3389SOL    HW111065   4.478   2.858   2.597
 3389SOL    HW211066   4.336   2.931   2.565
 3390SOL     OW11067   4.410   3.023   3.665
 3390SOL    HW111068   4.470   3.102   3.679
 3390SOL    HW211069   4.324   3.054   3.624
 3391SOL     OW11070   4.059   3.297   2.923
 3391SOL    HW111071   3.981   3.266   2.870
 3391SOL    HW211072   4.117   3.355   2.866
 3392SOL     OW11073   4.162   2.254   3.361
 3392SOL    HW111074   4.244   2.198   3.370
 3392SOL    HW211075   4.081   2.196   3.365
 3393SOL     OW11076   3.955   3.575   2.345
 3393SOL    HW111077   3.989   3.652   2.399
 3393SOL    HW211078   3.999   3.575   2.255
 3394SOL     OW11079   4.851   3.203   3.552
 3394SOL    HW111080   4.898   3.203   3.640
 3394SOL    HW211081   4.803   3.116   3.541
 3395SOL     OW11082   3.954   3.296   2.400
 3395SOL    HW111083   3.928   3.392   2.400
 3395SOL    HW211084   3.883   3.242   2.445
 3396SOL     OW11085   3.964   2.953   2.748
 3396SOL    HW111086   3.978   2.869   2.800
 3396SOL    HW211087   3.909   3.017   2.803
 3397SOL     OW11088   4.344   3.648   3.301
 3397SOL    HW111089   4.252   3.631   3.336
 3397SOL    HW211090   4.372   3.740   3.327
 3398SOL     OW11091   4.330   2.826   1.985
 3398SOL    HW111092   4.337   2.910   1.931
 3398SOL    HW211093   4.376   2.839   2.073
 3399SOL     OW11094   3.846   2.505   2.425
 3399SOL    HW111095   3.801   2.417   2.442
 3399SOL    HW211096   3.845   2.559   2.509
 3400SOL     OW11097   3.751   3.458   1.979
 3400SOL    HW111098   3.732   3.362   2.000
 3400SOL    HW211099   3.718   3.516   2.054
 3401SOL     OW11100   3.837   2.599   3.459
 3401SOL    HW111101   3.925   2.586   3.504
 3401SOL    HW211102   3.824   2.696   3.437
 3402SOL     OW11103   4.337   3.227   2.588
 3402SOL    HW111104   4.288   3.140   2.597
 3402SOL    HW211105   4.314   3.270   2.501
 3403SOL     OW11106   4.533   1.866   2.364
 3403SOL    HW111107   4.573   1.957   2.355
 3403SOL    HW211108   4.433   1.874   2.370
 3404SOL     OW11109   3.921   2.838   3.126
 3404SOL    HW111110   4.010   2.793   3.112
 3404SOL    HW211111   3.848   2.773   3.107
 3405SOL     OW11112   4.911   3.654   3.478
 3405SOL    HW111113   4.935   3.714   3.402
 3405SOL    HW211114   4.918   3.559   3.448
 3406SOL     OW11115   4.041   2.113   3.663
 3406SOL    HW111116   4.112   2.184   3.669
 3406SOL    HW211117   3.953   2.152   3.691
 3407SOL     OW11118   4.322   2.591   2.132
 3407SOL    HW111119   4.346   2.660   2.064
 3407SOL    HW211120   4.244   2.624   2.186
 3408SOL     OW11121   5.005   2.207   2.806
 3408SOL    HW111122   4.919   2.157   2.793
 3408SOL    HW211123   5.067   2.153   2.862
 3409SOL     OW11124   4.531   2.467   3.327
 3409SOL    HW111125   4.484   2.464   3.416
 3409SOL    HW211126   4.480   2.412   3.261
 3410SOL     OW11127   4.697   2.752   3.434
 3410SOL    HW111128   4.743   2.668   3.405
 3410SOL    HW211129   4.641   2.786   3.359
 3411SOL     OW11130   4.715   2.272   3.104
 3411SOL    HW111131   4.638   2.306   3.158
 3411SOL    HW211132   4.681   2.221   3.025
 3412SOL     OW11133   4.765   2.563   2.291
 3412SOL    HW111134   4.791   2.559   2.387
 3412SOL    HW211135   4.680   2.512   2.277
 3413SOL     OW11136   3.800   2.673   2.651
 3413SOL    HW111137   3.899   2.661   2.660
 3413SOL    HW211138   3.776   2.768   2.672
 3414SOL     OW11139   3.854   3.683   3.433
 3414SOL    HW111140   3.844   3.668   3.532
 3414SOL    HW211141   3.768   3.719   3.397
 3415SOL     OW11142   4.589   2.210   2.057
 3415SOL    HW111143   4.648   2.273   2.008
 3415SOL    HW211144   4.608   2.116   2.028
 3416SOL     OW11145   4.732   3.318   2.339
 3416SOL    HW111146   4.686   3.390   2.287
 3416SOL    HW211147   4.728   3.338   2.437
 3417SOL     OW11148   4.075   3.663   2.715
 3417SOL    HW111149   4.125   3.577   2.721
 3417SOL    HW211150   4.140   3.740   2.712
 3418SOL     OW11151   4.045   2.805   2.104
 3418SOL    HW111152   4.127   2.844   2.062
 3418SOL    HW211153   4.018   2.723   2.055
 3419SOL     OW11154   4.185   3.128   3.589
 3419SOL    HW111155   4.135   3.129   3.503
 3419SOL    HW211156   4.122   3.110   3.665
 3420SOL     OW11157   4.835   3.638   2.099
 3420SOL    HW111158   4.775   3.576   2.149
 3420SOL    HW211159   4.866   3.594   2.014
 3421SOL     OW11160   3.926   2.147   3.360
 3421SOL    HW111161   3.846   2.207   3.347
 3421SOL    HW211162   3.916   2.098   3.446
 3422SOL     OW11163   4.188   3.605   2.185
 3422SOL    HW111164   4.221   3.644   2.271
 3422SOL    HW211165   4.264   3.598   2.120
 3423SOL     OW11166   3.973   3.647   3.103
 3423SOL    HW111167   4.030   3.582   3.153
 3423SOL    HW211168   3.957   3.614   3.010
 3424SOL     OW11169   4.664   3.560   2.766
 3424SOL    HW111170   4.744   3.503   2.787
 3424SOL    HW211171   4.615   3.520   2.689
 3425SOL     OW11172   4.106   2.562   2.342
 3425SOL    HW111173   4.151   2.472   2.339
 3425SOL    HW211174   4.012   2.551   2.375
 3426SOL     OW11175   4.505   2.126   3.611
 3426SOL    HW111176   4.572   2.065   3.654
 3426SOL    HW211177   4.432   2.145   3.676
 3427SOL     OW11178   4.612   3.376   3.057
 3427SOL    HW111179   4.589   3.351   2.963
 3427SOL    HW211180   4.673   3.307   3.096
 3428SOL     OW11181   4.527   3.264   2.786
 3428SOL    HW111182   4.617   3.278   2.744
 3428SOL    HW211183   4.456   3.266   2.715
 3429SOL     OW11184   4.646   2.365   2.761
 3429SOL    HW111185   4.621   2.356   2.665
 3429SOL    HW211186   4.694   2.283   2.792
 3430SOL     OW11187   4.263   1.926   2.374
 3430SOL    HW111188   4.182   1.927   2.432
 3430SOL    HW211189   4.266   2.009   2.319
 3431SOL     OW11190   4.021   1.897   2.033
 3431SOL    HW111191   4.070   1.981   2.012
 3431SOL    HW211192   4.083   1.832   2.078
 3432SOL     OW11193   4.659   2.098   2.342
 3432SOL    HW111194   4.611   2.139   2.264
 3432SOL    HW211195   4.758   2.096   2.323
 3433SOL     OW11196   4.800   2.545   3.326
 3433SOL    HW111197   4.720   2.484   3.329
 3433SOL    HW211198   4.881   2.492   3.302
 3434SOL     OW11199   4.951   3.432   2.655
 3434SOL    HW111200   4.972   3.506   2.590
 3434SOL    HW211201   5.019   3.432   2.728
 3435SOL     OW11202   4.183   3.014   2.603
 3435SOL    HW111203   4.112   2.987   2.668
 3435SOL    HW211204   4.157   2.986   2.510
 3436SOL     OW11205   4.995   3.659   2.453
 3436SOL    HW111206   5.039   3.723   2.389
 3436SOL    HW211207   4.945   3.711   2.523
 3437SOL     OW11208   4.756   2.411   1.878
 3437SOL    HW111209   4.715   2.493   1.839
 3437SOL    HW211210   4.820   2.437   1.951
 3438SOL     OW11211   3.802   2.418   3.248
 3438SOL    HW111212   3.894   2.417   3.207
 3438SOL    HW211213   3.796   2.492   3.315
 3439SOL     OW11214   4.285   2.084   3.009
 3439SOL    HW111215   4.323   2.000   3.046
 3439SOL    HW211216   4.197   2.103   3.053
 3440SOL     OW11217   4.590   2.316   2.504
 3440SOL    HW111218   4.558   2.388   2.442
 3440SOL    HW211219   4.614   2.235   2.451
 3441SOL     OW11220   4.741   1.901   2.615
 3441SOL    HW111221   4.669   1.906   2.546
 3441SOL    HW211222   4.717   1.832   2.684
 3442SOL     OW11223   4.212   3.247   2.036
 3442SOL    HW111224   4.125   3.232   2.083
 3442SOL    HW211225   4.195   3.273   1.941
 3443SOL     OW11226   5.388   3.142   2.519
 3443SOL    HW111227   5.487   3.150   2.533
 3443SOL    HW211228   5.343   3.226   2.550
 3444SOL     OW11229   4.835   3.057   2.962
 3444SOL    HW111230   4.795   3.101   3.043
 3444SOL    HW211231   4.794   3.094   2.879
 3445SOL     OW11232   4.704   2.978   3.581
 3445SOL    HW111233   4.605   2.984   3.591
 3445SOL    HW211234   4.727   2.898   3.525
 3446SOL     OW11235   4.429   2.912   2.230
 3446SOL    HW111236   4.415   2.919   2.329
 3446SOL    HW211237   4.513   2.861   2.212
 3447SOL     OW11238   4.134   2.675   3.113
 3447SOL    HW111239   4.220   2.687   3.163
 3447SOL    HW211240   4.092   2.588   3.140
 3448SOL     OW11241   4.998   2.248   3.124
 3448SOL    HW111242   5.019   2.322   3.188
 3448SOL    HW211243   4.909   2.265   3.081
 3449SOL     OW11244   3.788   3.426   3.193
 3449SOL    HW111245   3.742   3.508   3.159
 3449SOL    HW211246   3.886   3.445   3.202
 3450SOL     OW11247   4.091   2.962   2.363
 3450SOL    HW111248   4.084   3.045   2.307
 3450SOL    HW211249   4.095   2.882   2.303
 3451SOL     OW11250   4.290   2.399   2.727
 3451SOL    HW111251   4.302   2.465   2.653
 3451SOL    HW211252   4.336   2.433   2.810
 3452SOL     OW11253   4.976   3.210   2.250
 3452SOL    HW111254   5.026   3.287   2.290
 3452SOL    HW211255   4.881   3.212   2.282
 3453SOL     OW11256   4.078   3.372   3.191
 3453SOL    HW111257   4.057   3.328   3.104
 3453SOL    HW211258   4.175   3.398   3.194
 3454SOL     OW11259   4.126   2.613   3.460
 3454SOL    HW111260   4.194   2.668   3.413
 3454SOL    HW211261   4.166   2.525   3.487
 3455SOL     OW11262   4.737   1.967   3.632
 3455SOL    HW111263   4.743   2.052   3.580
 3455SOL    HW211264   4.769   1.891   3.575
 3456SOL     OW11265   4.297   2.732   2.891
 3456SOL    HW111266   4.341   2.821   2.882
 3456SOL    HW211267   4.234   2.732   2.968
 3457SOL     OW11268   5.084   2.724   2.907
 3457SOL    HW111269   5.009   2.724   2.841
 3457SOL    HW211270   5.121   2.632   2.916
 3458SOL     OW11271   4.933   2.387   2.137
 3458SOL    HW111272   4.946   2.303   2.191
 3458SOL    HW211273   4.904   2.461   2.197
 3459SOL     OW11274   4.031   2.075   3.093
 3459SOL    HW111275   4.008   2.112   3.183
 3459SOL    HW211276   4.001   1.980   3.087
 3460SOL     OW11277   3.761   3.172   3.144
 3460SOL    HW111278   3.814   3.123   3.212
 3460SOL    HW211279   3.783   3.270   3.149
 3461SOL     OW11280   4.456   2.496   2.926
 3461SOL    HW111281   4.515   2.470   2.850
 3461SOL    HW211282   4.428   2.592   2.915
 3462SOL     OW11283   4.031   1.925   2.480
 3462SOL    HW111284   4.020   2.019   2.513
 3462SOL    HW211285   4.026   1.862   2.557
 3463SOL     OW11286   5.346   2.229   2.236
 3463SOL    HW111287   5.348   2.153   2.300
 3463SOL    HW211288   5.298   2.306   2.276
 3464SOL     OW11289   4.747   2.628   2.828
 3464SOL    HW111290   4.762   2.649   2.924
 3464SOL    HW211291   4.717   2.533   2.819
 3465SOL     OW11292   4.704   3.435   3.562
 3465SOL    HW111293   4.684   3.479   3.474
 3465SOL    HW211294   4.743   3.344   3.546
 3466SOL     OW11295   4.074   2.760   3.666
 3466SOL    HW111296   4.150   2.804   3.714
 3466SOL    HW211297   4.109   2.713   3.584
 3467SOL     OW11298   5.027   2.700   1.904
 3467SOL    HW111299   5.061   2.607   1.919
 3467SOL    HW211300   5.045   2.727   1.809
 3468SOL     OW11301   4.792   3.195   2.711
 3468SOL    HW111302   4.799   3.111   2.656
 3468SOL    HW211303   4.854   3.264   2.675
 3469SOL     OW11304   4.043   2.672   2.811
 3469SOL    HW111305   4.136   2.708   2.816
 3469SOL    HW211306   4.037   2.587   2.863
 3470SOL     OW11307   4.063   2.371   2.868
 3470SOL    HW111308   4.011   2.288   2.851
 3470SOL    HW211309   4.140   2.376   2.804
 3471SOL     OW11310   4.862   2.242   3.540
 3471SOL    HW111311   4.817   2.305   3.604
 3471SOL    HW211312   4.955   2.273   3.523
 3472SOL     OW11313   3.732   3.188   2.062
 3472SOL    HW111314   3.639   3.209   2.031
 3472SOL    HW211315   3.742   3.089   2.075
 3473SOL     OW11316   3.812   3.663   2.789
 3473SOL    HW111317   3.770   3.577   2.762
 3473SOL    HW211318   3.906   3.666   2.755
 3474SOL     OW11319   4.228   3.430   2.772
 3474SOL    HW111320   4.294   3.504   2.781
 3474SOL    HW211321   4.272   3.351   2.730
 3475SOL     OW11322   4.726   2.658   3.100
 3475SOL    HW111323   4.767   2.626   3.186
 3475SOL    HW211324   4.630   2.631   3.097
 3476SOL     OW11325   3.764   2.406   2.976
 3476SOL    HW111326   3.849   2.373   2.935
 3476SOL    HW211327   3.777   2.421   3.074
 3477SOL     OW11328   3.913   2.382   3.584
 3477SOL    HW111329   3.972   2.342   3.514
 3477SOL    HW211330   3.855   2.453   3.543
 3478SOL     OW11331   4.539   2.434   2.187
 3478SOL    HW111332   4.546   2.345   2.141
 3478SOL    HW211333   4.445   2.468   2.179
 3479SOL     OW11334   3.976   3.426   3.606
 3479SOL    HW111335   3.946   3.483   3.682
 3479SOL    HW211336   3.969   3.329   3.632
 3480SOL     OW11337   4.395   2.326   3.131
 3480SOL    HW111338   4.361   2.237   3.101
 3480SOL    HW211339   4.421   2.380   3.051
 3481SOL     OW11340   4.654   3.540   3.327
 3481SOL    HW111341   4.630   3.522   3.232
 3481SOL    HW211342   4.684   3.634   3.337
 3482SOL     OW11343   4.197   2.362   2.053
 3482SOL    HW111344   4.258   2.442   2.057
 3482SOL    HW211345   4.102   2.393   2.060
 3483SOL     OW11346   3.883   2.999   3.328
 3483SOL    HW111347   3.905   2.938   3.404
 3483SOL    HW211348   3.893   2.950   3.242
 3484SOL     OW11349   5.071   2.921   3.096
 3484SOL    HW111350   5.095   2.858   3.022
 3484SOL    HW211351   4.981   2.961   3.078
 3485SOL     OW11352   4.976   3.593   2.990
 3485SOL    HW111353   5.060   3.598   2.936
 3485SOL    HW211354   4.953   3.497   3.008
 3486SOL     OW11355   3.807   3.120   2.884
 3486SOL    HW111356   3.802   3.119   2.984
 3486SOL    HW211357   3.724   3.079   2.846
 3487SOL     OW11358   4.412   3.524   3.578
 3487SOL    HW111359   4.356   3.605   3.587
 3487SOL    HW211360   4.464   3.528   3.492
 3488SOL     OW11361   5.112   3.435   2.339
 3488SOL    HW111362   5.179   3.447   2.265
 3488SOL    HW211363   5.072   3.524   2.362
 3489SOL     OW11364   3.854   3.656   3.713
 3489SOL    HW111365   3.813   3.582   3.766
 3489SOL    HW211366   3.918   3.707   3.771
 3490SOL     OW11367   5.004   2.789   2.534
 3490SOL    HW111368   5.064   2.708   2.536
 3490SOL    HW211369   5.044   2.858   2.474
 3491SOL     OW11370   4.554   3.135   3.284
 3491SOL    HW111371   4.549   3.168   3.379
 3491SOL    HW211372   4.468   3.154   3.238
 3492SOL     OW11373   4.396   3.478   2.016
 3492SOL    HW111374   4.405   3.488   1.917
 3492SOL    HW211375   4.356   3.389   2.037
 3493SOL     OW11376   3.987   2.188   2.582
 3493SOL    HW111377   3.908   2.239   2.548
 3493SOL    HW211378   3.978   2.173   2.680
 3494SOL     OW11379   4.918   3.474   1.893
 3494SOL    HW111380   4.924   3.381   1.930
 3494SOL    HW211381   4.859   3.474   1.813
 3495SOL     OW11382   4.546   2.864   3.234
 3495SOL    HW111383   4.586   2.863   3.142
 3495SOL    HW211384   4.556   2.956   3.274
 3496SOL     OW11385   4.640   2.772   2.153
 3496SOL    HW111386   4.703   2.810   2.085
 3496SOL    HW211387   4.680   2.689   2.192
 3497SOL     OW11388   4.096   3.150   3.352
 3497SOL    HW111389   4.083   3.243   3.318
 3497SOL    HW211390   4.012   3.098   3.339
 3498SOL     OW11391   4.763   2.960   2.558
 3498SOL    HW111392   4.693   2.913   2.612
 3498SOL    HW211393   4.822   2.892   2.515
 3499SOL     OW11394   4.314   3.349   2.353
 3499SOL    HW111395   4.356   3.291   2.283
 3499SOL    HW211396   4.270   3.428   2.309
 3500SOL     OW11397   3.979   3.210   2.152
 3500SOL    HW111398   3.883   3.211   2.125
 3500SOL    HW211399   3.991   3.263   2.236
 3501SOL     OW11400   3.829   2.875   3.588
 3501SOL    HW111401   3.752   2.842   3.642
 3501SOL    HW211402   3.914   2.845   3.630
 3502SOL     OW11403   3.799   2.207   1.895
 3502SOL    HW111404   3.707   2.179   1.866
 3502SOL    HW211405   3.830   2.284   1.839
 3503SOL     OW11406   3.796   2.028   2.180
 3503SOL    HW111407   3.779   2.111   2.126
 3503SOL    HW211408   3.886   1.991   2.158
 3504SOL     OW11409   4.337   2.704   3.293
 3504SOL    HW111410   4.393   2.785   3.276
 3504SOL    HW211411   4.396   2.624   3.296
 3505SOL     OW11412   4.440   2.427   3.570
 3505SOL    HW111413   4.459   2.492   3.644
 3505SOL    HW211414   4.500   2.347   3.579
 3506SOL     OW11415   4.114   3.603   3.422
 3506SOL    HW111416   4.023   3.644   3.420
 3506SOL    HW211417   4.107   3.509   3.454
 3507SOL     OW11418   4.949   2.187   2.311
 3507SOL    HW111419   5.014   2.113   2.300
 3507SOL    HW211420   4.969   2.237   2.395
 3508SOL     OW11421   4.318   2.607   2.514
 3508SOL    HW111422   4.368   2.692   2.495
 3508SOL    HW211423   4.230   2.609   2.466
 3509SOL     OW11424   4.583   3.236   1.878
 3509SOL    HW111425   4.537   3.251   1.966
 3509SOL    HW211426   4.627   3.321   1.848
 3510SOL     OW11427   4.385   3.652   2.815
 3510SOL    HW111428   4.339   3.740   2.802
 3510SOL    HW211429   4.484   3.664   2.808
 3511SOL     OW11430   4.583   2.818   2.723
 3511SOL    HW111431   4.637   2.749   2.771
 3511SOL    HW211432   4.551   2.887   2.789
 3512SOL     OW11433   4.807   2.846   1.949
 3512SOL    HW111434   4.784   2.899   1.867
 3512SOL    HW211435   4.888   2.790   1.930
 3513SOL     OW11436   3.945   3.176   3.706
 3513SOL    HW111437   3.880   3.103   3.685
 3513SOL    HW211438   3.949   3.190   3.804
 3514SOL     OW11439   3.803   3.102   2.515
 3514SOL    HW111440   3.802   3.055   2.603
 3514SOL    HW211441   3.885   3.074   2.464
 3515SOL     OW11442   4.396   3.253   3.486
 3515SOL    HW111443   4.318   3.203   3.524
 3515SOL    HW211444   4.393   3.348   3.517
 3516SOL     OW11445   4.152   2.286   2.382
 3516SOL    HW111446   4.182   2.214   2.320
 3516SOL    HW211447   4.113   2.246   2.465
 3517SOL     OW11448   4.041   2.409   3.142
 3517SOL    HW111449   4.079   2.350   3.214
 3517SOL    HW211450   4.081   2.383   3.054
 3518SOL     OW11451   4.536   3.448   2.549
 3518SOL    HW111452   4.568   3.458   2.455
 3518SOL    HW211453   4.457   3.386   2.551
 3519SOL     OW11454   4.494   3.192   2.163
 3519SOL    HW111455   4.448   3.105   2.180
 3519SOL    HW211456   4.585   3.189   2.204
 3520SOL     OW11457   4.342   3.429   3.146
 3520SOL    HW111458   4.337   3.511   3.203
 3520SOL    HW211459   4.431   3.426   3.101
 3521SOL     OW11460   5.076   1.914   2.030
 3521SOL    HW111461   5.111   1.873   1.946
 3521SOL    HW211462   4.986   1.876   2.050
 3522SOL     OW11463   3.763   2.939   2.162
 3522SOL    HW111464   3.862   2.928   2.153
 3522SOL    HW211465   3.723   2.853   2.194
 3523SOL     OW11466   4.599   3.508   2.199
 3523SOL    HW111467   4.522   3.473   2.145
 3523SOL    HW211468   4.567   3.579   2.261
 3524SOL     OW11469   3.954   2.490   3.837
 3524SOL    HW111470   3.861   2.488   3.874
 3524SOL    HW211471   3.955   2.451   3.745
 3525SOL     OW11472   3.949   2.137   4.720
 3525SOL    HW111473   3.984   2.120   4.812
 3525SOL    HW211474   3.861   2.092   4.708
 3526SOL     OW11475   3.743   2.230   4.371
 3526SOL    HW111476   3.661   2.273   4.410
 3526SOL    HW211477   3.715   2.157   4.308
 3527SOL     OW11478   4.859   2.565   4.441
 3527SOL    HW111479   4.916   2.643   4.416
 3527SOL    HW211480   4.799   2.591   4.517
 3528SOL     OW11481   4.409   2.874   4.389
 3528SOL    HW111482   4.478   2.858   4.459
 3528SOL    HW211483   4.336   2.931   4.427
 3529SOL     OW11484   4.059   3.297   4.785
 3529SOL    HW111485   3.981   3.266   4.732
 3529SOL    HW211486   4.117   3.355   4.728
 3530SOL     OW11487   3.955   3.575   4.207
 3530SOL    HW111488   3.989   3.652   4.261
 3530SOL    HW211489   3.999   3.575   4.117
 3531SOL     OW11490   3.954   3.296   4.262
 3531SOL    HW111491   3.928   3.392   4.262
 3531SOL    HW211492   3.883   3.242   4.307
 3532SOL     OW11493   3.964   2.953   4.610
 3532SOL    HW111494   3.978   2.869   4.662
 3532SOL    HW211495   3.909   3.017   4.665
 3533SOL     OW11496   4.344   3.648   5.163
 3533SOL    HW111497   4.252   3.631   5.198
 3533SOL    HW211498   4.372   3.740   5.189
 3534SOL     OW11499   4.330   2.826   3.847
 3534SOL    HW111500   4.337   2.910   3.793
 3534SOL    HW211501   4.376   2.839   3.935
 3535SOL     OW11502   3.846   2.505   4.287
 3535SOL    HW111503   3.801   2.417   4.304
 3535SOL    HW211504   3.845   2.559   4.371
 3536SOL     OW11505   3.751   3.458   3.841
 3536SOL    HW111506   3.732   3.362   3.862
 3536SOL    HW211507   3.718   3.516   3.916
 3537SOL     OW11508   4.337   3.227   4.450
 3537SOL    HW111509   4.288   3.140   4.459
 3537SOL    HW211510   4.314   3.270   4.363
 3538SOL     OW11511   5.005   2.207   4.668
 3538SOL    HW111512   4.919   2.157   4.655
 3538SOL    HW211513   5.067   2.153   4.724
 3539SOL     OW11514   4.715   2.272   4.966
 3539SOL    HW111515   4.638   2.306   5.020
 3539SOL    HW211516   4.681   2.221   4.887
 3540SOL     OW11517   4.765   2.563   4.153
 3540SOL    HW111518   4.791   2.559   4.249
 3540SOL    HW211519   4.680   2.512   4.139
 3541SOL     OW11520   3.800   2.673   4.513
 3541SOL    HW111521   3.899   2.661   4.522
 3541SOL    HW211522   3.776   2.768   4.534
 3542SOL     OW11523   4.274   2.058   4.609
 3542SOL    HW111524   4.269   2.053   4.709
 3542SOL    HW211525   4.276   2.154   4.580
 3543SOL     OW11526   4.732   3.318   4.201
 3543SOL    HW111527   4.686   3.390   4.149
 3543SOL    HW211528   4.728   3.338   4.299
 3544SOL     OW11529   4.075   3.663   4.577
 3544SOL    HW111530   4.125   3.577   4.583
 3544SOL    HW211531   4.140   3.740   4.574
 3545SOL     OW11532   4.045   2.805   3.966
 3545SOL    HW111533   4.127   2.844   3.924
 3545SOL    HW211534   4.018   2.723   3.917
 3546SOL     OW11535   4.835   3.638   3.961
 3546SOL    HW111536   4.775   3.576   4.011
 3546SOL    HW211537   4.866   3.594   3.876
 3547SOL     OW11538   4.188   3.605   4.047
 3547SOL    HW111539   4.221   3.644   4.133
 3547SOL    HW211540   4.264   3.598   3.982
 3548SOL     OW11541   3.973   3.647   4.965
 3548SOL    HW111542   4.030   3.582   5.015
 3548SOL    HW211543   3.957   3.614   4.872
 3549SOL     OW11544   4.664   3.560   4.628
 3549SOL    HW111545   4.744   3.503   4.649
 3549SOL    HW211546   4.615   3.520   4.551
 3550SOL     OW11547   4.106   2.562   4.204
 3550SOL    HW111548   4.151   2.472   4.201
 3550SOL    HW211549   4.012   2.551   4.237
 3551SOL     OW11550   4.338   1.984   3.841
 3551SOL    HW111551   4.436   1.962   3.848
 3551SOL    HW211552   4.307   1.967   3.748
 3552SOL     OW11553   4.527   3.264   4.648
 3552SOL    HW111554   4.617   3.278   4.606
 3552SOL    HW211555   4.456   3.266   4.577
 3553SOL     OW11556   4.263   1.926   4.236
 3553SOL    HW111557   4.182   1.927   4.294
 3553SOL    HW211558   4.266   2.009   4.181
 3554SOL     OW11559   4.021   1.897   3.895
 3554SOL    HW111560   4.070   1.981   3.874
 3554SOL    HW211561   4.083   1.832   3.940
 3555SOL     OW11562   4.951   3.432   4.517
 3555SOL    HW111563   4.972   3.506   4.452
 3555SOL    HW211564   5.019   3.432   4.590
 3556SOL     OW11565   4.183   3.014   4.465
 3556SOL    HW111566   4.112   2.987   4.530
 3556SOL    HW211567   4.157   2.986   4.372
 3557SOL     OW11568   4.995   3.659   4.315
 3557SOL    HW111569   5.039   3.723   4.251
 3557SOL    HW211570   4.945   3.711   4.385
 3558SOL     OW11571   4.756   2.411   3.740
 3558SOL    HW111572   4.715   2.493   3.701
 3558SOL    HW211573   4.820   2.437   3.813
 3559SOL     OW11574   4.285   2.084   4.871
 3559SOL    HW111575   4.323   2.000   4.908
 3559SOL    HW211576   4.197   2.103   4.915
 3560SOL     OW11577   4.212   3.247   3.898
 3560SOL    HW111578   4.125   3.232   3.945
 3560SOL    HW211579   4.195   3.273   3.803
 3561SOL     OW11580   5.388   3.142   4.381
 3561SOL    HW111581   5.487   3.150   4.395
 3561SOL    HW211582   5.343   3.226   4.412
 3562SOL     OW11583   5.316   3.491   5.349
 3562SOL    HW111584   5.343   3.525   5.259
 3562SOL    HW211585   5.395   3.453   5.395
 3563SOL     OW11586   4.835   3.057   4.824
 3563SOL    HW111587   4.795   3.101   4.905
 3563SOL    HW211588   4.794   3.094   4.741
 3564SOL     OW11589   4.429   2.912   4.092
 3564SOL    HW111590   4.415   2.919   4.191
 3564SOL    HW211591   4.513   2.861   4.074
 3565SOL     OW11592   4.290   2.399   4.589
 3565SOL    HW111593   4.302   2.465   4.515
 3565SOL    HW211594   4.336   2.433   4.672
 3566SOL     OW11595   4.976   3.210   4.112
 3566SOL    HW111596   5.026   3.287   4.152
 3566SOL    HW211597   4.881   3.212   4.144
 3567SOL     OW11598   4.078   3.372   5.053
 3567SOL    HW111599   4.057   3.328   4.966
 3567SOL    HW211600   4.175   3.398   5.056
 3568SOL     OW11601   4.297   2.732   4.753
 3568SOL    HW111602   4.341   2.821   4.744
 3568SOL    HW211603   4.234   2.732   4.830
 3569SOL     OW11604   5.084   2.724   4.769
 3569SOL    HW111605   5.009   2.724   4.703
 3569SOL    HW211606   5.121   2.632   4.778
 3570SOL     OW11607   4.933   2.387   3.999
 3570SOL    HW111608   4.946   2.303   4.053
 3570SOL    HW211609   4.904   2.461   4.059
 3571SOL     OW11610   4.031   2.075   4.955
 3571SOL    HW111611   4.008   2.112   5.045
 3571SOL    HW211612   4.001   1.980   4.949
 3572SOL     OW11613   3.761   3.172   5.006
 3572SOL    HW111614   3.814   3.123   5.074
 3572SOL    HW211615   3.783   3.270   5.011
 3573SOL     OW11616   4.456   2.496   4.788
 3573SOL    HW111617   4.515   2.470   4.712
 3573SOL    HW211618   4.428   2.592   4.777
 3574SOL     OW11619   4.031   1.925   4.342
 3574SOL    HW111620   4.020   2.019   4.375
 3574SOL    HW211621   4.026   1.862   4.419
 3575SOL     OW11622   5.346   2.229   4.098
 3575SOL    HW111623   5.348   2.153   4.162
 3575SOL    HW211624   5.298   2.306   4.138
 3576SOL     OW11625   4.747   2.628   4.690
 3576SOL    HW111626   4.762   2.649   4.786
 3576SOL    HW211627   4.717   2.533   4.681
 3577SOL     OW11628   5.027   2.700   3.766
 3577SOL    HW111629   5.061   2.607   3.781
 3577SOL    HW211630   5.045   2.727   3.671
 3578SOL     OW11631   4.792   3.195   4.573
 3578SOL    HW111632   4.799   3.111   4.518
 3578SOL    HW211633   4.854   3.264   4.537
 3579SOL     OW11634   4.063   2.371   4.730
 3579SOL    HW111635   4.011   2.288   4.713
 3579SOL    HW211636   4.140   2.376   4.666
 3580SOL     OW11637   4.884   2.069   5.201
 3580SOL    HW111638   4.884   2.133   5.278
 3580SOL    HW211639   4.912   2.117   5.118
 3581SOL     OW11640   3.732   3.188   3.924
 3581SOL    HW111641   3.639   3.209   3.893
 3581SOL    HW211642   3.742   3.089   3.937
 3582SOL     OW11643   3.812   3.663   4.651
 3582SOL    HW111644   3.770   3.577   4.624
 3582SOL    HW211645   3.906   3.666   4.617
 3583SOL     OW11646   4.228   3.430   4.634
 3583SOL    HW111647   4.294   3.504   4.643
 3583SOL    HW211648   4.272   3.351   4.592
 3584SOL     OW11649   4.726   2.658   4.962
 3584SOL    HW111650   4.767   2.626   5.048
 3584SOL    HW211651   4.630   2.631   4.959
 3585SOL     OW11652   3.764   2.406   4.838
 3585SOL    HW111653   3.849   2.373   4.797
 3585SOL    HW211654   3.777   2.421   4.936
 3586SOL     OW11655   4.395   2.326   4.993
 3586SOL    HW111656   4.361   2.237   4.963
 3586SOL    HW211657   4.421   2.380   4.913
 3587SOL     OW11658   4.654   3.540   5.189
 3587SOL    HW111659   4.630   3.522   5.094
 3587SOL    HW211660   4.684   3.634   5.199
 3588SOL     OW11661   5.071   2.921   4.958
 3588SOL    HW111662   5.095   2.858   4.884
 3588SOL    HW211663   4.981   2.961   4.940
 3589SOL     OW11664   4.976   3.593   4.852
 3589SOL    HW111665   5.060   3.598   4.798
 3589SOL    HW211666   4.953   3.497   4.870
 3590SOL     OW11667   3.807   3.120   4.746
 3590SOL    HW111668   3.802   3.119   4.846
 3590SOL    HW211669   3.724   3.079   4.708
 3591SOL     OW11670   5.112   3.435   4.201
 3591SOL    HW111671   5.179   3.447   4.127
 3591SOL    HW211672   5.072   3.524   4.224
 3592SOL     OW11673   5.004   2.789   4.396
 3592SOL    HW111674   5.064   2.708   4.398
 3592SOL    HW211675   5.044   2.858   4.336
 3593SOL     OW11676   4.396   3.478   3.878
 3593SOL    HW111677   4.405   3.488   3.779
 3593SOL    HW211678   4.356   3.389   3.899
 3594SOL     OW11679   3.987   2.188   4.444
 3594SOL    HW111680   3.908   2.239   4.410
 3594SOL    HW211681   3.978   2.173   4.542
 3595SOL     OW11682   4.918   3.474   3.755
 3595SOL    HW111683   4.924   3.381   3.792
 3595SOL    HW211684   4.859   3.474   3.675
 3596SOL     OW11685   4.640   2.772   4.015
 3596SOL    HW111686   4.703   2.810   3.947
 3596SOL    HW211687   4.680   2.689   4.054
 3597SOL     OW11688   4.763   2.960   4.420
 3597SOL    HW111689   4.693   2.913   4.474
 3597SOL    HW211690   4.822   2.892   4.377
 3598SOL     OW11691   4.314   3.349   4.215
 3598SOL    HW111692   4.356   3.291   4.145
 3598SOL    HW211693   4.270   3.428   4.171
 3599SOL     OW11694   3.979   3.210   4.014
 3599SOL    HW111695   3.883   3.211   3.987
 3599SOL    HW211696   3.991   3.263   4.098
 3600SOL     OW11697   3.799   2.207   3.757
 3600SOL    HW111698   3.707   2.179   3.728
 3600SOL    HW211699   3.830   2.284   3.701
 3601SOL     OW11700   3.796   2.028   4.042
 3601SOL    HW111701   3.779   2.111   3.988
 3601SOL    HW211702   3.886   1.991   4.020
 3602SOL     OW11703   4.949   2.187   4.173
 3602SOL    HW111704   5.014   2.113   4.162
 3602SOL    HW211705   4.969   2.237   4.257
 3603SOL     OW11706   4.583   3.236   3.740
 3603SOL    HW111707   4.537   3.251   3.828
 3603SOL    HW211708   4.627   3.321   3.710
 3604SOL     OW11709   4.385   3.652   4.677
 3604SOL    HW111710   4.339   3.740   4.664
 3604SOL    HW211711   4.484   3.664   4.670
 3605SOL     OW11712   4.583   2.818   4.585
 3605SOL    HW111713   4.637   2.749   4.633
 3605SOL    HW211714   4.551   2.887   4.651
 3606SOL     OW11715   4.807   2.846   3.811
 3606SOL    HW111716   4.784   2.899   3.729
 3606SOL    HW211717   4.888   2.790   3.792
 3607SOL     OW11718   3.803   3.102   4.377
 3607SOL    HW111719   3.802   3.055   4.465
 3607SOL    HW211720   3.885   3.074   4.326
 3608SOL     OW11721   4.536   3.448   4.411
 3608SOL    HW111722   4.568   3.458   4.317
 3608SOL    HW211723   4.457   3.386   4.413
 3609SOL     OW11724   4.725   1.896   4.878
 3609SOL    HW111725   4.662   1.824   4.847
 3609SOL    HW211726   4.818   1.860   4.878
 3610SOL     OW11727   4.494   3.192   4.025
 3610SOL    HW111728   4.448   3.105   4.042
 3610SOL    HW211729   4.585   3.189   4.066
 3611SOL     OW11730   5.076   1.914   3.892
 3611SOL    HW111731   5.111   1.873   3.808
 3611SOL    HW211732   4.986   1.876   3.912
 3612SOL     OW11733   3.763   2.939   4.024
 3612SOL    HW111734   3.862   2.928   4.015
 3612SOL    HW211735   3.723   2.853   4.056
 3613SOL     OW11736   4.599   3.508   4.061
 3613SOL    HW111737   4.522   3.473   4.007
 3613SOL    HW211738   4.567   3.579   4.123
 3614SOL     OW11739   3.954   4.352   0.113
 3614SOL    HW111740   3.861   4.350   0.150
 3614SOL    HW211741   3.955   4.313   0.021
 3615SOL     OW11742   3.949   3.999   0.996
 3615SOL    HW111743   3.984   3.982   1.088
 3615SOL    HW211744   3.861   3.954   0.984
 3616SOL     OW11745   4.293   4.999   1.165
 3616SOL    HW111746   4.200   4.992   1.128
 3616SOL    HW211747   4.304   5.088   1.209
 3617SOL     OW11748   4.859   4.427   0.717
 3617SOL    HW111749   4.916   4.505   0.692
 3617SOL    HW211750   4.799   4.453   0.793
 3618SOL     OW11751   4.492   4.868   1.023
 3618SOL    HW111752   4.414   4.885   1.083
 3618SOL    HW211753   4.526   4.955   0.987
 3619SOL     OW11754   4.574   4.522   1.823
 3619SOL    HW111755   4.570   4.598   1.888
 3619SOL    HW211756   4.596   4.558   1.732
 3620SOL     OW11757   4.409   4.736   0.665
 3620SOL    HW111758   4.478   4.720   0.735
 3620SOL    HW211759   4.336   4.793   0.703
 3621SOL     OW11760   4.410   4.885   1.803
 3621SOL    HW111761   4.470   4.964   1.817
 3621SOL    HW211762   4.324   4.916   1.762
 3622SOL     OW11763   4.059   5.159   1.061
 3622SOL    HW111764   3.981   5.128   1.008
 3622SOL    HW211765   4.117   5.217   1.004
 3623SOL     OW11766   4.162   4.116   1.499
 3623SOL    HW111767   4.244   4.060   1.508
 3623SOL    HW211768   4.081   4.058   1.503
 3624SOL     OW11769   3.964   4.815   0.886
 3624SOL    HW111770   3.978   4.731   0.938
 3624SOL    HW211771   3.909   4.879   0.941
 3625SOL     OW11772   4.330   4.688   0.123
 3625SOL    HW111773   4.337   4.772   0.069
 3625SOL    HW211774   4.376   4.701   0.211
 3626SOL     OW11775   3.846   4.367   0.563
 3626SOL    HW111776   3.801   4.279   0.580
 3626SOL    HW211777   3.845   4.421   0.647
 3627SOL     OW11778   3.837   4.461   1.597
 3627SOL    HW111779   3.925   4.448   1.642
 3627SOL    HW211780   3.824   4.558   1.575
 3628SOL     OW11781   5.017   4.952   1.423
 3628SOL    HW111782   5.054   4.879   1.365
 3628SOL    HW211783   5.069   4.957   1.508
 3629SOL     OW11784   4.533   3.728   0.502
 3629SOL    HW111785   4.573   3.819   0.493
 3629SOL    HW211786   4.433   3.736   0.508
 3630SOL     OW11787   3.921   4.700   1.264
 3630SOL    HW111788   4.010   4.655   1.250
 3630SOL    HW211789   3.848   4.635   1.245
 3631SOL     OW11790   4.041   3.975   1.801
 3631SOL    HW111791   4.112   4.046   1.807
 3631SOL    HW211792   3.953   4.014   1.829
 3632SOL     OW11793   4.322   4.453   0.270
 3632SOL    HW111794   4.346   4.522   0.202
 3632SOL    HW211795   4.244   4.486   0.324
 3633SOL     OW11796   5.005   4.069   0.944
 3633SOL    HW111797   4.919   4.019   0.931
 3633SOL    HW211798   5.067   4.015   1.000
 3634SOL     OW11799   4.531   4.329   1.465
 3634SOL    HW111800   4.484   4.326   1.554
 3634SOL    HW211801   4.480   4.274   1.399
 3635SOL     OW11802   4.697   4.614   1.572
 3635SOL    HW111803   4.743   4.530   1.543
 3635SOL    HW211804   4.641   4.648   1.497
 3636SOL     OW11805   4.715   4.134   1.242
 3636SOL    HW111806   4.638   4.168   1.296
 3636SOL    HW211807   4.681   4.083   1.163
 3637SOL     OW11808   4.765   4.425   0.429
 3637SOL    HW111809   4.791   4.421   0.525
 3637SOL    HW211810   4.680   4.374   0.415
 3638SOL     OW11811   3.800   4.535   0.789
 3638SOL    HW111812   3.899   4.523   0.798
 3638SOL    HW211813   3.776   4.630   0.810
 3639SOL     OW11814   4.589   4.072   0.195
 3639SOL    HW111815   4.648   4.135   0.146
 3639SOL    HW211816   4.608   3.978   0.166
 3640SOL     OW11817   4.274   3.920   0.885
 3640SOL    HW111818   4.269   3.915   0.985
 3640SOL    HW211819   4.276   4.016   0.856
 3641SOL     OW11820   4.045   4.667   0.242
 3641SOL    HW111821   4.127   4.706   0.200
 3641SOL    HW211822   4.018   4.585   0.193
 3642SOL     OW11823   3.926   4.009   1.498
 3642SOL    HW111824   3.846   4.069   1.485
 3642SOL    HW211825   3.916   3.960   1.584
 3643SOL     OW11826   4.106   4.424   0.480
 3643SOL    HW111827   4.151   4.334   0.477
 3643SOL    HW211828   4.012   4.413   0.513
 3644SOL     OW11829   4.527   5.126   0.924
 3644SOL    HW111830   4.617   5.140   0.882
 3644SOL    HW211831   4.456   5.128   0.853
 3645SOL     OW11832   4.646   4.227   0.899
 3645SOL    HW111833   4.621   4.218   0.803
 3645SOL    HW211834   4.694   4.145   0.930
 3646SOL     OW11835   4.263   3.788   0.512
 3646SOL    HW111836   4.182   3.789   0.570
 3646SOL    HW211837   4.266   3.871   0.457
 3647SOL     OW11838   4.021   3.759   0.171
 3647SOL    HW111839   4.070   3.843   0.150
 3647SOL    HW211840   4.083   3.694   0.216
 3648SOL     OW11841   4.659   3.960   0.480
 3648SOL    HW111842   4.611   4.001   0.402
 3648SOL    HW211843   4.758   3.958   0.461
 3649SOL     OW11844   4.800   4.407   1.464
 3649SOL    HW111845   4.720   4.346   1.467
 3649SOL    HW211846   4.881   4.354   1.440
 3650SOL     OW11847   4.951   5.294   0.793
 3650SOL    HW111848   4.972   5.368   0.728
 3650SOL    HW211849   5.019   5.294   0.866
 3651SOL     OW11850   4.183   4.876   0.741
 3651SOL    HW111851   4.112   4.849   0.806
 3651SOL    HW211852   4.157   4.848   0.648
 3652SOL     OW11853   4.756   4.273   0.016
 3652SOL    HW111854   4.715   4.355  -0.023
 3652SOL    HW211855   4.820   4.299   0.089
 3653SOL     OW11856   3.802   4.280   1.386
 3653SOL    HW111857   3.894   4.279   1.345
 3653SOL    HW211858   3.796   4.354   1.453
 3654SOL     OW11859   4.590   4.178   0.642
 3654SOL    HW111860   4.558   4.250   0.580
 3654SOL    HW211861   4.614   4.097   0.589
 3655SOL     OW11862   4.251   3.980   0.328
 3655SOL    HW111863   4.278   3.921   0.253
 3655SOL    HW211864   4.251   4.075   0.297
 3656SOL     OW11865   4.704   4.840   1.719
 3656SOL    HW111866   4.605   4.846   1.729
 3656SOL    HW211867   4.727   4.760   1.663
 3657SOL     OW11868   4.429   4.774   0.368
 3657SOL    HW111869   4.415   4.781   0.467
 3657SOL    HW211870   4.513   4.723   0.350
 3658SOL     OW11871   4.134   4.537   1.251
 3658SOL    HW111872   4.220   4.549   1.301
 3658SOL    HW211873   4.092   4.450   1.278
 3659SOL     OW11874   4.998   4.110   1.262
 3659SOL    HW111875   5.019   4.184   1.326
 3659SOL    HW211876   4.909   4.127   1.219
 3660SOL     OW11877   4.091   4.824   0.501
 3660SOL    HW111878   4.084   4.907   0.445
 3660SOL    HW211879   4.095   4.744   0.441
 3661SOL     OW11880   4.290   4.261   0.865
 3661SOL    HW111881   4.302   4.327   0.791
 3661SOL    HW211882   4.336   4.295   0.948
 3662SOL     OW11883   4.976   5.072   0.388
 3662SOL    HW111884   5.026   5.149   0.428
 3662SOL    HW211885   4.881   5.074   0.420
 3663SOL     OW11886   4.126   4.475   1.598
 3663SOL    HW111887   4.194   4.530   1.551
 3663SOL    HW211888   4.166   4.387   1.625
 3664SOL     OW11889   4.737   3.829   1.770
 3664SOL    HW111890   4.743   3.914   1.718
 3664SOL    HW211891   4.769   3.753   1.713
 3665SOL     OW11892   4.228   3.774   1.740
 3665SOL    HW111893   4.186   3.717   1.670
 3665SOL    HW211894   4.162   3.843   1.772
 3666SOL     OW11895   4.297   4.594   1.029
 3666SOL    HW111896   4.341   4.683   1.020
 3666SOL    HW211897   4.234   4.594   1.106
 3667SOL     OW11898   5.084   4.586   1.045
 3667SOL    HW111899   5.009   4.586   0.979
 3667SOL    HW211900   5.121   4.494   1.054
 3668SOL     OW11901   4.933   4.249   0.275
 3668SOL    HW111902   4.946   4.165   0.329
 3668SOL    HW211903   4.904   4.323   0.335
 3669SOL     OW11904   4.031   3.937   1.231
 3669SOL    HW111905   4.008   3.974   1.321
 3669SOL    HW211906   4.001   3.842   1.225
 3670SOL     OW11907   4.456   4.358   1.064
 3670SOL    HW111908   4.515   4.332   0.988
 3670SOL    HW211909   4.428   4.454   1.053
 3671SOL     OW11910   4.031   3.787   0.618
 3671SOL    HW111911   4.020   3.881   0.651
 3671SOL    HW211912   4.026   3.724   0.695
 3672SOL     OW11913   5.346   4.091   0.374
 3672SOL    HW111914   5.348   4.015   0.438
 3672SOL    HW211915   5.298   4.168   0.414
 3673SOL     OW11916   4.747   4.490   0.966
 3673SOL    HW111917   4.762   4.511   1.062
 3673SOL    HW211918   4.717   4.395   0.957
 3674SOL     OW11919   4.074   4.622   1.804
 3674SOL    HW111920   4.150   4.666   1.852
 3674SOL    HW211921   4.109   4.575   1.722
 3675SOL     OW11922   5.027   4.562   0.042
 3675SOL    HW111923   5.061   4.469   0.057
 3675SOL    HW211924   5.045   4.589  -0.053
 3676SOL     OW11925   4.043   4.534   0.949
 3676SOL    HW111926   4.136   4.570   0.954
 3676SOL    HW211927   4.037   4.449   1.001
 3677SOL     OW11928   4.063   4.233   1.006
 3677SOL    HW111929   4.011   4.150   0.989
 3677SOL    HW211930   4.140   4.238   0.942
 3678SOL     OW11931   4.862   4.104   1.678
 3678SOL    HW111932   4.817   4.167   1.742
 3678SOL    HW211933   4.955   4.135   1.661
 3679SOL     OW11934   4.884   3.931   1.477
 3679SOL    HW111935   4.884   3.995   1.554
 3679SOL    HW211936   4.912   3.979   1.394
 3680SOL     OW11937   4.726   4.520   1.238
 3680SOL    HW111938   4.767   4.488   1.324
 3680SOL    HW211939   4.630   4.493   1.235
 3681SOL     OW11940   3.913   4.244   1.722
 3681SOL    HW111941   3.972   4.204   1.652
 3681SOL    HW211942   3.855   4.315   1.681
 3682SOL     OW11943   4.539   4.296   0.325
 3682SOL    HW111944   4.546   4.207   0.279
 3682SOL    HW211945   4.445   4.330   0.317
 3683SOL     OW11946   4.395   4.188   1.269
 3683SOL    HW111947   4.361   4.099   1.239
 3683SOL    HW211948   4.421   4.242   1.189
 3684SOL     OW11949   4.197   4.224   0.191
 3684SOL    HW111950   4.258   4.304   0.195
 3684SOL    HW211951   4.102   4.255   0.198
 3685SOL     OW11952   3.883   4.861   1.466
 3685SOL    HW111953   3.905   4.800   1.542
 3685SOL    HW211954   3.893   4.812   1.380
 3686SOL     OW11955   5.071   4.783   1.234
 3686SOL    HW111956   5.095   4.720   1.160
 3686SOL    HW211957   4.981   4.823   1.216
 3687SOL     OW11958   3.807   4.982   1.022
 3687SOL    HW111959   3.802   4.981   1.122
 3687SOL    HW211960   3.724   4.941   0.984
 3688SOL     OW11961   4.627   3.810   0.133
 3688SOL    HW111962   4.678   3.811   0.047
 3688SOL    HW211963   4.683   3.768   0.204
 3689SOL     OW11964   5.004   4.651   0.672
 3689SOL    HW111965   5.064   4.570   0.674
 3689SOL    HW211966   5.044   4.720   0.612
 3690SOL     OW11967   4.554   4.997   1.422
 3690SOL    HW111968   4.549   5.030   1.517
 3690SOL    HW211969   4.468   5.016   1.376
 3691SOL     OW11970   4.546   4.726   1.372
 3691SOL    HW111971   4.586   4.725   1.280
 3691SOL    HW211972   4.556   4.818   1.412
 3692SOL     OW11973   4.640   4.634   0.291
 3692SOL    HW111974   4.703   4.672   0.223
 3692SOL    HW211975   4.680   4.551   0.330
 3693SOL     OW11976   4.096   5.012   1.490
 3693SOL    HW111977   4.083   5.105   1.456
 3693SOL    HW211978   4.012   4.960   1.477
 3694SOL     OW11979   4.763   4.822   0.696
 3694SOL    HW111980   4.693   4.775   0.750
 3694SOL    HW211981   4.822   4.754   0.653
 3695SOL     OW11982   3.829   4.737   1.726
 3695SOL    HW111983   3.752   4.704   1.780
 3695SOL    HW211984   3.914   4.707   1.768
 3696SOL     OW11985   5.164   4.580   1.398
 3696SOL    HW111986   5.107   4.632   1.335
 3696SOL    HW211987   5.260   4.592   1.374
 3697SOL     OW11988   3.796   3.890   0.318
 3697SOL    HW111989   3.779   3.973   0.264
 3697SOL    HW211990   3.886   3.853   0.296
 3698SOL     OW11991   4.337   4.566   1.431
 3698SOL    HW111992   4.393   4.647   1.414
 3698SOL    HW211993   4.396   4.486   1.434
 3699SOL     OW11994   4.440   4.289   1.708
 3699SOL    HW111995   4.459   4.354   1.782
 3699SOL    HW211996   4.500   4.209   1.717
 3700SOL     OW11997   5.174   4.944   1.633
 3700SOL    HW111998   5.165   4.934   1.732
 3700SOL    HW211999   5.270   4.937   1.607
 3701SOL     OW12000   4.949   4.049   0.449
 3701SOL    HW112001   5.014   3.975   0.438
 3701SOL    HW212002   4.969   4.099   0.533
 3702SOL     OW12003   4.318   4.469   0.652
 3702SOL    HW112004   4.368   4.554   0.633
 3702SOL    HW212005   4.230   4.471   0.604
 3703SOL     OW12006   4.583   4.680   0.861
 3703SOL    HW112007   4.637   4.611   0.909
 3703SOL    HW212008   4.551   4.749   0.927
 3704SOL     OW12009   4.807   4.708   0.087
 3704SOL    HW112010   4.784   4.761   0.005
 3704SOL    HW212011   4.888   4.652   0.068
 3705SOL     OW12012   3.803   4.964   0.653
 3705SOL    HW112013   3.802   4.917   0.741
 3705SOL    HW212014   3.885   4.936   0.602
 3706SOL     OW12015   4.152   4.148   0.520
 3706SOL    HW112016   4.182   4.076   0.458
 3706SOL    HW212017   4.113   4.108   0.603
 3707SOL     OW12018   4.041   4.271   1.280
 3707SOL    HW112019   4.079   4.212   1.352
 3707SOL    HW212020   4.081   4.245   1.192
 3708SOL     OW12021   4.494   5.054   0.301
 3708SOL    HW112022   4.448   4.967   0.318
 3708SOL    HW212023   4.585   5.051   0.342
 3709SOL     OW12024   3.763   4.801   0.300
 3709SOL    HW112025   3.862   4.790   0.291
 3709SOL    HW212026   3.723   4.715   0.332
 3710SOL     OW12027   3.954   4.352   1.975
 3710SOL    HW112028   3.861   4.350   2.012
 3710SOL    HW212029   3.955   4.313   1.883
 3711SOL     OW12030   3.949   3.999   2.858
 3711SOL    HW112031   3.984   3.982   2.950
 3711SOL    HW212032   3.861   3.954   2.846
 3712SOL     OW12033   3.743   4.092   2.509
 3712SOL    HW112034   3.661   4.135   2.548
 3712SOL    HW212035   3.715   4.019   2.446
 3713SOL     OW12036   4.293   4.999   3.027
 3713SOL    HW112037   4.200   4.992   2.990
 3713SOL    HW212038   4.304   5.088   3.071
 3714SOL     OW12039   4.492   4.868   2.885
 3714SOL    HW112040   4.414   4.885   2.945
 3714SOL    HW212041   4.526   4.955   2.849
 3715SOL     OW12042   4.574   4.522   3.685
 3715SOL    HW112043   4.570   4.598   3.750
 3715SOL    HW212044   4.596   4.558   3.594
 3716SOL     OW12045   4.410   4.885   3.665
 3716SOL    HW112046   4.470   4.964   3.679
 3716SOL    HW212047   4.324   4.916   3.624
 3717SOL     OW12048   4.059   5.159   2.923
 3717SOL    HW112049   3.981   5.128   2.870
 3717SOL    HW212050   4.117   5.217   2.866
 3718SOL     OW12051   4.162   4.116   3.361
 3718SOL    HW112052   4.244   4.060   3.370
 3718SOL    HW212053   4.081   4.058   3.365
 3719SOL     OW12054   3.964   4.815   2.748
 3719SOL    HW112055   3.978   4.731   2.800
 3719SOL    HW212056   3.909   4.879   2.803
 3720SOL     OW12057   4.330   4.688   1.985
 3720SOL    HW112058   4.337   4.772   1.931
 3720SOL    HW212059   4.376   4.701   2.073
 3721SOL     OW12060   3.846   4.367   2.425
 3721SOL    HW112061   3.801   4.279   2.442
 3721SOL    HW212062   3.845   4.421   2.509
 3722SOL     OW12063   3.837   4.461   3.459
 3722SOL    HW112064   3.925   4.448   3.504
 3722SOL    HW212065   3.824   4.558   3.437
 3723SOL     OW12066   4.533   3.728   2.364
 3723SOL    HW112067   4.573   3.819   2.355
 3723SOL    HW212068   4.433   3.736   2.370
 3724SOL     OW12069   3.921   4.700   3.126
 3724SOL    HW112070   4.010   4.655   3.112
 3724SOL    HW212071   3.848   4.635   3.107
 3725SOL     OW12072   4.041   3.975   3.663
 3725SOL    HW112073   4.112   4.046   3.669
 3725SOL    HW212074   3.953   4.014   3.691
 3726SOL     OW12075   4.322   4.453   2.132
 3726SOL    HW112076   4.346   4.522   2.064
 3726SOL    HW212077   4.244   4.486   2.186
 3727SOL     OW12078   5.005   4.069   2.806
 3727SOL    HW112079   4.919   4.019   2.793
 3727SOL    HW212080   5.067   4.015   2.862
 3728SOL     OW12081   4.531   4.329   3.327
 3728SOL    HW112082   4.484   4.326   3.416
 3728SOL    HW212083   4.480   4.274   3.261
 3729SOL     OW12084   4.697   4.614   3.434
 3729SOL    HW112085   4.743   4.530   3.405
 3729SOL    HW212086   4.641   4.648   3.359
 3730SOL     OW12087   3.800   4.535   2.651
 3730SOL    HW112088   3.899   4.523   2.660
 3730SOL    HW212089   3.776   4.630   2.672
 3731SOL     OW12090   4.589   4.072   2.057
 3731SOL    HW112091   4.648   4.135   2.008
 3731SOL    HW212092   4.608   3.978   2.028
 3732SOL     OW12093   4.274   3.920   2.747
 3732SOL    HW112094   4.269   3.915   2.847
 3732SOL    HW212095   4.276   4.016   2.718
 3733SOL     OW12096   4.045   4.667   2.104
 3733SOL    HW112097   4.127   4.706   2.062
 3733SOL    HW212098   4.018   4.585   2.055
 3734SOL     OW12099   3.926   4.009   3.360
 3734SOL    HW112100   3.846   4.069   3.347
 3734SOL    HW212101   3.916   3.960   3.446
 3735SOL     OW12102   4.106   4.424   2.342
 3735SOL    HW112103   4.151   4.334   2.339
 3735SOL    HW212104   4.012   4.413   2.375
 3736SOL     OW12105   4.338   3.846   1.979
 3736SOL    HW112106   4.436   3.824   1.986
 3736SOL    HW212107   4.307   3.829   1.886
 3737SOL     OW12108   4.505   3.988   3.611
 3737SOL    HW112109   4.572   3.927   3.654
 3737SOL    HW212110   4.432   4.007   3.676
 3738SOL     OW12111   4.527   5.126   2.786
 3738SOL    HW112112   4.617   5.140   2.744
 3738SOL    HW212113   4.456   5.128   2.715
 3739SOL     OW12114   4.263   3.788   2.374
 3739SOL    HW112115   4.182   3.789   2.432
 3739SOL    HW212116   4.266   3.871   2.319
 3740SOL     OW12117   5.158   4.912   1.903
 3740SOL    HW112118   5.190   4.836   1.960
 3740SOL    HW212119   5.066   4.939   1.933
 3741SOL     OW12120   4.021   3.759   2.033
 3741SOL    HW112121   4.070   3.843   2.012
 3741SOL    HW212122   4.083   3.694   2.078
 3742SOL     OW12123   4.659   3.960   2.342
 3742SOL    HW112124   4.611   4.001   2.264
 3742SOL    HW212125   4.758   3.958   2.323
 3743SOL     OW12126   4.800   4.407   3.326
 3743SOL    HW112127   4.720   4.346   3.329
 3743SOL    HW212128   4.881   4.354   3.302
 3744SOL     OW12129   4.756   4.273   1.878
 3744SOL    HW112130   4.715   4.355   1.839
 3744SOL    HW212131   4.820   4.299   1.951
 3745SOL     OW12132   3.802   4.280   3.248
 3745SOL    HW112133   3.894   4.279   3.207
 3745SOL    HW212134   3.796   4.354   3.315
 3746SOL     OW12135   4.285   3.946   3.009
 3746SOL    HW112136   4.323   3.862   3.046
 3746SOL    HW212137   4.197   3.965   3.053
 3747SOL     OW12138   4.590   4.178   2.504
 3747SOL    HW112139   4.558   4.250   2.442
 3747SOL    HW212140   4.614   4.097   2.451
 3748SOL     OW12141   4.741   3.763   2.615
 3748SOL    HW112142   4.669   3.768   2.546
 3748SOL    HW212143   4.717   3.694   2.684
 3749SOL     OW12144   4.251   3.980   2.190
 3749SOL    HW112145   4.278   3.921   2.115
 3749SOL    HW212146   4.251   4.075   2.159
 3750SOL     OW12147   4.639   3.813   3.264
 3750SOL    HW112148   4.664   3.793   3.169
 3750SOL    HW212149   4.711   3.869   3.306
 3751SOL     OW12150   4.704   4.840   3.581
 3751SOL    HW112151   4.605   4.846   3.591
 3751SOL    HW212152   4.727   4.760   3.525
 3752SOL     OW12153   4.429   4.774   2.230
 3752SOL    HW112154   4.415   4.781   2.329
 3752SOL    HW212155   4.513   4.723   2.212
 3753SOL     OW12156   4.134   4.537   3.113
 3753SOL    HW112157   4.220   4.549   3.163
 3753SOL    HW212158   4.092   4.450   3.140
 3754SOL     OW12159   4.998   4.110   3.124
 3754SOL    HW112160   5.019   4.184   3.188
 3754SOL    HW212161   4.909   4.127   3.081
 3755SOL     OW12162   4.091   4.824   2.363
 3755SOL    HW112163   4.084   4.907   2.307
 3755SOL    HW212164   4.095   4.744   2.303
 3756SOL     OW12165   4.976   5.072   2.250
 3756SOL    HW112166   5.026   5.149   2.290
 3756SOL    HW212167   4.881   5.074   2.282
 3757SOL     OW12168   4.126   4.475   3.460
 3757SOL    HW112169   4.194   4.530   3.413
 3757SOL    HW212170   4.166   4.387   3.487
 3758SOL     OW12171   4.737   3.829   3.632
 3758SOL    HW112172   4.743   3.914   3.580
 3758SOL    HW212173   4.769   3.753   3.575
 3759SOL     OW12174   4.228   3.774   3.602
 3759SOL    HW112175   4.186   3.717   3.532
 3759SOL    HW212176   4.162   3.843   3.634
 3760SOL     OW12177   5.084   4.586   2.907
 3760SOL    HW112178   5.009   4.586   2.841
 3760SOL    HW212179   5.121   4.494   2.916
 3761SOL     OW12180   4.031   3.937   3.093
 3761SOL    HW112181   4.008   3.974   3.183
 3761SOL    HW212182   4.001   3.842   3.087
 3762SOL     OW12183   4.031   3.787   2.480
 3762SOL    HW112184   4.020   3.881   2.513
 3762SOL    HW212185   4.026   3.724   2.557
 3763SOL     OW12186   5.346   4.091   2.236
 3763SOL    HW112187   5.348   4.015   2.300
 3763SOL    HW212188   5.298   4.168   2.276
 3764SOL     OW12189   4.074   4.622   3.666
 3764SOL    HW112190   4.150   4.666   3.714
 3764SOL    HW212191   4.109   4.575   3.584
 3765SOL     OW12192   4.862   4.104   3.540
 3765SOL    HW112193   4.817   4.167   3.604
 3765SOL    HW212194   4.955   4.135   3.523
 3766SOL     OW12195   4.884   3.931   3.339
 3766SOL    HW112196   4.884   3.995   3.416
 3766SOL    HW212197   4.912   3.979   3.256
 3767SOL     OW12198   3.732   5.050   2.062
 3767SOL    HW112199   3.639   5.071   2.031
 3767SOL    HW212200   3.742   4.951   2.075
 3768SOL     OW12201   3.764   4.268   2.976
 3768SOL    HW112202   3.849   4.235   2.935
 3768SOL    HW212203   3.777   4.283   3.074
 3769SOL     OW12204   3.913   4.244   3.584
 3769SOL    HW112205   3.972   4.204   3.514
 3769SOL    HW212206   3.855   4.315   3.543
 3770SOL     OW12207   4.539   4.296   2.187
 3770SOL    HW112208   4.546   4.207   2.141
 3770SOL    HW212209   4.445   4.330   2.179
 3771SOL     OW12210   4.197   4.224   2.053
 3771SOL    HW112211   4.258   4.304   2.057
 3771SOL    HW212212   4.102   4.255   2.060
 3772SOL     OW12213   3.883   4.861   3.328
 3772SOL    HW112214   3.905   4.800   3.404
 3772SOL    HW212215   3.893   4.812   3.242
 3773SOL     OW12216   3.807   4.982   2.884
 3773SOL    HW112217   3.802   4.981   2.984
 3773SOL    HW212218   3.724   4.941   2.846
 3774SOL     OW12219   4.554   4.997   3.284
 3774SOL    HW112220   4.549   5.030   3.379
 3774SOL    HW212221   4.468   5.016   3.238
 3775SOL     OW12222   3.987   4.050   2.582
 3775SOL    HW112223   3.908   4.101   2.548
 3775SOL    HW212224   3.978   4.035   2.680
 3776SOL     OW12225   4.918   5.336   1.893
 3776SOL    HW112226   4.924   5.243   1.930
 3776SOL    HW212227   4.859   5.336   1.813
 3777SOL     OW12228   4.546   4.726   3.234
 3777SOL    HW112229   4.586   4.725   3.142
 3777SOL    HW212230   4.556   4.818   3.274
 3778SOL     OW12231   4.640   4.634   2.153
 3778SOL    HW112232   4.703   4.672   2.085
 3778SOL    HW212233   4.680   4.551   2.192
 3779SOL     OW12234   4.096   5.012   3.352
 3779SOL    HW112235   4.083   5.105   3.318
 3779SOL    HW212236   4.012   4.960   3.339
 3780SOL     OW12237   4.738   3.960   2.833
 3780SOL    HW112238   4.730   3.924   2.740
 3780SOL    HW212239   4.736   3.884   2.898
 3781SOL     OW12240   3.829   4.737   3.588
 3781SOL    HW112241   3.752   4.704   3.642
 3781SOL    HW212242   3.914   4.707   3.630
 3782SOL     OW12243   4.396   3.927   3.351
 3782SOL    HW112244   4.486   3.911   3.311
 3782SOL    HW212245   4.404   3.932   3.450
 3783SOL     OW12246   3.799   4.069   1.895
 3783SOL    HW112247   3.707   4.041   1.866
 3783SOL    HW212248   3.830   4.146   1.839
 3784SOL     OW12249   5.164   4.580   3.260
 3784SOL    HW112250   5.107   4.632   3.197
 3784SOL    HW212251   5.260   4.592   3.236
 3785SOL     OW12252   3.796   3.890   2.180
 3785SOL    HW112253   3.779   3.973   2.126
 3785SOL    HW212254   3.886   3.853   2.158
 3786SOL     OW12255   4.440   4.289   3.570
 3786SOL    HW112256   4.459   4.354   3.644
 3786SOL    HW212257   4.500   4.209   3.579
 3787SOL     OW12258   4.949   4.049   2.311
 3787SOL    HW112259   5.014   3.975   2.300
 3787SOL    HW212260   4.969   4.099   2.395
 3788SOL     OW12261   4.318   4.469   2.514
 3788SOL    HW112262   4.368   4.554   2.495
 3788SOL    HW212263   4.230   4.471   2.466
 3789SOL     OW12264   4.807   4.708   1.949
 3789SOL    HW112265   4.784   4.761   1.867
 3789SOL    HW212266   4.888   4.652   1.930
 3790SOL     OW12267   3.803   4.964   2.515
 3790SOL    HW112268   3.802   4.917   2.603
 3790SOL    HW212269   3.885   4.936   2.464
 3791SOL     OW12270   4.152   4.148   2.382
 3791SOL    HW112271   4.182   4.076   2.320
 3791SOL    HW212272   4.113   4.108   2.465
 3792SOL     OW12273   4.725   3.758   3.016
 3792SOL    HW112274   4.662   3.686   2.985
 3792SOL    HW212275   4.818   3.722   3.016
 3793SOL     OW12276   4.494   5.054   2.163
 3793SOL    HW112277   4.448   4.967   2.180
 3793SOL    HW212278   4.585   5.051   2.204
 3794SOL     OW12279   5.076   3.776   2.030
 3794SOL    HW112280   5.111   3.735   1.946
 3794SOL    HW212281   4.986   3.738   2.050
 3795SOL     OW12282   3.763   4.801   2.162
 3795SOL    HW112283   3.862   4.790   2.153
 3795SOL    HW212284   3.723   4.715   2.194
 3796SOL     OW12285   3.949   3.999   4.720
 3796SOL    HW112286   3.984   3.982   4.812
 3796SOL    HW212287   3.861   3.954   4.708
 3797SOL     OW12288   3.743   4.092   4.371
 3797SOL    HW112289   3.661   4.135   4.410
 3797SOL    HW212290   3.715   4.019   4.308
 3798SOL     OW12291   4.293   4.999   4.889
 3798SOL    HW112292   4.200   4.992   4.852
 3798SOL    HW212293   4.304   5.088   4.933
 3799SOL     OW12294   4.859   4.427   4.441
 3799SOL    HW112295   4.916   4.505   4.416
 3799SOL    HW212296   4.799   4.453   4.517
 3800SOL     OW12297   4.492   4.868   4.747
 3800SOL    HW112298   4.414   4.885   4.807
 3800SOL    HW212299   4.526   4.955   4.711
 3801SOL     OW12300   4.409   4.736   4.389
 3801SOL    HW112301   4.478   4.720   4.459
 3801SOL    HW212302   4.336   4.793   4.427
 3802SOL     OW12303   4.059   5.159   4.785
 3802SOL    HW112304   3.981   5.128   4.732
 3802SOL    HW212305   4.117   5.217   4.728
 3803SOL     OW12306   3.964   4.815   4.610
 3803SOL    HW112307   3.978   4.731   4.662
 3803SOL    HW212308   3.909   4.879   4.665
 3804SOL     OW12309   4.330   4.688   3.847
 3804SOL    HW112310   4.337   4.772   3.793
 3804SOL    HW212311   4.376   4.701   3.935
 3805SOL     OW12312   4.533   3.728   4.226
 3805SOL    HW112313   4.573   3.819   4.217
 3805SOL    HW212314   4.433   3.736   4.232
 3806SOL     OW12315   3.921   4.700   4.988
 3806SOL    HW112316   4.010   4.655   4.974
 3806SOL    HW212317   3.848   4.635   4.969
 3807SOL     OW12318   4.322   4.453   3.994
 3807SOL    HW112319   4.346   4.522   3.926
 3807SOL    HW212320   4.244   4.486   4.048
 3808SOL     OW12321   5.005   4.069   4.668
 3808SOL    HW112322   4.919   4.019   4.655
 3808SOL    HW212323   5.067   4.015   4.724
 3809SOL     OW12324   4.715   4.134   4.966
 3809SOL    HW112325   4.638   4.168   5.020
 3809SOL    HW212326   4.681   4.083   4.887
 3810SOL     OW12327   4.765   4.425   4.153
 3810SOL    HW112328   4.791   4.421   4.249
 3810SOL    HW212329   4.680   4.374   4.139
 3811SOL     OW12330   3.800   4.535   4.513
 3811SOL    HW112331   3.899   4.523   4.522
 3811SOL    HW212332   3.776   4.630   4.534
 3812SOL     OW12333   4.589   4.072   3.919
 3812SOL    HW112334   4.648   4.135   3.870
 3812SOL    HW212335   4.608   3.978   3.890
 3813SOL     OW12336   4.274   3.920   4.609
 3813SOL    HW112337   4.269   3.915   4.709
 3813SOL    HW212338   4.276   4.016   4.580
 3814SOL     OW12339   4.338   3.846   3.841
 3814SOL    HW112340   4.436   3.824   3.848
 3814SOL    HW212341   4.307   3.829   3.748
 3815SOL     OW12342   4.527   5.126   4.648
 3815SOL    HW112343   4.617   5.140   4.606
 3815SOL    HW212344   4.456   5.128   4.577
 3816SOL     OW12345   4.646   4.227   4.623
 3816SOL    HW112346   4.621   4.218   4.527
 3816SOL    HW212347   4.694   4.145   4.654
 3817SOL     OW12348   4.263   3.788   4.236
 3817SOL    HW112349   4.182   3.789   4.294
 3817SOL    HW212350   4.266   3.871   4.181
 3818SOL     OW12351   5.158   4.912   3.765
 3818SOL    HW112352   5.190   4.836   3.822
 3818SOL    HW212353   5.066   4.939   3.795
 3819SOL     OW12354   4.021   3.759   3.895
 3819SOL    HW112355   4.070   3.843   3.874
 3819SOL    HW212356   4.083   3.694   3.940
 3820SOL     OW12357   4.659   3.960   4.204
 3820SOL    HW112358   4.611   4.001   4.126
 3820SOL    HW212359   4.758   3.958   4.185
 3821SOL     OW12360   4.951   5.294   4.517
 3821SOL    HW112361   4.972   5.368   4.452
 3821SOL    HW212362   5.019   5.294   4.590
 3822SOL     OW12363   4.183   4.876   4.465
 3822SOL    HW112364   4.112   4.849   4.530
 3822SOL    HW212365   4.157   4.848   4.372
 3823SOL     OW12366   4.756   4.273   3.740
 3823SOL    HW112367   4.715   4.355   3.701
 3823SOL    HW212368   4.820   4.299   3.813
 3824SOL     OW12369   4.285   3.946   4.871
 3824SOL    HW112370   4.323   3.862   4.908
 3824SOL    HW212371   4.197   3.965   4.915
 3825SOL     OW12372   4.590   4.178   4.366
 3825SOL    HW112373   4.558   4.250   4.304
 3825SOL    HW212374   4.614   4.097   4.313
 3826SOL     OW12375   4.741   3.763   4.477
 3826SOL    HW112376   4.669   3.768   4.408
 3826SOL    HW212377   4.717   3.694   4.546
 3827SOL     OW12378   4.251   3.980   4.052
 3827SOL    HW112379   4.278   3.921   3.977
 3827SOL    HW212380   4.251   4.075   4.021
 3828SOL     OW12381   4.429   4.774   4.092
 3828SOL    HW112382   4.415   4.781   4.191
 3828SOL    HW212383   4.513   4.723   4.074
 3829SOL     OW12384   4.134   4.537   4.975
 3829SOL    HW112385   4.220   4.549   5.025
 3829SOL    HW212386   4.092   4.450   5.002
 3830SOL     OW12387   4.091   4.824   4.225
 3830SOL    HW112388   4.084   4.907   4.169
 3830SOL    HW212389   4.095   4.744   4.165
 3831SOL     OW12390   4.290   4.261   4.589
 3831SOL    HW112391   4.302   4.327   4.515
 3831SOL    HW212392   4.336   4.295   4.672
 3832SOL     OW12393   4.976   5.072   4.112
 3832SOL    HW112394   5.026   5.149   4.152
 3832SOL    HW212395   4.881   5.074   4.144
 3833SOL     OW12396   4.297   4.594   4.753
 3833SOL    HW112397   4.341   4.683   4.744
 3833SOL    HW212398   4.234   4.594   4.830
 3834SOL     OW12399   5.084   4.586   4.769
 3834SOL    HW112400   5.009   4.586   4.703
 3834SOL    HW212401   5.121   4.494   4.778
 3835SOL     OW12402   4.933   4.249   3.999
 3835SOL    HW112403   4.946   4.165   4.053
 3835SOL    HW212404   4.904   4.323   4.059
 3836SOL     OW12405   4.031   3.937   4.955
 3836SOL    HW112406   4.008   3.974   5.045
 3836SOL    HW212407   4.001   3.842   4.949
 3837SOL     OW12408   4.456   4.358   4.788
 3837SOL    HW112409   4.515   4.332   4.712
 3837SOL    HW212410   4.428   4.454   4.777
 3838SOL     OW12411   5.346   4.091   4.098
 3838SOL    HW112412   5.348   4.015   4.162
 3838SOL    HW212413   5.298   4.168   4.138
 3839SOL     OW12414   4.747   4.490   4.690
 3839SOL    HW112415   4.762   4.511   4.786
 3839SOL    HW212416   4.717   4.395   4.681
 3840SOL     OW12417   5.027   4.562   3.766
 3840SOL    HW112418   5.061   4.469   3.781
 3840SOL    HW212419   5.045   4.589   3.671
 3841SOL     OW12420   4.043   4.534   4.673
 3841SOL    HW112421   4.136   4.570   4.678
 3841SOL    HW212422   4.037   4.449   4.725
 3842SOL     OW12423   4.063   4.233   4.730
 3842SOL    HW112424   4.011   4.150   4.713
 3842SOL    HW212425   4.140   4.238   4.666
 3843SOL     OW12426   4.884   3.931   5.201
 3843SOL    HW112427   4.884   3.995   5.278
 3843SOL    HW212428   4.912   3.979   5.118
 3844SOL     OW12429   3.732   5.050   3.924
 3844SOL    HW112430   3.639   5.071   3.893
 3844SOL    HW212431   3.742   4.951   3.937
 3845SOL     OW12432   4.726   4.520   4.962
 3845SOL    HW112433   4.767   4.488   5.048
 3845SOL    HW212434   4.630   4.493   4.959
 3846SOL     OW12435   3.764   4.268   4.838
 3846SOL    HW112436   3.849   4.235   4.797
 3846SOL    HW212437   3.777   4.283   4.936
 3847SOL     OW12438   4.539   4.296   4.049
 3847SOL    HW112439   4.546   4.207   4.003
 3847SOL    HW212440   4.445   4.330   4.041
 3848SOL     OW12441   4.395   4.188   4.993
 3848SOL    HW112442   4.361   4.099   4.963
 3848SOL    HW212443   4.421   4.242   4.913
 3849SOL     OW12444   4.197   4.224   3.915
 3849SOL    HW112445   4.258   4.304   3.919
 3849SOL    HW212446   4.102   4.255   3.922
 3850SOL     OW12447   5.071   4.783   4.958
 3850SOL    HW112448   5.095   4.720   4.884
 3850SOL    HW212449   4.981   4.823   4.940
 3851SOL     OW12450   3.807   4.982   4.746
 3851SOL    HW112451   3.802   4.981   4.846
 3851SOL    HW212452   3.724   4.941   4.708
 3852SOL     OW12453   5.004   4.651   4.396
 3852SOL    HW112454   5.064   4.570   4.398
 3852SOL    HW212455   5.044   4.720   4.336
 3853SOL     OW12456   4.554   4.997   5.146
 3853SOL    HW112457   4.549   5.030   5.241
 3853SOL    HW212458   4.468   5.016   5.100
 3854SOL     OW12459   4.918   5.336   3.755
 3854SOL    HW112460   4.924   5.243   3.792
 3854SOL    HW212461   4.859   5.336   3.675
 3855SOL     OW12462   4.546   4.726   5.096
 3855SOL    HW112463   4.586   4.725   5.004
 3855SOL    HW212464   4.556   4.818   5.136
 3856SOL     OW12465   4.640   4.634   4.015
 3856SOL    HW112466   4.703   4.672   3.947
 3856SOL    HW212467   4.680   4.551   4.054
 3857SOL     OW12468   4.763   4.822   4.420
 3857SOL    HW112469   4.693   4.775   4.474
 3857SOL    HW212470   4.822   4.754   4.377
 3858SOL     OW12471   4.738   3.960   4.695
 3858SOL    HW112472   4.730   3.924   4.602
 3858SOL    HW212473   4.736   3.884   4.760
 3859SOL     OW12474   3.799   4.069   3.757
 3859SOL    HW112475   3.707   4.041   3.728
 3859SOL    HW212476   3.830   4.146   3.701
 3860SOL     OW12477   3.796   3.890   4.042
 3860SOL    HW112478   3.779   3.973   3.988
 3860SOL    HW212479   3.886   3.853   4.020
 3861SOL     OW12480   4.949   4.049   4.173
 3861SOL    HW112481   5.014   3.975   4.162
 3861SOL    HW212482   4.969   4.099   4.257
 3862SOL     OW12483   4.318   4.469   4.376
 3862SOL    HW112484   4.368   4.554   4.357
 3862SOL    HW212485   4.230   4.471   4.328
 3863SOL     OW12486   4.583   4.680   4.585
 3863SOL    HW112487   4.637   4.611   4.633
 3863SOL    HW212488   4.551   4.749   4.651
 3864SOL     OW12489   4.807   4.708   3.811
 3864SOL    HW112490   4.784   4.761   3.729
 3864SOL    HW212491   4.888   4.652   3.792
 3865SOL     OW12492   3.803   4.964   4.377
 3865SOL    HW112493   3.802   4.917   4.465
 3865SOL    HW212494   3.885   4.936   4.326
 3866SOL     OW12495   4.725   3.758   4.878
 3866SOL    HW112496   4.662   3.686   4.847
 3866SOL    HW212497   4.818   3.722   4.878
 3867SOL     OW12498   4.494   5.054   4.025
 3867SOL    HW112499   4.448   4.967   4.042
 3867SOL    HW212500   4.585   5.051   4.066
 3868SOL     OW12501   5.076   3.776   3.892
 3868SOL    HW112502   5.111   3.735   3.808
 3868SOL    HW212503   4.986   3.738   3.912
   5.08970   5.08970   5.08970
