UNITED ATOM STRUCTURE FOR MOLECULE UNK
12699
    0X2IT   H18    1   3.092   2.352   2.583
    0X2IT    N4    2   3.026   2.419   2.548
    0X2IT   H17    3   3.059   2.484   2.478
    0X2IT   C14    4   2.895   2.380   2.546
    0X2IT    O5    5   2.849   2.285   2.607
    0X2IT    O4    6   2.822   2.466   2.469
    0X2IT   C13    7   2.680   2.441   2.463
    0X2IT   C10    8   2.607   2.502   2.584
    0X2IT    C9    9   2.457   2.484   2.578
    0X2IT    C4   10   2.394   2.607   2.582
    0X2IT    C5   11   2.245   2.625   2.577
    0X2IT    O1   12   2.197   2.739   2.585
    0X2IT    C6   13   2.166   2.505   2.564
    0X2IT   C12   14   2.015   2.516   2.558
    0X2IT    C7   15   2.229   2.382   2.561
    0X2IT    C8   16   2.381   2.365   2.567
    0X2IT    O2   17   2.427   2.250   2.559
    0X2IT    N3   18   2.164   2.265   2.551
    0X2IT   H15   19   2.064   2.258   2.544
    0X2IT   H16   20   2.221   2.180   2.548
    0X2IT    N2   21   2.482   2.709   2.599
    0X2IT    C3   22   2.473   2.846   2.546
    0X2IT    C2   23   2.599   2.856   2.461
    0X2IT    H2   24   2.639   2.954   2.435
    0X2IT    N1   25   2.611   2.744   2.365
    0X2IT   H14   26   2.674   2.771   2.289
    0X2IT    C1   27   2.688   2.741   2.491
    0X2IT    H1   28   2.796   2.748   2.490
    0X2IT   C11   29   2.622   2.658   2.600
    0X2IT    O3   30   2.691   2.695   2.718
    0X2IT   C15   31   2.628   2.664   2.843
    1X2IT   H18   32   4.427   0.821   0.441
    1X2IT    N4   33   4.452   0.724   0.436
    1X2IT   H17   34   4.529   0.693   0.495
    1X2IT   C14   35   4.352   0.636   0.406
    1X2IT    O5   36   4.244   0.667   0.359
    1X2IT    O4   37   4.392   0.508   0.433
    1X2IT   C13   38   4.299   0.404   0.399
    1X2IT   C10   39   4.307   0.366   0.251
    1X2IT    C9   40   4.215   0.252   0.213
    1X2IT    C4   41   4.288   0.147   0.160
    1X2IT    C5   42   4.228   0.018   0.113
    1X2IT    O1   43   4.301  -0.069   0.062
    1X2IT    C6   44   4.085   0.004   0.129
    1X2IT   C12   45   4.018  -0.124   0.084
    1X2IT    C7   46   4.012   0.109   0.181
    1X2IT    C8   47   4.075   0.241   0.228
    1X2IT    O2   48   4.000   0.326   0.278
    1X2IT    N3   49   3.879   0.106   0.199
    1X2IT   H15   50   3.822   0.027   0.175
    1X2IT   H16   51   3.835   0.189   0.240
    1X2IT    N2   52   4.420   0.178   0.147
    1X2IT    C3   53   4.536   0.088   0.159
    1X2IT    C2   54   4.613   0.150   0.275
    1X2IT    H2   55   4.719   0.128   0.287
    1X2IT    N1   56   4.528   0.173   0.394
    1X2IT   H14   57   4.587   0.181   0.477
    1X2IT    C1   58   4.558   0.286   0.303
    1X2IT    H1   59   4.620   0.368   0.337
    1X2IT   C11   60   4.448   0.314   0.203
    1X2IT    O3   61   4.509   0.399   0.107
    1X2IT   C15   62   4.444   0.412  -0.020
    2X2IT   H18   63   2.743   2.215   5.597
    2X2IT    N4   64   2.810   2.175   5.534
    2X2IT   H17   65   2.874   2.106   5.571
    2X2IT   C14   66   2.773   2.166   5.402
    2X2IT    O5   67   2.679   2.226   5.352
    2X2IT    O4   68   2.858   2.084   5.335
    2X2IT   C13   69   2.835   2.070   5.193
    2X2IT   C10   70   2.899   2.186   5.114
    2X2IT    C9   71   2.882   2.172   4.965
    2X2IT    C4   72   3.006   2.171   4.903
    2X2IT    C5   73   3.026   2.157   4.755
    2X2IT    O1   74   3.141   2.160   4.708
    2X2IT    C6   75   2.907   2.141   4.675
    2X2IT   C12   76   2.919   2.127   4.525
    2X2IT    C7   77   2.783   2.144   4.737
    2X2IT    C8   78   2.764   2.159   4.888
    2X2IT    O2   79   2.649   2.155   4.933
    2X2IT    N3   80   2.667   2.132   4.671
    2X2IT   H15   81   2.661   2.119   4.571
    2X2IT   H16   82   2.581   2.133   4.727
    2X2IT    N2   83   3.107   2.191   4.991
    2X2IT    C3   84   3.244   2.135   4.987
    2X2IT    C2   85   3.251   2.057   5.118
    2X2IT    H2   86   3.348   2.032   5.160
    2X2IT    N1   87   3.137   1.964   5.134
    2X2IT   H14   88   3.162   1.891   5.201
    2X2IT    C1   89   3.135   2.094   5.203
    2X2IT    H1   90   3.141   2.099   5.311
    2X2IT   C11   91   3.055   2.201   5.130
    2X2IT    O3   92   3.093   2.322   5.193
    2X2IT   C15   93   3.065   2.443   5.123
    3X2IT   H18   94   3.811   0.340   4.125
    3X2IT    N4   95   3.831   0.276   4.200
    3X2IT   H17   96   3.758   0.210   4.224
    3X2IT   C14   97   3.962   0.242   4.218
    3X2IT    O5   98   4.057   0.301   4.170
    3X2IT    O4   99   3.970   0.133   4.300
    3X2IT   C13  100   4.104   0.089   4.333
    3X2IT   C10  101   4.163   0.170   4.449
    3X2IT    C9  102   4.300   0.123   4.491
    3X2IT    C4  103   4.299   0.087   4.625
    3X2IT    C5  104   4.419   0.034   4.698
    3X2IT    O1  105   4.410   0.008   4.819
    3X2IT    C6  106   4.540   0.018   4.621
    3X2IT   C12  107   4.665  -0.035   4.689
    3X2IT    C7  108   4.541   0.055   4.488
    3X2IT    C8  109   4.418   0.109   4.415
    3X2IT    O2  110   4.429   0.135   4.294
    3X2IT    N3  111   4.649   0.046   4.409
    3X2IT   H15  112   4.738   0.011   4.441
    3X2IT   H16  113   4.638   0.075   4.311
    3X2IT    N2  114   4.179   0.112   4.684
    3X2IT    C3  115   4.114   0.036   4.792
    3X2IT    C2  116   3.983  -0.007   4.726
    3X2IT    H2  117   3.899  -0.036   4.789
    3X2IT    N1  118   4.006  -0.075   4.597
    3X2IT   H14  119   3.924  -0.132   4.574
    3X2IT    C1  120   3.965   0.067   4.599
    3X2IT    H1  121   3.868   0.097   4.562
    3X2IT   C11  122   4.081   0.163   4.584
    3X2IT    O3  123   4.028   0.289   4.622
    3X2IT   C15  124   4.121   0.392   4.656
    4X2IT   H18  125   4.496   4.616   2.807
    4X2IT    N4  126   4.425   4.580   2.868
    4X2IT   H17  127   4.353   4.522   2.826
    4X2IT   C14  128   4.462   4.557   2.997
    4X2IT    O5  129   4.562   4.601   3.051
    4X2IT    O4  130   4.367   4.480   3.060
    4X2IT   C13  131   4.390   4.453   3.199
    4X2IT   C10  132   4.340   4.569   3.288
    4X2IT    C9  133   4.355   4.542   3.436
    4X2IT    C4  134   4.233   4.550   3.499
    4X2IT    C5  135   4.212   4.527   3.646
    4X2IT    O1  136   4.099   4.541   3.694
    4X2IT    C6  137   4.329   4.492   3.722
    4X2IT   C12  138   4.316   4.467   3.871
    4X2IT    C7  139   4.452   4.484   3.659
    4X2IT    C8  140   4.472   4.509   3.510
    4X2IT    O2  141   4.586   4.495   3.463
    4X2IT    N3  142   4.567   4.454   3.723
    4X2IT   H15  143   4.572   4.433   3.821
    4X2IT   H16  144   4.652   4.450   3.666
    4X2IT    N2  145   4.134   4.589   3.414
    4X2IT    C3  146   3.992   4.549   3.416
    4X2IT    C2  147   3.975   4.483   3.280
    4X2IT    H2  148   3.876   4.473   3.237
    4X2IT    N1  149   4.077   4.378   3.255
    4X2IT   H14  150   4.043   4.314   3.183
    4X2IT    C1  151   4.094   4.512   3.195
    4X2IT    H1  152   4.088   4.526   3.088
    4X2IT   C11  153   4.187   4.603   3.275
    4X2IT    O3  154   4.163   4.732   3.222
    4X2IT   C15  155   4.206   4.844   3.301
    5X2IT   H18  156   1.581   1.132   2.202
    5X2IT    N4  157   1.598   1.229   2.181
    5X2IT   H17  158   1.523   1.281   2.139
    5X2IT   C14  159   1.688   1.294   2.261
    5X2IT    O5  160   1.767   1.240   2.336
    5X2IT    O4  161   1.679   1.429   2.241
    5X2IT   C13  162   1.772   1.511   2.314
    5X2IT   C10  163   1.908   1.519   2.243
    5X2IT    C9  164   2.007   1.609   2.313
    5X2IT    C4  165   2.049   1.709   2.228
    5X2IT    C5  166   2.146   1.817   2.266
    5X2IT    O1  167   2.181   1.901   2.182
    5X2IT    C6  168   2.195   1.814   2.402
    5X2IT   C12  169   2.293   1.920   2.448
    5X2IT    C7  170   2.154   1.713   2.487
    5X2IT    C8  171   2.055   1.604   2.446
    5X2IT    O2  172   2.021   1.521   2.532
    5X2IT    N3  173   2.195   1.701   2.614
    5X2IT   H15  174   2.258   1.766   2.658
    5X2IT   H16  175   2.156   1.623   2.668
    5X2IT    N2  176   1.998   1.695   2.103
    5X2IT    C3  177   1.960   1.801   2.007
    5X2IT    C2  178   1.812   1.774   1.986
    5X2IT    H2  179   1.762   1.813   1.897
    5X2IT    N1  180   1.738   1.765   2.113
    5X2IT   H14  181   1.638   1.782   2.096
    5X2IT    C1  182   1.777   1.641   2.043
    5X2IT    H1  183   1.702   1.576   1.999
    5X2IT   C11  184   1.904   1.579   2.097
    5X2IT    O3  185   1.942   1.485   1.998
    5X2IT   C15  186   2.077   1.438   2.000
    6X2IT   H18  187   4.116   2.935   2.753
    6X2IT    N4  188   4.138   2.949   2.850
    6X2IT   H17  189   4.228   2.989   2.872
    6X2IT   C14  190   4.031   2.975   2.932
    6X2IT    O5  191   3.914   2.955   2.904
    6X2IT    O4  192   4.076   3.021   3.052
    6X2IT   C13  193   3.975   3.046   3.152
    6X2IT   C10  194   3.937   2.918   3.227
    6X2IT    C9  195   3.836   2.941   3.338
    6X2IT    C4  196   3.887   2.898   3.459
    6X2IT    C5  197   3.813   2.908   3.589
    6X2IT    O1  198   3.866   2.863   3.692
    6X2IT    C6  199   3.682   2.968   3.584
    6X2IT   C12  200   3.602   2.981   3.712
    6X2IT    C7  201   3.631   3.010   3.463
    6X2IT    C8  202   3.707   2.999   3.331
    6X2IT    O2  203   3.653   3.043   3.229
    6X2IT    N3  204   3.509   3.065   3.449
    6X2IT   H15  205   3.447   3.082   3.526
    6X2IT   H16  206   3.482   3.094   3.354
    6X2IT    N2  207   4.009   2.840   3.445
    6X2IT    C3  208   4.121   2.841   3.540
    6X2IT    C2  209   4.232   2.908   3.458
    6X2IT    H2  210   4.336   2.894   3.487
    6X2IT    N1  211   4.188   3.036   3.399
    6X2IT   H14  212   4.270   3.092   3.376
    6X2IT    C1  213   4.191   2.914   3.316
    6X2IT    H1  214   4.261   2.904   3.234
    6X2IT   C11  215   4.055   2.846   3.303
    6X2IT    O3  216   4.085   2.718   3.251
    6X2IT   C15  217   3.984   2.617   3.264
    7X2IT   H18  218   4.418   3.759   3.521
    7X2IT    N4  219   4.491   3.825   3.541
    7X2IT   H17  220   4.479   3.918   3.505
    7X2IT   C14  221   4.560   3.806   3.657
    7X2IT    O5  222   4.560   3.704   3.724
    7X2IT    O4  223   4.633   3.917   3.686
    7X2IT   C13  224   4.717   3.910   3.803
    7X2IT   C10  225   4.851   3.841   3.772
    7X2IT    C9  226   4.945   3.837   3.891
    7X2IT    C4  227   5.064   3.900   3.859
    7X2IT    C5  228   5.179   3.914   3.955
    7X2IT    O1  229   5.283   3.969   3.918
    7X2IT    C6  230   5.159   3.861   4.088
    7X2IT   C12  231   5.271   3.873   4.190
    7X2IT    C7  232   5.040   3.797   4.119
    7X2IT    C8  233   4.925   3.782   4.020
    7X2IT    O2  234   4.821   3.727   4.060
    7X2IT    N3  235   5.014   3.743   4.239
    7X2IT   H15  236   5.078   3.746   4.316
    7X2IT   H16  237   4.922   3.700   4.251
    7X2IT    N2  238   5.068   3.940   3.730
    7X2IT    C3  239   5.136   4.058   3.674
    7X2IT    C2  240   5.020   4.135   3.611
    7X2IT    H2  241   5.039   4.209   3.534
    7X2IT    N1  242   4.908   4.155   3.707
    7X2IT   H14  243   4.851   4.234   3.675
    7X2IT    C1  244   4.900   4.047   3.607
    7X2IT    H1  245   4.827   4.051   3.527
    7X2IT   C11  246   4.939   3.911   3.662
    7X2IT    O3  247   4.957   3.831   3.546
    7X2IT   C15  248   5.031   3.709   3.562
    8X2IT   H18  249   1.476   2.431   0.211
    8X2IT    N4  250   1.553   2.408   0.271
    8X2IT   H17  251   1.532   2.354   0.354
    8X2IT   C14  252   1.675   2.393   0.211
    8X2IT    O5  253   1.703   2.431   0.098
    8X2IT    O4  254   1.762   2.332   0.296
    8X2IT   C13  255   1.897   2.315   0.248
    8X2IT   C10  256   1.980   2.443   0.269
    8X2IT    C9  257   2.124   2.428   0.226
    8X2IT    C4  258   2.209   2.455   0.332
    8X2IT    C5  259   2.359   2.447   0.324
    8X2IT    O1  260   2.427   2.477   0.423
    8X2IT    C6  261   2.414   2.407   0.197
    8X2IT   C12  262   2.565   2.397   0.182
    8X2IT    C7  263   2.330   2.381   0.091
    8X2IT    C8  264   2.177   2.390   0.100
    8X2IT    O2  265   2.111   2.360  -0.001
    8X2IT    N3  266   2.372   2.345  -0.031
    8X2IT   H15  267   2.469   2.333  -0.055
    8X2IT   H16  268   2.301   2.327  -0.102
    8X2IT    N2  269   2.141   2.496   0.442
    8X2IT    C3  270   2.175   2.471   0.583
    8X2IT    C2  271   2.053   2.395   0.633
    8X2IT    H2  272   2.031   2.392   0.740
    8X2IT    N1  273   2.020   2.279   0.548
    8X2IT   H14  274   1.963   2.213   0.601
    8X2IT    C1  275   1.944   2.405   0.532
    8X2IT    H1  276   1.839   2.409   0.559
    8X2IT   C11  277   1.994   2.492   0.418
    8X2IT    O3  278   1.933   2.617   0.441
    8X2IT   C15  279   1.990   2.731   0.374
    9X2IT   H18  280   1.190   4.253   3.954
    9X2IT    N4  281   1.219   4.263   3.858
    9X2IT   H17  282   1.244   4.356   3.827
    9X2IT   C14  283   1.281   4.156   3.801
    9X2IT    O5  284   1.280   4.042   3.845
    9X2IT    O4  285   1.342   4.193   3.684
    9X2IT   C13  286   1.406   4.088   3.610
    9X2IT   C10  287   1.305   4.012   3.522
    9X2IT    C9  288   1.370   3.905   3.436
    9X2IT    C4  289   1.343   3.928   3.303
    9X2IT    C5  290   1.393   3.842   3.191
    9X2IT    O1  291   1.362   3.868   3.074
    9X2IT    C6  292   1.476   3.730   3.229
    9X2IT   C12  293   1.530   3.638   3.121
    9X2IT    C7  294   1.502   3.706   3.362
    9X2IT    C8  295   1.449   3.795   3.475
    9X2IT    O2  296   1.482   3.766   3.592
    9X2IT    N3  297   1.576   3.603   3.407
    9X2IT   H15  298   1.620   3.536   3.346
    9X2IT   H16  299   1.590   3.596   3.508
    9X2IT    N2  300   1.260   4.034   3.285
    9X2IT    C3  301   1.259   4.130   3.173
    9X2IT    C2  302   1.284   4.263   3.244
    9X2IT    H2  303   1.257   4.356   3.196
    9X2IT    N1  304   1.404   4.258   3.331
    9X2IT   H14  305   1.437   4.353   3.349
    9X2IT    C1  306   1.269   4.244   3.391
    9X2IT    H1  307   1.230   4.320   3.456
    9X2IT   C11  308   1.229   4.099   3.415
    9X2IT    O3  309   1.089   4.106   3.439
    9X2IT   C15  310   1.015   3.984   3.427
   10X2IT   H18  311   3.925   4.488   1.204
   10X2IT    N4  312   3.973   4.400   1.204
   10X2IT   H17  313   4.054   4.392   1.264
   10X2IT   C14  314   3.897   4.289   1.179
   10X2IT    O5  315   3.786   4.290   1.130
   10X2IT    O4  316   3.967   4.177   1.212
   10X2IT   C13  317   3.902   4.051   1.184
   10X2IT   C10  318   3.921   4.009   1.038
   10X2IT    C9  319   3.860   3.874   1.006
   10X2IT    C4  320   3.957   3.788   0.958
   10X2IT    C5  321   3.930   3.645   0.918
   10X2IT    O1  322   4.022   3.576   0.873
   10X2IT    C6  323   3.795   3.598   0.936
   10X2IT   C12  324   3.761   3.455   0.898
   10X2IT    C7  325   3.698   3.685   0.983
   10X2IT    C8  326   3.727   3.830   1.022
   10X2IT    O2  327   3.633   3.897   1.068
   10X2IT    N3  328   3.569   3.650   1.000
   10X2IT   H15  329   3.534   3.558   0.981
   10X2IT   H16  330   3.507   3.722   1.037
   10X2IT    N2  331   4.077   3.849   0.944
   10X2IT    C3  332   4.211   3.790   0.961
   10X2IT    C2  333   4.270   3.875   1.073
   10X2IT    H2  334   4.378   3.880   1.087
   10X2IT    N1  335   4.181   3.882   1.191
   10X2IT   H14  336   4.235   3.909   1.273
   10X2IT    C1  337   4.184   3.994   1.094
   10X2IT    H1  338   4.223   4.091   1.123
   10X2IT   C11  339   4.071   3.989   0.993
   10X2IT    O3  340   4.111   4.082   0.893
   10X2IT   C15  341   4.046   4.072   0.765
   11X2IT   H18  342   3.673   4.834   4.764
   11X2IT    N4  343   3.573   4.836   4.764
   11X2IT   H17  344   3.527   4.881   4.685
   11X2IT   C14  345   3.510   4.732   4.827
   11X2IT    O5  346   3.563   4.655   4.905
   11X2IT    O4  347   3.377   4.731   4.793
   11X2IT   C13  348   3.296   4.631   4.858
   11X2IT   C10  349   3.251   4.676   4.998
   11X2IT    C9  350   3.160   4.576   5.066
   11X2IT    C4  351   3.039   4.636   5.098
   11X2IT    C5  352   2.926   4.564   5.166
   11X2IT    O1  353   2.823   4.626   5.193
   11X2IT    C6  354   2.947   4.424   5.195
   11X2IT   C12  355   2.836   4.346   5.264
   11X2IT    C7  356   3.068   4.366   5.165
   11X2IT    C8  357   3.183   4.440   5.096
   11X2IT    O2  358   3.286   4.376   5.070
   11X2IT    N3  359   3.097   4.237   5.191
   11X2IT   H15  360   3.032   4.173   5.233
   11X2IT   H16  361   3.190   4.204   5.162
   11X2IT    N2  362   3.038   4.768   5.067
   11X2IT    C3  363   2.924   4.849   5.022
   11X2IT    C2  364   2.971   4.899   4.886
   11X2IT    H2  365   2.925   4.987   4.842
   11X2IT    N1  366   3.018   4.789   4.799
   11X2IT   H14  367   3.015   4.819   4.702
   11X2IT    C1  368   3.116   4.872   4.872
   11X2IT    H1  369   3.184   4.937   4.818
   11X2IT   C11  370   3.165   4.808   5.001
   11X2IT    O3  371   3.229   4.914   5.070
   11X2IT   C15  372   3.252   4.897   5.210
   12SOL     OW  373   0.230   0.628   0.113
   12SOL    HW1  374   0.137   0.626   0.150
   12SOL    HW2  375   0.231   0.589   0.021
   13SOL     OW  376   0.225   0.275   0.996
   13SOL    HW1  377   0.260   0.258   1.088
   13SOL    HW2  378   0.137   0.230   0.984
   14SOL     OW  379   0.019   0.368   0.647
   14SOL    HW1  380  -0.063   0.411   0.686
   14SOL    HW2  381  -0.009   0.295   0.584
   15SOL     OW  382   0.569   1.275   1.165
   15SOL    HW1  383   0.476   1.268   1.128
   15SOL    HW2  384   0.580   1.364   1.209
   16SOL     OW  385   1.555   1.511   0.703
   16SOL    HW1  386   1.498   1.495   0.784
   16SOL    HW2  387   1.496   1.521   0.623
   17SOL     OW  388   1.135   0.703   0.717
   17SOL    HW1  389   1.192   0.781   0.692
   17SOL    HW2  390   1.075   0.729   0.793
   18SOL     OW  391   1.755   0.607   0.231
   18SOL    HW1  392   1.743   0.594   0.132
   18SOL    HW2  393   1.725   0.526   0.280
   19SOL     OW  394   0.768   1.144   1.023
   19SOL    HW1  395   0.690   1.161   1.083
   19SOL    HW2  396   0.802   1.231   0.987
   20SOL     OW  397   0.850   0.798   1.823
   20SOL    HW1  398   0.846   0.874   1.888
   20SOL    HW2  399   0.872   0.834   1.732
   21SOL     OW  400   0.685   1.012   0.665
   21SOL    HW1  401   0.754   0.996   0.735
   21SOL    HW2  402   0.612   1.069   0.703
   22SOL     OW  403   0.686   1.161   1.803
   22SOL    HW1  404   0.746   1.240   1.817
   22SOL    HW2  405   0.600   1.192   1.762
   23SOL     OW  406   0.335   1.435   1.061
   23SOL    HW1  407   0.257   1.404   1.008
   23SOL    HW2  408   0.393   1.493   1.004
   24SOL     OW  409   1.460   1.505   1.339
   24SOL    HW1  410   1.484   1.599   1.365
   24SOL    HW2  411   1.444   1.451   1.421
   25SOL     OW  412   0.438   0.392   1.499
   25SOL    HW1  413   0.520   0.336   1.508
   25SOL    HW2  414   0.357   0.334   1.503
   26SOL     OW  415   1.603   0.447   0.737
   26SOL    HW1  416   1.529   0.493   0.687
   26SOL    HW2  417   1.654   0.515   0.790
   27SOL     OW  418   0.231   1.713   0.483
   27SOL    HW1  419   0.265   1.790   0.537
   27SOL    HW2  420   0.275   1.713   0.393
   28SOL     OW  421   1.127   1.341   1.690
   28SOL    HW1  422   1.174   1.341   1.778
   28SOL    HW2  423   1.079   1.254   1.679
   29SOL     OW  424   0.230   1.434   0.538
   29SOL    HW1  425   0.204   1.530   0.538
   29SOL    HW2  426   0.159   1.380   0.583
   30SOL     OW  427   0.240   1.091   0.886
   30SOL    HW1  428   0.254   1.007   0.938
   30SOL    HW2  429   0.185   1.155   0.941
   31SOL     OW  430   0.620   1.786   1.439
   31SOL    HW1  431   0.528   1.769   1.474
   31SOL    HW2  432   0.648   1.878   1.465
   32SOL     OW  433   0.606   0.964   0.123
   32SOL    HW1  434   0.613   1.048   0.069
   32SOL    HW2  435   0.652   0.977   0.211
   33SOL     OW  436   1.594   0.114   1.480
   33SOL    HW1  437   1.576   0.181   1.408
   33SOL    HW2  438   1.591   0.160   1.569
   34SOL     OW  439   0.122   0.643   0.563
   34SOL    HW1  440   0.077   0.555   0.580
   34SOL    HW2  441   0.121   0.697   0.647
   35SOL     OW  442   1.842   1.767   0.359
   35SOL    HW1  443   1.896   1.738   0.439
   35SOL    HW2  444   1.872   1.857   0.330
   36SOL     OW  445   0.027   1.596   0.117
   36SOL    HW1  446   0.008   1.500   0.138
   36SOL    HW2  447  -0.006   1.654   0.192
   37SOL     OW  448   1.689   0.922   0.612
   37SOL    HW1  449   1.784   0.893   0.620
   37SOL    HW2  450   1.681   0.987   0.537
   38SOL     OW  451   1.641   1.108   0.432
   38SOL    HW1  452   1.727   1.110   0.380
   38SOL    HW2  453   1.655   1.155   0.520
   39SOL     OW  454   0.113   0.737   1.597
   39SOL    HW1  455   0.201   0.724   1.642
   39SOL    HW2  456   0.100   0.834   1.575
   40SOL     OW  457   0.613   1.365   0.726
   40SOL    HW1  458   0.564   1.278   0.735
   40SOL    HW2  459   0.590   1.408   0.639
   41SOL     OW  460   1.293   1.228   1.423
   41SOL    HW1  461   1.330   1.155   1.365
   41SOL    HW2  462   1.345   1.233   1.508
   42SOL     OW  463   0.809   0.004   0.502
   42SOL    HW1  464   0.849   0.095   0.493
   42SOL    HW2  465   0.709   0.012   0.508
   43SOL     OW  466   0.197   0.976   1.264
   43SOL    HW1  467   0.286   0.931   1.250
   43SOL    HW2  468   0.124   0.911   1.245
   44SOL     OW  469   1.525   0.999   0.190
   44SOL    HW1  470   1.462   0.923   0.203
   44SOL    HW2  471   1.573   1.017   0.276
   45SOL     OW  472   1.187   1.792   1.616
   45SOL    HW1  473   1.211   1.852   1.540
   45SOL    HW2  474   1.194   1.697   1.586
   46SOL     OW  475   0.317   0.251   1.801
   46SOL    HW1  476   0.388   0.322   1.807
   46SOL    HW2  477   0.229   0.290   1.829
   47SOL     OW  478   1.466   1.417   0.953
   47SOL    HW1  479   1.407   1.423   1.033
   47SOL    HW2  480   1.451   1.329   0.907
   48SOL     OW  481   1.667   1.714   0.572
   48SOL    HW1  482   1.626   1.691   0.484
   48SOL    HW2  483   1.649   1.640   0.637
   49SOL     OW  484   0.598   0.729   0.270
   49SOL    HW1  485   0.622   0.798   0.202
   49SOL    HW2  486   0.520   0.762   0.324
   50SOL     OW  487   1.281   0.345   0.944
   50SOL    HW1  488   1.195   0.295   0.931
   50SOL    HW2  489   1.343   0.291   1.000
   51SOL     OW  490   1.576   1.662   0.307
   51SOL    HW1  491   1.665   1.708   0.310
   51SOL    HW2  492   1.555   1.638   0.212
   52SOL     OW  493   0.807   0.605   1.465
   52SOL    HW1  494   0.760   0.602   1.554
   52SOL    HW2  495   0.756   0.550   1.399
   53SOL     OW  496   1.394   0.469   1.674
   53SOL    HW1  497   1.374   0.512   1.762
   53SOL    HW2  498   1.472   0.407   1.683
   54SOL     OW  499   0.973   0.890   1.572
   54SOL    HW1  500   1.019   0.806   1.543
   54SOL    HW2  501   0.917   0.924   1.497
   55SOL     OW  502   0.991   0.410   1.242
   55SOL    HW1  503   0.914   0.444   1.296
   55SOL    HW2  504   0.957   0.359   1.163
   56SOL     OW  505   1.041   0.701   0.429
   56SOL    HW1  506   1.067   0.697   0.525
   56SOL    HW2  507   0.956   0.650   0.415
   57SOL     OW  508   0.076   0.811   0.789
   57SOL    HW1  509   0.175   0.799   0.798
   57SOL    HW2  510   0.052   0.906   0.810
   58SOL     OW  511   0.130   1.821   1.571
   58SOL    HW1  512   0.120   1.806   1.670
   58SOL    HW2  513   0.044   1.857   1.535
   59SOL     OW  514   0.865   0.348   0.195
   59SOL    HW1  515   0.924   0.411   0.146
   59SOL    HW2  516   0.884   0.254   0.166
   60SOL     OW  517   1.719   0.585   1.831
   60SOL    HW1  518   1.693   0.674   1.795
   60SOL    HW2  519   1.717   0.517   1.758
   61SOL     OW  520   1.362   1.144   0.545
   61SOL    HW1  521   1.445   1.115   0.497
   61SOL    HW2  522   1.313   1.211   0.489
   62SOL     OW  523   0.550   0.196   0.885
   62SOL    HW1  524   0.545   0.191   0.985
   62SOL    HW2  525   0.552   0.292   0.856
   63SOL     OW  526   1.008   1.456   0.477
   63SOL    HW1  527   0.962   1.528   0.425
   63SOL    HW2  528   1.004   1.476   0.575
   64SOL     OW  529   0.351   1.801   0.853
   64SOL    HW1  530   0.401   1.715   0.859
   64SOL    HW2  531   0.416   1.878   0.850
   65SOL     OW  532   1.795   1.066   0.873
   65SOL    HW1  533   1.733   1.051   0.797
   65SOL    HW2  534   1.743   1.077   0.958
   66SOL     OW  535   1.227   1.550   1.506
   66SOL    HW1  536   1.233   1.473   1.570
   66SOL    HW2  537   1.175   1.524   1.426
   67SOL     OW  538   0.321   0.943   0.242
   67SOL    HW1  539   0.403   0.982   0.200
   67SOL    HW2  540   0.294   0.861   0.193
   68SOL     OW  541   1.458   0.735   0.728
   68SOL    HW1  542   1.453   0.670   0.803
   68SOL    HW2  543   1.538   0.794   0.741
   69SOL     OW  544   0.461   1.266   1.727
   69SOL    HW1  545   0.411   1.267   1.641
   69SOL    HW2  546   0.398   1.248   1.803
   70SOL     OW  547   1.111   1.776   0.237
   70SOL    HW1  548   1.051   1.714   0.287
   70SOL    HW2  549   1.142   1.732   0.152
   71SOL     OW  550   0.202   0.285   1.498
   71SOL    HW1  551   0.122   0.345   1.485
   71SOL    HW2  552   0.192   0.236   1.584
   72SOL     OW  553   1.632   1.377   0.081
   72SOL    HW1  554   1.600   1.471   0.071
   72SOL    HW2  555   1.556   1.314   0.069
   73SOL     OW  556   0.464   1.743   0.323
   73SOL    HW1  557   0.497   1.782   0.409
   73SOL    HW2  558   0.540   1.736   0.258
   74SOL     OW  559   1.400   0.107   0.426
   74SOL    HW1  560   1.376   0.070   0.336
   74SOL    HW2  561   1.499   0.123   0.430
   75SOL     OW  562   0.249   1.785   1.241
   75SOL    HW1  563   0.306   1.720   1.291
   75SOL    HW2  564   0.233   1.752   1.148
   76SOL     OW  565   0.940   1.698   0.904
   76SOL    HW1  566   1.020   1.641   0.925
   76SOL    HW2  567   0.891   1.658   0.827
   77SOL     OW  568   0.382   0.700   0.480
   77SOL    HW1  569   0.427   0.610   0.477
   77SOL    HW2  570   0.288   0.689   0.513
   78SOL     OW  571   1.547   0.222   1.729
   78SOL    HW1  572   1.542   0.259   1.821
   78SOL    HW2  573   1.475   0.153   1.717
   79SOL     OW  574   0.614   0.122   0.117
   79SOL    HW1  575   0.712   0.100   0.124
   79SOL    HW2  576   0.583   0.105   0.024
   80SOL     OW  577   0.781   0.264   1.749
   80SOL    HW1  578   0.848   0.203   1.792
   80SOL    HW2  579   0.708   0.283   1.814
   81SOL     OW  580   0.888   1.514   1.195
   81SOL    HW1  581   0.865   1.489   1.101
   81SOL    HW2  582   0.949   1.445   1.234
   82SOL     OW  583   1.351   0.590   1.433
   82SOL    HW1  584   1.379   0.547   1.518
   82SOL    HW2  585   1.376   0.686   1.434
   83SOL     OW  586   0.803   1.402   0.924
   83SOL    HW1  587   0.893   1.416   0.882
   83SOL    HW2  588   0.732   1.404   0.853
   84SOL     OW  589   0.922   0.503   0.899
   84SOL    HW1  590   0.897   0.494   0.803
   84SOL    HW2  591   0.970   0.421   0.930
   85SOL     OW  592   0.539   0.064   0.512
   85SOL    HW1  593   0.458   0.065   0.570
   85SOL    HW2  594   0.542   0.147   0.457
   86SOL     OW  595   1.434   1.188   0.041
   86SOL    HW1  596   1.466   1.112   0.098
   86SOL    HW2  597   1.342   1.215   0.071
   87SOL     OW  598   0.297   0.035   0.171
   87SOL    HW1  599   0.346   0.119   0.150
   87SOL    HW2  600   0.359  -0.030   0.216
   88SOL     OW  601   0.935   0.236   0.480
   88SOL    HW1  602   0.887   0.277   0.402
   88SOL    HW2  603   1.034   0.234   0.461
   89SOL     OW  604   1.076   0.683   1.464
   89SOL    HW1  605   0.996   0.622   1.467
   89SOL    HW2  606   1.157   0.630   1.440
   90SOL     OW  607   1.227   1.570   0.793
   90SOL    HW1  608   1.248   1.644   0.728
   90SOL    HW2  609   1.295   1.570   0.866
   91SOL     OW  610   0.459   1.152   0.741
   91SOL    HW1  611   0.388   1.125   0.806
   91SOL    HW2  612   0.433   1.124   0.648
   92SOL     OW  613   1.271   1.797   0.591
   92SOL    HW1  614   1.315   1.861   0.527
   92SOL    HW2  615   1.221   1.849   0.661
   93SOL     OW  616   1.032   0.549   0.016
   93SOL    HW1  617   0.991   0.631  -0.023
   93SOL    HW2  618   1.096   0.575   0.089
   94SOL     OW  619   0.078   0.556   1.386
   94SOL    HW1  620   0.170   0.555   1.345
   94SOL    HW2  621   0.072   0.630   1.453
   95SOL     OW  622   0.561   0.222   1.147
   95SOL    HW1  623   0.599   0.138   1.184
   95SOL    HW2  624   0.473   0.241   1.191
   96SOL     OW  625   0.866   0.454   0.642
   96SOL    HW1  626   0.834   0.526   0.580
   96SOL    HW2  627   0.890   0.373   0.589
   97SOL     OW  628   1.017   0.039   0.753
   97SOL    HW1  629   0.945   0.044   0.684
   97SOL    HW2  630   0.993  -0.030   0.822
   98SOL     OW  631   1.429   1.173   0.867
   98SOL    HW1  632   1.374   1.089   0.860
   98SOL    HW2  633   1.455   1.202   0.775
   99SOL     OW  634   1.466   0.590   0.992
   99SOL    HW1  635   1.436   0.495   0.999
   99SOL    HW2  636   1.539   0.606   1.058
  100SOL     OW  637   1.857   0.833   0.377
  100SOL    HW1  638   1.899   0.769   0.441
  100SOL    HW2  639   1.819   0.782   0.299
  101SOL     OW  640   0.488   1.385   0.174
  101SOL    HW1  641   0.401   1.370   0.221
  101SOL    HW2  642   0.471   1.411   0.079
  102SOL     OW  643   1.664   1.280   0.657
  102SOL    HW1  644   1.763   1.288   0.671
  102SOL    HW2  645   1.619   1.364   0.688
  103SOL     OW  646   1.390   0.575   0.078
  103SOL    HW1  647   1.336   0.554   0.159
  103SOL    HW2  648   1.481   0.534   0.087
  104SOL     OW  649   0.527   0.256   0.328
  104SOL    HW1  650   0.554   0.197   0.253
  104SOL    HW2  651   0.527   0.351   0.297
  105SOL     OW  652   1.754   1.223   1.588
  105SOL    HW1  653   1.845   1.184   1.575
  105SOL    HW2  654   1.762   1.319   1.612
  106SOL     OW  655   1.064   1.347   1.340
  106SOL    HW1  656   0.984   1.324   1.395
  106SOL    HW2  657   1.147   1.321   1.389
  107SOL     OW  658   1.592   1.629   1.625
  107SOL    HW1  659   1.619   1.663   1.535
  107SOL    HW2  660   1.671   1.591   1.671
  108SOL     OW  661   1.111   1.195   1.100
  108SOL    HW1  662   1.071   1.239   1.181
  108SOL    HW2  663   1.070   1.232   1.017
  109SOL     OW  664   1.638   1.099   1.079
  109SOL    HW1  665   1.643   1.180   1.138
  109SOL    HW2  666   1.552   1.101   1.028
  110SOL     OW  667   0.915   0.089   1.402
  110SOL    HW1  668   0.940   0.069   1.307
  110SOL    HW2  669   0.987   0.145   1.444
  111SOL     OW  670   0.980   1.116   1.719
  111SOL    HW1  671   0.881   1.122   1.729
  111SOL    HW2  672   1.003   1.036   1.663
  112SOL     OW  673   0.705   1.050   0.368
  112SOL    HW1  674   0.691   1.057   0.467
  112SOL    HW2  675   0.789   0.999   0.350
  113SOL     OW  676   0.410   0.813   1.251
  113SOL    HW1  677   0.496   0.825   1.301
  113SOL    HW2  678   0.368   0.726   1.278
  114SOL     OW  679   1.274   0.386   1.262
  114SOL    HW1  680   1.295   0.460   1.326
  114SOL    HW2  681   1.185   0.403   1.219
  115SOL     OW  682   0.064   1.564   1.331
  115SOL    HW1  683   0.018   1.646   1.297
  115SOL    HW2  684   0.162   1.583   1.340
  116SOL     OW  685   0.367   1.100   0.501
  116SOL    HW1  686   0.360   1.183   0.445
  116SOL    HW2  687   0.371   1.020   0.441
  117SOL     OW  688   0.566   0.537   0.865
  117SOL    HW1  689   0.578   0.603   0.791
  117SOL    HW2  690   0.612   0.571   0.948
  118SOL     OW  691   1.252   1.348   0.388
  118SOL    HW1  692   1.302   1.425   0.428
  118SOL    HW2  693   1.157   1.350   0.420
  119SOL     OW  694   1.272   1.445   1.142
  119SOL    HW1  695   1.319   1.458   1.229
  119SOL    HW2  696   1.206   1.371   1.151
  120SOL     OW  697   1.582   0.639   0.472
  120SOL    HW1  698   1.551   0.700   0.545
  120SOL    HW2  699   1.632   0.691   0.403
  121SOL     OW  700   0.354   1.510   1.329
  121SOL    HW1  701   0.333   1.466   1.242
  121SOL    HW2  702   0.451   1.536   1.332
  122SOL     OW  703   0.402   0.751   1.598
  122SOL    HW1  704   0.470   0.806   1.551
  122SOL    HW2  705   0.442   0.663   1.625
  123SOL     OW  706   1.587   0.779   1.670
  123SOL    HW1  707   1.495   0.817   1.665
  123SOL    HW2  708   1.647   0.826   1.605
  124SOL     OW  709   1.013   0.105   1.770
  124SOL    HW1  710   1.019   0.190   1.718
  124SOL    HW2  711   1.045   0.029   1.713
  125SOL     OW  712   0.504   0.050   1.740
  125SOL    HW1  713   0.462  -0.007   1.670
  125SOL    HW2  714   0.438   0.119   1.772
  126SOL     OW  715   0.573   0.870   1.029
  126SOL    HW1  716   0.617   0.959   1.020
  126SOL    HW2  717   0.510   0.870   1.106
  127SOL     OW  718   1.360   0.862   1.045
  127SOL    HW1  719   1.285   0.862   0.979
  127SOL    HW2  720   1.397   0.770   1.054
  128SOL     OW  721   1.209   0.525   0.275
  128SOL    HW1  722   1.222   0.441   0.329
  128SOL    HW2  723   1.180   0.599   0.335
  129SOL     OW  724   0.307   0.213   1.231
  129SOL    HW1  725   0.284   0.250   1.321
  129SOL    HW2  726   0.277   0.118   1.225
  130SOL     OW  727   0.037   1.310   1.282
  130SOL    HW1  728   0.090   1.261   1.350
  130SOL    HW2  729   0.059   1.408   1.287
  131SOL     OW  730   0.732   0.634   1.064
  131SOL    HW1  731   0.791   0.608   0.988
  131SOL    HW2  732   0.704   0.730   1.053
  132SOL     OW  733   1.728   0.935   1.854
  132SOL    HW1  734   1.682   0.928   1.765
  132SOL    HW2  735   1.666   0.979   1.920
  133SOL     OW  736   0.307   0.063   0.618
  133SOL    HW1  737   0.296   0.157   0.651
  133SOL    HW2  738   0.302   0.000   0.695
  134SOL     OW  739   1.622   0.367   0.374
  134SOL    HW1  740   1.624   0.291   0.438
  134SOL    HW2  741   1.574   0.444   0.414
  135SOL     OW  742   1.023   0.766   0.966
  135SOL    HW1  743   1.038   0.787   1.062
  135SOL    HW2  744   0.993   0.671   0.957
  136SOL     OW  745   0.980   1.573   1.700
  136SOL    HW1  746   0.960   1.617   1.612
  136SOL    HW2  747   1.019   1.482   1.684
  137SOL     OW  748   1.859   1.518   1.605
  137SOL    HW1  749   1.873   1.545   1.510
  137SOL    HW2  750   1.942   1.540   1.658
  138SOL     OW  751   0.350   0.898   1.804
  138SOL    HW1  752   0.426   0.942   1.852
  138SOL    HW2  753   0.385   0.851   1.722
  139SOL     OW  754   1.540   0.274   0.125
  139SOL    HW1  755   1.479   0.199   0.148
  139SOL    HW2  756   1.562   0.326   0.208
  140SOL     OW  757   1.303   0.838   0.042
  140SOL    HW1  758   1.337   0.745   0.057
  140SOL    HW2  759   1.321   0.865  -0.053
  141SOL     OW  760   1.068   1.333   0.849
  141SOL    HW1  761   1.075   1.249   0.794
  141SOL    HW2  762   1.130   1.402   0.813
  142SOL     OW  763   0.319   0.810   0.949
  142SOL    HW1  764   0.412   0.846   0.954
  142SOL    HW2  765   0.313   0.725   1.001
  143SOL     OW  766   0.339   0.509   1.006
  143SOL    HW1  767   0.287   0.426   0.989
  143SOL    HW2  768   0.416   0.514   0.942
  144SOL     OW  769   1.138   0.380   1.678
  144SOL    HW1  770   1.093   0.443   1.742
  144SOL    HW2  771   1.231   0.411   1.661
  145SOL     OW  772   1.160   0.207   1.477
  145SOL    HW1  773   1.160   0.271   1.554
  145SOL    HW2  774   1.188   0.255   1.394
  146SOL     OW  775   0.008   1.326   0.200
  146SOL    HW1  776  -0.085   1.347   0.169
  146SOL    HW2  777   0.018   1.227   0.213
  147SOL     OW  778   0.088   1.801   0.927
  147SOL    HW1  779   0.046   1.715   0.900
  147SOL    HW2  780   0.182   1.804   0.893
  148SOL     OW  781   0.504   1.568   0.910
  148SOL    HW1  782   0.570   1.642   0.919
  148SOL    HW2  783   0.548   1.489   0.868
  149SOL     OW  784   1.002   0.796   1.238
  149SOL    HW1  785   1.043   0.764   1.324
  149SOL    HW2  786   0.906   0.769   1.235
  150SOL     OW  787   0.040   0.544   1.114
  150SOL    HW1  788   0.125   0.511   1.073
  150SOL    HW2  789   0.053   0.559   1.212
  151SOL     OW  790   0.189   0.520   1.722
  151SOL    HW1  791   0.248   0.480   1.652
  151SOL    HW2  792   0.131   0.591   1.681
  152SOL     OW  793   1.369   0.950   1.660
  152SOL    HW1  794   1.408   1.039   1.680
  152SOL    HW2  795   1.379   0.930   1.563
  153SOL     OW  796   0.815   0.572   0.325
  153SOL    HW1  797   0.822   0.483   0.279
  153SOL    HW2  798   0.721   0.606   0.317
  154SOL     OW  799   1.657   0.604   1.206
  154SOL    HW1  800   1.619   0.535   1.268
  154SOL    HW2  801   1.739   0.568   1.162
  155SOL     OW  802   0.252   1.564   1.744
  155SOL    HW1  803   0.222   1.621   1.820
  155SOL    HW2  804   0.245   1.467   1.770
  156SOL     OW  805   0.671   0.464   1.269
  156SOL    HW1  806   0.637   0.375   1.239
  156SOL    HW2  807   0.697   0.518   1.189
  157SOL     OW  808   0.930   1.678   1.465
  157SOL    HW1  809   0.906   1.660   1.370
  157SOL    HW2  810   0.960   1.772   1.475
  158SOL     OW  811   0.473   0.500   0.191
  158SOL    HW1  812   0.534   0.580   0.195
  158SOL    HW2  813   0.378   0.531   0.198
  159SOL     OW  814   0.159   1.137   1.466
  159SOL    HW1  815   0.181   1.076   1.542
  159SOL    HW2  816   0.169   1.088   1.380
  160SOL     OW  817   1.347   1.059   1.234
  160SOL    HW1  818   1.371   0.996   1.160
  160SOL    HW2  819   1.257   1.099   1.216
  161SOL     OW  820   1.302   0.855   0.309
  161SOL    HW1  821   1.216   0.824   0.351
  161SOL    HW2  822   1.298   0.841   0.210
  162SOL     OW  823   1.759   1.747   1.154
  162SOL    HW1  824   1.820   1.777   1.081
  162SOL    HW2  825   1.721   1.658   1.132
  163SOL     OW  826   1.252   1.731   1.128
  163SOL    HW1  827   1.336   1.736   1.074
  163SOL    HW2  828   1.229   1.635   1.146
  164SOL     OW  829   0.083   1.258   1.022
  164SOL    HW1  830   0.078   1.257   1.122
  164SOL    HW2  831   0.000   1.217   0.984
  165SOL     OW  832   0.688   1.662   1.716
  165SOL    HW1  833   0.632   1.743   1.725
  165SOL    HW2  834   0.740   1.666   1.630
  166SOL     OW  835   0.903   0.086   0.133
  166SOL    HW1  836   0.954   0.087   0.047
  166SOL    HW2  837   0.959   0.044   0.204
  167SOL     OW  838   1.726   0.135   0.523
  167SOL    HW1  839   1.799   0.118   0.456
  167SOL    HW2  840   1.695   0.048   0.561
  168SOL     OW  841   1.388   1.573   0.477
  168SOL    HW1  842   1.455   1.585   0.403
  168SOL    HW2  843   1.348   1.662   0.500
  169SOL     OW  844   0.130   1.794   1.851
  169SOL    HW1  845   0.089   1.720   1.904
  169SOL    HW2  846   0.194   1.845   1.909
  170SOL     OW  847   1.280   0.927   0.672
  170SOL    HW1  848   1.340   0.846   0.674
  170SOL    HW2  849   1.320   0.996   0.612
  171SOL     OW  850   0.830   1.273   1.422
  171SOL    HW1  851   0.825   1.306   1.517
  171SOL    HW2  852   0.744   1.292   1.376
  172SOL     OW  853   0.672   1.616   0.154
  172SOL    HW1  854   0.681   1.626   0.055
  172SOL    HW2  855   0.632   1.527   0.175
  173SOL     OW  856   1.650   1.720   1.394
  173SOL    HW1  857   1.703   1.730   1.310
  173SOL    HW2  858   1.623   1.810   1.428
  174SOL     OW  859   1.841   0.175   0.963
  174SOL    HW1  860   1.880   0.090   0.927
  174SOL    HW2  861   1.743   0.177   0.944
  175SOL     OW  862   0.263   0.326   0.720
  175SOL    HW1  863   0.184   0.377   0.686
  175SOL    HW2  864   0.254   0.311   0.818
  176SOL     OW  865   1.194   1.612   0.031
  176SOL    HW1  866   1.200   1.519   0.068
  176SOL    HW2  867   1.135   1.612  -0.049
  177SOL     OW  868   0.822   1.002   1.372
  177SOL    HW1  869   0.862   1.001   1.280
  177SOL    HW2  870   0.832   1.094   1.412
  178SOL     OW  871   0.916   0.910   0.291
  178SOL    HW1  872   0.979   0.948   0.223
  178SOL    HW2  873   0.956   0.827   0.330
  179SOL     OW  874   1.504   1.607   0.044
  179SOL    HW1  875   1.412   1.644   0.051
  179SOL    HW2  876   1.542   1.627  -0.046
  180SOL     OW  877   0.372   1.288   1.490
  180SOL    HW1  878   0.359   1.381   1.456
  180SOL    HW2  879   0.288   1.236   1.477
  181SOL     OW  880   1.614   1.292   1.289
  181SOL    HW1  881   1.674   1.295   1.369
  181SOL    HW2  882   1.539   1.356   1.302
  182SOL     OW  883   1.039   1.098   0.696
  182SOL    HW1  884   0.969   1.051   0.750
  182SOL    HW2  885   1.098   1.030   0.653
  183SOL     OW  886   1.014   0.236   0.971
  183SOL    HW1  887   1.006   0.200   0.878
  183SOL    HW2  888   1.012   0.160   1.036
  184SOL     OW  889   0.590   1.487   0.491
  184SOL    HW1  890   0.632   1.429   0.421
  184SOL    HW2  891   0.546   1.566   0.447
  185SOL     OW  892   1.709   0.385   1.381
  185SOL    HW1  893   1.782   0.454   1.385
  185SOL    HW2  894   1.737   0.310   1.322
  186SOL     OW  895   0.255   1.348   0.290
  186SOL    HW1  896   0.159   1.349   0.263
  186SOL    HW2  897   0.267   1.401   0.374
  187SOL     OW  898   0.105   1.013   1.726
  187SOL    HW1  899   0.028   0.980   1.780
  187SOL    HW2  900   0.190   0.983   1.768
  188SOL     OW  901   0.672   0.203   1.489
  188SOL    HW1  902   0.762   0.187   1.449
  188SOL    HW2  903   0.680   0.208   1.588
  189SOL     OW  904   0.075   0.345   0.033
  189SOL    HW1  905  -0.017   0.317   0.004
  189SOL    HW2  906   0.106   0.422  -0.023
  190SOL     OW  907   1.440   0.856   1.398
  190SOL    HW1  908   1.383   0.908   1.335
  190SOL    HW2  909   1.536   0.868   1.374
  191SOL     OW  910   0.072   0.166   0.318
  191SOL    HW1  911   0.055   0.249   0.264
  191SOL    HW2  912   0.162   0.129   0.296
  192SOL     OW  913   1.183   1.335   0.119
  192SOL    HW1  914   1.084   1.324   0.121
  192SOL    HW2  915   1.217   1.350   0.212
  193SOL     OW  916   0.613   0.842   1.431
  193SOL    HW1  917   0.669   0.923   1.414
  193SOL    HW2  918   0.672   0.762   1.434
  194SOL     OW  919   1.493   1.767   0.959
  194SOL    HW1  920   1.526   1.831   0.890
  194SOL    HW2  921   1.559   1.761   1.034
  195SOL     OW  922   0.716   0.565   1.708
  195SOL    HW1  923   0.735   0.630   1.782
  195SOL    HW2  924   0.776   0.485   1.717
  196SOL     OW  925   1.450   1.220   1.633
  196SOL    HW1  926   1.441   1.210   1.732
  196SOL    HW2  927   1.546   1.213   1.607
  197SOL     OW  928   0.390   1.741   1.560
  197SOL    HW1  929   0.299   1.782   1.558
  197SOL    HW2  930   0.383   1.647   1.592
  198SOL     OW  931   1.674   0.883   1.254
  198SOL    HW1  932   1.647   0.794   1.217
  198SOL    HW2  933   1.675   0.951   1.181
  199SOL     OW  934   1.225   0.325   0.449
  199SOL    HW1  935   1.290   0.251   0.438
  199SOL    HW2  936   1.245   0.375   0.533
  200SOL     OW  937   0.594   0.745   0.652
  200SOL    HW1  938   0.644   0.830   0.633
  200SOL    HW2  939   0.506   0.747   0.604
  201SOL     OW  940   1.777   0.342   1.642
  201SOL    HW1  941   1.760   0.373   1.548
  201SOL    HW2  942   1.693   0.305   1.680
  202SOL     OW  943   1.730   0.934   1.517
  202SOL    HW1  944   1.768   1.025   1.532
  202SOL    HW2  945   1.722   0.917   1.418
  203SOL     OW  946   0.859   1.374   0.016
  203SOL    HW1  947   0.813   1.389   0.104
  203SOL    HW2  948   0.903   1.459  -0.014
  204SOL     OW  949   0.661   1.790   0.953
  204SOL    HW1  950   0.615   1.878   0.940
  204SOL    HW2  951   0.760   1.802   0.946
  205SOL     OW  952   0.859   0.956   0.861
  205SOL    HW1  953   0.913   0.887   0.909
  205SOL    HW2  954   0.827   1.025   0.927
  206SOL     OW  955   1.083   0.984   0.087
  206SOL    HW1  956   1.060   1.037   0.005
  206SOL    HW2  957   1.164   0.928   0.068
  207SOL     OW  958   1.861   1.569   0.851
  207SOL    HW1  959   1.790   1.557   0.781
  207SOL    HW2  960   1.862   1.490   0.911
  208SOL     OW  961   0.221   1.314   1.844
  208SOL    HW1  962   0.156   1.241   1.823
  208SOL    HW2  963   0.225   1.328   1.942
  209SOL     OW  964   0.079   1.240   0.653
  209SOL    HW1  965   0.078   1.193   0.741
  209SOL    HW2  966   0.161   1.212   0.602
  210SOL     OW  967   0.672   1.391   1.624
  210SOL    HW1  968   0.594   1.341   1.662
  210SOL    HW2  969   0.669   1.486   1.655
  211SOL     OW  970   1.824   0.192   1.227
  211SOL    HW1  971   1.820   0.102   1.271
  211SOL    HW2  972   1.827   0.181   1.128
  212SOL     OW  973   0.428   0.424   0.520
  212SOL    HW1  974   0.458   0.352   0.458
  212SOL    HW2  975   0.389   0.384   0.603
  213SOL     OW  976   1.705   1.487   1.104
  213SOL    HW1  977   1.612   1.462   1.077
  213SOL    HW2  978   1.731   1.437   1.186
  214SOL     OW  979   0.317   0.547   1.280
  214SOL    HW1  980   0.355   0.488   1.352
  214SOL    HW2  981   0.357   0.521   1.192
  215SOL     OW  982   0.812   1.586   0.687
  215SOL    HW1  983   0.844   1.596   0.593
  215SOL    HW2  984   0.733   1.524   0.689
  216SOL     OW  985   1.424   0.214   1.112
  216SOL    HW1  986   1.476   0.149   1.167
  216SOL    HW2  987   1.375   0.277   1.173
  217SOL     OW  988   1.001   0.034   1.154
  217SOL    HW1  989   0.938  -0.038   1.123
  217SOL    HW2  990   1.094  -0.002   1.154
  218SOL     OW  991   0.770   1.330   0.301
  218SOL    HW1  992   0.724   1.243   0.318
  218SOL    HW2  993   0.861   1.327   0.342
  219SOL     OW  994   0.618   1.567   1.284
  219SOL    HW1  995   0.613   1.649   1.341
  219SOL    HW2  996   0.707   1.564   1.239
  220SOL     OW  997   1.352   0.052   0.168
  220SOL    HW1  998   1.387   0.011   0.084
  220SOL    HW2  999   1.262   0.014   0.188
  221SOL     OW 1000   1.300   0.453   0.691
  221SOL    HW1 1001   1.241   0.533   0.695
  221SOL    HW2 1002   1.315   0.418   0.784
  222SOL     OW 1003   1.593   0.221   0.882
  222SOL    HW1 1004   1.509   0.220   0.936
  222SOL    HW2 1005   1.595   0.304   0.826
  223SOL     OW 1006   0.039   1.077   0.300
  223SOL    HW1 1007   0.138   1.066   0.291
  223SOL    HW2 1008  -0.001   0.991   0.332
  224SOL     OW 1009   0.875   1.646   0.337
  224SOL    HW1 1010   0.798   1.611   0.283
  224SOL    HW2 1011   0.843   1.717   0.399
  225SOL     OW 1012   0.230   0.628   1.975
  225SOL    HW1 1013   0.137   0.626   2.012
  225SOL    HW2 1014   0.231   0.589   1.883
  226SOL     OW 1015   0.225   0.275   2.858
  226SOL    HW1 1016   0.260   0.258   2.950
  226SOL    HW2 1017   0.137   0.230   2.846
  227SOL     OW 1018   0.019   0.368   2.509
  227SOL    HW1 1019  -0.063   0.411   2.548
  227SOL    HW2 1020  -0.009   0.295   2.446
  228SOL     OW 1021   0.569   1.275   3.027
  228SOL    HW1 1022   0.476   1.268   2.990
  228SOL    HW2 1023   0.580   1.364   3.071
  229SOL     OW 1024   1.555   1.511   2.565
  229SOL    HW1 1025   1.498   1.495   2.646
  229SOL    HW2 1026   1.496   1.521   2.485
  230SOL     OW 1027   1.135   0.703   2.579
  230SOL    HW1 1028   1.192   0.781   2.554
  230SOL    HW2 1029   1.075   0.729   2.655
  231SOL     OW 1030   1.755   0.607   2.093
  231SOL    HW1 1031   1.743   0.594   1.994
  231SOL    HW2 1032   1.725   0.526   2.142
  232SOL     OW 1033   0.768   1.144   2.885
  232SOL    HW1 1034   0.690   1.161   2.945
  232SOL    HW2 1035   0.802   1.231   2.849
  233SOL     OW 1036   0.850   0.798   3.685
  233SOL    HW1 1037   0.846   0.874   3.750
  233SOL    HW2 1038   0.872   0.834   3.594
  234SOL     OW 1039   0.685   1.012   2.527
  234SOL    HW1 1040   0.754   0.996   2.597
  234SOL    HW2 1041   0.612   1.069   2.565
  235SOL     OW 1042   0.686   1.161   3.665
  235SOL    HW1 1043   0.746   1.240   3.679
  235SOL    HW2 1044   0.600   1.192   3.624
  236SOL     OW 1045   0.335   1.435   2.923
  236SOL    HW1 1046   0.257   1.404   2.870
  236SOL    HW2 1047   0.393   1.493   2.866
  237SOL     OW 1048   1.460   1.505   3.201
  237SOL    HW1 1049   1.484   1.599   3.227
  237SOL    HW2 1050   1.444   1.451   3.283
  238SOL     OW 1051   0.438   0.392   3.361
  238SOL    HW1 1052   0.520   0.336   3.370
  238SOL    HW2 1053   0.357   0.334   3.365
  239SOL     OW 1054   1.603   0.447   2.599
  239SOL    HW1 1055   1.529   0.493   2.549
  239SOL    HW2 1056   1.654   0.515   2.652
  240SOL     OW 1057   0.231   1.713   2.345
  240SOL    HW1 1058   0.265   1.790   2.399
  240SOL    HW2 1059   0.275   1.713   2.255
  241SOL     OW 1060   1.127   1.341   3.552
  241SOL    HW1 1061   1.174   1.341   3.640
  241SOL    HW2 1062   1.079   1.254   3.541
  242SOL     OW 1063   0.230   1.434   2.400
  242SOL    HW1 1064   0.204   1.530   2.400
  242SOL    HW2 1065   0.159   1.380   2.445
  243SOL     OW 1066   0.240   1.091   2.748
  243SOL    HW1 1067   0.254   1.007   2.800
  243SOL    HW2 1068   0.185   1.155   2.803
  244SOL     OW 1069   0.620   1.786   3.301
  244SOL    HW1 1070   0.528   1.769   3.336
  244SOL    HW2 1071   0.648   1.878   3.327
  245SOL     OW 1072   0.606   0.964   1.985
  245SOL    HW1 1073   0.613   1.048   1.931
  245SOL    HW2 1074   0.652   0.977   2.073
  246SOL     OW 1075   1.594   0.114   3.342
  246SOL    HW1 1076   1.576   0.181   3.270
  246SOL    HW2 1077   1.591   0.160   3.431
  247SOL     OW 1078   0.122   0.643   2.425
  247SOL    HW1 1079   0.077   0.555   2.442
  247SOL    HW2 1080   0.121   0.697   2.509
  248SOL     OW 1081   0.027   1.596   1.979
  248SOL    HW1 1082   0.008   1.500   2.000
  248SOL    HW2 1083  -0.006   1.654   2.054
  249SOL     OW 1084   1.689   0.922   2.474
  249SOL    HW1 1085   1.784   0.893   2.482
  249SOL    HW2 1086   1.681   0.987   2.399
  250SOL     OW 1087   0.113   0.737   3.459
  250SOL    HW1 1088   0.201   0.724   3.504
  250SOL    HW2 1089   0.100   0.834   3.437
  251SOL     OW 1090   0.613   1.365   2.588
  251SOL    HW1 1091   0.564   1.278   2.597
  251SOL    HW2 1092   0.590   1.408   2.501
  252SOL     OW 1093   1.293   1.228   3.285
  252SOL    HW1 1094   1.330   1.155   3.227
  252SOL    HW2 1095   1.345   1.233   3.370
  253SOL     OW 1096   0.809   0.004   2.364
  253SOL    HW1 1097   0.849   0.095   2.355
  253SOL    HW2 1098   0.709   0.012   2.370
  254SOL     OW 1099   0.197   0.976   3.126
  254SOL    HW1 1100   0.286   0.931   3.112
  254SOL    HW2 1101   0.124   0.911   3.107
  255SOL     OW 1102   1.187   1.792   3.478
  255SOL    HW1 1103   1.211   1.852   3.402
  255SOL    HW2 1104   1.194   1.697   3.448
  256SOL     OW 1105   0.317   0.251   3.663
  256SOL    HW1 1106   0.388   0.322   3.669
  256SOL    HW2 1107   0.229   0.290   3.691
  257SOL     OW 1108   1.466   1.417   2.815
  257SOL    HW1 1109   1.407   1.423   2.895
  257SOL    HW2 1110   1.451   1.329   2.769
  258SOL     OW 1111   1.667   1.714   2.434
  258SOL    HW1 1112   1.626   1.691   2.346
  258SOL    HW2 1113   1.649   1.640   2.499
  259SOL     OW 1114   0.598   0.729   2.132
  259SOL    HW1 1115   0.622   0.798   2.064
  259SOL    HW2 1116   0.520   0.762   2.186
  260SOL     OW 1117   1.281   0.345   2.806
  260SOL    HW1 1118   1.195   0.295   2.793
  260SOL    HW2 1119   1.343   0.291   2.862
  261SOL     OW 1120   0.807   0.605   3.327
  261SOL    HW1 1121   0.760   0.602   3.416
  261SOL    HW2 1122   0.756   0.550   3.261
  262SOL     OW 1123   1.394   0.469   3.536
  262SOL    HW1 1124   1.374   0.512   3.624
  262SOL    HW2 1125   1.472   0.407   3.545
  263SOL     OW 1126   0.973   0.890   3.434
  263SOL    HW1 1127   1.019   0.806   3.405
  263SOL    HW2 1128   0.917   0.924   3.359
  264SOL     OW 1129   0.991   0.410   3.104
  264SOL    HW1 1130   0.914   0.444   3.158
  264SOL    HW2 1131   0.957   0.359   3.025
  265SOL     OW 1132   1.041   0.701   2.291
  265SOL    HW1 1133   1.067   0.697   2.387
  265SOL    HW2 1134   0.956   0.650   2.277
  266SOL     OW 1135   0.076   0.811   2.651
  266SOL    HW1 1136   0.175   0.799   2.660
  266SOL    HW2 1137   0.052   0.906   2.672
  267SOL     OW 1138   0.130   1.821   3.433
  267SOL    HW1 1139   0.120   1.806   3.532
  267SOL    HW2 1140   0.044   1.857   3.397
  268SOL     OW 1141   0.865   0.348   2.057
  268SOL    HW1 1142   0.924   0.411   2.008
  268SOL    HW2 1143   0.884   0.254   2.028
  269SOL     OW 1144   1.719   0.585   3.693
  269SOL    HW1 1145   1.693   0.674   3.657
  269SOL    HW2 1146   1.717   0.517   3.620
  270SOL     OW 1147   1.362   1.144   2.407
  270SOL    HW1 1148   1.445   1.115   2.359
  270SOL    HW2 1149   1.313   1.211   2.351
  271SOL     OW 1150   0.550   0.196   2.747
  271SOL    HW1 1151   0.545   0.191   2.847
  271SOL    HW2 1152   0.552   0.292   2.718
  272SOL     OW 1153   1.008   1.456   2.339
  272SOL    HW1 1154   0.962   1.528   2.287
  272SOL    HW2 1155   1.004   1.476   2.437
  273SOL     OW 1156   0.351   1.801   2.715
  273SOL    HW1 1157   0.401   1.715   2.721
  273SOL    HW2 1158   0.416   1.878   2.712
  274SOL     OW 1159   1.795   1.066   2.735
  274SOL    HW1 1160   1.733   1.051   2.659
  274SOL    HW2 1161   1.743   1.077   2.820
  275SOL     OW 1162   1.227   1.550   3.368
  275SOL    HW1 1163   1.233   1.473   3.432
  275SOL    HW2 1164   1.175   1.524   3.288
  276SOL     OW 1165   0.321   0.943   2.104
  276SOL    HW1 1166   0.403   0.982   2.062
  276SOL    HW2 1167   0.294   0.861   2.055
  277SOL     OW 1168   1.458   0.735   2.590
  277SOL    HW1 1169   1.453   0.670   2.665
  277SOL    HW2 1170   1.538   0.794   2.603
  278SOL     OW 1171   0.461   1.266   3.589
  278SOL    HW1 1172   0.411   1.267   3.503
  278SOL    HW2 1173   0.398   1.248   3.665
  279SOL     OW 1174   1.111   1.776   2.099
  279SOL    HW1 1175   1.051   1.714   2.149
  279SOL    HW2 1176   1.142   1.732   2.014
  280SOL     OW 1177   0.202   0.285   3.360
  280SOL    HW1 1178   0.122   0.345   3.347
  280SOL    HW2 1179   0.192   0.236   3.446
  281SOL     OW 1180   1.632   1.377   1.943
  281SOL    HW1 1181   1.600   1.471   1.933
  281SOL    HW2 1182   1.556   1.314   1.931
  282SOL     OW 1183   0.464   1.743   2.185
  282SOL    HW1 1184   0.497   1.782   2.271
  282SOL    HW2 1185   0.540   1.736   2.120
  283SOL     OW 1186   1.400   0.107   2.288
  283SOL    HW1 1187   1.376   0.070   2.198
  283SOL    HW2 1188   1.499   0.123   2.292
  284SOL     OW 1189   0.249   1.785   3.103
  284SOL    HW1 1190   0.306   1.720   3.153
  284SOL    HW2 1191   0.233   1.752   3.010
  285SOL     OW 1192   0.940   1.698   2.766
  285SOL    HW1 1193   1.020   1.641   2.787
  285SOL    HW2 1194   0.891   1.658   2.689
  286SOL     OW 1195   0.382   0.700   2.342
  286SOL    HW1 1196   0.427   0.610   2.339
  286SOL    HW2 1197   0.288   0.689   2.375
  287SOL     OW 1198   1.547   0.222   3.591
  287SOL    HW1 1199   1.542   0.259   3.683
  287SOL    HW2 1200   1.475   0.153   3.579
  288SOL     OW 1201   0.614   0.122   1.979
  288SOL    HW1 1202   0.712   0.100   1.986
  288SOL    HW2 1203   0.583   0.105   1.886
  289SOL     OW 1204   0.781   0.264   3.611
  289SOL    HW1 1205   0.848   0.203   3.654
  289SOL    HW2 1206   0.708   0.283   3.676
  290SOL     OW 1207   0.888   1.514   3.057
  290SOL    HW1 1208   0.865   1.489   2.963
  290SOL    HW2 1209   0.949   1.445   3.096
  291SOL     OW 1210   1.351   0.590   3.295
  291SOL    HW1 1211   1.379   0.547   3.380
  291SOL    HW2 1212   1.376   0.686   3.296
  292SOL     OW 1213   0.803   1.402   2.786
  292SOL    HW1 1214   0.893   1.416   2.744
  292SOL    HW2 1215   0.732   1.404   2.715
  293SOL     OW 1216   0.922   0.503   2.761
  293SOL    HW1 1217   0.897   0.494   2.665
  293SOL    HW2 1218   0.970   0.421   2.792
  294SOL     OW 1219   0.539   0.064   2.374
  294SOL    HW1 1220   0.458   0.065   2.432
  294SOL    HW2 1221   0.542   0.147   2.319
  295SOL     OW 1222   1.434   1.188   1.903
  295SOL    HW1 1223   1.466   1.112   1.960
  295SOL    HW2 1224   1.342   1.215   1.933
  296SOL     OW 1225   0.297   0.035   2.033
  296SOL    HW1 1226   0.346   0.119   2.012
  296SOL    HW2 1227   0.359  -0.030   2.078
  297SOL     OW 1228   0.935   0.236   2.342
  297SOL    HW1 1229   0.887   0.277   2.264
  297SOL    HW2 1230   1.034   0.234   2.323
  298SOL     OW 1231   1.076   0.683   3.326
  298SOL    HW1 1232   0.996   0.622   3.329
  298SOL    HW2 1233   1.157   0.630   3.302
  299SOL     OW 1234   1.227   1.570   2.655
  299SOL    HW1 1235   1.248   1.644   2.590
  299SOL    HW2 1236   1.295   1.570   2.728
  300SOL     OW 1237   0.459   1.152   2.603
  300SOL    HW1 1238   0.388   1.125   2.668
  300SOL    HW2 1239   0.433   1.124   2.510
  301SOL     OW 1240   1.271   1.797   2.453
  301SOL    HW1 1241   1.315   1.861   2.389
  301SOL    HW2 1242   1.221   1.849   2.523
  302SOL     OW 1243   1.032   0.549   1.878
  302SOL    HW1 1244   0.991   0.631   1.839
  302SOL    HW2 1245   1.096   0.575   1.951
  303SOL     OW 1246   0.078   0.556   3.248
  303SOL    HW1 1247   0.170   0.555   3.207
  303SOL    HW2 1248   0.072   0.630   3.315
  304SOL     OW 1249   0.561   0.222   3.009
  304SOL    HW1 1250   0.599   0.138   3.046
  304SOL    HW2 1251   0.473   0.241   3.053
  305SOL     OW 1252   0.866   0.454   2.504
  305SOL    HW1 1253   0.834   0.526   2.442
  305SOL    HW2 1254   0.890   0.373   2.451
  306SOL     OW 1255   1.017   0.039   2.615
  306SOL    HW1 1256   0.945   0.044   2.546
  306SOL    HW2 1257   0.993  -0.030   2.684
  307SOL     OW 1258   1.429   1.173   2.729
  307SOL    HW1 1259   1.374   1.089   2.722
  307SOL    HW2 1260   1.455   1.202   2.637
  308SOL     OW 1261   1.466   0.590   2.854
  308SOL    HW1 1262   1.436   0.495   2.861
  308SOL    HW2 1263   1.539   0.606   2.920
  309SOL     OW 1264   1.857   0.833   2.239
  309SOL    HW1 1265   1.899   0.769   2.303
  309SOL    HW2 1266   1.819   0.782   2.161
  310SOL     OW 1267   0.488   1.385   2.036
  310SOL    HW1 1268   0.401   1.370   2.083
  310SOL    HW2 1269   0.471   1.411   1.941
  311SOL     OW 1270   1.664   1.280   2.519
  311SOL    HW1 1271   1.763   1.288   2.533
  311SOL    HW2 1272   1.619   1.364   2.550
  312SOL     OW 1273   1.390   0.575   1.940
  312SOL    HW1 1274   1.336   0.554   2.021
  312SOL    HW2 1275   1.481   0.534   1.949
  313SOL     OW 1276   0.527   0.256   2.190
  313SOL    HW1 1277   0.554   0.197   2.115
  313SOL    HW2 1278   0.527   0.351   2.159
  314SOL     OW 1279   1.754   1.223   3.450
  314SOL    HW1 1280   1.845   1.184   3.437
  314SOL    HW2 1281   1.762   1.319   3.474
  315SOL     OW 1282   1.064   1.347   3.202
  315SOL    HW1 1283   0.984   1.324   3.257
  315SOL    HW2 1284   1.147   1.321   3.251
  316SOL     OW 1285   1.592   1.629   3.487
  316SOL    HW1 1286   1.619   1.663   3.397
  316SOL    HW2 1287   1.671   1.591   3.533
  317SOL     OW 1288   1.111   1.195   2.962
  317SOL    HW1 1289   1.071   1.239   3.043
  317SOL    HW2 1290   1.070   1.232   2.879
  318SOL     OW 1291   1.638   1.099   2.941
  318SOL    HW1 1292   1.643   1.180   3.000
  318SOL    HW2 1293   1.552   1.101   2.890
  319SOL     OW 1294   0.915   0.089   3.264
  319SOL    HW1 1295   0.940   0.069   3.169
  319SOL    HW2 1296   0.987   0.145   3.306
  320SOL     OW 1297   0.980   1.116   3.581
  320SOL    HW1 1298   0.881   1.122   3.591
  320SOL    HW2 1299   1.003   1.036   3.525
  321SOL     OW 1300   0.705   1.050   2.230
  321SOL    HW1 1301   0.691   1.057   2.329
  321SOL    HW2 1302   0.789   0.999   2.212
  322SOL     OW 1303   0.410   0.813   3.113
  322SOL    HW1 1304   0.496   0.825   3.163
  322SOL    HW2 1305   0.368   0.726   3.140
  323SOL     OW 1306   1.274   0.386   3.124
  323SOL    HW1 1307   1.295   0.460   3.188
  323SOL    HW2 1308   1.185   0.403   3.081
  324SOL     OW 1309   0.064   1.564   3.193
  324SOL    HW1 1310   0.018   1.646   3.159
  324SOL    HW2 1311   0.162   1.583   3.202
  325SOL     OW 1312   0.367   1.100   2.363
  325SOL    HW1 1313   0.360   1.183   2.307
  325SOL    HW2 1314   0.371   1.020   2.303
  326SOL     OW 1315   0.566   0.537   2.727
  326SOL    HW1 1316   0.578   0.603   2.653
  326SOL    HW2 1317   0.612   0.571   2.810
  327SOL     OW 1318   1.252   1.348   2.250
  327SOL    HW1 1319   1.302   1.425   2.290
  327SOL    HW2 1320   1.157   1.350   2.282
  328SOL     OW 1321   1.272   1.445   3.004
  328SOL    HW1 1322   1.319   1.458   3.091
  328SOL    HW2 1323   1.206   1.371   3.013
  329SOL     OW 1324   1.582   0.639   2.334
  329SOL    HW1 1325   1.551   0.700   2.407
  329SOL    HW2 1326   1.632   0.691   2.265
  330SOL     OW 1327   0.354   1.510   3.191
  330SOL    HW1 1328   0.333   1.466   3.104
  330SOL    HW2 1329   0.451   1.536   3.194
  331SOL     OW 1330   0.402   0.751   3.460
  331SOL    HW1 1331   0.470   0.806   3.413
  331SOL    HW2 1332   0.442   0.663   3.487
  332SOL     OW 1333   1.587   0.779   3.532
  332SOL    HW1 1334   1.495   0.817   3.527
  332SOL    HW2 1335   1.647   0.826   3.467
  333SOL     OW 1336   1.013   0.105   3.632
  333SOL    HW1 1337   1.019   0.190   3.580
  333SOL    HW2 1338   1.045   0.029   3.575
  334SOL     OW 1339   0.504   0.050   3.602
  334SOL    HW1 1340   0.462  -0.007   3.532
  334SOL    HW2 1341   0.438   0.119   3.634
  335SOL     OW 1342   0.573   0.870   2.891
  335SOL    HW1 1343   0.617   0.959   2.882
  335SOL    HW2 1344   0.510   0.870   2.968
  336SOL     OW 1345   1.360   0.862   2.907
  336SOL    HW1 1346   1.285   0.862   2.841
  336SOL    HW2 1347   1.397   0.770   2.916
  337SOL     OW 1348   1.209   0.525   2.137
  337SOL    HW1 1349   1.222   0.441   2.191
  337SOL    HW2 1350   1.180   0.599   2.197
  338SOL     OW 1351   0.307   0.213   3.093
  338SOL    HW1 1352   0.284   0.250   3.183
  338SOL    HW2 1353   0.277   0.118   3.087
  339SOL     OW 1354   0.037   1.310   3.144
  339SOL    HW1 1355   0.090   1.261   3.212
  339SOL    HW2 1356   0.059   1.408   3.149
  340SOL     OW 1357   0.732   0.634   2.926
  340SOL    HW1 1358   0.791   0.608   2.850
  340SOL    HW2 1359   0.704   0.730   2.915
  341SOL     OW 1360   1.728   0.935   3.716
  341SOL    HW1 1361   1.682   0.928   3.627
  341SOL    HW2 1362   1.666   0.979   3.782
  342SOL     OW 1363   0.307   0.063   2.480
  342SOL    HW1 1364   0.296   0.157   2.513
  342SOL    HW2 1365   0.302   0.000   2.557
  343SOL     OW 1366   1.622   0.367   2.236
  343SOL    HW1 1367   1.624   0.291   2.300
  343SOL    HW2 1368   1.574   0.444   2.276
  344SOL     OW 1369   1.023   0.766   2.828
  344SOL    HW1 1370   1.038   0.787   2.924
  344SOL    HW2 1371   0.993   0.671   2.819
  345SOL     OW 1372   0.980   1.573   3.562
  345SOL    HW1 1373   0.960   1.617   3.474
  345SOL    HW2 1374   1.019   1.482   3.546
  346SOL     OW 1375   1.859   1.518   3.467
  346SOL    HW1 1376   1.873   1.545   3.372
  346SOL    HW2 1377   1.942   1.540   3.520
  347SOL     OW 1378   0.350   0.898   3.666
  347SOL    HW1 1379   0.426   0.942   3.714
  347SOL    HW2 1380   0.385   0.851   3.584
  348SOL     OW 1381   1.540   0.274   1.987
  348SOL    HW1 1382   1.479   0.199   2.010
  348SOL    HW2 1383   1.562   0.326   2.070
  349SOL     OW 1384   1.303   0.838   1.904
  349SOL    HW1 1385   1.337   0.745   1.919
  349SOL    HW2 1386   1.321   0.865   1.809
  350SOL     OW 1387   1.068   1.333   2.711
  350SOL    HW1 1388   1.075   1.249   2.656
  350SOL    HW2 1389   1.130   1.402   2.675
  351SOL     OW 1390   0.319   0.810   2.811
  351SOL    HW1 1391   0.412   0.846   2.816
  351SOL    HW2 1392   0.313   0.725   2.863
  352SOL     OW 1393   0.339   0.509   2.868
  352SOL    HW1 1394   0.287   0.426   2.851
  352SOL    HW2 1395   0.416   0.514   2.804
  353SOL     OW 1396   1.138   0.380   3.540
  353SOL    HW1 1397   1.093   0.443   3.604
  353SOL    HW2 1398   1.231   0.411   3.523
  354SOL     OW 1399   1.160   0.207   3.339
  354SOL    HW1 1400   1.160   0.271   3.416
  354SOL    HW2 1401   1.188   0.255   3.256
  355SOL     OW 1402   0.008   1.326   2.062
  355SOL    HW1 1403  -0.085   1.347   2.031
  355SOL    HW2 1404   0.018   1.227   2.075
  356SOL     OW 1405   0.088   1.801   2.789
  356SOL    HW1 1406   0.046   1.715   2.762
  356SOL    HW2 1407   0.182   1.804   2.755
  357SOL     OW 1408   0.504   1.568   2.772
  357SOL    HW1 1409   0.570   1.642   2.781
  357SOL    HW2 1410   0.548   1.489   2.730
  358SOL     OW 1411   1.002   0.796   3.100
  358SOL    HW1 1412   1.043   0.764   3.186
  358SOL    HW2 1413   0.906   0.769   3.097
  359SOL     OW 1414   0.040   0.544   2.976
  359SOL    HW1 1415   0.125   0.511   2.935
  359SOL    HW2 1416   0.053   0.559   3.074
  360SOL     OW 1417   0.189   0.520   3.584
  360SOL    HW1 1418   0.248   0.480   3.514
  360SOL    HW2 1419   0.131   0.591   3.543
  361SOL     OW 1420   1.369   0.950   3.522
  361SOL    HW1 1421   1.408   1.039   3.542
  361SOL    HW2 1422   1.379   0.930   3.425
  362SOL     OW 1423   0.815   0.572   2.187
  362SOL    HW1 1424   0.822   0.483   2.141
  362SOL    HW2 1425   0.721   0.606   2.179
  363SOL     OW 1426   1.657   0.604   3.068
  363SOL    HW1 1427   1.619   0.535   3.130
  363SOL    HW2 1428   1.739   0.568   3.024
  364SOL     OW 1429   0.252   1.564   3.606
  364SOL    HW1 1430   0.222   1.621   3.682
  364SOL    HW2 1431   0.245   1.467   3.632
  365SOL     OW 1432   0.671   0.464   3.131
  365SOL    HW1 1433   0.637   0.375   3.101
  365SOL    HW2 1434   0.697   0.518   3.051
  366SOL     OW 1435   0.930   1.678   3.327
  366SOL    HW1 1436   0.906   1.660   3.232
  366SOL    HW2 1437   0.960   1.772   3.337
  367SOL     OW 1438   0.473   0.500   2.053
  367SOL    HW1 1439   0.534   0.580   2.057
  367SOL    HW2 1440   0.378   0.531   2.060
  368SOL     OW 1441   0.159   1.137   3.328
  368SOL    HW1 1442   0.181   1.076   3.404
  368SOL    HW2 1443   0.169   1.088   3.242
  369SOL     OW 1444   1.347   1.059   3.096
  369SOL    HW1 1445   1.371   0.996   3.022
  369SOL    HW2 1446   1.257   1.099   3.078
  370SOL     OW 1447   1.302   0.855   2.171
  370SOL    HW1 1448   1.216   0.824   2.213
  370SOL    HW2 1449   1.298   0.841   2.072
  371SOL     OW 1450   1.759   1.747   3.016
  371SOL    HW1 1451   1.820   1.777   2.943
  371SOL    HW2 1452   1.721   1.658   2.994
  372SOL     OW 1453   1.252   1.731   2.990
  372SOL    HW1 1454   1.336   1.736   2.936
  372SOL    HW2 1455   1.229   1.635   3.008
  373SOL     OW 1456   0.083   1.258   2.884
  373SOL    HW1 1457   0.078   1.257   2.984
  373SOL    HW2 1458   0.000   1.217   2.846
  374SOL     OW 1459   0.688   1.662   3.578
  374SOL    HW1 1460   0.632   1.743   3.587
  374SOL    HW2 1461   0.740   1.666   3.492
  375SOL     OW 1462   1.726   0.135   2.385
  375SOL    HW1 1463   1.799   0.118   2.318
  375SOL    HW2 1464   1.695   0.048   2.423
  376SOL     OW 1465   1.388   1.573   2.339
  376SOL    HW1 1466   1.455   1.585   2.265
  376SOL    HW2 1467   1.348   1.662   2.362
  377SOL     OW 1468   0.130   1.794   3.713
  377SOL    HW1 1469   0.089   1.720   3.766
  377SOL    HW2 1470   0.194   1.845   3.771
  378SOL     OW 1471   1.280   0.927   2.534
  378SOL    HW1 1472   1.340   0.846   2.536
  378SOL    HW2 1473   1.320   0.996   2.474
  379SOL     OW 1474   0.830   1.273   3.284
  379SOL    HW1 1475   0.825   1.306   3.379
  379SOL    HW2 1476   0.744   1.292   3.238
  380SOL     OW 1477   0.672   1.616   2.016
  380SOL    HW1 1478   0.681   1.626   1.917
  380SOL    HW2 1479   0.632   1.527   2.037
  381SOL     OW 1480   1.650   1.720   3.256
  381SOL    HW1 1481   1.703   1.730   3.172
  381SOL    HW2 1482   1.623   1.810   3.290
  382SOL     OW 1483   1.841   0.175   2.825
  382SOL    HW1 1484   1.880   0.090   2.789
  382SOL    HW2 1485   1.743   0.177   2.806
  383SOL     OW 1486   0.263   0.326   2.582
  383SOL    HW1 1487   0.184   0.377   2.548
  383SOL    HW2 1488   0.254   0.311   2.680
  384SOL     OW 1489   1.194   1.612   1.893
  384SOL    HW1 1490   1.200   1.519   1.930
  384SOL    HW2 1491   1.135   1.612   1.813
  385SOL     OW 1492   0.822   1.002   3.234
  385SOL    HW1 1493   0.862   1.001   3.142
  385SOL    HW2 1494   0.832   1.094   3.274
  386SOL     OW 1495   0.916   0.910   2.153
  386SOL    HW1 1496   0.979   0.948   2.085
  386SOL    HW2 1497   0.956   0.827   2.192
  387SOL     OW 1498   1.504   1.607   1.906
  387SOL    HW1 1499   1.412   1.644   1.913
  387SOL    HW2 1500   1.542   1.627   1.816
  388SOL     OW 1501   0.372   1.288   3.352
  388SOL    HW1 1502   0.359   1.381   3.318
  388SOL    HW2 1503   0.288   1.236   3.339
  389SOL     OW 1504   1.614   1.292   3.151
  389SOL    HW1 1505   1.674   1.295   3.231
  389SOL    HW2 1506   1.539   1.356   3.164
  390SOL     OW 1507   1.039   1.098   2.558
  390SOL    HW1 1508   0.969   1.051   2.612
  390SOL    HW2 1509   1.098   1.030   2.515
  391SOL     OW 1510   1.014   0.236   2.833
  391SOL    HW1 1511   1.006   0.200   2.740
  391SOL    HW2 1512   1.012   0.160   2.898
  392SOL     OW 1513   0.590   1.487   2.353
  392SOL    HW1 1514   0.632   1.429   2.283
  392SOL    HW2 1515   0.546   1.566   2.309
  393SOL     OW 1516   1.709   0.385   3.243
  393SOL    HW1 1517   1.782   0.454   3.247
  393SOL    HW2 1518   1.737   0.310   3.184
  394SOL     OW 1519   0.255   1.348   2.152
  394SOL    HW1 1520   0.159   1.349   2.125
  394SOL    HW2 1521   0.267   1.401   2.236
  395SOL     OW 1522   0.105   1.013   3.588
  395SOL    HW1 1523   0.028   0.980   3.642
  395SOL    HW2 1524   0.190   0.983   3.630
  396SOL     OW 1525   0.672   0.203   3.351
  396SOL    HW1 1526   0.762   0.187   3.311
  396SOL    HW2 1527   0.680   0.208   3.450
  397SOL     OW 1528   0.075   0.345   1.895
  397SOL    HW1 1529  -0.017   0.317   1.866
  397SOL    HW2 1530   0.106   0.422   1.839
  398SOL     OW 1531   1.440   0.856   3.260
  398SOL    HW1 1532   1.383   0.908   3.197
  398SOL    HW2 1533   1.536   0.868   3.236
  399SOL     OW 1534   0.072   0.166   2.180
  399SOL    HW1 1535   0.055   0.249   2.126
  399SOL    HW2 1536   0.162   0.129   2.158
  400SOL     OW 1537   1.183   1.335   1.981
  400SOL    HW1 1538   1.084   1.324   1.983
  400SOL    HW2 1539   1.217   1.350   2.074
  401SOL     OW 1540   0.613   0.842   3.293
  401SOL    HW1 1541   0.669   0.923   3.276
  401SOL    HW2 1542   0.672   0.762   3.296
  402SOL     OW 1543   1.493   1.767   2.821
  402SOL    HW1 1544   1.526   1.831   2.752
  402SOL    HW2 1545   1.559   1.761   2.896
  403SOL     OW 1546   0.716   0.565   3.570
  403SOL    HW1 1547   0.735   0.630   3.644
  403SOL    HW2 1548   0.776   0.485   3.579
  404SOL     OW 1549   1.450   1.220   3.495
  404SOL    HW1 1550   1.441   1.210   3.594
  404SOL    HW2 1551   1.546   1.213   3.469
  405SOL     OW 1552   0.390   1.741   3.422
  405SOL    HW1 1553   0.299   1.782   3.420
  405SOL    HW2 1554   0.383   1.647   3.454
  406SOL     OW 1555   1.674   0.883   3.116
  406SOL    HW1 1556   1.647   0.794   3.079
  406SOL    HW2 1557   1.675   0.951   3.043
  407SOL     OW 1558   1.225   0.325   2.311
  407SOL    HW1 1559   1.290   0.251   2.300
  407SOL    HW2 1560   1.245   0.375   2.395
  408SOL     OW 1561   0.594   0.745   2.514
  408SOL    HW1 1562   0.644   0.830   2.495
  408SOL    HW2 1563   0.506   0.747   2.466
  409SOL     OW 1564   1.777   0.342   3.504
  409SOL    HW1 1565   1.760   0.373   3.410
  409SOL    HW2 1566   1.693   0.305   3.542
  410SOL     OW 1567   1.730   0.934   3.379
  410SOL    HW1 1568   1.768   1.025   3.394
  410SOL    HW2 1569   1.722   0.917   3.280
  411SOL     OW 1570   0.859   1.374   1.878
  411SOL    HW1 1571   0.813   1.389   1.966
  411SOL    HW2 1572   0.903   1.459   1.848
  412SOL     OW 1573   0.661   1.790   2.815
  412SOL    HW1 1574   0.615   1.878   2.802
  412SOL    HW2 1575   0.760   1.802   2.808
  413SOL     OW 1576   0.859   0.956   2.723
  413SOL    HW1 1577   0.913   0.887   2.771
  413SOL    HW2 1578   0.827   1.025   2.789
  414SOL     OW 1579   1.083   0.984   1.949
  414SOL    HW1 1580   1.060   1.037   1.867
  414SOL    HW2 1581   1.164   0.928   1.930
  415SOL     OW 1582   1.861   1.569   2.713
  415SOL    HW1 1583   1.790   1.557   2.643
  415SOL    HW2 1584   1.862   1.490   2.773
  416SOL     OW 1585   0.221   1.314   3.706
  416SOL    HW1 1586   0.156   1.241   3.685
  416SOL    HW2 1587   0.225   1.328   3.804
  417SOL     OW 1588   0.079   1.240   2.515
  417SOL    HW1 1589   0.078   1.193   2.603
  417SOL    HW2 1590   0.161   1.212   2.464
  418SOL     OW 1591   0.672   1.391   3.486
  418SOL    HW1 1592   0.594   1.341   3.524
  418SOL    HW2 1593   0.669   1.486   3.517
  419SOL     OW 1594   1.824   0.192   3.089
  419SOL    HW1 1595   1.820   0.102   3.133
  419SOL    HW2 1596   1.827   0.181   2.990
  420SOL     OW 1597   0.428   0.424   2.382
  420SOL    HW1 1598   0.458   0.352   2.320
  420SOL    HW2 1599   0.389   0.384   2.465
  421SOL     OW 1600   1.705   1.487   2.966
  421SOL    HW1 1601   1.612   1.462   2.939
  421SOL    HW2 1602   1.731   1.437   3.048
  422SOL     OW 1603   0.317   0.547   3.142
  422SOL    HW1 1604   0.355   0.488   3.214
  422SOL    HW2 1605   0.357   0.521   3.054
  423SOL     OW 1606   0.812   1.586   2.549
  423SOL    HW1 1607   0.844   1.596   2.455
  423SOL    HW2 1608   0.733   1.524   2.551
  424SOL     OW 1609   1.424   0.214   2.974
  424SOL    HW1 1610   1.476   0.149   3.029
  424SOL    HW2 1611   1.375   0.277   3.035
  425SOL     OW 1612   1.001   0.034   3.016
  425SOL    HW1 1613   0.938  -0.038   2.985
  425SOL    HW2 1614   1.094  -0.002   3.016
  426SOL     OW 1615   0.770   1.330   2.163
  426SOL    HW1 1616   0.724   1.243   2.180
  426SOL    HW2 1617   0.861   1.327   2.204
  427SOL     OW 1618   0.618   1.567   3.146
  427SOL    HW1 1619   0.613   1.649   3.203
  427SOL    HW2 1620   0.707   1.564   3.101
  428SOL     OW 1621   1.352   0.052   2.030
  428SOL    HW1 1622   1.387   0.011   1.946
  428SOL    HW2 1623   1.262   0.014   2.050
  429SOL     OW 1624   1.300   0.453   2.553
  429SOL    HW1 1625   1.241   0.533   2.557
  429SOL    HW2 1626   1.315   0.418   2.646
  430SOL     OW 1627   1.593   0.221   2.744
  430SOL    HW1 1628   1.509   0.220   2.798
  430SOL    HW2 1629   1.595   0.304   2.688
  431SOL     OW 1630   0.039   1.077   2.162
  431SOL    HW1 1631   0.138   1.066   2.153
  431SOL    HW2 1632  -0.001   0.991   2.194
  432SOL     OW 1633   0.875   1.646   2.199
  432SOL    HW1 1634   0.798   1.611   2.145
  432SOL    HW2 1635   0.843   1.717   2.261
  433SOL     OW 1636   0.230   0.628   3.837
  433SOL    HW1 1637   0.137   0.626   3.874
  433SOL    HW2 1638   0.231   0.589   3.745
  434SOL     OW 1639   0.225   0.275   4.720
  434SOL    HW1 1640   0.260   0.258   4.812
  434SOL    HW2 1641   0.137   0.230   4.708
  435SOL     OW 1642   0.019   0.368   4.371
  435SOL    HW1 1643  -0.063   0.411   4.410
  435SOL    HW2 1644  -0.009   0.295   4.308
  436SOL     OW 1645   0.569   1.275   4.889
  436SOL    HW1 1646   0.476   1.268   4.852
  436SOL    HW2 1647   0.580   1.364   4.933
  437SOL     OW 1648   1.555   1.511   4.427
  437SOL    HW1 1649   1.498   1.495   4.508
  437SOL    HW2 1650   1.496   1.521   4.347
  438SOL     OW 1651   1.135   0.703   4.441
  438SOL    HW1 1652   1.192   0.781   4.416
  438SOL    HW2 1653   1.075   0.729   4.517
  439SOL     OW 1654   1.755   0.607   3.955
  439SOL    HW1 1655   1.743   0.594   3.856
  439SOL    HW2 1656   1.725   0.526   4.004
  440SOL     OW 1657   0.768   1.144   4.747
  440SOL    HW1 1658   0.690   1.161   4.807
  440SOL    HW2 1659   0.802   1.231   4.711
  441SOL     OW 1660   0.685   1.012   4.389
  441SOL    HW1 1661   0.754   0.996   4.459
  441SOL    HW2 1662   0.612   1.069   4.427
  442SOL     OW 1663   0.335   1.435   4.785
  442SOL    HW1 1664   0.257   1.404   4.732
  442SOL    HW2 1665   0.393   1.493   4.728
  443SOL     OW 1666   1.603   0.447   4.461
  443SOL    HW1 1667   1.529   0.493   4.411
  443SOL    HW2 1668   1.654   0.515   4.514
  444SOL     OW 1669   0.231   1.713   4.207
  444SOL    HW1 1670   0.265   1.790   4.261
  444SOL    HW2 1671   0.275   1.713   4.117
  445SOL     OW 1672   0.230   1.434   4.262
  445SOL    HW1 1673   0.204   1.530   4.262
  445SOL    HW2 1674   0.159   1.380   4.307
  446SOL     OW 1675   0.240   1.091   4.610
  446SOL    HW1 1676   0.254   1.007   4.662
  446SOL    HW2 1677   0.185   1.155   4.665
  447SOL     OW 1678   0.620   1.786   5.163
  447SOL    HW1 1679   0.528   1.769   5.198
  447SOL    HW2 1680   0.648   1.878   5.189
  448SOL     OW 1681   0.606   0.964   3.847
  448SOL    HW1 1682   0.613   1.048   3.793
  448SOL    HW2 1683   0.652   0.977   3.935
  449SOL     OW 1684   0.122   0.643   4.287
  449SOL    HW1 1685   0.077   0.555   4.304
  449SOL    HW2 1686   0.121   0.697   4.371
  450SOL     OW 1687   1.842   1.767   4.083
  450SOL    HW1 1688   1.896   1.738   4.163
  450SOL    HW2 1689   1.872   1.857   4.054
  451SOL     OW 1690   0.027   1.596   3.841
  451SOL    HW1 1691   0.008   1.500   3.862
  451SOL    HW2 1692  -0.006   1.654   3.916
  452SOL     OW 1693   1.689   0.922   4.336
  452SOL    HW1 1694   1.784   0.893   4.344
  452SOL    HW2 1695   1.681   0.987   4.261
  453SOL     OW 1696   1.641   1.108   4.156
  453SOL    HW1 1697   1.727   1.110   4.104
  453SOL    HW2 1698   1.655   1.155   4.244
  454SOL     OW 1699   0.613   1.365   4.450
  454SOL    HW1 1700   0.564   1.278   4.459
  454SOL    HW2 1701   0.590   1.408   4.363
  455SOL     OW 1702   0.809   0.004   4.226
  455SOL    HW1 1703   0.849   0.095   4.217
  455SOL    HW2 1704   0.709   0.012   4.232
  456SOL     OW 1705   0.197   0.976   4.988
  456SOL    HW1 1706   0.286   0.931   4.974
  456SOL    HW2 1707   0.124   0.911   4.969
  457SOL     OW 1708   1.525   0.999   3.914
  457SOL    HW1 1709   1.462   0.923   3.927
  457SOL    HW2 1710   1.573   1.017   4.000
  458SOL     OW 1711   1.466   1.417   4.677
  458SOL    HW1 1712   1.407   1.423   4.757
  458SOL    HW2 1713   1.451   1.329   4.631
  459SOL     OW 1714   1.667   1.714   4.296
  459SOL    HW1 1715   1.626   1.691   4.208
  459SOL    HW2 1716   1.649   1.640   4.361
  460SOL     OW 1717   0.598   0.729   3.994
  460SOL    HW1 1718   0.622   0.798   3.926
  460SOL    HW2 1719   0.520   0.762   4.048
  461SOL     OW 1720   1.281   0.345   4.668
  461SOL    HW1 1721   1.195   0.295   4.655
  461SOL    HW2 1722   1.343   0.291   4.724
  462SOL     OW 1723   1.576   1.662   4.031
  462SOL    HW1 1724   1.665   1.708   4.034
  462SOL    HW2 1725   1.555   1.638   3.936
  463SOL     OW 1726   0.991   0.410   4.966
  463SOL    HW1 1727   0.914   0.444   5.020
  463SOL    HW2 1728   0.957   0.359   4.887
  464SOL     OW 1729   1.041   0.701   4.153
  464SOL    HW1 1730   1.067   0.697   4.249
  464SOL    HW2 1731   0.956   0.650   4.139
  465SOL     OW 1732   0.076   0.811   4.513
  465SOL    HW1 1733   0.175   0.799   4.522
  465SOL    HW2 1734   0.052   0.906   4.534
  466SOL     OW 1735   0.130   1.821   5.295
  466SOL    HW1 1736   0.120   1.806   5.394
  466SOL    HW2 1737   0.044   1.857   5.259
  467SOL     OW 1738   0.865   0.348   3.919
  467SOL    HW1 1739   0.924   0.411   3.870
  467SOL    HW2 1740   0.884   0.254   3.890
  468SOL     OW 1741   1.362   1.144   4.269
  468SOL    HW1 1742   1.445   1.115   4.221
  468SOL    HW2 1743   1.313   1.211   4.213
  469SOL     OW 1744   0.550   0.196   4.609
  469SOL    HW1 1745   0.545   0.191   4.709
  469SOL    HW2 1746   0.552   0.292   4.580
  470SOL     OW 1747   1.008   1.456   4.201
  470SOL    HW1 1748   0.962   1.528   4.149
  470SOL    HW2 1749   1.004   1.476   4.299
  471SOL     OW 1750   0.351   1.801   4.577
  471SOL    HW1 1751   0.401   1.715   4.583
  471SOL    HW2 1752   0.416   1.878   4.574
  472SOL     OW 1753   1.795   1.066   4.597
  472SOL    HW1 1754   1.733   1.051   4.521
  472SOL    HW2 1755   1.743   1.077   4.682
  473SOL     OW 1756   0.321   0.943   3.966
  473SOL    HW1 1757   0.403   0.982   3.924
  473SOL    HW2 1758   0.294   0.861   3.917
  474SOL     OW 1759   1.458   0.735   4.452
  474SOL    HW1 1760   1.453   0.670   4.527
  474SOL    HW2 1761   1.538   0.794   4.465
  475SOL     OW 1762   1.111   1.776   3.961
  475SOL    HW1 1763   1.051   1.714   4.011
  475SOL    HW2 1764   1.142   1.732   3.876
  476SOL     OW 1765   1.632   1.377   3.805
  476SOL    HW1 1766   1.600   1.471   3.795
  476SOL    HW2 1767   1.556   1.314   3.793
  477SOL     OW 1768   0.464   1.743   4.047
  477SOL    HW1 1769   0.497   1.782   4.133
  477SOL    HW2 1770   0.540   1.736   3.982
  478SOL     OW 1771   1.400   0.107   4.150
  478SOL    HW1 1772   1.376   0.070   4.060
  478SOL    HW2 1773   1.499   0.123   4.154
  479SOL     OW 1774   0.249   1.785   4.965
  479SOL    HW1 1775   0.306   1.720   5.015
  479SOL    HW2 1776   0.233   1.752   4.872
  480SOL     OW 1777   0.940   1.698   4.628
  480SOL    HW1 1778   1.020   1.641   4.649
  480SOL    HW2 1779   0.891   1.658   4.551
  481SOL     OW 1780   0.382   0.700   4.204
  481SOL    HW1 1781   0.427   0.610   4.201
  481SOL    HW2 1782   0.288   0.689   4.237
  482SOL     OW 1783   0.614   0.122   3.841
  482SOL    HW1 1784   0.712   0.100   3.848
  482SOL    HW2 1785   0.583   0.105   3.748
  483SOL     OW 1786   0.803   1.402   4.648
  483SOL    HW1 1787   0.893   1.416   4.606
  483SOL    HW2 1788   0.732   1.404   4.577
  484SOL     OW 1789   0.922   0.503   4.623
  484SOL    HW1 1790   0.897   0.494   4.527
  484SOL    HW2 1791   0.970   0.421   4.654
  485SOL     OW 1792   0.539   0.064   4.236
  485SOL    HW1 1793   0.458   0.065   4.294
  485SOL    HW2 1794   0.542   0.147   4.181
  486SOL     OW 1795   1.434   1.188   3.765
  486SOL    HW1 1796   1.466   1.112   3.822
  486SOL    HW2 1797   1.342   1.215   3.795
  487SOL     OW 1798   0.297   0.035   3.895
  487SOL    HW1 1799   0.346   0.119   3.874
  487SOL    HW2 1800   0.359  -0.030   3.940
  488SOL     OW 1801   0.935   0.236   4.204
  488SOL    HW1 1802   0.887   0.277   4.126
  488SOL    HW2 1803   1.034   0.234   4.185
  489SOL     OW 1804   1.227   1.570   4.517
  489SOL    HW1 1805   1.248   1.644   4.452
  489SOL    HW2 1806   1.295   1.570   4.590
  490SOL     OW 1807   0.459   1.152   4.465
  490SOL    HW1 1808   0.388   1.125   4.530
  490SOL    HW2 1809   0.433   1.124   4.372
  491SOL     OW 1810   1.271   1.797   4.315
  491SOL    HW1 1811   1.315   1.861   4.251
  491SOL    HW2 1812   1.221   1.849   4.385
  492SOL     OW 1813   1.032   0.549   3.740
  492SOL    HW1 1814   0.991   0.631   3.701
  492SOL    HW2 1815   1.096   0.575   3.813
  493SOL     OW 1816   0.561   0.222   4.871
  493SOL    HW1 1817   0.599   0.138   4.908
  493SOL    HW2 1818   0.473   0.241   4.915
  494SOL     OW 1819   0.866   0.454   4.366
  494SOL    HW1 1820   0.834   0.526   4.304
  494SOL    HW2 1821   0.890   0.373   4.313
  495SOL     OW 1822   1.017   0.039   4.477
  495SOL    HW1 1823   0.945   0.044   4.408
  495SOL    HW2 1824   0.993  -0.030   4.546
  496SOL     OW 1825   1.429   1.173   4.591
  496SOL    HW1 1826   1.374   1.089   4.584
  496SOL    HW2 1827   1.455   1.202   4.499
  497SOL     OW 1828   1.466   0.590   4.716
  497SOL    HW1 1829   1.436   0.495   4.723
  497SOL    HW2 1830   1.539   0.606   4.782
  498SOL     OW 1831   1.857   0.833   4.101
  498SOL    HW1 1832   1.899   0.769   4.165
  498SOL    HW2 1833   1.819   0.782   4.023
  499SOL     OW 1834   0.488   1.385   3.898
  499SOL    HW1 1835   0.401   1.370   3.945
  499SOL    HW2 1836   0.471   1.411   3.803
  500SOL     OW 1837   1.664   1.280   4.381
  500SOL    HW1 1838   1.763   1.288   4.395
  500SOL    HW2 1839   1.619   1.364   4.412
  501SOL     OW 1840   1.390   0.575   3.802
  501SOL    HW1 1841   1.336   0.554   3.883
  501SOL    HW2 1842   1.481   0.534   3.811
  502SOL     OW 1843   0.527   0.256   4.052
  502SOL    HW1 1844   0.554   0.197   3.977
  502SOL    HW2 1845   0.527   0.351   4.021
  503SOL     OW 1846   1.111   1.195   4.824
  503SOL    HW1 1847   1.071   1.239   4.905
  503SOL    HW2 1848   1.070   1.232   4.741
  504SOL     OW 1849   1.638   1.099   4.803
  504SOL    HW1 1850   1.643   1.180   4.862
  504SOL    HW2 1851   1.552   1.101   4.752
  505SOL     OW 1852   0.705   1.050   4.092
  505SOL    HW1 1853   0.691   1.057   4.191
  505SOL    HW2 1854   0.789   0.999   4.074
  506SOL     OW 1855   0.410   0.813   4.975
  506SOL    HW1 1856   0.496   0.825   5.025
  506SOL    HW2 1857   0.368   0.726   5.002
  507SOL     OW 1858   1.274   0.386   4.986
  507SOL    HW1 1859   1.295   0.460   5.050
  507SOL    HW2 1860   1.185   0.403   4.943
  508SOL     OW 1861   0.367   1.100   4.225
  508SOL    HW1 1862   0.360   1.183   4.169
  508SOL    HW2 1863   0.371   1.020   4.165
  509SOL     OW 1864   0.566   0.537   4.589
  509SOL    HW1 1865   0.578   0.603   4.515
  509SOL    HW2 1866   0.612   0.571   4.672
  510SOL     OW 1867   1.252   1.348   4.112
  510SOL    HW1 1868   1.302   1.425   4.152
  510SOL    HW2 1869   1.157   1.350   4.144
  511SOL     OW 1870   1.272   1.445   4.866
  511SOL    HW1 1871   1.319   1.458   4.953
  511SOL    HW2 1872   1.206   1.371   4.875
  512SOL     OW 1873   1.582   0.639   4.196
  512SOL    HW1 1874   1.551   0.700   4.269
  512SOL    HW2 1875   1.632   0.691   4.127
  513SOL     OW 1876   0.354   1.510   5.053
  513SOL    HW1 1877   0.333   1.466   4.966
  513SOL    HW2 1878   0.451   1.536   5.056
  514SOL     OW 1879   0.573   0.870   4.753
  514SOL    HW1 1880   0.617   0.959   4.744
  514SOL    HW2 1881   0.510   0.870   4.830
  515SOL     OW 1882   1.360   0.862   4.769
  515SOL    HW1 1883   1.285   0.862   4.703
  515SOL    HW2 1884   1.397   0.770   4.778
  516SOL     OW 1885   1.209   0.525   3.999
  516SOL    HW1 1886   1.222   0.441   4.053
  516SOL    HW2 1887   1.180   0.599   4.059
  517SOL     OW 1888   0.307   0.213   4.955
  517SOL    HW1 1889   0.284   0.250   5.045
  517SOL    HW2 1890   0.277   0.118   4.949
  518SOL     OW 1891   0.037   1.310   5.006
  518SOL    HW1 1892   0.090   1.261   5.074
  518SOL    HW2 1893   0.059   1.408   5.011
  519SOL     OW 1894   0.732   0.634   4.788
  519SOL    HW1 1895   0.791   0.608   4.712
  519SOL    HW2 1896   0.704   0.730   4.777
  520SOL     OW 1897   0.307   0.063   4.342
  520SOL    HW1 1898   0.296   0.157   4.375
  520SOL    HW2 1899   0.302   0.000   4.419
  521SOL     OW 1900   1.622   0.367   4.098
  521SOL    HW1 1901   1.624   0.291   4.162
  521SOL    HW2 1902   1.574   0.444   4.138
  522SOL     OW 1903   1.023   0.766   4.690
  522SOL    HW1 1904   1.038   0.787   4.786
  522SOL    HW2 1905   0.993   0.671   4.681
  523SOL     OW 1906   1.540   0.274   3.849
  523SOL    HW1 1907   1.479   0.199   3.872
  523SOL    HW2 1908   1.562   0.326   3.932
  524SOL     OW 1909   1.303   0.838   3.766
  524SOL    HW1 1910   1.337   0.745   3.781
  524SOL    HW2 1911   1.321   0.865   3.671
  525SOL     OW 1912   1.068   1.333   4.573
  525SOL    HW1 1913   1.075   1.249   4.518
  525SOL    HW2 1914   1.130   1.402   4.537
  526SOL     OW 1915   0.319   0.810   4.673
  526SOL    HW1 1916   0.412   0.846   4.678
  526SOL    HW2 1917   0.313   0.725   4.725
  527SOL     OW 1918   0.339   0.509   4.730
  527SOL    HW1 1919   0.287   0.426   4.713
  527SOL    HW2 1920   0.416   0.514   4.666
  528SOL     OW 1921   1.160   0.207   5.201
  528SOL    HW1 1922   1.160   0.271   5.278
  528SOL    HW2 1923   1.188   0.255   5.118
  529SOL     OW 1924   0.008   1.326   3.924
  529SOL    HW1 1925  -0.085   1.347   3.893
  529SOL    HW2 1926   0.018   1.227   3.937
  530SOL     OW 1927   0.088   1.801   4.651
  530SOL    HW1 1928   0.046   1.715   4.624
  530SOL    HW2 1929   0.182   1.804   4.617
  531SOL     OW 1930   0.504   1.568   4.634
  531SOL    HW1 1931   0.570   1.642   4.643
  531SOL    HW2 1932   0.548   1.489   4.592
  532SOL     OW 1933   1.002   0.796   4.962
  532SOL    HW1 1934   1.043   0.764   5.048
  532SOL    HW2 1935   0.906   0.769   4.959
  533SOL     OW 1936   0.040   0.544   4.838
  533SOL    HW1 1937   0.125   0.511   4.797
  533SOL    HW2 1938   0.053   0.559   4.936
  534SOL     OW 1939   0.815   0.572   4.049
  534SOL    HW1 1940   0.822   0.483   4.003
  534SOL    HW2 1941   0.721   0.606   4.041
  535SOL     OW 1942   1.657   0.604   4.930
  535SOL    HW1 1943   1.619   0.535   4.992
  535SOL    HW2 1944   1.739   0.568   4.886
  536SOL     OW 1945   0.671   0.464   4.993
  536SOL    HW1 1946   0.637   0.375   4.963
  536SOL    HW2 1947   0.697   0.518   4.913
  537SOL     OW 1948   0.930   1.678   5.189
  537SOL    HW1 1949   0.906   1.660   5.094
  537SOL    HW2 1950   0.960   1.772   5.199
  538SOL     OW 1951   0.473   0.500   3.915
  538SOL    HW1 1952   0.534   0.580   3.919
  538SOL    HW2 1953   0.378   0.531   3.922
  539SOL     OW 1954   1.347   1.059   4.958
  539SOL    HW1 1955   1.371   0.996   4.884
  539SOL    HW2 1956   1.257   1.099   4.940
  540SOL     OW 1957   1.302   0.855   4.033
  540SOL    HW1 1958   1.216   0.824   4.075
  540SOL    HW2 1959   1.298   0.841   3.934
  541SOL     OW 1960   1.759   1.747   4.878
  541SOL    HW1 1961   1.820   1.777   4.805
  541SOL    HW2 1962   1.721   1.658   4.856
  542SOL     OW 1963   1.252   1.731   4.852
  542SOL    HW1 1964   1.336   1.736   4.798
  542SOL    HW2 1965   1.229   1.635   4.870
  543SOL     OW 1966   0.083   1.258   4.746
  543SOL    HW1 1967   0.078   1.257   4.846
  543SOL    HW2 1968   0.000   1.217   4.708
  544SOL     OW 1969   1.726   0.135   4.247
  544SOL    HW1 1970   1.799   0.118   4.180
  544SOL    HW2 1971   1.695   0.048   4.285
  545SOL     OW 1972   1.388   1.573   4.201
  545SOL    HW1 1973   1.455   1.585   4.127
  545SOL    HW2 1974   1.348   1.662   4.224
  546SOL     OW 1975   1.280   0.927   4.396
  546SOL    HW1 1976   1.340   0.846   4.398
  546SOL    HW2 1977   1.320   0.996   4.336
  547SOL     OW 1978   0.672   1.616   3.878
  547SOL    HW1 1979   0.681   1.626   3.779
  547SOL    HW2 1980   0.632   1.527   3.899
  548SOL     OW 1981   1.650   1.720   5.118
  548SOL    HW1 1982   1.703   1.730   5.034
  548SOL    HW2 1983   1.623   1.810   5.152
  549SOL     OW 1984   1.841   0.175   4.687
  549SOL    HW1 1985   1.880   0.090   4.651
  549SOL    HW2 1986   1.743   0.177   4.668
  550SOL     OW 1987   0.263   0.326   4.444
  550SOL    HW1 1988   0.184   0.377   4.410
  550SOL    HW2 1989   0.254   0.311   4.542
  551SOL     OW 1990   1.194   1.612   3.755
  551SOL    HW1 1991   1.200   1.519   3.792
  551SOL    HW2 1992   1.135   1.612   3.675
  552SOL     OW 1993   0.822   1.002   5.096
  552SOL    HW1 1994   0.862   1.001   5.004
  552SOL    HW2 1995   0.832   1.094   5.136
  553SOL     OW 1996   0.916   0.910   4.015
  553SOL    HW1 1997   0.979   0.948   3.947
  553SOL    HW2 1998   0.956   0.827   4.054
  554SOL     OW 1999   1.504   1.607   3.768
  554SOL    HW1 2000   1.412   1.644   3.775
  554SOL    HW2 2001   1.542   1.627   3.678
  555SOL     OW 2002   1.039   1.098   4.420
  555SOL    HW1 2003   0.969   1.051   4.474
  555SOL    HW2 2004   1.098   1.030   4.377
  556SOL     OW 2005   1.014   0.236   4.695
  556SOL    HW1 2006   1.006   0.200   4.602
  556SOL    HW2 2007   1.012   0.160   4.760
  557SOL     OW 2008   0.590   1.487   4.215
  557SOL    HW1 2009   0.632   1.429   4.145
  557SOL    HW2 2010   0.546   1.566   4.171
  558SOL     OW 2011   1.709   0.385   5.105
  558SOL    HW1 2012   1.782   0.454   5.109
  558SOL    HW2 2013   1.737   0.310   5.046
  559SOL     OW 2014   0.255   1.348   4.014
  559SOL    HW1 2015   0.159   1.349   3.987
  559SOL    HW2 2016   0.267   1.401   4.098
  560SOL     OW 2017   0.075   0.345   3.757
  560SOL    HW1 2018  -0.017   0.317   3.728
  560SOL    HW2 2019   0.106   0.422   3.701
  561SOL     OW 2020   0.072   0.166   4.042
  561SOL    HW1 2021   0.055   0.249   3.988
  561SOL    HW2 2022   0.162   0.129   4.020
  562SOL     OW 2023   1.183   1.335   3.843
  562SOL    HW1 2024   1.084   1.324   3.845
  562SOL    HW2 2025   1.217   1.350   3.936
  563SOL     OW 2026   1.493   1.767   4.683
  563SOL    HW1 2027   1.526   1.831   4.614
  563SOL    HW2 2028   1.559   1.761   4.758
  564SOL     OW 2029   1.450   1.220   5.357
  564SOL    HW1 2030   1.441   1.210   5.456
  564SOL    HW2 2031   1.546   1.213   5.331
  565SOL     OW 2032   1.674   0.883   4.978
  565SOL    HW1 2033   1.647   0.794   4.941
  565SOL    HW2 2034   1.675   0.951   4.905
  566SOL     OW 2035   1.225   0.325   4.173
  566SOL    HW1 2036   1.290   0.251   4.162
  566SOL    HW2 2037   1.245   0.375   4.257
  567SOL     OW 2038   0.594   0.745   4.376
  567SOL    HW1 2039   0.644   0.830   4.357
  567SOL    HW2 2040   0.506   0.747   4.328
  568SOL     OW 2041   1.730   0.934   5.241
  568SOL    HW1 2042   1.768   1.025   5.256
  568SOL    HW2 2043   1.722   0.917   5.142
  569SOL     OW 2044   0.859   1.374   3.740
  569SOL    HW1 2045   0.813   1.389   3.828
  569SOL    HW2 2046   0.903   1.459   3.710
  570SOL     OW 2047   0.661   1.790   4.677
  570SOL    HW1 2048   0.615   1.878   4.664
  570SOL    HW2 2049   0.760   1.802   4.670
  571SOL     OW 2050   0.859   0.956   4.585
  571SOL    HW1 2051   0.913   0.887   4.633
  571SOL    HW2 2052   0.827   1.025   4.651
  572SOL     OW 2053   1.083   0.984   3.811
  572SOL    HW1 2054   1.060   1.037   3.729
  572SOL    HW2 2055   1.164   0.928   3.792
  573SOL     OW 2056   1.861   1.569   4.575
  573SOL    HW1 2057   1.790   1.557   4.505
  573SOL    HW2 2058   1.862   1.490   4.635
  574SOL     OW 2059   0.079   1.240   4.377
  574SOL    HW1 2060   0.078   1.193   4.465
  574SOL    HW2 2061   0.161   1.212   4.326
  575SOL     OW 2062   1.824   0.192   4.951
  575SOL    HW1 2063   1.820   0.102   4.995
  575SOL    HW2 2064   1.827   0.181   4.852
  576SOL     OW 2065   0.428   0.424   4.244
  576SOL    HW1 2066   0.458   0.352   4.182
  576SOL    HW2 2067   0.389   0.384   4.327
  577SOL     OW 2068   1.705   1.487   4.828
  577SOL    HW1 2069   1.612   1.462   4.801
  577SOL    HW2 2070   1.731   1.437   4.910
  578SOL     OW 2071   0.812   1.586   4.411
  578SOL    HW1 2072   0.844   1.596   4.317
  578SOL    HW2 2073   0.733   1.524   4.413
  579SOL     OW 2074   1.424   0.214   4.836
  579SOL    HW1 2075   1.476   0.149   4.891
  579SOL    HW2 2076   1.375   0.277   4.897
  580SOL     OW 2077   1.001   0.034   4.878
  580SOL    HW1 2078   0.938  -0.038   4.847
  580SOL    HW2 2079   1.094  -0.002   4.878
  581SOL     OW 2080   0.770   1.330   4.025
  581SOL    HW1 2081   0.724   1.243   4.042
  581SOL    HW2 2082   0.861   1.327   4.066
  582SOL     OW 2083   1.352   0.052   3.892
  582SOL    HW1 2084   1.387   0.011   3.808
  582SOL    HW2 2085   1.262   0.014   3.912
  583SOL     OW 2086   1.300   0.453   4.415
  583SOL    HW1 2087   1.241   0.533   4.419
  583SOL    HW2 2088   1.315   0.418   4.508
  584SOL     OW 2089   1.593   0.221   4.606
  584SOL    HW1 2090   1.509   0.220   4.660
  584SOL    HW2 2091   1.595   0.304   4.550
  585SOL     OW 2092   0.039   1.077   4.024
  585SOL    HW1 2093   0.138   1.066   4.015
  585SOL    HW2 2094  -0.001   0.991   4.056
  586SOL     OW 2095   0.875   1.646   4.061
  586SOL    HW1 2096   0.798   1.611   4.007
  586SOL    HW2 2097   0.843   1.717   4.123
  587SOL     OW 2098   0.230   2.490   0.113
  587SOL    HW1 2099   0.137   2.488   0.150
  587SOL    HW2 2100   0.231   2.451   0.021
  588SOL     OW 2101   0.225   2.137   0.996
  588SOL    HW1 2102   0.260   2.120   1.088
  588SOL    HW2 2103   0.137   2.092   0.984
  589SOL     OW 2104   0.019   2.230   0.647
  589SOL    HW1 2105  -0.063   2.273   0.686
  589SOL    HW2 2106  -0.009   2.157   0.584
  590SOL     OW 2107   0.569   3.137   1.165
  590SOL    HW1 2108   0.476   3.130   1.128
  590SOL    HW2 2109   0.580   3.226   1.209
  591SOL     OW 2110   1.555   3.373   0.703
  591SOL    HW1 2111   1.498   3.357   0.784
  591SOL    HW2 2112   1.496   3.383   0.623
  592SOL     OW 2113   1.135   2.565   0.717
  592SOL    HW1 2114   1.192   2.643   0.692
  592SOL    HW2 2115   1.075   2.591   0.793
  593SOL     OW 2116   0.768   3.006   1.023
  593SOL    HW1 2117   0.690   3.023   1.083
  593SOL    HW2 2118   0.802   3.093   0.987
  594SOL     OW 2119   0.850   2.660   1.823
  594SOL    HW1 2120   0.846   2.736   1.888
  594SOL    HW2 2121   0.872   2.696   1.732
  595SOL     OW 2122   0.685   2.874   0.665
  595SOL    HW1 2123   0.754   2.858   0.735
  595SOL    HW2 2124   0.612   2.931   0.703
  596SOL     OW 2125   0.686   3.023   1.803
  596SOL    HW1 2126   0.746   3.102   1.817
  596SOL    HW2 2127   0.600   3.054   1.762
  597SOL     OW 2128   0.335   3.297   1.061
  597SOL    HW1 2129   0.257   3.266   1.008
  597SOL    HW2 2130   0.393   3.355   1.004
  598SOL     OW 2131   1.460   3.367   1.339
  598SOL    HW1 2132   1.484   3.461   1.365
  598SOL    HW2 2133   1.444   3.313   1.421
  599SOL     OW 2134   0.438   2.254   1.499
  599SOL    HW1 2135   0.520   2.198   1.508
  599SOL    HW2 2136   0.357   2.196   1.503
  600SOL     OW 2137   1.603   2.309   0.737
  600SOL    HW1 2138   1.529   2.355   0.687
  600SOL    HW2 2139   1.654   2.377   0.790
  601SOL     OW 2140   0.231   3.575   0.483
  601SOL    HW1 2141   0.265   3.652   0.537
  601SOL    HW2 2142   0.275   3.575   0.393
  602SOL     OW 2143   1.127   3.203   1.690
  602SOL    HW1 2144   1.174   3.203   1.778
  602SOL    HW2 2145   1.079   3.116   1.679
  603SOL     OW 2146   0.230   3.296   0.538
  603SOL    HW1 2147   0.204   3.392   0.538
  603SOL    HW2 2148   0.159   3.242   0.583
  604SOL     OW 2149   0.240   2.953   0.886
  604SOL    HW1 2150   0.254   2.869   0.938
  604SOL    HW2 2151   0.185   3.017   0.941
  605SOL     OW 2152   0.620   3.648   1.439
  605SOL    HW1 2153   0.528   3.631   1.474
  605SOL    HW2 2154   0.648   3.740   1.465
  606SOL     OW 2155   0.606   2.826   0.123
  606SOL    HW1 2156   0.613   2.910   0.069
  606SOL    HW2 2157   0.652   2.839   0.211
  607SOL     OW 2158   1.594   1.976   1.480
  607SOL    HW1 2159   1.576   2.043   1.408
  607SOL    HW2 2160   1.591   2.022   1.569
  608SOL     OW 2161   0.122   2.505   0.563
  608SOL    HW1 2162   0.077   2.417   0.580
  608SOL    HW2 2163   0.121   2.559   0.647
  609SOL     OW 2164   1.842   3.629   0.359
  609SOL    HW1 2165   1.896   3.600   0.439
  609SOL    HW2 2166   1.872   3.719   0.330
  610SOL     OW 2167   0.027   3.458   0.117
  610SOL    HW1 2168   0.008   3.362   0.138
  610SOL    HW2 2169  -0.006   3.516   0.192
  611SOL     OW 2170   1.689   2.784   0.612
  611SOL    HW1 2171   1.784   2.755   0.620
  611SOL    HW2 2172   1.681   2.849   0.537
  612SOL     OW 2173   1.641   2.970   0.432
  612SOL    HW1 2174   1.727   2.972   0.380
  612SOL    HW2 2175   1.655   3.017   0.520
  613SOL     OW 2176   0.113   2.599   1.597
  613SOL    HW1 2177   0.201   2.586   1.642
  613SOL    HW2 2178   0.100   2.696   1.575
  614SOL     OW 2179   0.613   3.227   0.726
  614SOL    HW1 2180   0.564   3.140   0.735
  614SOL    HW2 2181   0.590   3.270   0.639
  615SOL     OW 2182   1.293   3.090   1.423
  615SOL    HW1 2183   1.330   3.017   1.365
  615SOL    HW2 2184   1.345   3.095   1.508
  616SOL     OW 2185   0.809   1.866   0.502
  616SOL    HW1 2186   0.849   1.957   0.493
  616SOL    HW2 2187   0.709   1.874   0.508
  617SOL     OW 2188   0.197   2.838   1.264
  617SOL    HW1 2189   0.286   2.793   1.250
  617SOL    HW2 2190   0.124   2.773   1.245
  618SOL     OW 2191   1.525   2.861   0.190
  618SOL    HW1 2192   1.462   2.785   0.203
  618SOL    HW2 2193   1.573   2.879   0.276
  619SOL     OW 2194   1.187   3.654   1.616
  619SOL    HW1 2195   1.211   3.714   1.540
  619SOL    HW2 2196   1.194   3.559   1.586
  620SOL     OW 2197   0.317   2.113   1.801
  620SOL    HW1 2198   0.388   2.184   1.807
  620SOL    HW2 2199   0.229   2.152   1.829
  621SOL     OW 2200   1.466   3.279   0.953
  621SOL    HW1 2201   1.407   3.285   1.033
  621SOL    HW2 2202   1.451   3.191   0.907
  622SOL     OW 2203   1.667   3.576   0.572
  622SOL    HW1 2204   1.626   3.553   0.484
  622SOL    HW2 2205   1.649   3.502   0.637
  623SOL     OW 2206   0.598   2.591   0.270
  623SOL    HW1 2207   0.622   2.660   0.202
  623SOL    HW2 2208   0.520   2.624   0.324
  624SOL     OW 2209   1.281   2.207   0.944
  624SOL    HW1 2210   1.195   2.157   0.931
  624SOL    HW2 2211   1.343   2.153   1.000
  625SOL     OW 2212   1.576   3.524   0.307
  625SOL    HW1 2213   1.665   3.570   0.310
  625SOL    HW2 2214   1.555   3.500   0.212
  626SOL     OW 2215   0.807   2.467   1.465
  626SOL    HW1 2216   0.760   2.464   1.554
  626SOL    HW2 2217   0.756   2.412   1.399
  627SOL     OW 2218   1.394   2.331   1.674
  627SOL    HW1 2219   1.374   2.374   1.762
  627SOL    HW2 2220   1.472   2.269   1.683
  628SOL     OW 2221   0.973   2.752   1.572
  628SOL    HW1 2222   1.019   2.668   1.543
  628SOL    HW2 2223   0.917   2.786   1.497
  629SOL     OW 2224   0.991   2.272   1.242
  629SOL    HW1 2225   0.914   2.306   1.296
  629SOL    HW2 2226   0.957   2.221   1.163
  630SOL     OW 2227   1.041   2.563   0.429
  630SOL    HW1 2228   1.067   2.559   0.525
  630SOL    HW2 2229   0.956   2.512   0.415
  631SOL     OW 2230   0.076   2.673   0.789
  631SOL    HW1 2231   0.175   2.661   0.798
  631SOL    HW2 2232   0.052   2.768   0.810
  632SOL     OW 2233   0.130   3.683   1.571
  632SOL    HW1 2234   0.120   3.668   1.670
  632SOL    HW2 2235   0.044   3.719   1.535
  633SOL     OW 2236   0.865   2.210   0.195
  633SOL    HW1 2237   0.924   2.273   0.146
  633SOL    HW2 2238   0.884   2.116   0.166
  634SOL     OW 2239   1.719   2.447   1.831
  634SOL    HW1 2240   1.693   2.536   1.795
  634SOL    HW2 2241   1.717   2.379   1.758
  635SOL     OW 2242   1.362   3.006   0.545
  635SOL    HW1 2243   1.445   2.977   0.497
  635SOL    HW2 2244   1.313   3.073   0.489
  636SOL     OW 2245   0.550   2.058   0.885
  636SOL    HW1 2246   0.545   2.053   0.985
  636SOL    HW2 2247   0.552   2.154   0.856
  637SOL     OW 2248   1.008   3.318   0.477
  637SOL    HW1 2249   0.962   3.390   0.425
  637SOL    HW2 2250   1.004   3.338   0.575
  638SOL     OW 2251   0.351   3.663   0.853
  638SOL    HW1 2252   0.401   3.577   0.859
  638SOL    HW2 2253   0.416   3.740   0.850
  639SOL     OW 2254   1.795   2.928   0.873
  639SOL    HW1 2255   1.733   2.913   0.797
  639SOL    HW2 2256   1.743   2.939   0.958
  640SOL     OW 2257   1.227   3.412   1.506
  640SOL    HW1 2258   1.233   3.335   1.570
  640SOL    HW2 2259   1.175   3.386   1.426
  641SOL     OW 2260   0.321   2.805   0.242
  641SOL    HW1 2261   0.403   2.844   0.200
  641SOL    HW2 2262   0.294   2.723   0.193
  642SOL     OW 2263   1.458   2.597   0.728
  642SOL    HW1 2264   1.453   2.532   0.803
  642SOL    HW2 2265   1.538   2.656   0.741
  643SOL     OW 2266   0.461   3.128   1.727
  643SOL    HW1 2267   0.411   3.129   1.641
  643SOL    HW2 2268   0.398   3.110   1.803
  644SOL     OW 2269   1.111   3.638   0.237
  644SOL    HW1 2270   1.051   3.576   0.287
  644SOL    HW2 2271   1.142   3.594   0.152
  645SOL     OW 2272   0.202   2.147   1.498
  645SOL    HW1 2273   0.122   2.207   1.485
  645SOL    HW2 2274   0.192   2.098   1.584
  646SOL     OW 2275   1.632   3.239   0.081
  646SOL    HW1 2276   1.600   3.333   0.071
  646SOL    HW2 2277   1.556   3.176   0.069
  647SOL     OW 2278   0.464   3.605   0.323
  647SOL    HW1 2279   0.497   3.644   0.409
  647SOL    HW2 2280   0.540   3.598   0.258
  648SOL     OW 2281   1.400   1.969   0.426
  648SOL    HW1 2282   1.376   1.932   0.336
  648SOL    HW2 2283   1.499   1.985   0.430
  649SOL     OW 2284   0.249   3.647   1.241
  649SOL    HW1 2285   0.306   3.582   1.291
  649SOL    HW2 2286   0.233   3.614   1.148
  650SOL     OW 2287   0.940   3.560   0.904
  650SOL    HW1 2288   1.020   3.503   0.925
  650SOL    HW2 2289   0.891   3.520   0.827
  651SOL     OW 2290   0.382   2.562   0.480
  651SOL    HW1 2291   0.427   2.472   0.477
  651SOL    HW2 2292   0.288   2.551   0.513
  652SOL     OW 2293   1.547   2.084   1.729
  652SOL    HW1 2294   1.542   2.121   1.821
  652SOL    HW2 2295   1.475   2.015   1.717
  653SOL     OW 2296   0.781   2.126   1.749
  653SOL    HW1 2297   0.848   2.065   1.792
  653SOL    HW2 2298   0.708   2.145   1.814
  654SOL     OW 2299   0.888   3.376   1.195
  654SOL    HW1 2300   0.865   3.351   1.101
  654SOL    HW2 2301   0.949   3.307   1.234
  655SOL     OW 2302   1.351   2.452   1.433
  655SOL    HW1 2303   1.379   2.409   1.518
  655SOL    HW2 2304   1.376   2.548   1.434
  656SOL     OW 2305   0.803   3.264   0.924
  656SOL    HW1 2306   0.893   3.278   0.882
  656SOL    HW2 2307   0.732   3.266   0.853
  657SOL     OW 2308   0.922   2.365   0.899
  657SOL    HW1 2309   0.897   2.356   0.803
  657SOL    HW2 2310   0.970   2.283   0.930
  658SOL     OW 2311   0.539   1.926   0.512
  658SOL    HW1 2312   0.458   1.927   0.570
  658SOL    HW2 2313   0.542   2.009   0.457
  659SOL     OW 2314   1.434   3.050   0.041
  659SOL    HW1 2315   1.466   2.974   0.098
  659SOL    HW2 2316   1.342   3.077   0.071
  660SOL     OW 2317   0.297   1.897   0.171
  660SOL    HW1 2318   0.346   1.981   0.150
  660SOL    HW2 2319   0.359   1.832   0.216
  661SOL     OW 2320   0.935   2.098   0.480
  661SOL    HW1 2321   0.887   2.139   0.402
  661SOL    HW2 2322   1.034   2.096   0.461
  662SOL     OW 2323   1.076   2.545   1.464
  662SOL    HW1 2324   0.996   2.484   1.467
  662SOL    HW2 2325   1.157   2.492   1.440
  663SOL     OW 2326   1.227   3.432   0.793
  663SOL    HW1 2327   1.248   3.506   0.728
  663SOL    HW2 2328   1.295   3.432   0.866
  664SOL     OW 2329   0.459   3.014   0.741
  664SOL    HW1 2330   0.388   2.987   0.806
  664SOL    HW2 2331   0.433   2.986   0.648
  665SOL     OW 2332   1.271   3.659   0.591
  665SOL    HW1 2333   1.315   3.723   0.527
  665SOL    HW2 2334   1.221   3.711   0.661
  666SOL     OW 2335   1.032   2.411   0.016
  666SOL    HW1 2336   0.991   2.493  -0.023
  666SOL    HW2 2337   1.096   2.437   0.089
  667SOL     OW 2338   0.078   2.418   1.386
  667SOL    HW1 2339   0.170   2.417   1.345
  667SOL    HW2 2340   0.072   2.492   1.453
  668SOL     OW 2341   0.561   2.084   1.147
  668SOL    HW1 2342   0.599   2.000   1.184
  668SOL    HW2 2343   0.473   2.103   1.191
  669SOL     OW 2344   0.866   2.316   0.642
  669SOL    HW1 2345   0.834   2.388   0.580
  669SOL    HW2 2346   0.890   2.235   0.589
  670SOL     OW 2347   1.017   1.901   0.753
  670SOL    HW1 2348   0.945   1.906   0.684
  670SOL    HW2 2349   0.993   1.832   0.822
  671SOL     OW 2350   1.429   3.035   0.867
  671SOL    HW1 2351   1.374   2.951   0.860
  671SOL    HW2 2352   1.455   3.064   0.775
  672SOL     OW 2353   1.466   2.452   0.992
  672SOL    HW1 2354   1.436   2.357   0.999
  672SOL    HW2 2355   1.539   2.468   1.058
  673SOL     OW 2356   0.488   3.247   0.174
  673SOL    HW1 2357   0.401   3.232   0.221
  673SOL    HW2 2358   0.471   3.273   0.079
  674SOL     OW 2359   1.664   3.142   0.657
  674SOL    HW1 2360   1.763   3.150   0.671
  674SOL    HW2 2361   1.619   3.226   0.688
  675SOL     OW 2362   0.527   2.118   0.328
  675SOL    HW1 2363   0.554   2.059   0.253
  675SOL    HW2 2364   0.527   2.213   0.297
  676SOL     OW 2365   1.754   3.085   1.588
  676SOL    HW1 2366   1.845   3.046   1.575
  676SOL    HW2 2367   1.762   3.181   1.612
  677SOL     OW 2368   1.064   3.209   1.340
  677SOL    HW1 2369   0.984   3.186   1.395
  677SOL    HW2 2370   1.147   3.183   1.389
  678SOL     OW 2371   1.592   3.491   1.625
  678SOL    HW1 2372   1.619   3.525   1.535
  678SOL    HW2 2373   1.671   3.453   1.671
  679SOL     OW 2374   1.111   3.057   1.100
  679SOL    HW1 2375   1.071   3.101   1.181
  679SOL    HW2 2376   1.070   3.094   1.017
  680SOL     OW 2377   1.638   2.961   1.079
  680SOL    HW1 2378   1.643   3.042   1.138
  680SOL    HW2 2379   1.552   2.963   1.028
  681SOL     OW 2380   0.915   1.951   1.402
  681SOL    HW1 2381   0.940   1.931   1.307
  681SOL    HW2 2382   0.987   2.007   1.444
  682SOL     OW 2383   0.980   2.978   1.719
  682SOL    HW1 2384   0.881   2.984   1.729
  682SOL    HW2 2385   1.003   2.898   1.663
  683SOL     OW 2386   0.705   2.912   0.368
  683SOL    HW1 2387   0.691   2.919   0.467
  683SOL    HW2 2388   0.789   2.861   0.350
  684SOL     OW 2389   0.410   2.675   1.251
  684SOL    HW1 2390   0.496   2.687   1.301
  684SOL    HW2 2391   0.368   2.588   1.278
  685SOL     OW 2392   1.274   2.248   1.262
  685SOL    HW1 2393   1.295   2.322   1.326
  685SOL    HW2 2394   1.185   2.265   1.219
  686SOL     OW 2395   0.064   3.426   1.331
  686SOL    HW1 2396   0.018   3.508   1.297
  686SOL    HW2 2397   0.162   3.445   1.340
  687SOL     OW 2398   0.367   2.962   0.501
  687SOL    HW1 2399   0.360   3.045   0.445
  687SOL    HW2 2400   0.371   2.882   0.441
  688SOL     OW 2401   0.566   2.399   0.865
  688SOL    HW1 2402   0.578   2.465   0.791
  688SOL    HW2 2403   0.612   2.433   0.948
  689SOL     OW 2404   1.252   3.210   0.388
  689SOL    HW1 2405   1.302   3.287   0.428
  689SOL    HW2 2406   1.157   3.212   0.420
  690SOL     OW 2407   1.272   3.307   1.142
  690SOL    HW1 2408   1.319   3.320   1.229
  690SOL    HW2 2409   1.206   3.233   1.151
  691SOL     OW 2410   1.582   2.501   0.472
  691SOL    HW1 2411   1.551   2.562   0.545
  691SOL    HW2 2412   1.632   2.553   0.403
  692SOL     OW 2413   0.354   3.372   1.329
  692SOL    HW1 2414   0.333   3.328   1.242
  692SOL    HW2 2415   0.451   3.398   1.332
  693SOL     OW 2416   0.402   2.613   1.598
  693SOL    HW1 2417   0.470   2.668   1.551
  693SOL    HW2 2418   0.442   2.525   1.625
  694SOL     OW 2419   1.587   2.641   1.670
  694SOL    HW1 2420   1.495   2.679   1.665
  694SOL    HW2 2421   1.647   2.688   1.605
  695SOL     OW 2422   1.013   1.967   1.770
  695SOL    HW1 2423   1.019   2.052   1.718
  695SOL    HW2 2424   1.045   1.891   1.713
  696SOL     OW 2425   0.504   1.912   1.740
  696SOL    HW1 2426   0.462   1.855   1.670
  696SOL    HW2 2427   0.438   1.981   1.772
  697SOL     OW 2428   0.573   2.732   1.029
  697SOL    HW1 2429   0.617   2.821   1.020
  697SOL    HW2 2430   0.510   2.732   1.106
  698SOL     OW 2431   1.360   2.724   1.045
  698SOL    HW1 2432   1.285   2.724   0.979
  698SOL    HW2 2433   1.397   2.632   1.054
  699SOL     OW 2434   1.209   2.387   0.275
  699SOL    HW1 2435   1.222   2.303   0.329
  699SOL    HW2 2436   1.180   2.461   0.335
  700SOL     OW 2437   0.307   2.075   1.231
  700SOL    HW1 2438   0.284   2.112   1.321
  700SOL    HW2 2439   0.277   1.980   1.225
  701SOL     OW 2440   0.037   3.172   1.282
  701SOL    HW1 2441   0.090   3.123   1.350
  701SOL    HW2 2442   0.059   3.270   1.287
  702SOL     OW 2443   0.732   2.496   1.064
  702SOL    HW1 2444   0.791   2.470   0.988
  702SOL    HW2 2445   0.704   2.592   1.053
  703SOL     OW 2446   1.728   2.797   1.854
  703SOL    HW1 2447   1.682   2.790   1.765
  703SOL    HW2 2448   1.666   2.841   1.920
  704SOL     OW 2449   0.307   1.925   0.618
  704SOL    HW1 2450   0.296   2.019   0.651
  704SOL    HW2 2451   0.302   1.862   0.695
  705SOL     OW 2452   1.023   2.628   0.966
  705SOL    HW1 2453   1.038   2.649   1.062
  705SOL    HW2 2454   0.993   2.533   0.957
  706SOL     OW 2455   0.980   3.435   1.700
  706SOL    HW1 2456   0.960   3.479   1.612
  706SOL    HW2 2457   1.019   3.344   1.684
  707SOL     OW 2458   1.859   3.380   1.605
  707SOL    HW1 2459   1.873   3.407   1.510
  707SOL    HW2 2460   1.942   3.402   1.658
  708SOL     OW 2461   0.350   2.760   1.804
  708SOL    HW1 2462   0.426   2.804   1.852
  708SOL    HW2 2463   0.385   2.713   1.722
  709SOL     OW 2464   1.540   2.136   0.125
  709SOL    HW1 2465   1.479   2.061   0.148
  709SOL    HW2 2466   1.562   2.188   0.208
  710SOL     OW 2467   1.303   2.700   0.042
  710SOL    HW1 2468   1.337   2.607   0.057
  710SOL    HW2 2469   1.321   2.727  -0.053
  711SOL     OW 2470   1.068   3.195   0.849
  711SOL    HW1 2471   1.075   3.111   0.794
  711SOL    HW2 2472   1.130   3.264   0.813
  712SOL     OW 2473   0.319   2.672   0.949
  712SOL    HW1 2474   0.412   2.708   0.954
  712SOL    HW2 2475   0.313   2.587   1.001
  713SOL     OW 2476   0.339   2.371   1.006
  713SOL    HW1 2477   0.287   2.288   0.989
  713SOL    HW2 2478   0.416   2.376   0.942
  714SOL     OW 2479   1.138   2.242   1.678
  714SOL    HW1 2480   1.093   2.305   1.742
  714SOL    HW2 2481   1.231   2.273   1.661
  715SOL     OW 2482   1.160   2.069   1.477
  715SOL    HW1 2483   1.160   2.133   1.554
  715SOL    HW2 2484   1.188   2.117   1.394
  716SOL     OW 2485   0.008   3.188   0.200
  716SOL    HW1 2486  -0.085   3.209   0.169
  716SOL    HW2 2487   0.018   3.089   0.213
  717SOL     OW 2488   0.088   3.663   0.927
  717SOL    HW1 2489   0.046   3.577   0.900
  717SOL    HW2 2490   0.182   3.666   0.893
  718SOL     OW 2491   0.504   3.430   0.910
  718SOL    HW1 2492   0.570   3.504   0.919
  718SOL    HW2 2493   0.548   3.351   0.868
  719SOL     OW 2494   1.002   2.658   1.238
  719SOL    HW1 2495   1.043   2.626   1.324
  719SOL    HW2 2496   0.906   2.631   1.235
  720SOL     OW 2497   0.040   2.406   1.114
  720SOL    HW1 2498   0.125   2.373   1.073
  720SOL    HW2 2499   0.053   2.421   1.212
  721SOL     OW 2500   0.189   2.382   1.722
  721SOL    HW1 2501   0.248   2.342   1.652
  721SOL    HW2 2502   0.131   2.453   1.681
  722SOL     OW 2503   1.369   2.812   1.660
  722SOL    HW1 2504   1.408   2.901   1.680
  722SOL    HW2 2505   1.379   2.792   1.563
  723SOL     OW 2506   0.815   2.434   0.325
  723SOL    HW1 2507   0.822   2.345   0.279
  723SOL    HW2 2508   0.721   2.468   0.317
  724SOL     OW 2509   1.657   2.466   1.206
  724SOL    HW1 2510   1.619   2.397   1.268
  724SOL    HW2 2511   1.739   2.430   1.162
  725SOL     OW 2512   0.252   3.426   1.744
  725SOL    HW1 2513   0.222   3.483   1.820
  725SOL    HW2 2514   0.245   3.329   1.770
  726SOL     OW 2515   0.671   2.326   1.269
  726SOL    HW1 2516   0.637   2.237   1.239
  726SOL    HW2 2517   0.697   2.380   1.189
  727SOL     OW 2518   0.930   3.540   1.465
  727SOL    HW1 2519   0.906   3.522   1.370
  727SOL    HW2 2520   0.960   3.634   1.475
  728SOL     OW 2521   0.473   2.362   0.191
  728SOL    HW1 2522   0.534   2.442   0.195
  728SOL    HW2 2523   0.378   2.393   0.198
  729SOL     OW 2524   0.159   2.999   1.466
  729SOL    HW1 2525   0.181   2.938   1.542
  729SOL    HW2 2526   0.169   2.950   1.380
  730SOL     OW 2527   1.347   2.921   1.234
  730SOL    HW1 2528   1.371   2.858   1.160
  730SOL    HW2 2529   1.257   2.961   1.216
  731SOL     OW 2530   1.302   2.717   0.309
  731SOL    HW1 2531   1.216   2.686   0.351
  731SOL    HW2 2532   1.298   2.703   0.210
  732SOL     OW 2533   1.759   3.609   1.154
  732SOL    HW1 2534   1.820   3.639   1.081
  732SOL    HW2 2535   1.721   3.520   1.132
  733SOL     OW 2536   1.252   3.593   1.128
  733SOL    HW1 2537   1.336   3.598   1.074
  733SOL    HW2 2538   1.229   3.497   1.146
  734SOL     OW 2539   0.083   3.120   1.022
  734SOL    HW1 2540   0.078   3.119   1.122
  734SOL    HW2 2541   0.000   3.079   0.984
  735SOL     OW 2542   0.688   3.524   1.716
  735SOL    HW1 2543   0.632   3.605   1.725
  735SOL    HW2 2544   0.740   3.528   1.630
  736SOL     OW 2545   0.903   1.948   0.133
  736SOL    HW1 2546   0.954   1.949   0.047
  736SOL    HW2 2547   0.959   1.906   0.204
  737SOL     OW 2548   1.726   1.997   0.523
  737SOL    HW1 2549   1.799   1.980   0.456
  737SOL    HW2 2550   1.695   1.910   0.561
  738SOL     OW 2551   1.388   3.435   0.477
  738SOL    HW1 2552   1.455   3.447   0.403
  738SOL    HW2 2553   1.348   3.524   0.500
  739SOL     OW 2554   0.130   3.656   1.851
  739SOL    HW1 2555   0.089   3.582   1.904
  739SOL    HW2 2556   0.194   3.707   1.909
  740SOL     OW 2557   1.280   2.789   0.672
  740SOL    HW1 2558   1.340   2.708   0.674
  740SOL    HW2 2559   1.320   2.858   0.612
  741SOL     OW 2560   0.830   3.135   1.422
  741SOL    HW1 2561   0.825   3.168   1.517
  741SOL    HW2 2562   0.744   3.154   1.376
  742SOL     OW 2563   0.672   3.478   0.154
  742SOL    HW1 2564   0.681   3.488   0.055
  742SOL    HW2 2565   0.632   3.389   0.175
  743SOL     OW 2566   1.650   3.582   1.394
  743SOL    HW1 2567   1.703   3.592   1.310
  743SOL    HW2 2568   1.623   3.672   1.428
  744SOL     OW 2569   1.841   2.037   0.963
  744SOL    HW1 2570   1.880   1.952   0.927
  744SOL    HW2 2571   1.743   2.039   0.944
  745SOL     OW 2572   0.263   2.188   0.720
  745SOL    HW1 2573   0.184   2.239   0.686
  745SOL    HW2 2574   0.254   2.173   0.818
  746SOL     OW 2575   1.194   3.474   0.031
  746SOL    HW1 2576   1.200   3.381   0.068
  746SOL    HW2 2577   1.135   3.474  -0.049
  747SOL     OW 2578   0.822   2.864   1.372
  747SOL    HW1 2579   0.862   2.863   1.280
  747SOL    HW2 2580   0.832   2.956   1.412
  748SOL     OW 2581   0.916   2.772   0.291
  748SOL    HW1 2582   0.979   2.810   0.223
  748SOL    HW2 2583   0.956   2.689   0.330
  749SOL     OW 2584   1.504   3.469   0.044
  749SOL    HW1 2585   1.412   3.506   0.051
  749SOL    HW2 2586   1.542   3.489  -0.046
  750SOL     OW 2587   0.372   3.150   1.490
  750SOL    HW1 2588   0.359   3.243   1.456
  750SOL    HW2 2589   0.288   3.098   1.477
  751SOL     OW 2590   1.614   3.154   1.289
  751SOL    HW1 2591   1.674   3.157   1.369
  751SOL    HW2 2592   1.539   3.218   1.302
  752SOL     OW 2593   1.039   2.960   0.696
  752SOL    HW1 2594   0.969   2.913   0.750
  752SOL    HW2 2595   1.098   2.892   0.653
  753SOL     OW 2596   1.014   2.098   0.971
  753SOL    HW1 2597   1.006   2.062   0.878
  753SOL    HW2 2598   1.012   2.022   1.036
  754SOL     OW 2599   0.590   3.349   0.491
  754SOL    HW1 2600   0.632   3.291   0.421
  754SOL    HW2 2601   0.546   3.428   0.447
  755SOL     OW 2602   1.709   2.247   1.381
  755SOL    HW1 2603   1.782   2.316   1.385
  755SOL    HW2 2604   1.737   2.172   1.322
  756SOL     OW 2605   0.255   3.210   0.290
  756SOL    HW1 2606   0.159   3.211   0.263
  756SOL    HW2 2607   0.267   3.263   0.374
  757SOL     OW 2608   0.105   2.875   1.726
  757SOL    HW1 2609   0.028   2.842   1.780
  757SOL    HW2 2610   0.190   2.845   1.768
  758SOL     OW 2611   0.672   2.065   1.489
  758SOL    HW1 2612   0.762   2.049   1.449
  758SOL    HW2 2613   0.680   2.070   1.588
  759SOL     OW 2614   0.075   2.207   0.033
  759SOL    HW1 2615  -0.017   2.179   0.004
  759SOL    HW2 2616   0.106   2.284  -0.023
  760SOL     OW 2617   1.440   2.718   1.398
  760SOL    HW1 2618   1.383   2.770   1.335
  760SOL    HW2 2619   1.536   2.730   1.374
  761SOL     OW 2620   0.072   2.028   0.318
  761SOL    HW1 2621   0.055   2.111   0.264
  761SOL    HW2 2622   0.162   1.991   0.296
  762SOL     OW 2623   1.183   3.197   0.119
  762SOL    HW1 2624   1.084   3.186   0.121
  762SOL    HW2 2625   1.217   3.212   0.212
  763SOL     OW 2626   0.613   2.704   1.431
  763SOL    HW1 2627   0.669   2.785   1.414
  763SOL    HW2 2628   0.672   2.624   1.434
  764SOL     OW 2629   1.493   3.629   0.959
  764SOL    HW1 2630   1.526   3.693   0.890
  764SOL    HW2 2631   1.559   3.623   1.034
  765SOL     OW 2632   0.716   2.427   1.708
  765SOL    HW1 2633   0.735   2.492   1.782
  765SOL    HW2 2634   0.776   2.347   1.717
  766SOL     OW 2635   1.450   3.082   1.633
  766SOL    HW1 2636   1.441   3.072   1.732
  766SOL    HW2 2637   1.546   3.075   1.607
  767SOL     OW 2638   0.390   3.603   1.560
  767SOL    HW1 2639   0.299   3.644   1.558
  767SOL    HW2 2640   0.383   3.509   1.592
  768SOL     OW 2641   1.674   2.745   1.254
  768SOL    HW1 2642   1.647   2.656   1.217
  768SOL    HW2 2643   1.675   2.813   1.181
  769SOL     OW 2644   1.225   2.187   0.449
  769SOL    HW1 2645   1.290   2.113   0.438
  769SOL    HW2 2646   1.245   2.237   0.533
  770SOL     OW 2647   0.594   2.607   0.652
  770SOL    HW1 2648   0.644   2.692   0.633
  770SOL    HW2 2649   0.506   2.609   0.604
  771SOL     OW 2650   1.777   2.204   1.642
  771SOL    HW1 2651   1.760   2.235   1.548
  771SOL    HW2 2652   1.693   2.167   1.680
  772SOL     OW 2653   1.730   2.796   1.517
  772SOL    HW1 2654   1.768   2.887   1.532
  772SOL    HW2 2655   1.722   2.779   1.418
  773SOL     OW 2656   0.859   3.236   0.016
  773SOL    HW1 2657   0.813   3.251   0.104
  773SOL    HW2 2658   0.903   3.321  -0.014
  774SOL     OW 2659   0.661   3.652   0.953
  774SOL    HW1 2660   0.615   3.740   0.940
  774SOL    HW2 2661   0.760   3.664   0.946
  775SOL     OW 2662   0.859   2.818   0.861
  775SOL    HW1 2663   0.913   2.749   0.909
  775SOL    HW2 2664   0.827   2.887   0.927
  776SOL     OW 2665   1.083   2.846   0.087
  776SOL    HW1 2666   1.060   2.899   0.005
  776SOL    HW2 2667   1.164   2.790   0.068
  777SOL     OW 2668   1.861   3.431   0.851
  777SOL    HW1 2669   1.790   3.419   0.781
  777SOL    HW2 2670   1.862   3.352   0.911
  778SOL     OW 2671   0.221   3.176   1.844
  778SOL    HW1 2672   0.156   3.103   1.823
  778SOL    HW2 2673   0.225   3.190   1.942
  779SOL     OW 2674   0.079   3.102   0.653
  779SOL    HW1 2675   0.078   3.055   0.741
  779SOL    HW2 2676   0.161   3.074   0.602
  780SOL     OW 2677   0.672   3.253   1.624
  780SOL    HW1 2678   0.594   3.203   1.662
  780SOL    HW2 2679   0.669   3.348   1.655
  781SOL     OW 2680   1.824   2.054   1.227
  781SOL    HW1 2681   1.820   1.964   1.271
  781SOL    HW2 2682   1.827   2.043   1.128
  782SOL     OW 2683   0.428   2.286   0.520
  782SOL    HW1 2684   0.458   2.214   0.458
  782SOL    HW2 2685   0.389   2.246   0.603
  783SOL     OW 2686   1.705   3.349   1.104
  783SOL    HW1 2687   1.612   3.324   1.077
  783SOL    HW2 2688   1.731   3.299   1.186
  784SOL     OW 2689   0.317   2.409   1.280
  784SOL    HW1 2690   0.355   2.350   1.352
  784SOL    HW2 2691   0.357   2.383   1.192
  785SOL     OW 2692   0.812   3.448   0.687
  785SOL    HW1 2693   0.844   3.458   0.593
  785SOL    HW2 2694   0.733   3.386   0.689
  786SOL     OW 2695   1.424   2.076   1.112
  786SOL    HW1 2696   1.476   2.011   1.167
  786SOL    HW2 2697   1.375   2.139   1.173
  787SOL     OW 2698   1.001   1.896   1.154
  787SOL    HW1 2699   0.938   1.824   1.123
  787SOL    HW2 2700   1.094   1.860   1.154
  788SOL     OW 2701   0.770   3.192   0.301
  788SOL    HW1 2702   0.724   3.105   0.318
  788SOL    HW2 2703   0.861   3.189   0.342
  789SOL     OW 2704   0.618   3.429   1.284
  789SOL    HW1 2705   0.613   3.511   1.341
  789SOL    HW2 2706   0.707   3.426   1.239
  790SOL     OW 2707   1.352   1.914   0.168
  790SOL    HW1 2708   1.387   1.873   0.084
  790SOL    HW2 2709   1.262   1.876   0.188
  791SOL     OW 2710   1.300   2.315   0.691
  791SOL    HW1 2711   1.241   2.395   0.695
  791SOL    HW2 2712   1.315   2.280   0.784
  792SOL     OW 2713   1.593   2.083   0.882
  792SOL    HW1 2714   1.509   2.082   0.936
  792SOL    HW2 2715   1.595   2.166   0.826
  793SOL     OW 2716   0.039   2.939   0.300
  793SOL    HW1 2717   0.138   2.928   0.291
  793SOL    HW2 2718  -0.001   2.853   0.332
  794SOL     OW 2719   0.875   3.508   0.337
  794SOL    HW1 2720   0.798   3.473   0.283
  794SOL    HW2 2721   0.843   3.579   0.399
  795SOL     OW 2722   0.230   2.490   1.975
  795SOL    HW1 2723   0.137   2.488   2.012
  795SOL    HW2 2724   0.231   2.451   1.883
  796SOL     OW 2725   0.225   2.137   2.858
  796SOL    HW1 2726   0.260   2.120   2.950
  796SOL    HW2 2727   0.137   2.092   2.846
  797SOL     OW 2728   0.019   2.230   2.509
  797SOL    HW1 2729  -0.063   2.273   2.548
  797SOL    HW2 2730  -0.009   2.157   2.446
  798SOL     OW 2731   0.569   3.137   3.027
  798SOL    HW1 2732   0.476   3.130   2.990
  798SOL    HW2 2733   0.580   3.226   3.071
  799SOL     OW 2734   1.555   3.373   2.565
  799SOL    HW1 2735   1.498   3.357   2.646
  799SOL    HW2 2736   1.496   3.383   2.485
  800SOL     OW 2737   1.135   2.565   2.579
  800SOL    HW1 2738   1.192   2.643   2.554
  800SOL    HW2 2739   1.075   2.591   2.655
  801SOL     OW 2740   1.755   2.469   2.093
  801SOL    HW1 2741   1.743   2.456   1.994
  801SOL    HW2 2742   1.725   2.388   2.142
  802SOL     OW 2743   0.768   3.006   2.885
  802SOL    HW1 2744   0.690   3.023   2.945
  802SOL    HW2 2745   0.802   3.093   2.849
  803SOL     OW 2746   0.850   2.660   3.685
  803SOL    HW1 2747   0.846   2.736   3.750
  803SOL    HW2 2748   0.872   2.696   3.594
  804SOL     OW 2749   0.685   2.874   2.527
  804SOL    HW1 2750   0.754   2.858   2.597
  804SOL    HW2 2751   0.612   2.931   2.565
  805SOL     OW 2752   0.686   3.023   3.665
  805SOL    HW1 2753   0.746   3.102   3.679
  805SOL    HW2 2754   0.600   3.054   3.624
  806SOL     OW 2755   0.335   3.297   2.923
  806SOL    HW1 2756   0.257   3.266   2.870
  806SOL    HW2 2757   0.393   3.355   2.866
  807SOL     OW 2758   1.460   3.367   3.201
  807SOL    HW1 2759   1.484   3.461   3.227
  807SOL    HW2 2760   1.444   3.313   3.283
  808SOL     OW 2761   0.438   2.254   3.361
  808SOL    HW1 2762   0.520   2.198   3.370
  808SOL    HW2 2763   0.357   2.196   3.365
  809SOL     OW 2764   1.603   2.309   2.599
  809SOL    HW1 2765   1.529   2.355   2.549
  809SOL    HW2 2766   1.654   2.377   2.652
  810SOL     OW 2767   0.231   3.575   2.345
  810SOL    HW1 2768   0.265   3.652   2.399
  810SOL    HW2 2769   0.275   3.575   2.255
  811SOL     OW 2770   1.127   3.203   3.552
  811SOL    HW1 2771   1.174   3.203   3.640
  811SOL    HW2 2772   1.079   3.116   3.541
  812SOL     OW 2773   0.230   3.296   2.400
  812SOL    HW1 2774   0.204   3.392   2.400
  812SOL    HW2 2775   0.159   3.242   2.445
  813SOL     OW 2776   0.240   2.953   2.748
  813SOL    HW1 2777   0.254   2.869   2.800
  813SOL    HW2 2778   0.185   3.017   2.803
  814SOL     OW 2779   0.620   3.648   3.301
  814SOL    HW1 2780   0.528   3.631   3.336
  814SOL    HW2 2781   0.648   3.740   3.327
  815SOL     OW 2782   0.606   2.826   1.985
  815SOL    HW1 2783   0.613   2.910   1.931
  815SOL    HW2 2784   0.652   2.839   2.073
  816SOL     OW 2785   1.594   1.976   3.342
  816SOL    HW1 2786   1.576   2.043   3.270
  816SOL    HW2 2787   1.591   2.022   3.431
  817SOL     OW 2788   0.122   2.505   2.425
  817SOL    HW1 2789   0.077   2.417   2.442
  817SOL    HW2 2790   0.121   2.559   2.509
  818SOL     OW 2791   1.842   3.629   2.221
  818SOL    HW1 2792   1.896   3.600   2.301
  818SOL    HW2 2793   1.872   3.719   2.192
  819SOL     OW 2794   0.027   3.458   1.979
  819SOL    HW1 2795   0.008   3.362   2.000
  819SOL    HW2 2796  -0.006   3.516   2.054
  820SOL     OW 2797   1.689   2.784   2.474
  820SOL    HW1 2798   1.784   2.755   2.482
  820SOL    HW2 2799   1.681   2.849   2.399
  821SOL     OW 2800   1.641   2.970   2.294
  821SOL    HW1 2801   1.727   2.972   2.242
  821SOL    HW2 2802   1.655   3.017   2.382
  822SOL     OW 2803   0.113   2.599   3.459
  822SOL    HW1 2804   0.201   2.586   3.504
  822SOL    HW2 2805   0.100   2.696   3.437
  823SOL     OW 2806   0.613   3.227   2.588
  823SOL    HW1 2807   0.564   3.140   2.597
  823SOL    HW2 2808   0.590   3.270   2.501
  824SOL     OW 2809   1.293   3.090   3.285
  824SOL    HW1 2810   1.330   3.017   3.227
  824SOL    HW2 2811   1.345   3.095   3.370
  825SOL     OW 2812   0.809   1.866   2.364
  825SOL    HW1 2813   0.849   1.957   2.355
  825SOL    HW2 2814   0.709   1.874   2.370
  826SOL     OW 2815   0.197   2.838   3.126
  826SOL    HW1 2816   0.286   2.793   3.112
  826SOL    HW2 2817   0.124   2.773   3.107
  827SOL     OW 2818   1.525   2.861   2.052
  827SOL    HW1 2819   1.462   2.785   2.065
  827SOL    HW2 2820   1.573   2.879   2.138
  828SOL     OW 2821   1.187   3.654   3.478
  828SOL    HW1 2822   1.211   3.714   3.402
  828SOL    HW2 2823   1.194   3.559   3.448
  829SOL     OW 2824   0.317   2.113   3.663
  829SOL    HW1 2825   0.388   2.184   3.669
  829SOL    HW2 2826   0.229   2.152   3.691
  830SOL     OW 2827   1.466   3.279   2.815
  830SOL    HW1 2828   1.407   3.285   2.895
  830SOL    HW2 2829   1.451   3.191   2.769
  831SOL     OW 2830   1.667   3.576   2.434
  831SOL    HW1 2831   1.626   3.553   2.346
  831SOL    HW2 2832   1.649   3.502   2.499
  832SOL     OW 2833   0.598   2.591   2.132
  832SOL    HW1 2834   0.622   2.660   2.064
  832SOL    HW2 2835   0.520   2.624   2.186
  833SOL     OW 2836   1.281   2.207   2.806
  833SOL    HW1 2837   1.195   2.157   2.793
  833SOL    HW2 2838   1.343   2.153   2.862
  834SOL     OW 2839   1.576   3.524   2.169
  834SOL    HW1 2840   1.665   3.570   2.172
  834SOL    HW2 2841   1.555   3.500   2.074
  835SOL     OW 2842   0.807   2.467   3.327
  835SOL    HW1 2843   0.760   2.464   3.416
  835SOL    HW2 2844   0.756   2.412   3.261
  836SOL     OW 2845   1.394   2.331   3.536
  836SOL    HW1 2846   1.374   2.374   3.624
  836SOL    HW2 2847   1.472   2.269   3.545
  837SOL     OW 2848   0.973   2.752   3.434
  837SOL    HW1 2849   1.019   2.668   3.405
  837SOL    HW2 2850   0.917   2.786   3.359
  838SOL     OW 2851   0.991   2.272   3.104
  838SOL    HW1 2852   0.914   2.306   3.158
  838SOL    HW2 2853   0.957   2.221   3.025
  839SOL     OW 2854   1.041   2.563   2.291
  839SOL    HW1 2855   1.067   2.559   2.387
  839SOL    HW2 2856   0.956   2.512   2.277
  840SOL     OW 2857   0.076   2.673   2.651
  840SOL    HW1 2858   0.175   2.661   2.660
  840SOL    HW2 2859   0.052   2.768   2.672
  841SOL     OW 2860   0.130   3.683   3.433
  841SOL    HW1 2861   0.120   3.668   3.532
  841SOL    HW2 2862   0.044   3.719   3.397
  842SOL     OW 2863   0.865   2.210   2.057
  842SOL    HW1 2864   0.924   2.273   2.008
  842SOL    HW2 2865   0.884   2.116   2.028
  843SOL     OW 2866   1.719   2.447   3.693
  843SOL    HW1 2867   1.693   2.536   3.657
  843SOL    HW2 2868   1.717   2.379   3.620
  844SOL     OW 2869   1.362   3.006   2.407
  844SOL    HW1 2870   1.445   2.977   2.359
  844SOL    HW2 2871   1.313   3.073   2.351
  845SOL     OW 2872   0.550   2.058   2.747
  845SOL    HW1 2873   0.545   2.053   2.847
  845SOL    HW2 2874   0.552   2.154   2.718
  846SOL     OW 2875   1.008   3.318   2.339
  846SOL    HW1 2876   0.962   3.390   2.287
  846SOL    HW2 2877   1.004   3.338   2.437
  847SOL     OW 2878   0.351   3.663   2.715
  847SOL    HW1 2879   0.401   3.577   2.721
  847SOL    HW2 2880   0.416   3.740   2.712
  848SOL     OW 2881   1.795   2.928   2.735
  848SOL    HW1 2882   1.733   2.913   2.659
  848SOL    HW2 2883   1.743   2.939   2.820
  849SOL     OW 2884   1.227   3.412   3.368
  849SOL    HW1 2885   1.233   3.335   3.432
  849SOL    HW2 2886   1.175   3.386   3.288
  850SOL     OW 2887   0.321   2.805   2.104
  850SOL    HW1 2888   0.403   2.844   2.062
  850SOL    HW2 2889   0.294   2.723   2.055
  851SOL     OW 2890   1.458   2.597   2.590
  851SOL    HW1 2891   1.453   2.532   2.665
  851SOL    HW2 2892   1.538   2.656   2.603
  852SOL     OW 2893   0.461   3.128   3.589
  852SOL    HW1 2894   0.411   3.129   3.503
  852SOL    HW2 2895   0.398   3.110   3.665
  853SOL     OW 2896   1.111   3.638   2.099
  853SOL    HW1 2897   1.051   3.576   2.149
  853SOL    HW2 2898   1.142   3.594   2.014
  854SOL     OW 2899   0.202   2.147   3.360
  854SOL    HW1 2900   0.122   2.207   3.347
  854SOL    HW2 2901   0.192   2.098   3.446
  855SOL     OW 2902   1.632   3.239   1.943
  855SOL    HW1 2903   1.600   3.333   1.933
  855SOL    HW2 2904   1.556   3.176   1.931
  856SOL     OW 2905   0.464   3.605   2.185
  856SOL    HW1 2906   0.497   3.644   2.271
  856SOL    HW2 2907   0.540   3.598   2.120
  857SOL     OW 2908   1.400   1.969   2.288
  857SOL    HW1 2909   1.376   1.932   2.198
  857SOL    HW2 2910   1.499   1.985   2.292
  858SOL     OW 2911   0.249   3.647   3.103
  858SOL    HW1 2912   0.306   3.582   3.153
  858SOL    HW2 2913   0.233   3.614   3.010
  859SOL     OW 2914   0.940   3.560   2.766
  859SOL    HW1 2915   1.020   3.503   2.787
  859SOL    HW2 2916   0.891   3.520   2.689
  860SOL     OW 2917   0.382   2.562   2.342
  860SOL    HW1 2918   0.427   2.472   2.339
  860SOL    HW2 2919   0.288   2.551   2.375
  861SOL     OW 2920   1.547   2.084   3.591
  861SOL    HW1 2921   1.542   2.121   3.683
  861SOL    HW2 2922   1.475   2.015   3.579
  862SOL     OW 2923   0.614   1.984   1.979
  862SOL    HW1 2924   0.712   1.962   1.986
  862SOL    HW2 2925   0.583   1.967   1.886
  863SOL     OW 2926   0.781   2.126   3.611
  863SOL    HW1 2927   0.848   2.065   3.654
  863SOL    HW2 2928   0.708   2.145   3.676
  864SOL     OW 2929   0.888   3.376   3.057
  864SOL    HW1 2930   0.865   3.351   2.963
  864SOL    HW2 2931   0.949   3.307   3.096
  865SOL     OW 2932   1.351   2.452   3.295
  865SOL    HW1 2933   1.379   2.409   3.380
  865SOL    HW2 2934   1.376   2.548   3.296
  866SOL     OW 2935   0.803   3.264   2.786
  866SOL    HW1 2936   0.893   3.278   2.744
  866SOL    HW2 2937   0.732   3.266   2.715
  867SOL     OW 2938   0.922   2.365   2.761
  867SOL    HW1 2939   0.897   2.356   2.665
  867SOL    HW2 2940   0.970   2.283   2.792
  868SOL     OW 2941   0.539   1.926   2.374
  868SOL    HW1 2942   0.458   1.927   2.432
  868SOL    HW2 2943   0.542   2.009   2.319
  869SOL     OW 2944   1.434   3.050   1.903
  869SOL    HW1 2945   1.466   2.974   1.960
  869SOL    HW2 2946   1.342   3.077   1.933
  870SOL     OW 2947   0.297   1.897   2.033
  870SOL    HW1 2948   0.346   1.981   2.012
  870SOL    HW2 2949   0.359   1.832   2.078
  871SOL     OW 2950   0.935   2.098   2.342
  871SOL    HW1 2951   0.887   2.139   2.264
  871SOL    HW2 2952   1.034   2.096   2.323
  872SOL     OW 2953   1.076   2.545   3.326
  872SOL    HW1 2954   0.996   2.484   3.329
  872SOL    HW2 2955   1.157   2.492   3.302
  873SOL     OW 2956   1.227   3.432   2.655
  873SOL    HW1 2957   1.248   3.506   2.590
  873SOL    HW2 2958   1.295   3.432   2.728
  874SOL     OW 2959   0.459   3.014   2.603
  874SOL    HW1 2960   0.388   2.987   2.668
  874SOL    HW2 2961   0.433   2.986   2.510
  875SOL     OW 2962   1.271   3.659   2.453
  875SOL    HW1 2963   1.315   3.723   2.389
  875SOL    HW2 2964   1.221   3.711   2.523
  876SOL     OW 2965   1.032   2.411   1.878
  876SOL    HW1 2966   0.991   2.493   1.839
  876SOL    HW2 2967   1.096   2.437   1.951
  877SOL     OW 2968   0.078   2.418   3.248
  877SOL    HW1 2969   0.170   2.417   3.207
  877SOL    HW2 2970   0.072   2.492   3.315
  878SOL     OW 2971   0.561   2.084   3.009
  878SOL    HW1 2972   0.599   2.000   3.046
  878SOL    HW2 2973   0.473   2.103   3.053
  879SOL     OW 2974   0.866   2.316   2.504
  879SOL    HW1 2975   0.834   2.388   2.442
  879SOL    HW2 2976   0.890   2.235   2.451
  880SOL     OW 2977   1.017   1.901   2.615
  880SOL    HW1 2978   0.945   1.906   2.546
  880SOL    HW2 2979   0.993   1.832   2.684
  881SOL     OW 2980   1.429   3.035   2.729
  881SOL    HW1 2981   1.374   2.951   2.722
  881SOL    HW2 2982   1.455   3.064   2.637
  882SOL     OW 2983   1.466   2.452   2.854
  882SOL    HW1 2984   1.436   2.357   2.861
  882SOL    HW2 2985   1.539   2.468   2.920
  883SOL     OW 2986   1.857   2.695   2.239
  883SOL    HW1 2987   1.899   2.631   2.303
  883SOL    HW2 2988   1.819   2.644   2.161
  884SOL     OW 2989   0.488   3.247   2.036
  884SOL    HW1 2990   0.401   3.232   2.083
  884SOL    HW2 2991   0.471   3.273   1.941
  885SOL     OW 2992   1.664   3.142   2.519
  885SOL    HW1 2993   1.763   3.150   2.533
  885SOL    HW2 2994   1.619   3.226   2.550
  886SOL     OW 2995   1.390   2.437   1.940
  886SOL    HW1 2996   1.336   2.416   2.021
  886SOL    HW2 2997   1.481   2.396   1.949
  887SOL     OW 2998   0.527   2.118   2.190
  887SOL    HW1 2999   0.554   2.059   2.115
  887SOL    HW2 3000   0.527   2.213   2.159
  888SOL     OW 3001   1.754   3.085   3.450
  888SOL    HW1 3002   1.845   3.046   3.437
  888SOL    HW2 3003   1.762   3.181   3.474
  889SOL     OW 3004   1.064   3.209   3.202
  889SOL    HW1 3005   0.984   3.186   3.257
  889SOL    HW2 3006   1.147   3.183   3.251
  890SOL     OW 3007   1.111   3.057   2.962
  890SOL    HW1 3008   1.071   3.101   3.043
  890SOL    HW2 3009   1.070   3.094   2.879
  891SOL     OW 3010   1.638   2.961   2.941
  891SOL    HW1 3011   1.643   3.042   3.000
  891SOL    HW2 3012   1.552   2.963   2.890
  892SOL     OW 3013   0.915   1.951   3.264
  892SOL    HW1 3014   0.940   1.931   3.169
  892SOL    HW2 3015   0.987   2.007   3.306
  893SOL     OW 3016   0.980   2.978   3.581
  893SOL    HW1 3017   0.881   2.984   3.591
  893SOL    HW2 3018   1.003   2.898   3.525
  894SOL     OW 3019   0.705   2.912   2.230
  894SOL    HW1 3020   0.691   2.919   2.329
  894SOL    HW2 3021   0.789   2.861   2.212
  895SOL     OW 3022   0.410   2.675   3.113
  895SOL    HW1 3023   0.496   2.687   3.163
  895SOL    HW2 3024   0.368   2.588   3.140
  896SOL     OW 3025   1.274   2.248   3.124
  896SOL    HW1 3026   1.295   2.322   3.188
  896SOL    HW2 3027   1.185   2.265   3.081
  897SOL     OW 3028   0.064   3.426   3.193
  897SOL    HW1 3029   0.018   3.508   3.159
  897SOL    HW2 3030   0.162   3.445   3.202
  898SOL     OW 3031   0.367   2.962   2.363
  898SOL    HW1 3032   0.360   3.045   2.307
  898SOL    HW2 3033   0.371   2.882   2.303
  899SOL     OW 3034   0.566   2.399   2.727
  899SOL    HW1 3035   0.578   2.465   2.653
  899SOL    HW2 3036   0.612   2.433   2.810
  900SOL     OW 3037   1.252   3.210   2.250
  900SOL    HW1 3038   1.302   3.287   2.290
  900SOL    HW2 3039   1.157   3.212   2.282
  901SOL     OW 3040   1.272   3.307   3.004
  901SOL    HW1 3041   1.319   3.320   3.091
  901SOL    HW2 3042   1.206   3.233   3.013
  902SOL     OW 3043   1.582   2.501   2.334
  902SOL    HW1 3044   1.551   2.562   2.407
  902SOL    HW2 3045   1.632   2.553   2.265
  903SOL     OW 3046   0.354   3.372   3.191
  903SOL    HW1 3047   0.333   3.328   3.104
  903SOL    HW2 3048   0.451   3.398   3.194
  904SOL     OW 3049   0.402   2.613   3.460
  904SOL    HW1 3050   0.470   2.668   3.413
  904SOL    HW2 3051   0.442   2.525   3.487
  905SOL     OW 3052   1.587   2.641   3.532
  905SOL    HW1 3053   1.495   2.679   3.527
  905SOL    HW2 3054   1.647   2.688   3.467
  906SOL     OW 3055   1.013   1.967   3.632
  906SOL    HW1 3056   1.019   2.052   3.580
  906SOL    HW2 3057   1.045   1.891   3.575
  907SOL     OW 3058   0.504   1.912   3.602
  907SOL    HW1 3059   0.462   1.855   3.532
  907SOL    HW2 3060   0.438   1.981   3.634
  908SOL     OW 3061   0.573   2.732   2.891
  908SOL    HW1 3062   0.617   2.821   2.882
  908SOL    HW2 3063   0.510   2.732   2.968
  909SOL     OW 3064   1.360   2.724   2.907
  909SOL    HW1 3065   1.285   2.724   2.841
  909SOL    HW2 3066   1.397   2.632   2.916
  910SOL     OW 3067   1.209   2.387   2.137
  910SOL    HW1 3068   1.222   2.303   2.191
  910SOL    HW2 3069   1.180   2.461   2.197
  911SOL     OW 3070   0.307   2.075   3.093
  911SOL    HW1 3071   0.284   2.112   3.183
  911SOL    HW2 3072   0.277   1.980   3.087
  912SOL     OW 3073   0.037   3.172   3.144
  912SOL    HW1 3074   0.090   3.123   3.212
  912SOL    HW2 3075   0.059   3.270   3.149
  913SOL     OW 3076   0.732   2.496   2.926
  913SOL    HW1 3077   0.791   2.470   2.850
  913SOL    HW2 3078   0.704   2.592   2.915
  914SOL     OW 3079   1.728   2.797   3.716
  914SOL    HW1 3080   1.682   2.790   3.627
  914SOL    HW2 3081   1.666   2.841   3.782
  915SOL     OW 3082   0.307   1.925   2.480
  915SOL    HW1 3083   0.296   2.019   2.513
  915SOL    HW2 3084   0.302   1.862   2.557
  916SOL     OW 3085   1.622   2.229   2.236
  916SOL    HW1 3086   1.624   2.153   2.300
  916SOL    HW2 3087   1.574   2.306   2.276
  917SOL     OW 3088   1.023   2.628   2.828
  917SOL    HW1 3089   1.038   2.649   2.924
  917SOL    HW2 3090   0.993   2.533   2.819
  918SOL     OW 3091   0.980   3.435   3.562
  918SOL    HW1 3092   0.960   3.479   3.474
  918SOL    HW2 3093   1.019   3.344   3.546
  919SOL     OW 3094   1.859   3.380   3.467
  919SOL    HW1 3095   1.873   3.407   3.372
  919SOL    HW2 3096   1.942   3.402   3.520
  920SOL     OW 3097   0.350   2.760   3.666
  920SOL    HW1 3098   0.426   2.804   3.714
  920SOL    HW2 3099   0.385   2.713   3.584
  921SOL     OW 3100   1.540   2.136   1.987
  921SOL    HW1 3101   1.479   2.061   2.010
  921SOL    HW2 3102   1.562   2.188   2.070
  922SOL     OW 3103   1.303   2.700   1.904
  922SOL    HW1 3104   1.337   2.607   1.919
  922SOL    HW2 3105   1.321   2.727   1.809
  923SOL     OW 3106   1.068   3.195   2.711
  923SOL    HW1 3107   1.075   3.111   2.656
  923SOL    HW2 3108   1.130   3.264   2.675
  924SOL     OW 3109   0.319   2.672   2.811
  924SOL    HW1 3110   0.412   2.708   2.816
  924SOL    HW2 3111   0.313   2.587   2.863
  925SOL     OW 3112   0.339   2.371   2.868
  925SOL    HW1 3113   0.287   2.288   2.851
  925SOL    HW2 3114   0.416   2.376   2.804
  926SOL     OW 3115   1.138   2.242   3.540
  926SOL    HW1 3116   1.093   2.305   3.604
  926SOL    HW2 3117   1.231   2.273   3.523
  927SOL     OW 3118   1.160   2.069   3.339
  927SOL    HW1 3119   1.160   2.133   3.416
  927SOL    HW2 3120   1.188   2.117   3.256
  928SOL     OW 3121   0.008   3.188   2.062
  928SOL    HW1 3122  -0.085   3.209   2.031
  928SOL    HW2 3123   0.018   3.089   2.075
  929SOL     OW 3124   0.088   3.663   2.789
  929SOL    HW1 3125   0.046   3.577   2.762
  929SOL    HW2 3126   0.182   3.666   2.755
  930SOL     OW 3127   0.504   3.430   2.772
  930SOL    HW1 3128   0.570   3.504   2.781
  930SOL    HW2 3129   0.548   3.351   2.730
  931SOL     OW 3130   1.002   2.658   3.100
  931SOL    HW1 3131   1.043   2.626   3.186
  931SOL    HW2 3132   0.906   2.631   3.097
  932SOL     OW 3133   0.040   2.406   2.976
  932SOL    HW1 3134   0.125   2.373   2.935
  932SOL    HW2 3135   0.053   2.421   3.074
  933SOL     OW 3136   0.189   2.382   3.584
  933SOL    HW1 3137   0.248   2.342   3.514
  933SOL    HW2 3138   0.131   2.453   3.543
  934SOL     OW 3139   1.369   2.812   3.522
  934SOL    HW1 3140   1.408   2.901   3.542
  934SOL    HW2 3141   1.379   2.792   3.425
  935SOL     OW 3142   0.815   2.434   2.187
  935SOL    HW1 3143   0.822   2.345   2.141
  935SOL    HW2 3144   0.721   2.468   2.179
  936SOL     OW 3145   1.657   2.466   3.068
  936SOL    HW1 3146   1.619   2.397   3.130
  936SOL    HW2 3147   1.739   2.430   3.024
  937SOL     OW 3148   0.252   3.426   3.606
  937SOL    HW1 3149   0.222   3.483   3.682
  937SOL    HW2 3150   0.245   3.329   3.632
  938SOL     OW 3151   0.671   2.326   3.131
  938SOL    HW1 3152   0.637   2.237   3.101
  938SOL    HW2 3153   0.697   2.380   3.051
  939SOL     OW 3154   0.930   3.540   3.327
  939SOL    HW1 3155   0.906   3.522   3.232
  939SOL    HW2 3156   0.960   3.634   3.337
  940SOL     OW 3157   0.473   2.362   2.053
  940SOL    HW1 3158   0.534   2.442   2.057
  940SOL    HW2 3159   0.378   2.393   2.060
  941SOL     OW 3160   0.159   2.999   3.328
  941SOL    HW1 3161   0.181   2.938   3.404
  941SOL    HW2 3162   0.169   2.950   3.242
  942SOL     OW 3163   1.347   2.921   3.096
  942SOL    HW1 3164   1.371   2.858   3.022
  942SOL    HW2 3165   1.257   2.961   3.078
  943SOL     OW 3166   1.302   2.717   2.171
  943SOL    HW1 3167   1.216   2.686   2.213
  943SOL    HW2 3168   1.298   2.703   2.072
  944SOL     OW 3169   1.759   3.609   3.016
  944SOL    HW1 3170   1.820   3.639   2.943
  944SOL    HW2 3171   1.721   3.520   2.994
  945SOL     OW 3172   1.252   3.593   2.990
  945SOL    HW1 3173   1.336   3.598   2.936
  945SOL    HW2 3174   1.229   3.497   3.008
  946SOL     OW 3175   0.083   3.120   2.884
  946SOL    HW1 3176   0.078   3.119   2.984
  946SOL    HW2 3177   0.000   3.079   2.846
  947SOL     OW 3178   0.688   3.524   3.578
  947SOL    HW1 3179   0.632   3.605   3.587
  947SOL    HW2 3180   0.740   3.528   3.492
  948SOL     OW 3181   1.726   1.997   2.385
  948SOL    HW1 3182   1.799   1.980   2.318
  948SOL    HW2 3183   1.695   1.910   2.423
  949SOL     OW 3184   1.388   3.435   2.339
  949SOL    HW1 3185   1.455   3.447   2.265
  949SOL    HW2 3186   1.348   3.524   2.362
  950SOL     OW 3187   0.130   3.656   3.713
  950SOL    HW1 3188   0.089   3.582   3.766
  950SOL    HW2 3189   0.194   3.707   3.771
  951SOL     OW 3190   1.280   2.789   2.534
  951SOL    HW1 3191   1.340   2.708   2.536
  951SOL    HW2 3192   1.320   2.858   2.474
  952SOL     OW 3193   0.830   3.135   3.284
  952SOL    HW1 3194   0.825   3.168   3.379
  952SOL    HW2 3195   0.744   3.154   3.238
  953SOL     OW 3196   0.672   3.478   2.016
  953SOL    HW1 3197   0.681   3.488   1.917
  953SOL    HW2 3198   0.632   3.389   2.037
  954SOL     OW 3199   1.841   2.037   2.825
  954SOL    HW1 3200   1.880   1.952   2.789
  954SOL    HW2 3201   1.743   2.039   2.806
  955SOL     OW 3202   0.263   2.188   2.582
  955SOL    HW1 3203   0.184   2.239   2.548
  955SOL    HW2 3204   0.254   2.173   2.680
  956SOL     OW 3205   1.194   3.474   1.893
  956SOL    HW1 3206   1.200   3.381   1.930
  956SOL    HW2 3207   1.135   3.474   1.813
  957SOL     OW 3208   0.822   2.864   3.234
  957SOL    HW1 3209   0.862   2.863   3.142
  957SOL    HW2 3210   0.832   2.956   3.274
  958SOL     OW 3211   0.916   2.772   2.153
  958SOL    HW1 3212   0.979   2.810   2.085
  958SOL    HW2 3213   0.956   2.689   2.192
  959SOL     OW 3214   1.504   3.469   1.906
  959SOL    HW1 3215   1.412   3.506   1.913
  959SOL    HW2 3216   1.542   3.489   1.816
  960SOL     OW 3217   0.372   3.150   3.352
  960SOL    HW1 3218   0.359   3.243   3.318
  960SOL    HW2 3219   0.288   3.098   3.339
  961SOL     OW 3220   1.614   3.154   3.151
  961SOL    HW1 3221   1.674   3.157   3.231
  961SOL    HW2 3222   1.539   3.218   3.164
  962SOL     OW 3223   1.039   2.960   2.558
  962SOL    HW1 3224   0.969   2.913   2.612
  962SOL    HW2 3225   1.098   2.892   2.515
  963SOL     OW 3226   1.014   2.098   2.833
  963SOL    HW1 3227   1.006   2.062   2.740
  963SOL    HW2 3228   1.012   2.022   2.898
  964SOL     OW 3229   0.590   3.349   2.353
  964SOL    HW1 3230   0.632   3.291   2.283
  964SOL    HW2 3231   0.546   3.428   2.309
  965SOL     OW 3232   1.709   2.247   3.243
  965SOL    HW1 3233   1.782   2.316   3.247
  965SOL    HW2 3234   1.737   2.172   3.184
  966SOL     OW 3235   0.255   3.210   2.152
  966SOL    HW1 3236   0.159   3.211   2.125
  966SOL    HW2 3237   0.267   3.263   2.236
  967SOL     OW 3238   0.105   2.875   3.588
  967SOL    HW1 3239   0.028   2.842   3.642
  967SOL    HW2 3240   0.190   2.845   3.630
  968SOL     OW 3241   0.672   2.065   3.351
  968SOL    HW1 3242   0.762   2.049   3.311
  968SOL    HW2 3243   0.680   2.070   3.450
  969SOL     OW 3244   0.075   2.207   1.895
  969SOL    HW1 3245  -0.017   2.179   1.866
  969SOL    HW2 3246   0.106   2.284   1.839
  970SOL     OW 3247   1.440   2.718   3.260
  970SOL    HW1 3248   1.383   2.770   3.197
  970SOL    HW2 3249   1.536   2.730   3.236
  971SOL     OW 3250   0.072   2.028   2.180
  971SOL    HW1 3251   0.055   2.111   2.126
  971SOL    HW2 3252   0.162   1.991   2.158
  972SOL     OW 3253   1.183   3.197   1.981
  972SOL    HW1 3254   1.084   3.186   1.983
  972SOL    HW2 3255   1.217   3.212   2.074
  973SOL     OW 3256   0.613   2.704   3.293
  973SOL    HW1 3257   0.669   2.785   3.276
  973SOL    HW2 3258   0.672   2.624   3.296
  974SOL     OW 3259   1.493   3.629   2.821
  974SOL    HW1 3260   1.526   3.693   2.752
  974SOL    HW2 3261   1.559   3.623   2.896
  975SOL     OW 3262   0.716   2.427   3.570
  975SOL    HW1 3263   0.735   2.492   3.644
  975SOL    HW2 3264   0.776   2.347   3.579
  976SOL     OW 3265   1.450   3.082   3.495
  976SOL    HW1 3266   1.441   3.072   3.594
  976SOL    HW2 3267   1.546   3.075   3.469
  977SOL     OW 3268   0.390   3.603   3.422
  977SOL    HW1 3269   0.299   3.644   3.420
  977SOL    HW2 3270   0.383   3.509   3.454
  978SOL     OW 3271   1.674   2.745   3.116
  978SOL    HW1 3272   1.647   2.656   3.079
  978SOL    HW2 3273   1.675   2.813   3.043
  979SOL     OW 3274   1.225   2.187   2.311
  979SOL    HW1 3275   1.290   2.113   2.300
  979SOL    HW2 3276   1.245   2.237   2.395
  980SOL     OW 3277   0.594   2.607   2.514
  980SOL    HW1 3278   0.644   2.692   2.495
  980SOL    HW2 3279   0.506   2.609   2.466
  981SOL     OW 3280   1.777   2.204   3.504
  981SOL    HW1 3281   1.760   2.235   3.410
  981SOL    HW2 3282   1.693   2.167   3.542
  982SOL     OW 3283   1.730   2.796   3.379
  982SOL    HW1 3284   1.768   2.887   3.394
  982SOL    HW2 3285   1.722   2.779   3.280
  983SOL     OW 3286   0.859   3.236   1.878
  983SOL    HW1 3287   0.813   3.251   1.966
  983SOL    HW2 3288   0.903   3.321   1.848
  984SOL     OW 3289   0.661   3.652   2.815
  984SOL    HW1 3290   0.615   3.740   2.802
  984SOL    HW2 3291   0.760   3.664   2.808
  985SOL     OW 3292   0.859   2.818   2.723
  985SOL    HW1 3293   0.913   2.749   2.771
  985SOL    HW2 3294   0.827   2.887   2.789
  986SOL     OW 3295   1.083   2.846   1.949
  986SOL    HW1 3296   1.060   2.899   1.867
  986SOL    HW2 3297   1.164   2.790   1.930
  987SOL     OW 3298   1.861   3.431   2.713
  987SOL    HW1 3299   1.790   3.419   2.643
  987SOL    HW2 3300   1.862   3.352   2.773
  988SOL     OW 3301   0.221   3.176   3.706
  988SOL    HW1 3302   0.156   3.103   3.685
  988SOL    HW2 3303   0.225   3.190   3.804
  989SOL     OW 3304   0.079   3.102   2.515
  989SOL    HW1 3305   0.078   3.055   2.603
  989SOL    HW2 3306   0.161   3.074   2.464
  990SOL     OW 3307   0.672   3.253   3.486
  990SOL    HW1 3308   0.594   3.203   3.524
  990SOL    HW2 3309   0.669   3.348   3.517
  991SOL     OW 3310   1.824   2.054   3.089
  991SOL    HW1 3311   1.820   1.964   3.133
  991SOL    HW2 3312   1.827   2.043   2.990
  992SOL     OW 3313   0.428   2.286   2.382
  992SOL    HW1 3314   0.458   2.214   2.320
  992SOL    HW2 3315   0.389   2.246   2.465
  993SOL     OW 3316   1.705   3.349   2.966
  993SOL    HW1 3317   1.612   3.324   2.939
  993SOL    HW2 3318   1.731   3.299   3.048
  994SOL     OW 3319   0.317   2.409   3.142
  994SOL    HW1 3320   0.355   2.350   3.214
  994SOL    HW2 3321   0.357   2.383   3.054
  995SOL     OW 3322   0.812   3.448   2.549
  995SOL    HW1 3323   0.844   3.458   2.455
  995SOL    HW2 3324   0.733   3.386   2.551
  996SOL     OW 3325   1.424   2.076   2.974
  996SOL    HW1 3326   1.476   2.011   3.029
  996SOL    HW2 3327   1.375   2.139   3.035
  997SOL     OW 3328   1.001   1.896   3.016
  997SOL    HW1 3329   0.938   1.824   2.985
  997SOL    HW2 3330   1.094   1.860   3.016
  998SOL     OW 3331   0.770   3.192   2.163
  998SOL    HW1 3332   0.724   3.105   2.180
  998SOL    HW2 3333   0.861   3.189   2.204
  999SOL     OW 3334   0.618   3.429   3.146
  999SOL    HW1 3335   0.613   3.511   3.203
  999SOL    HW2 3336   0.707   3.426   3.101
 1000SOL     OW 3337   1.352   1.914   2.030
 1000SOL    HW1 3338   1.387   1.873   1.946
 1000SOL    HW2 3339   1.262   1.876   2.050
 1001SOL     OW 3340   1.300   2.315   2.553
 1001SOL    HW1 3341   1.241   2.395   2.557
 1001SOL    HW2 3342   1.315   2.280   2.646
 1002SOL     OW 3343   1.593   2.083   2.744
 1002SOL    HW1 3344   1.509   2.082   2.798
 1002SOL    HW2 3345   1.595   2.166   2.688
 1003SOL     OW 3346   0.039   2.939   2.162
 1003SOL    HW1 3347   0.138   2.928   2.153
 1003SOL    HW2 3348  -0.001   2.853   2.194
 1004SOL     OW 3349   0.875   3.508   2.199
 1004SOL    HW1 3350   0.798   3.473   2.145
 1004SOL    HW2 3351   0.843   3.579   2.261
 1005SOL     OW 3352   0.230   2.490   3.837
 1005SOL    HW1 3353   0.137   2.488   3.874
 1005SOL    HW2 3354   0.231   2.451   3.745
 1006SOL     OW 3355   0.225   2.137   4.720
 1006SOL    HW1 3356   0.260   2.120   4.812
 1006SOL    HW2 3357   0.137   2.092   4.708
 1007SOL     OW 3358   0.019   2.230   4.371
 1007SOL    HW1 3359  -0.063   2.273   4.410
 1007SOL    HW2 3360  -0.009   2.157   4.308
 1008SOL     OW 3361   0.569   3.137   4.889
 1008SOL    HW1 3362   0.476   3.130   4.852
 1008SOL    HW2 3363   0.580   3.226   4.933
 1009SOL     OW 3364   1.555   3.373   4.427
 1009SOL    HW1 3365   1.498   3.357   4.508
 1009SOL    HW2 3366   1.496   3.383   4.347
 1010SOL     OW 3367   1.135   2.565   4.441
 1010SOL    HW1 3368   1.192   2.643   4.416
 1010SOL    HW2 3369   1.075   2.591   4.517
 1011SOL     OW 3370   1.755   2.469   3.955
 1011SOL    HW1 3371   1.743   2.456   3.856
 1011SOL    HW2 3372   1.725   2.388   4.004
 1012SOL     OW 3373   0.768   3.006   4.747
 1012SOL    HW1 3374   0.690   3.023   4.807
 1012SOL    HW2 3375   0.802   3.093   4.711
 1013SOL     OW 3376   0.685   2.874   4.389
 1013SOL    HW1 3377   0.754   2.858   4.459
 1013SOL    HW2 3378   0.612   2.931   4.427
 1014SOL     OW 3379   0.335   3.297   4.785
 1014SOL    HW1 3380   0.257   3.266   4.732
 1014SOL    HW2 3381   0.393   3.355   4.728
 1015SOL     OW 3382   1.603   2.309   4.461
 1015SOL    HW1 3383   1.529   2.355   4.411
 1015SOL    HW2 3384   1.654   2.377   4.514
 1016SOL     OW 3385   0.231   3.575   4.207
 1016SOL    HW1 3386   0.265   3.652   4.261
 1016SOL    HW2 3387   0.275   3.575   4.117
 1017SOL     OW 3388   0.230   3.296   4.262
 1017SOL    HW1 3389   0.204   3.392   4.262
 1017SOL    HW2 3390   0.159   3.242   4.307
 1018SOL     OW 3391   0.240   2.953   4.610
 1018SOL    HW1 3392   0.254   2.869   4.662
 1018SOL    HW2 3393   0.185   3.017   4.665
 1019SOL     OW 3394   0.620   3.648   5.163
 1019SOL    HW1 3395   0.528   3.631   5.198
 1019SOL    HW2 3396   0.648   3.740   5.189
 1020SOL     OW 3397   0.606   2.826   3.847
 1020SOL    HW1 3398   0.613   2.910   3.793
 1020SOL    HW2 3399   0.652   2.839   3.935
 1021SOL     OW 3400   0.122   2.505   4.287
 1021SOL    HW1 3401   0.077   2.417   4.304
 1021SOL    HW2 3402   0.121   2.559   4.371
 1022SOL     OW 3403   1.842   3.629   4.083
 1022SOL    HW1 3404   1.896   3.600   4.163
 1022SOL    HW2 3405   1.872   3.719   4.054
 1023SOL     OW 3406   0.027   3.458   3.841
 1023SOL    HW1 3407   0.008   3.362   3.862
 1023SOL    HW2 3408  -0.006   3.516   3.916
 1024SOL     OW 3409   1.689   2.784   4.336
 1024SOL    HW1 3410   1.784   2.755   4.344
 1024SOL    HW2 3411   1.681   2.849   4.261
 1025SOL     OW 3412   1.641   2.970   4.156
 1025SOL    HW1 3413   1.727   2.972   4.104
 1025SOL    HW2 3414   1.655   3.017   4.244
 1026SOL     OW 3415   0.613   3.227   4.450
 1026SOL    HW1 3416   0.564   3.140   4.459
 1026SOL    HW2 3417   0.590   3.270   4.363
 1027SOL     OW 3418   0.809   1.866   4.226
 1027SOL    HW1 3419   0.849   1.957   4.217
 1027SOL    HW2 3420   0.709   1.874   4.232
 1028SOL     OW 3421   0.197   2.838   4.988
 1028SOL    HW1 3422   0.286   2.793   4.974
 1028SOL    HW2 3423   0.124   2.773   4.969
 1029SOL     OW 3424   1.525   2.861   3.914
 1029SOL    HW1 3425   1.462   2.785   3.927
 1029SOL    HW2 3426   1.573   2.879   4.000
 1030SOL     OW 3427   1.466   3.279   4.677
 1030SOL    HW1 3428   1.407   3.285   4.757
 1030SOL    HW2 3429   1.451   3.191   4.631
 1031SOL     OW 3430   1.667   3.576   4.296
 1031SOL    HW1 3431   1.626   3.553   4.208
 1031SOL    HW2 3432   1.649   3.502   4.361
 1032SOL     OW 3433   0.598   2.591   3.994
 1032SOL    HW1 3434   0.622   2.660   3.926
 1032SOL    HW2 3435   0.520   2.624   4.048
 1033SOL     OW 3436   1.281   2.207   4.668
 1033SOL    HW1 3437   1.195   2.157   4.655
 1033SOL    HW2 3438   1.343   2.153   4.724
 1034SOL     OW 3439   1.576   3.524   4.031
 1034SOL    HW1 3440   1.665   3.570   4.034
 1034SOL    HW2 3441   1.555   3.500   3.936
 1035SOL     OW 3442   0.991   2.272   4.966
 1035SOL    HW1 3443   0.914   2.306   5.020
 1035SOL    HW2 3444   0.957   2.221   4.887
 1036SOL     OW 3445   1.041   2.563   4.153
 1036SOL    HW1 3446   1.067   2.559   4.249
 1036SOL    HW2 3447   0.956   2.512   4.139
 1037SOL     OW 3448   0.076   2.673   4.513
 1037SOL    HW1 3449   0.175   2.661   4.522
 1037SOL    HW2 3450   0.052   2.768   4.534
 1038SOL     OW 3451   0.130   3.683   5.295
 1038SOL    HW1 3452   0.120   3.668   5.394
 1038SOL    HW2 3453   0.044   3.719   5.259
 1039SOL     OW 3454   0.865   2.210   3.919
 1039SOL    HW1 3455   0.924   2.273   3.870
 1039SOL    HW2 3456   0.884   2.116   3.890
 1040SOL     OW 3457   1.362   3.006   4.269
 1040SOL    HW1 3458   1.445   2.977   4.221
 1040SOL    HW2 3459   1.313   3.073   4.213
 1041SOL     OW 3460   0.550   2.058   4.609
 1041SOL    HW1 3461   0.545   2.053   4.709
 1041SOL    HW2 3462   0.552   2.154   4.580
 1042SOL     OW 3463   1.008   3.318   4.201
 1042SOL    HW1 3464   0.962   3.390   4.149
 1042SOL    HW2 3465   1.004   3.338   4.299
 1043SOL     OW 3466   0.351   3.663   4.577
 1043SOL    HW1 3467   0.401   3.577   4.583
 1043SOL    HW2 3468   0.416   3.740   4.574
 1044SOL     OW 3469   1.795   2.928   4.597
 1044SOL    HW1 3470   1.733   2.913   4.521
 1044SOL    HW2 3471   1.743   2.939   4.682
 1045SOL     OW 3472   0.321   2.805   3.966
 1045SOL    HW1 3473   0.403   2.844   3.924
 1045SOL    HW2 3474   0.294   2.723   3.917
 1046SOL     OW 3475   1.458   2.597   4.452
 1046SOL    HW1 3476   1.453   2.532   4.527
 1046SOL    HW2 3477   1.538   2.656   4.465
 1047SOL     OW 3478   1.111   3.638   3.961
 1047SOL    HW1 3479   1.051   3.576   4.011
 1047SOL    HW2 3480   1.142   3.594   3.876
 1048SOL     OW 3481   1.632   3.239   3.805
 1048SOL    HW1 3482   1.600   3.333   3.795
 1048SOL    HW2 3483   1.556   3.176   3.793
 1049SOL     OW 3484   0.464   3.605   4.047
 1049SOL    HW1 3485   0.497   3.644   4.133
 1049SOL    HW2 3486   0.540   3.598   3.982
 1050SOL     OW 3487   1.400   1.969   4.150
 1050SOL    HW1 3488   1.376   1.932   4.060
 1050SOL    HW2 3489   1.499   1.985   4.154
 1051SOL     OW 3490   0.249   3.647   4.965
 1051SOL    HW1 3491   0.306   3.582   5.015
 1051SOL    HW2 3492   0.233   3.614   4.872
 1052SOL     OW 3493   0.940   3.560   4.628
 1052SOL    HW1 3494   1.020   3.503   4.649
 1052SOL    HW2 3495   0.891   3.520   4.551
 1053SOL     OW 3496   0.382   2.562   4.204
 1053SOL    HW1 3497   0.427   2.472   4.201
 1053SOL    HW2 3498   0.288   2.551   4.237
 1054SOL     OW 3499   0.614   1.984   3.841
 1054SOL    HW1 3500   0.712   1.962   3.848
 1054SOL    HW2 3501   0.583   1.967   3.748
 1055SOL     OW 3502   0.803   3.264   4.648
 1055SOL    HW1 3503   0.893   3.278   4.606
 1055SOL    HW2 3504   0.732   3.266   4.577
 1056SOL     OW 3505   0.922   2.365   4.623
 1056SOL    HW1 3506   0.897   2.356   4.527
 1056SOL    HW2 3507   0.970   2.283   4.654
 1057SOL     OW 3508   0.539   1.926   4.236
 1057SOL    HW1 3509   0.458   1.927   4.294
 1057SOL    HW2 3510   0.542   2.009   4.181
 1058SOL     OW 3511   1.434   3.050   3.765
 1058SOL    HW1 3512   1.466   2.974   3.822
 1058SOL    HW2 3513   1.342   3.077   3.795
 1059SOL     OW 3514   0.297   1.897   3.895
 1059SOL    HW1 3515   0.346   1.981   3.874
 1059SOL    HW2 3516   0.359   1.832   3.940
 1060SOL     OW 3517   0.935   2.098   4.204
 1060SOL    HW1 3518   0.887   2.139   4.126
 1060SOL    HW2 3519   1.034   2.096   4.185
 1061SOL     OW 3520   1.227   3.432   4.517
 1061SOL    HW1 3521   1.248   3.506   4.452
 1061SOL    HW2 3522   1.295   3.432   4.590
 1062SOL     OW 3523   0.459   3.014   4.465
 1062SOL    HW1 3524   0.388   2.987   4.530
 1062SOL    HW2 3525   0.433   2.986   4.372
 1063SOL     OW 3526   1.271   3.659   4.315
 1063SOL    HW1 3527   1.315   3.723   4.251
 1063SOL    HW2 3528   1.221   3.711   4.385
 1064SOL     OW 3529   1.032   2.411   3.740
 1064SOL    HW1 3530   0.991   2.493   3.701
 1064SOL    HW2 3531   1.096   2.437   3.813
 1065SOL     OW 3532   0.561   2.084   4.871
 1065SOL    HW1 3533   0.599   2.000   4.908
 1065SOL    HW2 3534   0.473   2.103   4.915
 1066SOL     OW 3535   0.866   2.316   4.366
 1066SOL    HW1 3536   0.834   2.388   4.304
 1066SOL    HW2 3537   0.890   2.235   4.313
 1067SOL     OW 3538   1.017   1.901   4.477
 1067SOL    HW1 3539   0.945   1.906   4.408
 1067SOL    HW2 3540   0.993   1.832   4.546
 1068SOL     OW 3541   1.429   3.035   4.591
 1068SOL    HW1 3542   1.374   2.951   4.584
 1068SOL    HW2 3543   1.455   3.064   4.499
 1069SOL     OW 3544   1.466   2.452   4.716
 1069SOL    HW1 3545   1.436   2.357   4.723
 1069SOL    HW2 3546   1.539   2.468   4.782
 1070SOL     OW 3547   1.857   2.695   4.101
 1070SOL    HW1 3548   1.899   2.631   4.165
 1070SOL    HW2 3549   1.819   2.644   4.023
 1071SOL     OW 3550   0.488   3.247   3.898
 1071SOL    HW1 3551   0.401   3.232   3.945
 1071SOL    HW2 3552   0.471   3.273   3.803
 1072SOL     OW 3553   1.664   3.142   4.381
 1072SOL    HW1 3554   1.763   3.150   4.395
 1072SOL    HW2 3555   1.619   3.226   4.412
 1073SOL     OW 3556   1.390   2.437   3.802
 1073SOL    HW1 3557   1.336   2.416   3.883
 1073SOL    HW2 3558   1.481   2.396   3.811
 1074SOL     OW 3559   0.527   2.118   4.052
 1074SOL    HW1 3560   0.554   2.059   3.977
 1074SOL    HW2 3561   0.527   2.213   4.021
 1075SOL     OW 3562   1.111   3.057   4.824
 1075SOL    HW1 3563   1.071   3.101   4.905
 1075SOL    HW2 3564   1.070   3.094   4.741
 1076SOL     OW 3565   1.638   2.961   4.803
 1076SOL    HW1 3566   1.643   3.042   4.862
 1076SOL    HW2 3567   1.552   2.963   4.752
 1077SOL     OW 3568   0.705   2.912   4.092
 1077SOL    HW1 3569   0.691   2.919   4.191
 1077SOL    HW2 3570   0.789   2.861   4.074
 1078SOL     OW 3571   0.410   2.675   4.975
 1078SOL    HW1 3572   0.496   2.687   5.025
 1078SOL    HW2 3573   0.368   2.588   5.002
 1079SOL     OW 3574   1.274   2.248   4.986
 1079SOL    HW1 3575   1.295   2.322   5.050
 1079SOL    HW2 3576   1.185   2.265   4.943
 1080SOL     OW 3577   0.367   2.962   4.225
 1080SOL    HW1 3578   0.360   3.045   4.169
 1080SOL    HW2 3579   0.371   2.882   4.165
 1081SOL     OW 3580   0.566   2.399   4.589
 1081SOL    HW1 3581   0.578   2.465   4.515
 1081SOL    HW2 3582   0.612   2.433   4.672
 1082SOL     OW 3583   1.252   3.210   4.112
 1082SOL    HW1 3584   1.302   3.287   4.152
 1082SOL    HW2 3585   1.157   3.212   4.144
 1083SOL     OW 3586   1.272   3.307   4.866
 1083SOL    HW1 3587   1.319   3.320   4.953
 1083SOL    HW2 3588   1.206   3.233   4.875
 1084SOL     OW 3589   1.582   2.501   4.196
 1084SOL    HW1 3590   1.551   2.562   4.269
 1084SOL    HW2 3591   1.632   2.553   4.127
 1085SOL     OW 3592   0.354   3.372   5.053
 1085SOL    HW1 3593   0.333   3.328   4.966
 1085SOL    HW2 3594   0.451   3.398   5.056
 1086SOL     OW 3595   0.573   2.732   4.753
 1086SOL    HW1 3596   0.617   2.821   4.744
 1086SOL    HW2 3597   0.510   2.732   4.830
 1087SOL     OW 3598   1.360   2.724   4.769
 1087SOL    HW1 3599   1.285   2.724   4.703
 1087SOL    HW2 3600   1.397   2.632   4.778
 1088SOL     OW 3601   1.209   2.387   3.999
 1088SOL    HW1 3602   1.222   2.303   4.053
 1088SOL    HW2 3603   1.180   2.461   4.059
 1089SOL     OW 3604   0.307   2.075   4.955
 1089SOL    HW1 3605   0.284   2.112   5.045
 1089SOL    HW2 3606   0.277   1.980   4.949
 1090SOL     OW 3607   0.037   3.172   5.006
 1090SOL    HW1 3608   0.090   3.123   5.074
 1090SOL    HW2 3609   0.059   3.270   5.011
 1091SOL     OW 3610   0.732   2.496   4.788
 1091SOL    HW1 3611   0.791   2.470   4.712
 1091SOL    HW2 3612   0.704   2.592   4.777
 1092SOL     OW 3613   0.307   1.925   4.342
 1092SOL    HW1 3614   0.296   2.019   4.375
 1092SOL    HW2 3615   0.302   1.862   4.419
 1093SOL     OW 3616   1.622   2.229   4.098
 1093SOL    HW1 3617   1.624   2.153   4.162
 1093SOL    HW2 3618   1.574   2.306   4.138
 1094SOL     OW 3619   1.023   2.628   4.690
 1094SOL    HW1 3620   1.038   2.649   4.786
 1094SOL    HW2 3621   0.993   2.533   4.681
 1095SOL     OW 3622   1.540   2.136   3.849
 1095SOL    HW1 3623   1.479   2.061   3.872
 1095SOL    HW2 3624   1.562   2.188   3.932
 1096SOL     OW 3625   1.303   2.700   3.766
 1096SOL    HW1 3626   1.337   2.607   3.781
 1096SOL    HW2 3627   1.321   2.727   3.671
 1097SOL     OW 3628   1.068   3.195   4.573
 1097SOL    HW1 3629   1.075   3.111   4.518
 1097SOL    HW2 3630   1.130   3.264   4.537
 1098SOL     OW 3631   0.319   2.672   4.673
 1098SOL    HW1 3632   0.412   2.708   4.678
 1098SOL    HW2 3633   0.313   2.587   4.725
 1099SOL     OW 3634   0.339   2.371   4.730
 1099SOL    HW1 3635   0.287   2.288   4.713
 1099SOL    HW2 3636   0.416   2.376   4.666
 1100SOL     OW 3637   1.160   2.069   5.201
 1100SOL    HW1 3638   1.160   2.133   5.278
 1100SOL    HW2 3639   1.188   2.117   5.118
 1101SOL     OW 3640   0.008   3.188   3.924
 1101SOL    HW1 3641  -0.085   3.209   3.893
 1101SOL    HW2 3642   0.018   3.089   3.937
 1102SOL     OW 3643   0.088   3.663   4.651
 1102SOL    HW1 3644   0.046   3.577   4.624
 1102SOL    HW2 3645   0.182   3.666   4.617
 1103SOL     OW 3646   0.504   3.430   4.634
 1103SOL    HW1 3647   0.570   3.504   4.643
 1103SOL    HW2 3648   0.548   3.351   4.592
 1104SOL     OW 3649   1.002   2.658   4.962
 1104SOL    HW1 3650   1.043   2.626   5.048
 1104SOL    HW2 3651   0.906   2.631   4.959
 1105SOL     OW 3652   0.040   2.406   4.838
 1105SOL    HW1 3653   0.125   2.373   4.797
 1105SOL    HW2 3654   0.053   2.421   4.936
 1106SOL     OW 3655   0.815   2.434   4.049
 1106SOL    HW1 3656   0.822   2.345   4.003
 1106SOL    HW2 3657   0.721   2.468   4.041
 1107SOL     OW 3658   1.657   2.466   4.930
 1107SOL    HW1 3659   1.619   2.397   4.992
 1107SOL    HW2 3660   1.739   2.430   4.886
 1108SOL     OW 3661   0.671   2.326   4.993
 1108SOL    HW1 3662   0.637   2.237   4.963
 1108SOL    HW2 3663   0.697   2.380   4.913
 1109SOL     OW 3664   0.930   3.540   5.189
 1109SOL    HW1 3665   0.906   3.522   5.094
 1109SOL    HW2 3666   0.960   3.634   5.199
 1110SOL     OW 3667   0.473   2.362   3.915
 1110SOL    HW1 3668   0.534   2.442   3.919
 1110SOL    HW2 3669   0.378   2.393   3.922
 1111SOL     OW 3670   1.347   2.921   4.958
 1111SOL    HW1 3671   1.371   2.858   4.884
 1111SOL    HW2 3672   1.257   2.961   4.940
 1112SOL     OW 3673   1.302   2.717   4.033
 1112SOL    HW1 3674   1.216   2.686   4.075
 1112SOL    HW2 3675   1.298   2.703   3.934
 1113SOL     OW 3676   1.759   3.609   4.878
 1113SOL    HW1 3677   1.820   3.639   4.805
 1113SOL    HW2 3678   1.721   3.520   4.856
 1114SOL     OW 3679   1.252   3.593   4.852
 1114SOL    HW1 3680   1.336   3.598   4.798
 1114SOL    HW2 3681   1.229   3.497   4.870
 1115SOL     OW 3682   0.083   3.120   4.746
 1115SOL    HW1 3683   0.078   3.119   4.846
 1115SOL    HW2 3684   0.000   3.079   4.708
 1116SOL     OW 3685   1.726   1.997   4.247
 1116SOL    HW1 3686   1.799   1.980   4.180
 1116SOL    HW2 3687   1.695   1.910   4.285
 1117SOL     OW 3688   1.388   3.435   4.201
 1117SOL    HW1 3689   1.455   3.447   4.127
 1117SOL    HW2 3690   1.348   3.524   4.224
 1118SOL     OW 3691   1.280   2.789   4.396
 1118SOL    HW1 3692   1.340   2.708   4.398
 1118SOL    HW2 3693   1.320   2.858   4.336
 1119SOL     OW 3694   0.672   3.478   3.878
 1119SOL    HW1 3695   0.681   3.488   3.779
 1119SOL    HW2 3696   0.632   3.389   3.899
 1120SOL     OW 3697   1.650   3.582   5.118
 1120SOL    HW1 3698   1.703   3.592   5.034
 1120SOL    HW2 3699   1.623   3.672   5.152
 1121SOL     OW 3700   1.841   2.037   4.687
 1121SOL    HW1 3701   1.880   1.952   4.651
 1121SOL    HW2 3702   1.743   2.039   4.668
 1122SOL     OW 3703   0.263   2.188   4.444
 1122SOL    HW1 3704   0.184   2.239   4.410
 1122SOL    HW2 3705   0.254   2.173   4.542
 1123SOL     OW 3706   1.194   3.474   3.755
 1123SOL    HW1 3707   1.200   3.381   3.792
 1123SOL    HW2 3708   1.135   3.474   3.675
 1124SOL     OW 3709   0.822   2.864   5.096
 1124SOL    HW1 3710   0.862   2.863   5.004
 1124SOL    HW2 3711   0.832   2.956   5.136
 1125SOL     OW 3712   0.916   2.772   4.015
 1125SOL    HW1 3713   0.979   2.810   3.947
 1125SOL    HW2 3714   0.956   2.689   4.054
 1126SOL     OW 3715   1.504   3.469   3.768
 1126SOL    HW1 3716   1.412   3.506   3.775
 1126SOL    HW2 3717   1.542   3.489   3.678
 1127SOL     OW 3718   1.039   2.960   4.420
 1127SOL    HW1 3719   0.969   2.913   4.474
 1127SOL    HW2 3720   1.098   2.892   4.377
 1128SOL     OW 3721   1.014   2.098   4.695
 1128SOL    HW1 3722   1.006   2.062   4.602
 1128SOL    HW2 3723   1.012   2.022   4.760
 1129SOL     OW 3724   0.590   3.349   4.215
 1129SOL    HW1 3725   0.632   3.291   4.145
 1129SOL    HW2 3726   0.546   3.428   4.171
 1130SOL     OW 3727   1.709   2.247   5.105
 1130SOL    HW1 3728   1.782   2.316   5.109
 1130SOL    HW2 3729   1.737   2.172   5.046
 1131SOL     OW 3730   0.255   3.210   4.014
 1131SOL    HW1 3731   0.159   3.211   3.987
 1131SOL    HW2 3732   0.267   3.263   4.098
 1132SOL     OW 3733   0.075   2.207   3.757
 1132SOL    HW1 3734  -0.017   2.179   3.728
 1132SOL    HW2 3735   0.106   2.284   3.701
 1133SOL     OW 3736   0.072   2.028   4.042
 1133SOL    HW1 3737   0.055   2.111   3.988
 1133SOL    HW2 3738   0.162   1.991   4.020
 1134SOL     OW 3739   1.183   3.197   3.843
 1134SOL    HW1 3740   1.084   3.186   3.845
 1134SOL    HW2 3741   1.217   3.212   3.936
 1135SOL     OW 3742   1.493   3.629   4.683
 1135SOL    HW1 3743   1.526   3.693   4.614
 1135SOL    HW2 3744   1.559   3.623   4.758
 1136SOL     OW 3745   1.450   3.082   5.357
 1136SOL    HW1 3746   1.441   3.072   5.456
 1136SOL    HW2 3747   1.546   3.075   5.331
 1137SOL     OW 3748   1.674   2.745   4.978
 1137SOL    HW1 3749   1.647   2.656   4.941
 1137SOL    HW2 3750   1.675   2.813   4.905
 1138SOL     OW 3751   1.225   2.187   4.173
 1138SOL    HW1 3752   1.290   2.113   4.162
 1138SOL    HW2 3753   1.245   2.237   4.257
 1139SOL     OW 3754   0.594   2.607   4.376
 1139SOL    HW1 3755   0.644   2.692   4.357
 1139SOL    HW2 3756   0.506   2.609   4.328
 1140SOL     OW 3757   1.730   2.796   5.241
 1140SOL    HW1 3758   1.768   2.887   5.256
 1140SOL    HW2 3759   1.722   2.779   5.142
 1141SOL     OW 3760   0.859   3.236   3.740
 1141SOL    HW1 3761   0.813   3.251   3.828
 1141SOL    HW2 3762   0.903   3.321   3.710
 1142SOL     OW 3763   0.661   3.652   4.677
 1142SOL    HW1 3764   0.615   3.740   4.664
 1142SOL    HW2 3765   0.760   3.664   4.670
 1143SOL     OW 3766   0.859   2.818   4.585
 1143SOL    HW1 3767   0.913   2.749   4.633
 1143SOL    HW2 3768   0.827   2.887   4.651
 1144SOL     OW 3769   1.083   2.846   3.811
 1144SOL    HW1 3770   1.060   2.899   3.729
 1144SOL    HW2 3771   1.164   2.790   3.792
 1145SOL     OW 3772   1.861   3.431   4.575
 1145SOL    HW1 3773   1.790   3.419   4.505
 1145SOL    HW2 3774   1.862   3.352   4.635
 1146SOL     OW 3775   0.079   3.102   4.377
 1146SOL    HW1 3776   0.078   3.055   4.465
 1146SOL    HW2 3777   0.161   3.074   4.326
 1147SOL     OW 3778   1.824   2.054   4.951
 1147SOL    HW1 3779   1.820   1.964   4.995
 1147SOL    HW2 3780   1.827   2.043   4.852
 1148SOL     OW 3781   0.428   2.286   4.244
 1148SOL    HW1 3782   0.458   2.214   4.182
 1148SOL    HW2 3783   0.389   2.246   4.327
 1149SOL     OW 3784   1.705   3.349   4.828
 1149SOL    HW1 3785   1.612   3.324   4.801
 1149SOL    HW2 3786   1.731   3.299   4.910
 1150SOL     OW 3787   0.812   3.448   4.411
 1150SOL    HW1 3788   0.844   3.458   4.317
 1150SOL    HW2 3789   0.733   3.386   4.413
 1151SOL     OW 3790   1.424   2.076   4.836
 1151SOL    HW1 3791   1.476   2.011   4.891
 1151SOL    HW2 3792   1.375   2.139   4.897
 1152SOL     OW 3793   1.001   1.896   4.878
 1152SOL    HW1 3794   0.938   1.824   4.847
 1152SOL    HW2 3795   1.094   1.860   4.878
 1153SOL     OW 3796   0.770   3.192   4.025
 1153SOL    HW1 3797   0.724   3.105   4.042
 1153SOL    HW2 3798   0.861   3.189   4.066
 1154SOL     OW 3799   1.352   1.914   3.892
 1154SOL    HW1 3800   1.387   1.873   3.808
 1154SOL    HW2 3801   1.262   1.876   3.912
 1155SOL     OW 3802   1.300   2.315   4.415
 1155SOL    HW1 3803   1.241   2.395   4.419
 1155SOL    HW2 3804   1.315   2.280   4.508
 1156SOL     OW 3805   1.593   2.083   4.606
 1156SOL    HW1 3806   1.509   2.082   4.660
 1156SOL    HW2 3807   1.595   2.166   4.550
 1157SOL     OW 3808   0.039   2.939   4.024
 1157SOL    HW1 3809   0.138   2.928   4.015
 1157SOL    HW2 3810  -0.001   2.853   4.056
 1158SOL     OW 3811   0.875   3.508   4.061
 1158SOL    HW1 3812   0.798   3.473   4.007
 1158SOL    HW2 3813   0.843   3.579   4.123
 1159SOL     OW 3814   0.230   4.352   0.113
 1159SOL    HW1 3815   0.137   4.350   0.150
 1159SOL    HW2 3816   0.231   4.313   0.021
 1160SOL     OW 3817   0.225   3.999   0.996
 1160SOL    HW1 3818   0.260   3.982   1.088
 1160SOL    HW2 3819   0.137   3.954   0.984
 1161SOL     OW 3820   0.019   4.092   0.647
 1161SOL    HW1 3821  -0.063   4.135   0.686
 1161SOL    HW2 3822  -0.009   4.019   0.584
 1162SOL     OW 3823   0.569   4.999   1.165
 1162SOL    HW1 3824   0.476   4.992   1.128
 1162SOL    HW2 3825   0.580   5.088   1.209
 1163SOL     OW 3826   1.555   5.235   0.703
 1163SOL    HW1 3827   1.498   5.219   0.784
 1163SOL    HW2 3828   1.496   5.245   0.623
 1164SOL     OW 3829   1.135   4.427   0.717
 1164SOL    HW1 3830   1.192   4.505   0.692
 1164SOL    HW2 3831   1.075   4.453   0.793
 1165SOL     OW 3832   1.755   4.331   0.231
 1165SOL    HW1 3833   1.743   4.318   0.132
 1165SOL    HW2 3834   1.725   4.250   0.280
 1166SOL     OW 3835   0.768   4.868   1.023
 1166SOL    HW1 3836   0.690   4.885   1.083
 1166SOL    HW2 3837   0.802   4.955   0.987
 1167SOL     OW 3838   0.850   4.522   1.823
 1167SOL    HW1 3839   0.846   4.598   1.888
 1167SOL    HW2 3840   0.872   4.558   1.732
 1168SOL     OW 3841   0.685   4.736   0.665
 1168SOL    HW1 3842   0.754   4.720   0.735
 1168SOL    HW2 3843   0.612   4.793   0.703
 1169SOL     OW 3844   0.686   4.885   1.803
 1169SOL    HW1 3845   0.746   4.964   1.817
 1169SOL    HW2 3846   0.600   4.916   1.762
 1170SOL     OW 3847   0.335   5.159   1.061
 1170SOL    HW1 3848   0.257   5.128   1.008
 1170SOL    HW2 3849   0.393   5.217   1.004
 1171SOL     OW 3850   0.438   4.116   1.499
 1171SOL    HW1 3851   0.520   4.060   1.508
 1171SOL    HW2 3852   0.357   4.058   1.503
 1172SOL     OW 3853   1.603   4.171   0.737
 1172SOL    HW1 3854   1.529   4.217   0.687
 1172SOL    HW2 3855   1.654   4.239   0.790
 1173SOL     OW 3856   0.240   4.815   0.886
 1173SOL    HW1 3857   0.254   4.731   0.938
 1173SOL    HW2 3858   0.185   4.879   0.941
 1174SOL     OW 3859   0.606   4.688   0.123
 1174SOL    HW1 3860   0.613   4.772   0.069
 1174SOL    HW2 3861   0.652   4.701   0.211
 1175SOL     OW 3862   1.594   3.838   1.480
 1175SOL    HW1 3863   1.576   3.905   1.408
 1175SOL    HW2 3864   1.591   3.884   1.569
 1176SOL     OW 3865   0.122   4.367   0.563
 1176SOL    HW1 3866   0.077   4.279   0.580
 1176SOL    HW2 3867   0.121   4.421   0.647
 1177SOL     OW 3868   1.689   4.646   0.612
 1177SOL    HW1 3869   1.784   4.617   0.620
 1177SOL    HW2 3870   1.681   4.711   0.537
 1178SOL     OW 3871   1.641   4.832   0.432
 1178SOL    HW1 3872   1.727   4.834   0.380
 1178SOL    HW2 3873   1.655   4.879   0.520
 1179SOL     OW 3874   0.113   4.461   1.597
 1179SOL    HW1 3875   0.201   4.448   1.642
 1179SOL    HW2 3876   0.100   4.558   1.575
 1180SOL     OW 3877   1.293   4.952   1.423
 1180SOL    HW1 3878   1.330   4.879   1.365
 1180SOL    HW2 3879   1.345   4.957   1.508
 1181SOL     OW 3880   0.809   3.728   0.502
 1181SOL    HW1 3881   0.849   3.819   0.493
 1181SOL    HW2 3882   0.709   3.736   0.508
 1182SOL     OW 3883   0.197   4.700   1.264
 1182SOL    HW1 3884   0.286   4.655   1.250
 1182SOL    HW2 3885   0.124   4.635   1.245
 1183SOL     OW 3886   1.525   4.723   0.190
 1183SOL    HW1 3887   1.462   4.647   0.203
 1183SOL    HW2 3888   1.573   4.741   0.276
 1184SOL     OW 3889   0.317   3.975   1.801
 1184SOL    HW1 3890   0.388   4.046   1.807
 1184SOL    HW2 3891   0.229   4.014   1.829
 1185SOL     OW 3892   1.466   5.141   0.953
 1185SOL    HW1 3893   1.407   5.147   1.033
 1185SOL    HW2 3894   1.451   5.053   0.907
 1186SOL     OW 3895   0.598   4.453   0.270
 1186SOL    HW1 3896   0.622   4.522   0.202
 1186SOL    HW2 3897   0.520   4.486   0.324
 1187SOL     OW 3898   1.281   4.069   0.944
 1187SOL    HW1 3899   1.195   4.019   0.931
 1187SOL    HW2 3900   1.343   4.015   1.000
 1188SOL     OW 3901   0.807   4.329   1.465
 1188SOL    HW1 3902   0.760   4.326   1.554
 1188SOL    HW2 3903   0.756   4.274   1.399
 1189SOL     OW 3904   1.394   4.193   1.674
 1189SOL    HW1 3905   1.374   4.236   1.762
 1189SOL    HW2 3906   1.472   4.131   1.683
 1190SOL     OW 3907   0.973   4.614   1.572
 1190SOL    HW1 3908   1.019   4.530   1.543
 1190SOL    HW2 3909   0.917   4.648   1.497
 1191SOL     OW 3910   0.991   4.134   1.242
 1191SOL    HW1 3911   0.914   4.168   1.296
 1191SOL    HW2 3912   0.957   4.083   1.163
 1192SOL     OW 3913   1.041   4.425   0.429
 1192SOL    HW1 3914   1.067   4.421   0.525
 1192SOL    HW2 3915   0.956   4.374   0.415
 1193SOL     OW 3916   0.076   4.535   0.789
 1193SOL    HW1 3917   0.175   4.523   0.798
 1193SOL    HW2 3918   0.052   4.630   0.810
 1194SOL     OW 3919   0.865   4.072   0.195
 1194SOL    HW1 3920   0.924   4.135   0.146
 1194SOL    HW2 3921   0.884   3.978   0.166
 1195SOL     OW 3922   1.719   4.309   1.831
 1195SOL    HW1 3923   1.693   4.398   1.795
 1195SOL    HW2 3924   1.717   4.241   1.758
 1196SOL     OW 3925   1.362   4.868   0.545
 1196SOL    HW1 3926   1.445   4.839   0.497
 1196SOL    HW2 3927   1.313   4.935   0.489
 1197SOL     OW 3928   0.550   3.920   0.885
 1197SOL    HW1 3929   0.545   3.915   0.985
 1197SOL    HW2 3930   0.552   4.016   0.856
 1198SOL     OW 3931   1.795   4.790   0.873
 1198SOL    HW1 3932   1.733   4.775   0.797
 1198SOL    HW2 3933   1.743   4.801   0.958
 1199SOL     OW 3934   0.321   4.667   0.242
 1199SOL    HW1 3935   0.403   4.706   0.200
 1199SOL    HW2 3936   0.294   4.585   0.193
 1200SOL     OW 3937   1.458   4.459   0.728
 1200SOL    HW1 3938   1.453   4.394   0.803
 1200SOL    HW2 3939   1.538   4.518   0.741
 1201SOL     OW 3940   0.202   4.009   1.498
 1201SOL    HW1 3941   0.122   4.069   1.485
 1201SOL    HW2 3942   0.192   3.960   1.584
 1202SOL     OW 3943   1.632   5.101   0.081
 1202SOL    HW1 3944   1.600   5.195   0.071
 1202SOL    HW2 3945   1.556   5.038   0.069
 1203SOL     OW 3946   1.400   3.831   0.426
 1203SOL    HW1 3947   1.376   3.794   0.336
 1203SOL    HW2 3948   1.499   3.847   0.430
 1204SOL     OW 3949   0.382   4.424   0.480
 1204SOL    HW1 3950   0.427   4.334   0.477
 1204SOL    HW2 3951   0.288   4.413   0.513
 1205SOL     OW 3952   1.547   3.946   1.729
 1205SOL    HW1 3953   1.542   3.983   1.821
 1205SOL    HW2 3954   1.475   3.877   1.717
 1206SOL     OW 3955   0.781   3.988   1.749
 1206SOL    HW1 3956   0.848   3.927   1.792
 1206SOL    HW2 3957   0.708   4.007   1.814
 1207SOL     OW 3958   1.351   4.314   1.433
 1207SOL    HW1 3959   1.379   4.271   1.518
 1207SOL    HW2 3960   1.376   4.410   1.434
 1208SOL     OW 3961   0.803   5.126   0.924
 1208SOL    HW1 3962   0.893   5.140   0.882
 1208SOL    HW2 3963   0.732   5.128   0.853
 1209SOL     OW 3964   0.922   4.227   0.899
 1209SOL    HW1 3965   0.897   4.218   0.803
 1209SOL    HW2 3966   0.970   4.145   0.930
 1210SOL     OW 3967   0.539   3.788   0.512
 1210SOL    HW1 3968   0.458   3.789   0.570
 1210SOL    HW2 3969   0.542   3.871   0.457
 1211SOL     OW 3970   1.434   4.912   0.041
 1211SOL    HW1 3971   1.466   4.836   0.098
 1211SOL    HW2 3972   1.342   4.939   0.071
 1212SOL     OW 3973   0.297   3.759   0.171
 1212SOL    HW1 3974   0.346   3.843   0.150
 1212SOL    HW2 3975   0.359   3.694   0.216
 1213SOL     OW 3976   0.935   3.960   0.480
 1213SOL    HW1 3977   0.887   4.001   0.402
 1213SOL    HW2 3978   1.034   3.958   0.461
 1214SOL     OW 3979   1.076   4.407   1.464
 1214SOL    HW1 3980   0.996   4.346   1.467
 1214SOL    HW2 3981   1.157   4.354   1.440
 1215SOL     OW 3982   1.227   5.294   0.793
 1215SOL    HW1 3983   1.248   5.368   0.728
 1215SOL    HW2 3984   1.295   5.294   0.866
 1216SOL     OW 3985   0.459   4.876   0.741
 1216SOL    HW1 3986   0.388   4.849   0.806
 1216SOL    HW2 3987   0.433   4.848   0.648
 1217SOL     OW 3988   1.032   4.273   0.016
 1217SOL    HW1 3989   0.991   4.355  -0.023
 1217SOL    HW2 3990   1.096   4.299   0.089
 1218SOL     OW 3991   0.078   4.280   1.386
 1218SOL    HW1 3992   0.170   4.279   1.345
 1218SOL    HW2 3993   0.072   4.354   1.453
 1219SOL     OW 3994   0.561   3.946   1.147
 1219SOL    HW1 3995   0.599   3.862   1.184
 1219SOL    HW2 3996   0.473   3.965   1.191
 1220SOL     OW 3997   0.866   4.178   0.642
 1220SOL    HW1 3998   0.834   4.250   0.580
 1220SOL    HW2 3999   0.890   4.097   0.589
 1221SOL     OW 4000   1.017   3.763   0.753
 1221SOL    HW1 4001   0.945   3.768   0.684
 1221SOL    HW2 4002   0.993   3.694   0.822
 1222SOL     OW 4003   1.429   4.897   0.867
 1222SOL    HW1 4004   1.374   4.813   0.860
 1222SOL    HW2 4005   1.455   4.926   0.775
 1223SOL     OW 4006   1.466   4.314   0.992
 1223SOL    HW1 4007   1.436   4.219   0.999
 1223SOL    HW2 4008   1.539   4.330   1.058
 1224SOL     OW 4009   1.857   4.557   0.377
 1224SOL    HW1 4010   1.899   4.493   0.441
 1224SOL    HW2 4011   1.819   4.506   0.299
 1225SOL     OW 4012   1.664   5.004   0.657
 1225SOL    HW1 4013   1.763   5.012   0.671
 1225SOL    HW2 4014   1.619   5.088   0.688
 1226SOL     OW 4015   1.390   4.299   0.078
 1226SOL    HW1 4016   1.336   4.278   0.159
 1226SOL    HW2 4017   1.481   4.258   0.087
 1227SOL     OW 4018   0.527   3.980   0.328
 1227SOL    HW1 4019   0.554   3.921   0.253
 1227SOL    HW2 4020   0.527   4.075   0.297
 1228SOL     OW 4021   1.754   4.947   1.588
 1228SOL    HW1 4022   1.845   4.908   1.575
 1228SOL    HW2 4023   1.762   5.043   1.612
 1229SOL     OW 4024   1.638   4.823   1.079
 1229SOL    HW1 4025   1.643   4.904   1.138
 1229SOL    HW2 4026   1.552   4.825   1.028
 1230SOL     OW 4027   0.915   3.813   1.402
 1230SOL    HW1 4028   0.940   3.793   1.307
 1230SOL    HW2 4029   0.987   3.869   1.444
 1231SOL     OW 4030   0.980   4.840   1.719
 1231SOL    HW1 4031   0.881   4.846   1.729
 1231SOL    HW2 4032   1.003   4.760   1.663
 1232SOL     OW 4033   0.705   4.774   0.368
 1232SOL    HW1 4034   0.691   4.781   0.467
 1232SOL    HW2 4035   0.789   4.723   0.350
 1233SOL     OW 4036   0.410   4.537   1.251
 1233SOL    HW1 4037   0.496   4.549   1.301
 1233SOL    HW2 4038   0.368   4.450   1.278
 1234SOL     OW 4039   1.274   4.110   1.262
 1234SOL    HW1 4040   1.295   4.184   1.326
 1234SOL    HW2 4041   1.185   4.127   1.219
 1235SOL     OW 4042   0.367   4.824   0.501
 1235SOL    HW1 4043   0.360   4.907   0.445
 1235SOL    HW2 4044   0.371   4.744   0.441
 1236SOL     OW 4045   0.566   4.261   0.865
 1236SOL    HW1 4046   0.578   4.327   0.791
 1236SOL    HW2 4047   0.612   4.295   0.948
 1237SOL     OW 4048   1.582   4.363   0.472
 1237SOL    HW1 4049   1.551   4.424   0.545
 1237SOL    HW2 4050   1.632   4.415   0.403
 1238SOL     OW 4051   0.402   4.475   1.598
 1238SOL    HW1 4052   0.470   4.530   1.551
 1238SOL    HW2 4053   0.442   4.387   1.625
 1239SOL     OW 4054   1.587   4.503   1.670
 1239SOL    HW1 4055   1.495   4.541   1.665
 1239SOL    HW2 4056   1.647   4.550   1.605
 1240SOL     OW 4057   1.013   3.829   1.770
 1240SOL    HW1 4058   1.019   3.914   1.718
 1240SOL    HW2 4059   1.045   3.753   1.713
 1241SOL     OW 4060   0.504   3.774   1.740
 1241SOL    HW1 4061   0.462   3.717   1.670
 1241SOL    HW2 4062   0.438   3.843   1.772
 1242SOL     OW 4063   0.573   4.594   1.029
 1242SOL    HW1 4064   0.617   4.683   1.020
 1242SOL    HW2 4065   0.510   4.594   1.106
 1243SOL     OW 4066   1.360   4.586   1.045
 1243SOL    HW1 4067   1.285   4.586   0.979
 1243SOL    HW2 4068   1.397   4.494   1.054
 1244SOL     OW 4069   1.209   4.249   0.275
 1244SOL    HW1 4070   1.222   4.165   0.329
 1244SOL    HW2 4071   1.180   4.323   0.335
 1245SOL     OW 4072   0.307   3.937   1.231
 1245SOL    HW1 4073   0.284   3.974   1.321
 1245SOL    HW2 4074   0.277   3.842   1.225
 1246SOL     OW 4075   0.037   5.034   1.282
 1246SOL    HW1 4076   0.090   4.985   1.350
 1246SOL    HW2 4077   0.059   5.132   1.287
 1247SOL     OW 4078   0.732   4.358   1.064
 1247SOL    HW1 4079   0.791   4.332   0.988
 1247SOL    HW2 4080   0.704   4.454   1.053
 1248SOL     OW 4081   1.728   4.659   1.854
 1248SOL    HW1 4082   1.682   4.652   1.765
 1248SOL    HW2 4083   1.666   4.703   1.920
 1249SOL     OW 4084   0.307   3.787   0.618
 1249SOL    HW1 4085   0.296   3.881   0.651
 1249SOL    HW2 4086   0.302   3.724   0.695
 1250SOL     OW 4087   1.622   4.091   0.374
 1250SOL    HW1 4088   1.624   4.015   0.438
 1250SOL    HW2 4089   1.574   4.168   0.414
 1251SOL     OW 4090   1.023   4.490   0.966
 1251SOL    HW1 4091   1.038   4.511   1.062
 1251SOL    HW2 4092   0.993   4.395   0.957
 1252SOL     OW 4093   1.859   5.242   1.605
 1252SOL    HW1 4094   1.873   5.269   1.510
 1252SOL    HW2 4095   1.942   5.264   1.658
 1253SOL     OW 4096   0.350   4.622   1.804
 1253SOL    HW1 4097   0.426   4.666   1.852
 1253SOL    HW2 4098   0.385   4.575   1.722
 1254SOL     OW 4099   1.540   3.998   0.125
 1254SOL    HW1 4100   1.479   3.923   0.148
 1254SOL    HW2 4101   1.562   4.050   0.208
 1255SOL     OW 4102   1.303   4.562   0.042
 1255SOL    HW1 4103   1.337   4.469   0.057
 1255SOL    HW2 4104   1.321   4.589  -0.053
 1256SOL     OW 4105   0.319   4.534   0.949
 1256SOL    HW1 4106   0.412   4.570   0.954
 1256SOL    HW2 4107   0.313   4.449   1.001
 1257SOL     OW 4108   0.339   4.233   1.006
 1257SOL    HW1 4109   0.287   4.150   0.989
 1257SOL    HW2 4110   0.416   4.238   0.942
 1258SOL     OW 4111   1.138   4.104   1.678
 1258SOL    HW1 4112   1.093   4.167   1.742
 1258SOL    HW2 4113   1.231   4.135   1.661
 1259SOL     OW 4114   1.160   3.931   1.477
 1259SOL    HW1 4115   1.160   3.995   1.554
 1259SOL    HW2 4116   1.188   3.979   1.394
 1260SOL     OW 4117   0.008   5.050   0.200
 1260SOL    HW1 4118  -0.085   5.071   0.169
 1260SOL    HW2 4119   0.018   4.951   0.213
 1261SOL     OW 4120   1.002   4.520   1.238
 1261SOL    HW1 4121   1.043   4.488   1.324
 1261SOL    HW2 4122   0.906   4.493   1.235
 1262SOL     OW 4123   0.040   4.268   1.114
 1262SOL    HW1 4124   0.125   4.235   1.073
 1262SOL    HW2 4125   0.053   4.283   1.212
 1263SOL     OW 4126   0.189   4.244   1.722
 1263SOL    HW1 4127   0.248   4.204   1.652
 1263SOL    HW2 4128   0.131   4.315   1.681
 1264SOL     OW 4129   1.369   4.674   1.660
 1264SOL    HW1 4130   1.408   4.763   1.680
 1264SOL    HW2 4131   1.379   4.654   1.563
 1265SOL     OW 4132   0.815   4.296   0.325
 1265SOL    HW1 4133   0.822   4.207   0.279
 1265SOL    HW2 4134   0.721   4.330   0.317
 1266SOL     OW 4135   1.657   4.328   1.206
 1266SOL    HW1 4136   1.619   4.259   1.268
 1266SOL    HW2 4137   1.739   4.292   1.162
 1267SOL     OW 4138   0.671   4.188   1.269
 1267SOL    HW1 4139   0.637   4.099   1.239
 1267SOL    HW2 4140   0.697   4.242   1.189
 1268SOL     OW 4141   0.473   4.224   0.191
 1268SOL    HW1 4142   0.534   4.304   0.195
 1268SOL    HW2 4143   0.378   4.255   0.198
 1269SOL     OW 4144   0.159   4.861   1.466
 1269SOL    HW1 4145   0.181   4.800   1.542
 1269SOL    HW2 4146   0.169   4.812   1.380
 1270SOL     OW 4147   1.347   4.783   1.234
 1270SOL    HW1 4148   1.371   4.720   1.160
 1270SOL    HW2 4149   1.257   4.823   1.216
 1271SOL     OW 4150   1.302   4.579   0.309
 1271SOL    HW1 4151   1.216   4.548   0.351
 1271SOL    HW2 4152   1.298   4.565   0.210
 1272SOL     OW 4153   0.083   4.982   1.022
 1272SOL    HW1 4154   0.078   4.981   1.122
 1272SOL    HW2 4155   0.000   4.941   0.984
 1273SOL     OW 4156   0.903   3.810   0.133
 1273SOL    HW1 4157   0.954   3.811   0.047
 1273SOL    HW2 4158   0.959   3.768   0.204
 1274SOL     OW 4159   1.726   3.859   0.523
 1274SOL    HW1 4160   1.799   3.842   0.456
 1274SOL    HW2 4161   1.695   3.772   0.561
 1275SOL     OW 4162   1.280   4.651   0.672
 1275SOL    HW1 4163   1.340   4.570   0.674
 1275SOL    HW2 4164   1.320   4.720   0.612
 1276SOL     OW 4165   0.830   4.997   1.422
 1276SOL    HW1 4166   0.825   5.030   1.517
 1276SOL    HW2 4167   0.744   5.016   1.376
 1277SOL     OW 4168   1.841   3.899   0.963
 1277SOL    HW1 4169   1.880   3.814   0.927
 1277SOL    HW2 4170   1.743   3.901   0.944
 1278SOL     OW 4171   0.263   4.050   0.720
 1278SOL    HW1 4172   0.184   4.101   0.686
 1278SOL    HW2 4173   0.254   4.035   0.818
 1279SOL     OW 4174   0.822   4.726   1.372
 1279SOL    HW1 4175   0.862   4.725   1.280
 1279SOL    HW2 4176   0.832   4.818   1.412
 1280SOL     OW 4177   0.916   4.634   0.291
 1280SOL    HW1 4178   0.979   4.672   0.223
 1280SOL    HW2 4179   0.956   4.551   0.330
 1281SOL     OW 4180   0.372   5.012   1.490
 1281SOL    HW1 4181   0.359   5.105   1.456
 1281SOL    HW2 4182   0.288   4.960   1.477
 1282SOL     OW 4183   1.614   5.016   1.289
 1282SOL    HW1 4184   1.674   5.019   1.369
 1282SOL    HW2 4185   1.539   5.080   1.302
 1283SOL     OW 4186   1.039   4.822   0.696
 1283SOL    HW1 4187   0.969   4.775   0.750
 1283SOL    HW2 4188   1.098   4.754   0.653
 1284SOL     OW 4189   1.014   3.960   0.971
 1284SOL    HW1 4190   1.006   3.924   0.878
 1284SOL    HW2 4191   1.012   3.884   1.036
 1285SOL     OW 4192   1.709   4.109   1.381
 1285SOL    HW1 4193   1.782   4.178   1.385
 1285SOL    HW2 4194   1.737   4.034   1.322
 1286SOL     OW 4195   0.105   4.737   1.726
 1286SOL    HW1 4196   0.028   4.704   1.780
 1286SOL    HW2 4197   0.190   4.707   1.768
 1287SOL     OW 4198   0.672   3.927   1.489
 1287SOL    HW1 4199   0.762   3.911   1.449
 1287SOL    HW2 4200   0.680   3.932   1.588
 1288SOL     OW 4201   0.075   4.069   0.033
 1288SOL    HW1 4202  -0.017   4.041   0.004
 1288SOL    HW2 4203   0.106   4.146  -0.023
 1289SOL     OW 4204   1.440   4.580   1.398
 1289SOL    HW1 4205   1.383   4.632   1.335
 1289SOL    HW2 4206   1.536   4.592   1.374
 1290SOL     OW 4207   0.072   3.890   0.318
 1290SOL    HW1 4208   0.055   3.973   0.264
 1290SOL    HW2 4209   0.162   3.853   0.296
 1291SOL     OW 4210   0.613   4.566   1.431
 1291SOL    HW1 4211   0.669   4.647   1.414
 1291SOL    HW2 4212   0.672   4.486   1.434
 1292SOL     OW 4213   0.716   4.289   1.708
 1292SOL    HW1 4214   0.735   4.354   1.782
 1292SOL    HW2 4215   0.776   4.209   1.717
 1293SOL     OW 4216   1.450   4.944   1.633
 1293SOL    HW1 4217   1.441   4.934   1.732
 1293SOL    HW2 4218   1.546   4.937   1.607
 1294SOL     OW 4219   1.674   4.607   1.254
 1294SOL    HW1 4220   1.647   4.518   1.217
 1294SOL    HW2 4221   1.675   4.675   1.181
 1295SOL     OW 4222   1.225   4.049   0.449
 1295SOL    HW1 4223   1.290   3.975   0.438
 1295SOL    HW2 4224   1.245   4.099   0.533
 1296SOL     OW 4225   0.594   4.469   0.652
 1296SOL    HW1 4226   0.644   4.554   0.633
 1296SOL    HW2 4227   0.506   4.471   0.604
 1297SOL     OW 4228   1.777   4.066   1.642
 1297SOL    HW1 4229   1.760   4.097   1.548
 1297SOL    HW2 4230   1.693   4.029   1.680
 1298SOL     OW 4231   1.730   4.658   1.517
 1298SOL    HW1 4232   1.768   4.749   1.532
 1298SOL    HW2 4233   1.722   4.641   1.418
 1299SOL     OW 4234   0.859   4.680   0.861
 1299SOL    HW1 4235   0.913   4.611   0.909
 1299SOL    HW2 4236   0.827   4.749   0.927
 1300SOL     OW 4237   1.083   4.708   0.087
 1300SOL    HW1 4238   1.060   4.761   0.005
 1300SOL    HW2 4239   1.164   4.652   0.068
 1301SOL     OW 4240   0.079   4.964   0.653
 1301SOL    HW1 4241   0.078   4.917   0.741
 1301SOL    HW2 4242   0.161   4.936   0.602
 1302SOL     OW 4243   1.824   3.916   1.227
 1302SOL    HW1 4244   1.820   3.826   1.271
 1302SOL    HW2 4245   1.827   3.905   1.128
 1303SOL     OW 4246   0.428   4.148   0.520
 1303SOL    HW1 4247   0.458   4.076   0.458
 1303SOL    HW2 4248   0.389   4.108   0.603
 1304SOL     OW 4249   0.317   4.271   1.280
 1304SOL    HW1 4250   0.355   4.212   1.352
 1304SOL    HW2 4251   0.357   4.245   1.192
 1305SOL     OW 4252   1.424   3.938   1.112
 1305SOL    HW1 4253   1.476   3.873   1.167
 1305SOL    HW2 4254   1.375   4.001   1.173
 1306SOL     OW 4255   1.001   3.758   1.154
 1306SOL    HW1 4256   0.938   3.686   1.123
 1306SOL    HW2 4257   1.094   3.722   1.154
 1307SOL     OW 4258   0.770   5.054   0.301
 1307SOL    HW1 4259   0.724   4.967   0.318
 1307SOL    HW2 4260   0.861   5.051   0.342
 1308SOL     OW 4261   1.352   3.776   0.168
 1308SOL    HW1 4262   1.387   3.735   0.084
 1308SOL    HW2 4263   1.262   3.738   0.188
 1309SOL     OW 4264   1.300   4.177   0.691
 1309SOL    HW1 4265   1.241   4.257   0.695
 1309SOL    HW2 4266   1.315   4.142   0.784
 1310SOL     OW 4267   1.593   3.945   0.882
 1310SOL    HW1 4268   1.509   3.944   0.936
 1310SOL    HW2 4269   1.595   4.028   0.826
 1311SOL     OW 4270   0.039   4.801   0.300
 1311SOL    HW1 4271   0.138   4.790   0.291
 1311SOL    HW2 4272  -0.001   4.715   0.332
 1312SOL     OW 4273   0.230   4.352   1.975
 1312SOL    HW1 4274   0.137   4.350   2.012
 1312SOL    HW2 4275   0.231   4.313   1.883
 1313SOL     OW 4276   0.225   3.999   2.858
 1313SOL    HW1 4277   0.260   3.982   2.950
 1313SOL    HW2 4278   0.137   3.954   2.846
 1314SOL     OW 4279   0.019   4.092   2.509
 1314SOL    HW1 4280  -0.063   4.135   2.548
 1314SOL    HW2 4281  -0.009   4.019   2.446
 1315SOL     OW 4282   0.569   4.999   3.027
 1315SOL    HW1 4283   0.476   4.992   2.990
 1315SOL    HW2 4284   0.580   5.088   3.071
 1316SOL     OW 4285   1.555   5.235   2.565
 1316SOL    HW1 4286   1.498   5.219   2.646
 1316SOL    HW2 4287   1.496   5.245   2.485
 1317SOL     OW 4288   1.135   4.427   2.579
 1317SOL    HW1 4289   1.192   4.505   2.554
 1317SOL    HW2 4290   1.075   4.453   2.655
 1318SOL     OW 4291   1.755   4.331   2.093
 1318SOL    HW1 4292   1.743   4.318   1.994
 1318SOL    HW2 4293   1.725   4.250   2.142
 1319SOL     OW 4294   0.768   4.868   2.885
 1319SOL    HW1 4295   0.690   4.885   2.945
 1319SOL    HW2 4296   0.802   4.955   2.849
 1320SOL     OW 4297   0.850   4.522   3.685
 1320SOL    HW1 4298   0.846   4.598   3.750
 1320SOL    HW2 4299   0.872   4.558   3.594
 1321SOL     OW 4300   0.685   4.736   2.527
 1321SOL    HW1 4301   0.754   4.720   2.597
 1321SOL    HW2 4302   0.612   4.793   2.565
 1322SOL     OW 4303   0.686   4.885   3.665
 1322SOL    HW1 4304   0.746   4.964   3.679
 1322SOL    HW2 4305   0.600   4.916   3.624
 1323SOL     OW 4306   0.335   5.159   2.923
 1323SOL    HW1 4307   0.257   5.128   2.870
 1323SOL    HW2 4308   0.393   5.217   2.866
 1324SOL     OW 4309   0.438   4.116   3.361
 1324SOL    HW1 4310   0.520   4.060   3.370
 1324SOL    HW2 4311   0.357   4.058   3.365
 1325SOL     OW 4312   1.603   4.171   2.599
 1325SOL    HW1 4313   1.529   4.217   2.549
 1325SOL    HW2 4314   1.654   4.239   2.652
 1326SOL     OW 4315   0.240   4.815   2.748
 1326SOL    HW1 4316   0.254   4.731   2.800
 1326SOL    HW2 4317   0.185   4.879   2.803
 1327SOL     OW 4318   0.606   4.688   1.985
 1327SOL    HW1 4319   0.613   4.772   1.931
 1327SOL    HW2 4320   0.652   4.701   2.073
 1328SOL     OW 4321   0.122   4.367   2.425
 1328SOL    HW1 4322   0.077   4.279   2.442
 1328SOL    HW2 4323   0.121   4.421   2.509
 1329SOL     OW 4324   1.689   4.646   2.474
 1329SOL    HW1 4325   1.784   4.617   2.482
 1329SOL    HW2 4326   1.681   4.711   2.399
 1330SOL     OW 4327   1.641   4.832   2.294
 1330SOL    HW1 4328   1.727   4.834   2.242
 1330SOL    HW2 4329   1.655   4.879   2.382
 1331SOL     OW 4330   0.113   4.461   3.459
 1331SOL    HW1 4331   0.201   4.448   3.504
 1331SOL    HW2 4332   0.100   4.558   3.437
 1332SOL     OW 4333   1.293   4.952   3.285
 1332SOL    HW1 4334   1.330   4.879   3.227
 1332SOL    HW2 4335   1.345   4.957   3.370
 1333SOL     OW 4336   0.809   3.728   2.364
 1333SOL    HW1 4337   0.849   3.819   2.355
 1333SOL    HW2 4338   0.709   3.736   2.370
 1334SOL     OW 4339   0.197   4.700   3.126
 1334SOL    HW1 4340   0.286   4.655   3.112
 1334SOL    HW2 4341   0.124   4.635   3.107
 1335SOL     OW 4342   1.525   4.723   2.052
 1335SOL    HW1 4343   1.462   4.647   2.065
 1335SOL    HW2 4344   1.573   4.741   2.138
 1336SOL     OW 4345   0.317   3.975   3.663
 1336SOL    HW1 4346   0.388   4.046   3.669
 1336SOL    HW2 4347   0.229   4.014   3.691
 1337SOL     OW 4348   1.466   5.141   2.815
 1337SOL    HW1 4349   1.407   5.147   2.895
 1337SOL    HW2 4350   1.451   5.053   2.769
 1338SOL     OW 4351   0.598   4.453   2.132
 1338SOL    HW1 4352   0.622   4.522   2.064
 1338SOL    HW2 4353   0.520   4.486   2.186
 1339SOL     OW 4354   1.281   4.069   2.806
 1339SOL    HW1 4355   1.195   4.019   2.793
 1339SOL    HW2 4356   1.343   4.015   2.862
 1340SOL     OW 4357   0.807   4.329   3.327
 1340SOL    HW1 4358   0.760   4.326   3.416
 1340SOL    HW2 4359   0.756   4.274   3.261
 1341SOL     OW 4360   0.973   4.614   3.434
 1341SOL    HW1 4361   1.019   4.530   3.405
 1341SOL    HW2 4362   0.917   4.648   3.359
 1342SOL     OW 4363   0.991   4.134   3.104
 1342SOL    HW1 4364   0.914   4.168   3.158
 1342SOL    HW2 4365   0.957   4.083   3.025
 1343SOL     OW 4366   1.041   4.425   2.291
 1343SOL    HW1 4367   1.067   4.421   2.387
 1343SOL    HW2 4368   0.956   4.374   2.277
 1344SOL     OW 4369   0.076   4.535   2.651
 1344SOL    HW1 4370   0.175   4.523   2.660
 1344SOL    HW2 4371   0.052   4.630   2.672
 1345SOL     OW 4372   0.865   4.072   2.057
 1345SOL    HW1 4373   0.924   4.135   2.008
 1345SOL    HW2 4374   0.884   3.978   2.028
 1346SOL     OW 4375   1.719   4.309   3.693
 1346SOL    HW1 4376   1.693   4.398   3.657
 1346SOL    HW2 4377   1.717   4.241   3.620
 1347SOL     OW 4378   1.362   4.868   2.407
 1347SOL    HW1 4379   1.445   4.839   2.359
 1347SOL    HW2 4380   1.313   4.935   2.351
 1348SOL     OW 4381   0.550   3.920   2.747
 1348SOL    HW1 4382   0.545   3.915   2.847
 1348SOL    HW2 4383   0.552   4.016   2.718
 1349SOL     OW 4384   1.795   4.790   2.735
 1349SOL    HW1 4385   1.733   4.775   2.659
 1349SOL    HW2 4386   1.743   4.801   2.820
 1350SOL     OW 4387   0.321   4.667   2.104
 1350SOL    HW1 4388   0.403   4.706   2.062
 1350SOL    HW2 4389   0.294   4.585   2.055
 1351SOL     OW 4390   1.458   4.459   2.590
 1351SOL    HW1 4391   1.453   4.394   2.665
 1351SOL    HW2 4392   1.538   4.518   2.603
 1352SOL     OW 4393   0.202   4.009   3.360
 1352SOL    HW1 4394   0.122   4.069   3.347
 1352SOL    HW2 4395   0.192   3.960   3.446
 1353SOL     OW 4396   1.632   5.101   1.943
 1353SOL    HW1 4397   1.600   5.195   1.933
 1353SOL    HW2 4398   1.556   5.038   1.931
 1354SOL     OW 4399   1.400   3.831   2.288
 1354SOL    HW1 4400   1.376   3.794   2.198
 1354SOL    HW2 4401   1.499   3.847   2.292
 1355SOL     OW 4402   0.382   4.424   2.342
 1355SOL    HW1 4403   0.427   4.334   2.339
 1355SOL    HW2 4404   0.288   4.413   2.375
 1356SOL     OW 4405   0.614   3.846   1.979
 1356SOL    HW1 4406   0.712   3.824   1.986
 1356SOL    HW2 4407   0.583   3.829   1.886
 1357SOL     OW 4408   0.781   3.988   3.611
 1357SOL    HW1 4409   0.848   3.927   3.654
 1357SOL    HW2 4410   0.708   4.007   3.676
 1358SOL     OW 4411   0.803   5.126   2.786
 1358SOL    HW1 4412   0.893   5.140   2.744
 1358SOL    HW2 4413   0.732   5.128   2.715
 1359SOL     OW 4414   0.922   4.227   2.761
 1359SOL    HW1 4415   0.897   4.218   2.665
 1359SOL    HW2 4416   0.970   4.145   2.792
 1360SOL     OW 4417   0.539   3.788   2.374
 1360SOL    HW1 4418   0.458   3.789   2.432
 1360SOL    HW2 4419   0.542   3.871   2.319
 1361SOL     OW 4420   1.434   4.912   1.903
 1361SOL    HW1 4421   1.466   4.836   1.960
 1361SOL    HW2 4422   1.342   4.939   1.933
 1362SOL     OW 4423   0.297   3.759   2.033
 1362SOL    HW1 4424   0.346   3.843   2.012
 1362SOL    HW2 4425   0.359   3.694   2.078
 1363SOL     OW 4426   0.935   3.960   2.342
 1363SOL    HW1 4427   0.887   4.001   2.264
 1363SOL    HW2 4428   1.034   3.958   2.323
 1364SOL     OW 4429   1.076   4.407   3.326
 1364SOL    HW1 4430   0.996   4.346   3.329
 1364SOL    HW2 4431   1.157   4.354   3.302
 1365SOL     OW 4432   1.227   5.294   2.655
 1365SOL    HW1 4433   1.248   5.368   2.590
 1365SOL    HW2 4434   1.295   5.294   2.728
 1366SOL     OW 4435   0.459   4.876   2.603
 1366SOL    HW1 4436   0.388   4.849   2.668
 1366SOL    HW2 4437   0.433   4.848   2.510
 1367SOL     OW 4438   1.032   4.273   1.878
 1367SOL    HW1 4439   0.991   4.355   1.839
 1367SOL    HW2 4440   1.096   4.299   1.951
 1368SOL     OW 4441   0.078   4.280   3.248
 1368SOL    HW1 4442   0.170   4.279   3.207
 1368SOL    HW2 4443   0.072   4.354   3.315
 1369SOL     OW 4444   0.561   3.946   3.009
 1369SOL    HW1 4445   0.599   3.862   3.046
 1369SOL    HW2 4446   0.473   3.965   3.053
 1370SOL     OW 4447   0.866   4.178   2.504
 1370SOL    HW1 4448   0.834   4.250   2.442
 1370SOL    HW2 4449   0.890   4.097   2.451
 1371SOL     OW 4450   1.017   3.763   2.615
 1371SOL    HW1 4451   0.945   3.768   2.546
 1371SOL    HW2 4452   0.993   3.694   2.684
 1372SOL     OW 4453   1.429   4.897   2.729
 1372SOL    HW1 4454   1.374   4.813   2.722
 1372SOL    HW2 4455   1.455   4.926   2.637
 1373SOL     OW 4456   1.466   4.314   2.854
 1373SOL    HW1 4457   1.436   4.219   2.861
 1373SOL    HW2 4458   1.539   4.330   2.920
 1374SOL     OW 4459   1.857   4.557   2.239
 1374SOL    HW1 4460   1.899   4.493   2.303
 1374SOL    HW2 4461   1.819   4.506   2.161
 1375SOL     OW 4462   1.664   5.004   2.519
 1375SOL    HW1 4463   1.763   5.012   2.533
 1375SOL    HW2 4464   1.619   5.088   2.550
 1376SOL     OW 4465   1.390   4.299   1.940
 1376SOL    HW1 4466   1.336   4.278   2.021
 1376SOL    HW2 4467   1.481   4.258   1.949
 1377SOL     OW 4468   0.527   3.980   2.190
 1377SOL    HW1 4469   0.554   3.921   2.115
 1377SOL    HW2 4470   0.527   4.075   2.159
 1378SOL     OW 4471   1.754   4.947   3.450
 1378SOL    HW1 4472   1.845   4.908   3.437
 1378SOL    HW2 4473   1.762   5.043   3.474
 1379SOL     OW 4474   1.638   4.823   2.941
 1379SOL    HW1 4475   1.643   4.904   3.000
 1379SOL    HW2 4476   1.552   4.825   2.890
 1380SOL     OW 4477   0.915   3.813   3.264
 1380SOL    HW1 4478   0.940   3.793   3.169
 1380SOL    HW2 4479   0.987   3.869   3.306
 1381SOL     OW 4480   0.980   4.840   3.581
 1381SOL    HW1 4481   0.881   4.846   3.591
 1381SOL    HW2 4482   1.003   4.760   3.525
 1382SOL     OW 4483   0.705   4.774   2.230
 1382SOL    HW1 4484   0.691   4.781   2.329
 1382SOL    HW2 4485   0.789   4.723   2.212
 1383SOL     OW 4486   0.410   4.537   3.113
 1383SOL    HW1 4487   0.496   4.549   3.163
 1383SOL    HW2 4488   0.368   4.450   3.140
 1384SOL     OW 4489   0.367   4.824   2.363
 1384SOL    HW1 4490   0.360   4.907   2.307
 1384SOL    HW2 4491   0.371   4.744   2.303
 1385SOL     OW 4492   0.566   4.261   2.727
 1385SOL    HW1 4493   0.578   4.327   2.653
 1385SOL    HW2 4494   0.612   4.295   2.810
 1386SOL     OW 4495   1.582   4.363   2.334
 1386SOL    HW1 4496   1.551   4.424   2.407
 1386SOL    HW2 4497   1.632   4.415   2.265
 1387SOL     OW 4498   0.402   4.475   3.460
 1387SOL    HW1 4499   0.470   4.530   3.413
 1387SOL    HW2 4500   0.442   4.387   3.487
 1388SOL     OW 4501   1.587   4.503   3.532
 1388SOL    HW1 4502   1.495   4.541   3.527
 1388SOL    HW2 4503   1.647   4.550   3.467
 1389SOL     OW 4504   1.013   3.829   3.632
 1389SOL    HW1 4505   1.019   3.914   3.580
 1389SOL    HW2 4506   1.045   3.753   3.575
 1390SOL     OW 4507   0.504   3.774   3.602
 1390SOL    HW1 4508   0.462   3.717   3.532
 1390SOL    HW2 4509   0.438   3.843   3.634
 1391SOL     OW 4510   0.573   4.594   2.891
 1391SOL    HW1 4511   0.617   4.683   2.882
 1391SOL    HW2 4512   0.510   4.594   2.968
 1392SOL     OW 4513   1.360   4.586   2.907
 1392SOL    HW1 4514   1.285   4.586   2.841
 1392SOL    HW2 4515   1.397   4.494   2.916
 1393SOL     OW 4516   1.209   4.249   2.137
 1393SOL    HW1 4517   1.222   4.165   2.191
 1393SOL    HW2 4518   1.180   4.323   2.197
 1394SOL     OW 4519   0.307   3.937   3.093
 1394SOL    HW1 4520   0.284   3.974   3.183
 1394SOL    HW2 4521   0.277   3.842   3.087
 1395SOL     OW 4522   0.037   5.034   3.144
 1395SOL    HW1 4523   0.090   4.985   3.212
 1395SOL    HW2 4524   0.059   5.132   3.149
 1396SOL     OW 4525   0.732   4.358   2.926
 1396SOL    HW1 4526   0.791   4.332   2.850
 1396SOL    HW2 4527   0.704   4.454   2.915
 1397SOL     OW 4528   1.728   4.659   3.716
 1397SOL    HW1 4529   1.682   4.652   3.627
 1397SOL    HW2 4530   1.666   4.703   3.782
 1398SOL     OW 4531   0.307   3.787   2.480
 1398SOL    HW1 4532   0.296   3.881   2.513
 1398SOL    HW2 4533   0.302   3.724   2.557
 1399SOL     OW 4534   1.622   4.091   2.236
 1399SOL    HW1 4535   1.624   4.015   2.300
 1399SOL    HW2 4536   1.574   4.168   2.276
 1400SOL     OW 4537   1.023   4.490   2.828
 1400SOL    HW1 4538   1.038   4.511   2.924
 1400SOL    HW2 4539   0.993   4.395   2.819
 1401SOL     OW 4540   1.859   5.242   3.467
 1401SOL    HW1 4541   1.873   5.269   3.372
 1401SOL    HW2 4542   1.942   5.264   3.520
 1402SOL     OW 4543   0.350   4.622   3.666
 1402SOL    HW1 4544   0.426   4.666   3.714
 1402SOL    HW2 4545   0.385   4.575   3.584
 1403SOL     OW 4546   1.540   3.998   1.987
 1403SOL    HW1 4547   1.479   3.923   2.010
 1403SOL    HW2 4548   1.562   4.050   2.070
 1404SOL     OW 4549   1.303   4.562   1.904
 1404SOL    HW1 4550   1.337   4.469   1.919
 1404SOL    HW2 4551   1.321   4.589   1.809
 1405SOL     OW 4552   0.319   4.534   2.811
 1405SOL    HW1 4553   0.412   4.570   2.816
 1405SOL    HW2 4554   0.313   4.449   2.863
 1406SOL     OW 4555   0.339   4.233   2.868
 1406SOL    HW1 4556   0.287   4.150   2.851
 1406SOL    HW2 4557   0.416   4.238   2.804
 1407SOL     OW 4558   0.008   5.050   2.062
 1407SOL    HW1 4559  -0.085   5.071   2.031
 1407SOL    HW2 4560   0.018   4.951   2.075
 1408SOL     OW 4561   1.002   4.520   3.100
 1408SOL    HW1 4562   1.043   4.488   3.186
 1408SOL    HW2 4563   0.906   4.493   3.097
 1409SOL     OW 4564   0.040   4.268   2.976
 1409SOL    HW1 4565   0.125   4.235   2.935
 1409SOL    HW2 4566   0.053   4.283   3.074
 1410SOL     OW 4567   0.189   4.244   3.584
 1410SOL    HW1 4568   0.248   4.204   3.514
 1410SOL    HW2 4569   0.131   4.315   3.543
 1411SOL     OW 4570   1.369   4.674   3.522
 1411SOL    HW1 4571   1.408   4.763   3.542
 1411SOL    HW2 4572   1.379   4.654   3.425
 1412SOL     OW 4573   0.815   4.296   2.187
 1412SOL    HW1 4574   0.822   4.207   2.141
 1412SOL    HW2 4575   0.721   4.330   2.179
 1413SOL     OW 4576   1.657   4.328   3.068
 1413SOL    HW1 4577   1.619   4.259   3.130
 1413SOL    HW2 4578   1.739   4.292   3.024
 1414SOL     OW 4579   0.671   4.188   3.131
 1414SOL    HW1 4580   0.637   4.099   3.101
 1414SOL    HW2 4581   0.697   4.242   3.051
 1415SOL     OW 4582   0.473   4.224   2.053
 1415SOL    HW1 4583   0.534   4.304   2.057
 1415SOL    HW2 4584   0.378   4.255   2.060
 1416SOL     OW 4585   0.159   4.861   3.328
 1416SOL    HW1 4586   0.181   4.800   3.404
 1416SOL    HW2 4587   0.169   4.812   3.242
 1417SOL     OW 4588   1.347   4.783   3.096
 1417SOL    HW1 4589   1.371   4.720   3.022
 1417SOL    HW2 4590   1.257   4.823   3.078
 1418SOL     OW 4591   1.302   4.579   2.171
 1418SOL    HW1 4592   1.216   4.548   2.213
 1418SOL    HW2 4593   1.298   4.565   2.072
 1419SOL     OW 4594   0.083   4.982   2.884
 1419SOL    HW1 4595   0.078   4.981   2.984
 1419SOL    HW2 4596   0.000   4.941   2.846
 1420SOL     OW 4597   1.726   3.859   2.385
 1420SOL    HW1 4598   1.799   3.842   2.318
 1420SOL    HW2 4599   1.695   3.772   2.423
 1421SOL     OW 4600   1.280   4.651   2.534
 1421SOL    HW1 4601   1.340   4.570   2.536
 1421SOL    HW2 4602   1.320   4.720   2.474
 1422SOL     OW 4603   0.830   4.997   3.284
 1422SOL    HW1 4604   0.825   5.030   3.379
 1422SOL    HW2 4605   0.744   5.016   3.238
 1423SOL     OW 4606   1.841   3.899   2.825
 1423SOL    HW1 4607   1.880   3.814   2.789
 1423SOL    HW2 4608   1.743   3.901   2.806
 1424SOL     OW 4609   0.263   4.050   2.582
 1424SOL    HW1 4610   0.184   4.101   2.548
 1424SOL    HW2 4611   0.254   4.035   2.680
 1425SOL     OW 4612   1.194   5.336   1.893
 1425SOL    HW1 4613   1.200   5.243   1.930
 1425SOL    HW2 4614   1.135   5.336   1.813
 1426SOL     OW 4615   0.822   4.726   3.234
 1426SOL    HW1 4616   0.862   4.725   3.142
 1426SOL    HW2 4617   0.832   4.818   3.274
 1427SOL     OW 4618   0.916   4.634   2.153
 1427SOL    HW1 4619   0.979   4.672   2.085
 1427SOL    HW2 4620   0.956   4.551   2.192
 1428SOL     OW 4621   0.372   5.012   3.352
 1428SOL    HW1 4622   0.359   5.105   3.318
 1428SOL    HW2 4623   0.288   4.960   3.339
 1429SOL     OW 4624   1.614   5.016   3.151
 1429SOL    HW1 4625   1.674   5.019   3.231
 1429SOL    HW2 4626   1.539   5.080   3.164
 1430SOL     OW 4627   1.039   4.822   2.558
 1430SOL    HW1 4628   0.969   4.775   2.612
 1430SOL    HW2 4629   1.098   4.754   2.515
 1431SOL     OW 4630   1.014   3.960   2.833
 1431SOL    HW1 4631   1.006   3.924   2.740
 1431SOL    HW2 4632   1.012   3.884   2.898
 1432SOL     OW 4633   1.709   4.109   3.243
 1432SOL    HW1 4634   1.782   4.178   3.247
 1432SOL    HW2 4635   1.737   4.034   3.184
 1433SOL     OW 4636   0.105   4.737   3.588
 1433SOL    HW1 4637   0.028   4.704   3.642
 1433SOL    HW2 4638   0.190   4.707   3.630
 1434SOL     OW 4639   0.672   3.927   3.351
 1434SOL    HW1 4640   0.762   3.911   3.311
 1434SOL    HW2 4641   0.680   3.932   3.450
 1435SOL     OW 4642   0.075   4.069   1.895
 1435SOL    HW1 4643  -0.017   4.041   1.866
 1435SOL    HW2 4644   0.106   4.146   1.839
 1436SOL     OW 4645   1.440   4.580   3.260
 1436SOL    HW1 4646   1.383   4.632   3.197
 1436SOL    HW2 4647   1.536   4.592   3.236
 1437SOL     OW 4648   0.072   3.890   2.180
 1437SOL    HW1 4649   0.055   3.973   2.126
 1437SOL    HW2 4650   0.162   3.853   2.158
 1438SOL     OW 4651   0.613   4.566   3.293
 1438SOL    HW1 4652   0.669   4.647   3.276
 1438SOL    HW2 4653   0.672   4.486   3.296
 1439SOL     OW 4654   0.716   4.289   3.570
 1439SOL    HW1 4655   0.735   4.354   3.644
 1439SOL    HW2 4656   0.776   4.209   3.579
 1440SOL     OW 4657   1.450   4.944   3.495
 1440SOL    HW1 4658   1.441   4.934   3.594
 1440SOL    HW2 4659   1.546   4.937   3.469
 1441SOL     OW 4660   1.674   4.607   3.116
 1441SOL    HW1 4661   1.647   4.518   3.079
 1441SOL    HW2 4662   1.675   4.675   3.043
 1442SOL     OW 4663   1.225   4.049   2.311
 1442SOL    HW1 4664   1.290   3.975   2.300
 1442SOL    HW2 4665   1.245   4.099   2.395
 1443SOL     OW 4666   0.594   4.469   2.514
 1443SOL    HW1 4667   0.644   4.554   2.495
 1443SOL    HW2 4668   0.506   4.471   2.466
 1444SOL     OW 4669   1.777   4.066   3.504
 1444SOL    HW1 4670   1.760   4.097   3.410
 1444SOL    HW2 4671   1.693   4.029   3.542
 1445SOL     OW 4672   1.730   4.658   3.379
 1445SOL    HW1 4673   1.768   4.749   3.394
 1445SOL    HW2 4674   1.722   4.641   3.280
 1446SOL     OW 4675   0.859   4.680   2.723
 1446SOL    HW1 4676   0.913   4.611   2.771
 1446SOL    HW2 4677   0.827   4.749   2.789
 1447SOL     OW 4678   1.083   4.708   1.949
 1447SOL    HW1 4679   1.060   4.761   1.867
 1447SOL    HW2 4680   1.164   4.652   1.930
 1448SOL     OW 4681   0.079   4.964   2.515
 1448SOL    HW1 4682   0.078   4.917   2.603
 1448SOL    HW2 4683   0.161   4.936   2.464
 1449SOL     OW 4684   1.824   3.916   3.089
 1449SOL    HW1 4685   1.820   3.826   3.133
 1449SOL    HW2 4686   1.827   3.905   2.990
 1450SOL     OW 4687   0.428   4.148   2.382
 1450SOL    HW1 4688   0.458   4.076   2.320
 1450SOL    HW2 4689   0.389   4.108   2.465
 1451SOL     OW 4690   0.317   4.271   3.142
 1451SOL    HW1 4691   0.355   4.212   3.214
 1451SOL    HW2 4692   0.357   4.245   3.054
 1452SOL     OW 4693   1.001   3.758   3.016
 1452SOL    HW1 4694   0.938   3.686   2.985
 1452SOL    HW2 4695   1.094   3.722   3.016
 1453SOL     OW 4696   0.770   5.054   2.163
 1453SOL    HW1 4697   0.724   4.967   2.180
 1453SOL    HW2 4698   0.861   5.051   2.204
 1454SOL     OW 4699   1.352   3.776   2.030
 1454SOL    HW1 4700   1.387   3.735   1.946
 1454SOL    HW2 4701   1.262   3.738   2.050
 1455SOL     OW 4702   1.300   4.177   2.553
 1455SOL    HW1 4703   1.241   4.257   2.557
 1455SOL    HW2 4704   1.315   4.142   2.646
 1456SOL     OW 4705   1.593   3.945   2.744
 1456SOL    HW1 4706   1.509   3.944   2.798
 1456SOL    HW2 4707   1.595   4.028   2.688
 1457SOL     OW 4708   0.039   4.801   2.162
 1457SOL    HW1 4709   0.138   4.790   2.153
 1457SOL    HW2 4710  -0.001   4.715   2.194
 1458SOL     OW 4711   0.230   4.352   3.837
 1458SOL    HW1 4712   0.137   4.350   3.874
 1458SOL    HW2 4713   0.231   4.313   3.745
 1459SOL     OW 4714   0.225   3.999   4.720
 1459SOL    HW1 4715   0.260   3.982   4.812
 1459SOL    HW2 4716   0.137   3.954   4.708
 1460SOL     OW 4717   0.019   4.092   4.371
 1460SOL    HW1 4718  -0.063   4.135   4.410
 1460SOL    HW2 4719  -0.009   4.019   4.308
 1461SOL     OW 4720   0.569   4.999   4.889
 1461SOL    HW1 4721   0.476   4.992   4.852
 1461SOL    HW2 4722   0.580   5.088   4.933
 1462SOL     OW 4723   1.555   5.235   4.427
 1462SOL    HW1 4724   1.498   5.219   4.508
 1462SOL    HW2 4725   1.496   5.245   4.347
 1463SOL     OW 4726   1.135   4.427   4.441
 1463SOL    HW1 4727   1.192   4.505   4.416
 1463SOL    HW2 4728   1.075   4.453   4.517
 1464SOL     OW 4729   1.755   4.331   3.955
 1464SOL    HW1 4730   1.743   4.318   3.856
 1464SOL    HW2 4731   1.725   4.250   4.004
 1465SOL     OW 4732   0.768   4.868   4.747
 1465SOL    HW1 4733   0.690   4.885   4.807
 1465SOL    HW2 4734   0.802   4.955   4.711
 1466SOL     OW 4735   0.685   4.736   4.389
 1466SOL    HW1 4736   0.754   4.720   4.459
 1466SOL    HW2 4737   0.612   4.793   4.427
 1467SOL     OW 4738   0.335   5.159   4.785
 1467SOL    HW1 4739   0.257   5.128   4.732
 1467SOL    HW2 4740   0.393   5.217   4.728
 1468SOL     OW 4741   1.603   4.171   4.461
 1468SOL    HW1 4742   1.529   4.217   4.411
 1468SOL    HW2 4743   1.654   4.239   4.514
 1469SOL     OW 4744   0.240   4.815   4.610
 1469SOL    HW1 4745   0.254   4.731   4.662
 1469SOL    HW2 4746   0.185   4.879   4.665
 1470SOL     OW 4747   0.606   4.688   3.847
 1470SOL    HW1 4748   0.613   4.772   3.793
 1470SOL    HW2 4749   0.652   4.701   3.935
 1471SOL     OW 4750   0.122   4.367   4.287
 1471SOL    HW1 4751   0.077   4.279   4.304
 1471SOL    HW2 4752   0.121   4.421   4.371
 1472SOL     OW 4753   1.689   4.646   4.336
 1472SOL    HW1 4754   1.784   4.617   4.344
 1472SOL    HW2 4755   1.681   4.711   4.261
 1473SOL     OW 4756   1.641   4.832   4.156
 1473SOL    HW1 4757   1.727   4.834   4.104
 1473SOL    HW2 4758   1.655   4.879   4.244
 1474SOL     OW 4759   0.809   3.728   4.226
 1474SOL    HW1 4760   0.849   3.819   4.217
 1474SOL    HW2 4761   0.709   3.736   4.232
 1475SOL     OW 4762   0.197   4.700   4.988
 1475SOL    HW1 4763   0.286   4.655   4.974
 1475SOL    HW2 4764   0.124   4.635   4.969
 1476SOL     OW 4765   1.525   4.723   3.914
 1476SOL    HW1 4766   1.462   4.647   3.927
 1476SOL    HW2 4767   1.573   4.741   4.000
 1477SOL     OW 4768   1.466   5.141   4.677
 1477SOL    HW1 4769   1.407   5.147   4.757
 1477SOL    HW2 4770   1.451   5.053   4.631
 1478SOL     OW 4771   0.598   4.453   3.994
 1478SOL    HW1 4772   0.622   4.522   3.926
 1478SOL    HW2 4773   0.520   4.486   4.048
 1479SOL     OW 4774   1.281   4.069   4.668
 1479SOL    HW1 4775   1.195   4.019   4.655
 1479SOL    HW2 4776   1.343   4.015   4.724
 1480SOL     OW 4777   0.991   4.134   4.966
 1480SOL    HW1 4778   0.914   4.168   5.020
 1480SOL    HW2 4779   0.957   4.083   4.887
 1481SOL     OW 4780   1.041   4.425   4.153
 1481SOL    HW1 4781   1.067   4.421   4.249
 1481SOL    HW2 4782   0.956   4.374   4.139
 1482SOL     OW 4783   0.076   4.535   4.513
 1482SOL    HW1 4784   0.175   4.523   4.522
 1482SOL    HW2 4785   0.052   4.630   4.534
 1483SOL     OW 4786   0.865   4.072   3.919
 1483SOL    HW1 4787   0.924   4.135   3.870
 1483SOL    HW2 4788   0.884   3.978   3.890
 1484SOL     OW 4789   1.362   4.868   4.269
 1484SOL    HW1 4790   1.445   4.839   4.221
 1484SOL    HW2 4791   1.313   4.935   4.213
 1485SOL     OW 4792   0.550   3.920   4.609
 1485SOL    HW1 4793   0.545   3.915   4.709
 1485SOL    HW2 4794   0.552   4.016   4.580
 1486SOL     OW 4795   1.795   4.790   4.597
 1486SOL    HW1 4796   1.733   4.775   4.521
 1486SOL    HW2 4797   1.743   4.801   4.682
 1487SOL     OW 4798   0.321   4.667   3.966
 1487SOL    HW1 4799   0.403   4.706   3.924
 1487SOL    HW2 4800   0.294   4.585   3.917
 1488SOL     OW 4801   1.458   4.459   4.452
 1488SOL    HW1 4802   1.453   4.394   4.527
 1488SOL    HW2 4803   1.538   4.518   4.465
 1489SOL     OW 4804   1.632   5.101   3.805
 1489SOL    HW1 4805   1.600   5.195   3.795
 1489SOL    HW2 4806   1.556   5.038   3.793
 1490SOL     OW 4807   1.400   3.831   4.150
 1490SOL    HW1 4808   1.376   3.794   4.060
 1490SOL    HW2 4809   1.499   3.847   4.154
 1491SOL     OW 4810   0.382   4.424   4.204
 1491SOL    HW1 4811   0.427   4.334   4.201
 1491SOL    HW2 4812   0.288   4.413   4.237
 1492SOL     OW 4813   0.614   3.846   3.841
 1492SOL    HW1 4814   0.712   3.824   3.848
 1492SOL    HW2 4815   0.583   3.829   3.748
 1493SOL     OW 4816   0.803   5.126   4.648
 1493SOL    HW1 4817   0.893   5.140   4.606
 1493SOL    HW2 4818   0.732   5.128   4.577
 1494SOL     OW 4819   0.922   4.227   4.623
 1494SOL    HW1 4820   0.897   4.218   4.527
 1494SOL    HW2 4821   0.970   4.145   4.654
 1495SOL     OW 4822   0.539   3.788   4.236
 1495SOL    HW1 4823   0.458   3.789   4.294
 1495SOL    HW2 4824   0.542   3.871   4.181
 1496SOL     OW 4825   1.434   4.912   3.765
 1496SOL    HW1 4826   1.466   4.836   3.822
 1496SOL    HW2 4827   1.342   4.939   3.795
 1497SOL     OW 4828   0.297   3.759   3.895
 1497SOL    HW1 4829   0.346   3.843   3.874
 1497SOL    HW2 4830   0.359   3.694   3.940
 1498SOL     OW 4831   0.935   3.960   4.204
 1498SOL    HW1 4832   0.887   4.001   4.126
 1498SOL    HW2 4833   1.034   3.958   4.185
 1499SOL     OW 4834   1.227   5.294   4.517
 1499SOL    HW1 4835   1.248   5.368   4.452
 1499SOL    HW2 4836   1.295   5.294   4.590
 1500SOL     OW 4837   0.459   4.876   4.465
 1500SOL    HW1 4838   0.388   4.849   4.530
 1500SOL    HW2 4839   0.433   4.848   4.372
 1501SOL     OW 4840   0.561   3.946   4.871
 1501SOL    HW1 4841   0.599   3.862   4.908
 1501SOL    HW2 4842   0.473   3.965   4.915
 1502SOL     OW 4843   0.866   4.178   4.366
 1502SOL    HW1 4844   0.834   4.250   4.304
 1502SOL    HW2 4845   0.890   4.097   4.313
 1503SOL     OW 4846   1.017   3.763   4.477
 1503SOL    HW1 4847   0.945   3.768   4.408
 1503SOL    HW2 4848   0.993   3.694   4.546
 1504SOL     OW 4849   1.429   4.897   4.591
 1504SOL    HW1 4850   1.374   4.813   4.584
 1504SOL    HW2 4851   1.455   4.926   4.499
 1505SOL     OW 4852   1.466   4.314   4.716
 1505SOL    HW1 4853   1.436   4.219   4.723
 1505SOL    HW2 4854   1.539   4.330   4.782
 1506SOL     OW 4855   1.857   4.557   4.101
 1506SOL    HW1 4856   1.899   4.493   4.165
 1506SOL    HW2 4857   1.819   4.506   4.023
 1507SOL     OW 4858   1.664   5.004   4.381
 1507SOL    HW1 4859   1.763   5.012   4.395
 1507SOL    HW2 4860   1.619   5.088   4.412
 1508SOL     OW 4861   0.527   3.980   4.052
 1508SOL    HW1 4862   0.554   3.921   3.977
 1508SOL    HW2 4863   0.527   4.075   4.021
 1509SOL     OW 4864   1.638   4.823   4.803
 1509SOL    HW1 4865   1.643   4.904   4.862
 1509SOL    HW2 4866   1.552   4.825   4.752
 1510SOL     OW 4867   0.705   4.774   4.092
 1510SOL    HW1 4868   0.691   4.781   4.191
 1510SOL    HW2 4869   0.789   4.723   4.074
 1511SOL     OW 4870   0.410   4.537   4.975
 1511SOL    HW1 4871   0.496   4.549   5.025
 1511SOL    HW2 4872   0.368   4.450   5.002
 1512SOL     OW 4873   1.274   4.110   4.986
 1512SOL    HW1 4874   1.295   4.184   5.050
 1512SOL    HW2 4875   1.185   4.127   4.943
 1513SOL     OW 4876   0.367   4.824   4.225
 1513SOL    HW1 4877   0.360   4.907   4.169
 1513SOL    HW2 4878   0.371   4.744   4.165
 1514SOL     OW 4879   0.566   4.261   4.589
 1514SOL    HW1 4880   0.578   4.327   4.515
 1514SOL    HW2 4881   0.612   4.295   4.672
 1515SOL     OW 4882   1.582   4.363   4.196
 1515SOL    HW1 4883   1.551   4.424   4.269
 1515SOL    HW2 4884   1.632   4.415   4.127
 1516SOL     OW 4885   0.573   4.594   4.753
 1516SOL    HW1 4886   0.617   4.683   4.744
 1516SOL    HW2 4887   0.510   4.594   4.830
 1517SOL     OW 4888   1.360   4.586   4.769
 1517SOL    HW1 4889   1.285   4.586   4.703
 1517SOL    HW2 4890   1.397   4.494   4.778
 1518SOL     OW 4891   0.307   3.937   4.955
 1518SOL    HW1 4892   0.284   3.974   5.045
 1518SOL    HW2 4893   0.277   3.842   4.949
 1519SOL     OW 4894   0.037   5.034   5.006
 1519SOL    HW1 4895   0.090   4.985   5.074
 1519SOL    HW2 4896   0.059   5.132   5.011
 1520SOL     OW 4897   0.732   4.358   4.788
 1520SOL    HW1 4898   0.791   4.332   4.712
 1520SOL    HW2 4899   0.704   4.454   4.777
 1521SOL     OW 4900   0.307   3.787   4.342
 1521SOL    HW1 4901   0.296   3.881   4.375
 1521SOL    HW2 4902   0.302   3.724   4.419
 1522SOL     OW 4903   1.622   4.091   4.098
 1522SOL    HW1 4904   1.624   4.015   4.162
 1522SOL    HW2 4905   1.574   4.168   4.138
 1523SOL     OW 4906   1.023   4.490   4.690
 1523SOL    HW1 4907   1.038   4.511   4.786
 1523SOL    HW2 4908   0.993   4.395   4.681
 1524SOL     OW 4909   1.540   3.998   3.849
 1524SOL    HW1 4910   1.479   3.923   3.872
 1524SOL    HW2 4911   1.562   4.050   3.932
 1525SOL     OW 4912   1.303   4.562   3.766
 1525SOL    HW1 4913   1.337   4.469   3.781
 1525SOL    HW2 4914   1.321   4.589   3.671
 1526SOL     OW 4915   0.319   4.534   4.673
 1526SOL    HW1 4916   0.412   4.570   4.678
 1526SOL    HW2 4917   0.313   4.449   4.725
 1527SOL     OW 4918   0.339   4.233   4.730
 1527SOL    HW1 4919   0.287   4.150   4.713
 1527SOL    HW2 4920   0.416   4.238   4.666
 1528SOL     OW 4921   1.160   3.931   5.201
 1528SOL    HW1 4922   1.160   3.995   5.278
 1528SOL    HW2 4923   1.188   3.979   5.118
 1529SOL     OW 4924   0.008   5.050   3.924
 1529SOL    HW1 4925  -0.085   5.071   3.893
 1529SOL    HW2 4926   0.018   4.951   3.937
 1530SOL     OW 4927   1.002   4.520   4.962
 1530SOL    HW1 4928   1.043   4.488   5.048
 1530SOL    HW2 4929   0.906   4.493   4.959
 1531SOL     OW 4930   0.040   4.268   4.838
 1531SOL    HW1 4931   0.125   4.235   4.797
 1531SOL    HW2 4932   0.053   4.283   4.936
 1532SOL     OW 4933   0.815   4.296   4.049
 1532SOL    HW1 4934   0.822   4.207   4.003
 1532SOL    HW2 4935   0.721   4.330   4.041
 1533SOL     OW 4936   1.657   4.328   4.930
 1533SOL    HW1 4937   1.619   4.259   4.992
 1533SOL    HW2 4938   1.739   4.292   4.886
 1534SOL     OW 4939   0.671   4.188   4.993
 1534SOL    HW1 4940   0.637   4.099   4.963
 1534SOL    HW2 4941   0.697   4.242   4.913
 1535SOL     OW 4942   0.473   4.224   3.915
 1535SOL    HW1 4943   0.534   4.304   3.919
 1535SOL    HW2 4944   0.378   4.255   3.922
 1536SOL     OW 4945   1.347   4.783   4.958
 1536SOL    HW1 4946   1.371   4.720   4.884
 1536SOL    HW2 4947   1.257   4.823   4.940
 1537SOL     OW 4948   1.302   4.579   4.033
 1537SOL    HW1 4949   1.216   4.548   4.075
 1537SOL    HW2 4950   1.298   4.565   3.934
 1538SOL     OW 4951   0.083   4.982   4.746
 1538SOL    HW1 4952   0.078   4.981   4.846
 1538SOL    HW2 4953   0.000   4.941   4.708
 1539SOL     OW 4954   1.726   3.859   4.247
 1539SOL    HW1 4955   1.799   3.842   4.180
 1539SOL    HW2 4956   1.695   3.772   4.285
 1540SOL     OW 4957   1.280   4.651   4.396
 1540SOL    HW1 4958   1.340   4.570   4.398
 1540SOL    HW2 4959   1.320   4.720   4.336
 1541SOL     OW 4960   0.830   4.997   5.146
 1541SOL    HW1 4961   0.825   5.030   5.241
 1541SOL    HW2 4962   0.744   5.016   5.100
 1542SOL     OW 4963   1.841   3.899   4.687
 1542SOL    HW1 4964   1.880   3.814   4.651
 1542SOL    HW2 4965   1.743   3.901   4.668
 1543SOL     OW 4966   0.263   4.050   4.444
 1543SOL    HW1 4967   0.184   4.101   4.410
 1543SOL    HW2 4968   0.254   4.035   4.542
 1544SOL     OW 4969   1.194   5.336   3.755
 1544SOL    HW1 4970   1.200   5.243   3.792
 1544SOL    HW2 4971   1.135   5.336   3.675
 1545SOL     OW 4972   0.822   4.726   5.096
 1545SOL    HW1 4973   0.862   4.725   5.004
 1545SOL    HW2 4974   0.832   4.818   5.136
 1546SOL     OW 4975   0.916   4.634   4.015
 1546SOL    HW1 4976   0.979   4.672   3.947
 1546SOL    HW2 4977   0.956   4.551   4.054
 1547SOL     OW 4978   1.039   4.822   4.420
 1547SOL    HW1 4979   0.969   4.775   4.474
 1547SOL    HW2 4980   1.098   4.754   4.377
 1548SOL     OW 4981   1.014   3.960   4.695
 1548SOL    HW1 4982   1.006   3.924   4.602
 1548SOL    HW2 4983   1.012   3.884   4.760
 1549SOL     OW 4984   1.709   4.109   5.105
 1549SOL    HW1 4985   1.782   4.178   5.109
 1549SOL    HW2 4986   1.737   4.034   5.046
 1550SOL     OW 4987   1.450   4.944   5.357
 1550SOL    HW1 4988   1.441   4.934   5.456
 1550SOL    HW2 4989   1.546   4.937   5.331
 1551SOL     OW 4990   1.674   4.607   4.978
 1551SOL    HW1 4991   1.647   4.518   4.941
 1551SOL    HW2 4992   1.675   4.675   4.905
 1552SOL     OW 4993   1.225   4.049   4.173
 1552SOL    HW1 4994   1.290   3.975   4.162
 1552SOL    HW2 4995   1.245   4.099   4.257
 1553SOL     OW 4996   0.594   4.469   4.376
 1553SOL    HW1 4997   0.644   4.554   4.357
 1553SOL    HW2 4998   0.506   4.471   4.328
 1554SOL     OW 4999   1.730   4.658   5.241
 1554SOL    HW1 5000   1.768   4.749   5.256
 1554SOL    HW2 5001   1.722   4.641   5.142
 1555SOL     OW 5002   0.859   4.680   4.585
 1555SOL    HW1 5003   0.913   4.611   4.633
 1555SOL    HW2 5004   0.827   4.749   4.651
 1556SOL     OW 5005   1.083   4.708   3.811
 1556SOL    HW1 5006   1.060   4.761   3.729
 1556SOL    HW2 5007   1.164   4.652   3.792
 1557SOL     OW 5008   0.079   4.964   4.377
 1557SOL    HW1 5009   0.078   4.917   4.465
 1557SOL    HW2 5010   0.161   4.936   4.326
 1558SOL     OW 5011   1.824   3.916   4.951
 1558SOL    HW1 5012   1.820   3.826   4.995
 1558SOL    HW2 5013   1.827   3.905   4.852
 1559SOL     OW 5014   0.428   4.148   4.244
 1559SOL    HW1 5015   0.458   4.076   4.182
 1559SOL    HW2 5016   0.389   4.108   4.327
 1560SOL     OW 5017   1.424   3.938   4.836
 1560SOL    HW1 5018   1.476   3.873   4.891
 1560SOL    HW2 5019   1.375   4.001   4.897
 1561SOL     OW 5020   1.001   3.758   4.878
 1561SOL    HW1 5021   0.938   3.686   4.847
 1561SOL    HW2 5022   1.094   3.722   4.878
 1562SOL     OW 5023   0.770   5.054   4.025
 1562SOL    HW1 5024   0.724   4.967   4.042
 1562SOL    HW2 5025   0.861   5.051   4.066
 1563SOL     OW 5026   1.352   3.776   3.892
 1563SOL    HW1 5027   1.387   3.735   3.808
 1563SOL    HW2 5028   1.262   3.738   3.912
 1564SOL     OW 5029   1.300   4.177   4.415
 1564SOL    HW1 5030   1.241   4.257   4.419
 1564SOL    HW2 5031   1.315   4.142   4.508
 1565SOL     OW 5032   1.593   3.945   4.606
 1565SOL    HW1 5033   1.509   3.944   4.660
 1565SOL    HW2 5034   1.595   4.028   4.550
 1566SOL     OW 5035   0.039   4.801   4.024
 1566SOL    HW1 5036   0.138   4.790   4.015
 1566SOL    HW2 5037  -0.001   4.715   4.056
 1567SOL     OW 5038   2.092   0.628   0.113
 1567SOL    HW1 5039   1.999   0.626   0.150
 1567SOL    HW2 5040   2.093   0.589   0.021
 1568SOL     OW 5041   2.087   0.275   0.996
 1568SOL    HW1 5042   2.122   0.258   1.088
 1568SOL    HW2 5043   1.999   0.230   0.984
 1569SOL     OW 5044   1.881   0.368   0.647
 1569SOL    HW1 5045   1.799   0.411   0.686
 1569SOL    HW2 5046   1.853   0.295   0.584
 1570SOL     OW 5047   2.431   1.275   1.165
 1570SOL    HW1 5048   2.338   1.268   1.128
 1570SOL    HW2 5049   2.442   1.364   1.209
 1571SOL     OW 5050   3.417   1.511   0.703
 1571SOL    HW1 5051   3.360   1.495   0.784
 1571SOL    HW2 5052   3.358   1.521   0.623
 1572SOL     OW 5053   2.997   0.703   0.717
 1572SOL    HW1 5054   3.054   0.781   0.692
 1572SOL    HW2 5055   2.937   0.729   0.793
 1573SOL     OW 5056   3.617   0.607   0.231
 1573SOL    HW1 5057   3.605   0.594   0.132
 1573SOL    HW2 5058   3.587   0.526   0.280
 1574SOL     OW 5059   2.630   1.144   1.023
 1574SOL    HW1 5060   2.552   1.161   1.083
 1574SOL    HW2 5061   2.664   1.231   0.987
 1575SOL     OW 5062   2.712   0.798   1.823
 1575SOL    HW1 5063   2.708   0.874   1.888
 1575SOL    HW2 5064   2.734   0.834   1.732
 1576SOL     OW 5065   2.547   1.012   0.665
 1576SOL    HW1 5066   2.616   0.996   0.735
 1576SOL    HW2 5067   2.474   1.069   0.703
 1577SOL     OW 5068   2.548   1.161   1.803
 1577SOL    HW1 5069   2.608   1.240   1.817
 1577SOL    HW2 5070   2.462   1.192   1.762
 1578SOL     OW 5071   2.197   1.435   1.061
 1578SOL    HW1 5072   2.119   1.404   1.008
 1578SOL    HW2 5073   2.255   1.493   1.004
 1579SOL     OW 5074   3.322   1.505   1.339
 1579SOL    HW1 5075   3.346   1.599   1.365
 1579SOL    HW2 5076   3.306   1.451   1.421
 1580SOL     OW 5077   2.300   0.392   1.499
 1580SOL    HW1 5078   2.382   0.336   1.508
 1580SOL    HW2 5079   2.219   0.334   1.503
 1581SOL     OW 5080   3.465   0.447   0.737
 1581SOL    HW1 5081   3.391   0.493   0.687
 1581SOL    HW2 5082   3.516   0.515   0.790
 1582SOL     OW 5083   2.093   1.713   0.483
 1582SOL    HW1 5084   2.127   1.790   0.537
 1582SOL    HW2 5085   2.137   1.713   0.393
 1583SOL     OW 5086   2.989   1.341   1.690
 1583SOL    HW1 5087   3.036   1.341   1.778
 1583SOL    HW2 5088   2.941   1.254   1.679
 1584SOL     OW 5089   2.092   1.434   0.538
 1584SOL    HW1 5090   2.066   1.530   0.538
 1584SOL    HW2 5091   2.021   1.380   0.583
 1585SOL     OW 5092   2.102   1.091   0.886
 1585SOL    HW1 5093   2.116   1.007   0.938
 1585SOL    HW2 5094   2.047   1.155   0.941
 1586SOL     OW 5095   2.482   1.786   1.439
 1586SOL    HW1 5096   2.390   1.769   1.474
 1586SOL    HW2 5097   2.510   1.878   1.465
 1587SOL     OW 5098   2.468   0.964   0.123
 1587SOL    HW1 5099   2.475   1.048   0.069
 1587SOL    HW2 5100   2.514   0.977   0.211
 1588SOL     OW 5101   3.456   0.114   1.480
 1588SOL    HW1 5102   3.438   0.181   1.408
 1588SOL    HW2 5103   3.453   0.160   1.569
 1589SOL     OW 5104   1.984   0.643   0.563
 1589SOL    HW1 5105   1.939   0.555   0.580
 1589SOL    HW2 5106   1.983   0.697   0.647
 1590SOL     OW 5107   3.704   1.767   0.359
 1590SOL    HW1 5108   3.758   1.738   0.439
 1590SOL    HW2 5109   3.734   1.857   0.330
 1591SOL     OW 5110   1.889   1.596   0.117
 1591SOL    HW1 5111   1.870   1.500   0.138
 1591SOL    HW2 5112   1.856   1.654   0.192
 1592SOL     OW 5113   3.551   0.922   0.612
 1592SOL    HW1 5114   3.646   0.893   0.620
 1592SOL    HW2 5115   3.543   0.987   0.537
 1593SOL     OW 5116   3.503   1.108   0.432
 1593SOL    HW1 5117   3.589   1.110   0.380
 1593SOL    HW2 5118   3.517   1.155   0.520
 1594SOL     OW 5119   1.975   0.737   1.597
 1594SOL    HW1 5120   2.063   0.724   1.642
 1594SOL    HW2 5121   1.962   0.834   1.575
 1595SOL     OW 5122   2.475   1.365   0.726
 1595SOL    HW1 5123   2.426   1.278   0.735
 1595SOL    HW2 5124   2.452   1.408   0.639
 1596SOL     OW 5125   3.155   1.228   1.423
 1596SOL    HW1 5126   3.192   1.155   1.365
 1596SOL    HW2 5127   3.207   1.233   1.508
 1597SOL     OW 5128   2.671   0.004   0.502
 1597SOL    HW1 5129   2.711   0.095   0.493
 1597SOL    HW2 5130   2.571   0.012   0.508
 1598SOL     OW 5131   2.059   0.976   1.264
 1598SOL    HW1 5132   2.148   0.931   1.250
 1598SOL    HW2 5133   1.986   0.911   1.245
 1599SOL     OW 5134   3.387   0.999   0.190
 1599SOL    HW1 5135   3.324   0.923   0.203
 1599SOL    HW2 5136   3.435   1.017   0.276
 1600SOL     OW 5137   3.049   1.792   1.616
 1600SOL    HW1 5138   3.073   1.852   1.540
 1600SOL    HW2 5139   3.056   1.697   1.586
 1601SOL     OW 5140   2.179   0.251   1.801
 1601SOL    HW1 5141   2.250   0.322   1.807
 1601SOL    HW2 5142   2.091   0.290   1.829
 1602SOL     OW 5143   3.328   1.417   0.953
 1602SOL    HW1 5144   3.269   1.423   1.033
 1602SOL    HW2 5145   3.313   1.329   0.907
 1603SOL     OW 5146   3.529   1.714   0.572
 1603SOL    HW1 5147   3.488   1.691   0.484
 1603SOL    HW2 5148   3.511   1.640   0.637
 1604SOL     OW 5149   2.460   0.729   0.270
 1604SOL    HW1 5150   2.484   0.798   0.202
 1604SOL    HW2 5151   2.382   0.762   0.324
 1605SOL     OW 5152   3.143   0.345   0.944
 1605SOL    HW1 5153   3.057   0.295   0.931
 1605SOL    HW2 5154   3.205   0.291   1.000
 1606SOL     OW 5155   3.438   1.662   0.307
 1606SOL    HW1 5156   3.527   1.708   0.310
 1606SOL    HW2 5157   3.417   1.638   0.212
 1607SOL     OW 5158   2.669   0.605   1.465
 1607SOL    HW1 5159   2.622   0.602   1.554
 1607SOL    HW2 5160   2.618   0.550   1.399
 1608SOL     OW 5161   3.256   0.469   1.674
 1608SOL    HW1 5162   3.236   0.512   1.762
 1608SOL    HW2 5163   3.334   0.407   1.683
 1609SOL     OW 5164   2.835   0.890   1.572
 1609SOL    HW1 5165   2.881   0.806   1.543
 1609SOL    HW2 5166   2.779   0.924   1.497
 1610SOL     OW 5167   2.853   0.410   1.242
 1610SOL    HW1 5168   2.776   0.444   1.296
 1610SOL    HW2 5169   2.819   0.359   1.163
 1611SOL     OW 5170   2.903   0.701   0.429
 1611SOL    HW1 5171   2.929   0.697   0.525
 1611SOL    HW2 5172   2.818   0.650   0.415
 1612SOL     OW 5173   1.938   0.811   0.789
 1612SOL    HW1 5174   2.037   0.799   0.798
 1612SOL    HW2 5175   1.914   0.906   0.810
 1613SOL     OW 5176   1.992   1.821   1.571
 1613SOL    HW1 5177   1.982   1.806   1.670
 1613SOL    HW2 5178   1.906   1.857   1.535
 1614SOL     OW 5179   2.727   0.348   0.195
 1614SOL    HW1 5180   2.786   0.411   0.146
 1614SOL    HW2 5181   2.746   0.254   0.166
 1615SOL     OW 5182   3.581   0.585   1.831
 1615SOL    HW1 5183   3.555   0.674   1.795
 1615SOL    HW2 5184   3.579   0.517   1.758
 1616SOL     OW 5185   3.224   1.144   0.545
 1616SOL    HW1 5186   3.307   1.115   0.497
 1616SOL    HW2 5187   3.175   1.211   0.489
 1617SOL     OW 5188   2.412   0.196   0.885
 1617SOL    HW1 5189   2.407   0.191   0.985
 1617SOL    HW2 5190   2.414   0.292   0.856
 1618SOL     OW 5191   2.870   1.456   0.477
 1618SOL    HW1 5192   2.824   1.528   0.425
 1618SOL    HW2 5193   2.866   1.476   0.575
 1619SOL     OW 5194   2.213   1.801   0.853
 1619SOL    HW1 5195   2.263   1.715   0.859
 1619SOL    HW2 5196   2.278   1.878   0.850
 1620SOL     OW 5197   3.657   1.066   0.873
 1620SOL    HW1 5198   3.595   1.051   0.797
 1620SOL    HW2 5199   3.605   1.077   0.958
 1621SOL     OW 5200   3.089   1.550   1.506
 1621SOL    HW1 5201   3.095   1.473   1.570
 1621SOL    HW2 5202   3.037   1.524   1.426
 1622SOL     OW 5203   2.183   0.943   0.242
 1622SOL    HW1 5204   2.265   0.982   0.200
 1622SOL    HW2 5205   2.156   0.861   0.193
 1623SOL     OW 5206   3.320   0.735   0.728
 1623SOL    HW1 5207   3.315   0.670   0.803
 1623SOL    HW2 5208   3.400   0.794   0.741
 1624SOL     OW 5209   2.323   1.266   1.727
 1624SOL    HW1 5210   2.273   1.267   1.641
 1624SOL    HW2 5211   2.260   1.248   1.803
 1625SOL     OW 5212   2.973   1.776   0.237
 1625SOL    HW1 5213   2.913   1.714   0.287
 1625SOL    HW2 5214   3.004   1.732   0.152
 1626SOL     OW 5215   2.064   0.285   1.498
 1626SOL    HW1 5216   1.984   0.345   1.485
 1626SOL    HW2 5217   2.054   0.236   1.584
 1627SOL     OW 5218   3.494   1.377   0.081
 1627SOL    HW1 5219   3.462   1.471   0.071
 1627SOL    HW2 5220   3.418   1.314   0.069
 1628SOL     OW 5221   2.326   1.743   0.323
 1628SOL    HW1 5222   2.359   1.782   0.409
 1628SOL    HW2 5223   2.402   1.736   0.258
 1629SOL     OW 5224   3.262   0.107   0.426
 1629SOL    HW1 5225   3.238   0.070   0.336
 1629SOL    HW2 5226   3.361   0.123   0.430
 1630SOL     OW 5227   2.111   1.785   1.241
 1630SOL    HW1 5228   2.168   1.720   1.291
 1630SOL    HW2 5229   2.095   1.752   1.148
 1631SOL     OW 5230   2.802   1.698   0.904
 1631SOL    HW1 5231   2.882   1.641   0.925
 1631SOL    HW2 5232   2.753   1.658   0.827
 1632SOL     OW 5233   2.244   0.700   0.480
 1632SOL    HW1 5234   2.289   0.610   0.477
 1632SOL    HW2 5235   2.150   0.689   0.513
 1633SOL     OW 5236   3.409   0.222   1.729
 1633SOL    HW1 5237   3.404   0.259   1.821
 1633SOL    HW2 5238   3.337   0.153   1.717
 1634SOL     OW 5239   2.476   0.122   0.117
 1634SOL    HW1 5240   2.574   0.100   0.124
 1634SOL    HW2 5241   2.445   0.105   0.024
 1635SOL     OW 5242   2.643   0.264   1.749
 1635SOL    HW1 5243   2.710   0.203   1.792
 1635SOL    HW2 5244   2.570   0.283   1.814
 1636SOL     OW 5245   2.750   1.514   1.195
 1636SOL    HW1 5246   2.727   1.489   1.101
 1636SOL    HW2 5247   2.811   1.445   1.234
 1637SOL     OW 5248   3.213   0.590   1.433
 1637SOL    HW1 5249   3.241   0.547   1.518
 1637SOL    HW2 5250   3.238   0.686   1.434
 1638SOL     OW 5251   2.665   1.402   0.924
 1638SOL    HW1 5252   2.755   1.416   0.882
 1638SOL    HW2 5253   2.594   1.404   0.853
 1639SOL     OW 5254   2.784   0.503   0.899
 1639SOL    HW1 5255   2.759   0.494   0.803
 1639SOL    HW2 5256   2.832   0.421   0.930
 1640SOL     OW 5257   2.401   0.064   0.512
 1640SOL    HW1 5258   2.320   0.065   0.570
 1640SOL    HW2 5259   2.404   0.147   0.457
 1641SOL     OW 5260   3.296   1.188   0.041
 1641SOL    HW1 5261   3.328   1.112   0.098
 1641SOL    HW2 5262   3.204   1.215   0.071
 1642SOL     OW 5263   2.159   0.035   0.171
 1642SOL    HW1 5264   2.208   0.119   0.150
 1642SOL    HW2 5265   2.221  -0.030   0.216
 1643SOL     OW 5266   2.797   0.236   0.480
 1643SOL    HW1 5267   2.749   0.277   0.402
 1643SOL    HW2 5268   2.896   0.234   0.461
 1644SOL     OW 5269   2.938   0.683   1.464
 1644SOL    HW1 5270   2.858   0.622   1.467
 1644SOL    HW2 5271   3.019   0.630   1.440
 1645SOL     OW 5272   3.089   1.570   0.793
 1645SOL    HW1 5273   3.110   1.644   0.728
 1645SOL    HW2 5274   3.157   1.570   0.866
 1646SOL     OW 5275   2.321   1.152   0.741
 1646SOL    HW1 5276   2.250   1.125   0.806
 1646SOL    HW2 5277   2.295   1.124   0.648
 1647SOL     OW 5278   3.133   1.797   0.591
 1647SOL    HW1 5279   3.177   1.861   0.527
 1647SOL    HW2 5280   3.083   1.849   0.661
 1648SOL     OW 5281   2.894   0.549   0.016
 1648SOL    HW1 5282   2.853   0.631  -0.023
 1648SOL    HW2 5283   2.958   0.575   0.089
 1649SOL     OW 5284   1.940   0.556   1.386
 1649SOL    HW1 5285   2.032   0.555   1.345
 1649SOL    HW2 5286   1.934   0.630   1.453
 1650SOL     OW 5287   2.423   0.222   1.147
 1650SOL    HW1 5288   2.461   0.138   1.184
 1650SOL    HW2 5289   2.335   0.241   1.191
 1651SOL     OW 5290   2.728   0.454   0.642
 1651SOL    HW1 5291   2.696   0.526   0.580
 1651SOL    HW2 5292   2.752   0.373   0.589
 1652SOL     OW 5293   2.879   0.039   0.753
 1652SOL    HW1 5294   2.807   0.044   0.684
 1652SOL    HW2 5295   2.855  -0.030   0.822
 1653SOL     OW 5296   3.291   1.173   0.867
 1653SOL    HW1 5297   3.236   1.089   0.860
 1653SOL    HW2 5298   3.317   1.202   0.775
 1654SOL     OW 5299   3.328   0.590   0.992
 1654SOL    HW1 5300   3.298   0.495   0.999
 1654SOL    HW2 5301   3.401   0.606   1.058
 1655SOL     OW 5302   3.719   0.833   0.377
 1655SOL    HW1 5303   3.761   0.769   0.441
 1655SOL    HW2 5304   3.681   0.782   0.299
 1656SOL     OW 5305   2.350   1.385   0.174
 1656SOL    HW1 5306   2.263   1.370   0.221
 1656SOL    HW2 5307   2.333   1.411   0.079
 1657SOL     OW 5308   3.526   1.280   0.657
 1657SOL    HW1 5309   3.625   1.288   0.671
 1657SOL    HW2 5310   3.481   1.364   0.688
 1658SOL     OW 5311   3.252   0.575   0.078
 1658SOL    HW1 5312   3.198   0.554   0.159
 1658SOL    HW2 5313   3.343   0.534   0.087
 1659SOL     OW 5314   2.389   0.256   0.328
 1659SOL    HW1 5315   2.416   0.197   0.253
 1659SOL    HW2 5316   2.389   0.351   0.297
 1660SOL     OW 5317   3.616   1.223   1.588
 1660SOL    HW1 5318   3.707   1.184   1.575
 1660SOL    HW2 5319   3.624   1.319   1.612
 1661SOL     OW 5320   2.926   1.347   1.340
 1661SOL    HW1 5321   2.846   1.324   1.395
 1661SOL    HW2 5322   3.009   1.321   1.389
 1662SOL     OW 5323   3.454   1.629   1.625
 1662SOL    HW1 5324   3.481   1.663   1.535
 1662SOL    HW2 5325   3.533   1.591   1.671
 1663SOL     OW 5326   2.973   1.195   1.100
 1663SOL    HW1 5327   2.933   1.239   1.181
 1663SOL    HW2 5328   2.932   1.232   1.017
 1664SOL     OW 5329   3.500   1.099   1.079
 1664SOL    HW1 5330   3.505   1.180   1.138
 1664SOL    HW2 5331   3.414   1.101   1.028
 1665SOL     OW 5332   2.777   0.089   1.402
 1665SOL    HW1 5333   2.802   0.069   1.307
 1665SOL    HW2 5334   2.849   0.145   1.444
 1666SOL     OW 5335   2.842   1.116   1.719
 1666SOL    HW1 5336   2.743   1.122   1.729
 1666SOL    HW2 5337   2.865   1.036   1.663
 1667SOL     OW 5338   2.567   1.050   0.368
 1667SOL    HW1 5339   2.553   1.057   0.467
 1667SOL    HW2 5340   2.651   0.999   0.350
 1668SOL     OW 5341   2.272   0.813   1.251
 1668SOL    HW1 5342   2.358   0.825   1.301
 1668SOL    HW2 5343   2.230   0.726   1.278
 1669SOL     OW 5344   3.136   0.386   1.262
 1669SOL    HW1 5345   3.157   0.460   1.326
 1669SOL    HW2 5346   3.047   0.403   1.219
 1670SOL     OW 5347   1.926   1.564   1.331
 1670SOL    HW1 5348   1.880   1.646   1.297
 1670SOL    HW2 5349   2.024   1.583   1.340
 1671SOL     OW 5350   2.229   1.100   0.501
 1671SOL    HW1 5351   2.222   1.183   0.445
 1671SOL    HW2 5352   2.233   1.020   0.441
 1672SOL     OW 5353   2.428   0.537   0.865
 1672SOL    HW1 5354   2.440   0.603   0.791
 1672SOL    HW2 5355   2.474   0.571   0.948
 1673SOL     OW 5356   3.114   1.348   0.388
 1673SOL    HW1 5357   3.164   1.425   0.428
 1673SOL    HW2 5358   3.019   1.350   0.420
 1674SOL     OW 5359   3.134   1.445   1.142
 1674SOL    HW1 5360   3.181   1.458   1.229
 1674SOL    HW2 5361   3.068   1.371   1.151
 1675SOL     OW 5362   3.444   0.639   0.472
 1675SOL    HW1 5363   3.413   0.700   0.545
 1675SOL    HW2 5364   3.494   0.691   0.403
 1676SOL     OW 5365   2.216   1.510   1.329
 1676SOL    HW1 5366   2.195   1.466   1.242
 1676SOL    HW2 5367   2.313   1.536   1.332
 1677SOL     OW 5368   2.264   0.751   1.598
 1677SOL    HW1 5369   2.332   0.806   1.551
 1677SOL    HW2 5370   2.304   0.663   1.625
 1678SOL     OW 5371   3.449   0.779   1.670
 1678SOL    HW1 5372   3.357   0.817   1.665
 1678SOL    HW2 5373   3.509   0.826   1.605
 1679SOL     OW 5374   2.875   0.105   1.770
 1679SOL    HW1 5375   2.881   0.190   1.718
 1679SOL    HW2 5376   2.907   0.029   1.713
 1680SOL     OW 5377   2.366   0.050   1.740
 1680SOL    HW1 5378   2.324  -0.007   1.670
 1680SOL    HW2 5379   2.300   0.119   1.772
 1681SOL     OW 5380   2.435   0.870   1.029
 1681SOL    HW1 5381   2.479   0.959   1.020
 1681SOL    HW2 5382   2.372   0.870   1.106
 1682SOL     OW 5383   3.222   0.862   1.045
 1682SOL    HW1 5384   3.147   0.862   0.979
 1682SOL    HW2 5385   3.259   0.770   1.054
 1683SOL     OW 5386   3.071   0.525   0.275
 1683SOL    HW1 5387   3.084   0.441   0.329
 1683SOL    HW2 5388   3.042   0.599   0.335
 1684SOL     OW 5389   2.169   0.213   1.231
 1684SOL    HW1 5390   2.146   0.250   1.321
 1684SOL    HW2 5391   2.139   0.118   1.225
 1685SOL     OW 5392   1.899   1.310   1.282
 1685SOL    HW1 5393   1.952   1.261   1.350
 1685SOL    HW2 5394   1.921   1.408   1.287
 1686SOL     OW 5395   2.594   0.634   1.064
 1686SOL    HW1 5396   2.653   0.608   0.988
 1686SOL    HW2 5397   2.566   0.730   1.053
 1687SOL     OW 5398   3.590   0.935   1.854
 1687SOL    HW1 5399   3.544   0.928   1.765
 1687SOL    HW2 5400   3.528   0.979   1.920
 1688SOL     OW 5401   2.169   0.063   0.618
 1688SOL    HW1 5402   2.158   0.157   0.651
 1688SOL    HW2 5403   2.164   0.000   0.695
 1689SOL     OW 5404   3.484   0.367   0.374
 1689SOL    HW1 5405   3.486   0.291   0.438
 1689SOL    HW2 5406   3.436   0.444   0.414
 1690SOL     OW 5407   2.885   0.766   0.966
 1690SOL    HW1 5408   2.900   0.787   1.062
 1690SOL    HW2 5409   2.855   0.671   0.957
 1691SOL     OW 5410   2.842   1.573   1.700
 1691SOL    HW1 5411   2.822   1.617   1.612
 1691SOL    HW2 5412   2.881   1.482   1.684
 1692SOL     OW 5413   3.721   1.518   1.605
 1692SOL    HW1 5414   3.735   1.545   1.510
 1692SOL    HW2 5415   3.804   1.540   1.658
 1693SOL     OW 5416   2.212   0.898   1.804
 1693SOL    HW1 5417   2.288   0.942   1.852
 1693SOL    HW2 5418   2.247   0.851   1.722
 1694SOL     OW 5419   3.402   0.274   0.125
 1694SOL    HW1 5420   3.341   0.199   0.148
 1694SOL    HW2 5421   3.424   0.326   0.208
 1695SOL     OW 5422   3.165   0.838   0.042
 1695SOL    HW1 5423   3.199   0.745   0.057
 1695SOL    HW2 5424   3.183   0.865  -0.053
 1696SOL     OW 5425   2.930   1.333   0.849
 1696SOL    HW1 5426   2.937   1.249   0.794
 1696SOL    HW2 5427   2.992   1.402   0.813
 1697SOL     OW 5428   2.181   0.810   0.949
 1697SOL    HW1 5429   2.274   0.846   0.954
 1697SOL    HW2 5430   2.175   0.725   1.001
 1698SOL     OW 5431   2.201   0.509   1.006
 1698SOL    HW1 5432   2.149   0.426   0.989
 1698SOL    HW2 5433   2.278   0.514   0.942
 1699SOL     OW 5434   3.000   0.380   1.678
 1699SOL    HW1 5435   2.955   0.443   1.742
 1699SOL    HW2 5436   3.093   0.411   1.661
 1700SOL     OW 5437   3.022   0.207   1.477
 1700SOL    HW1 5438   3.022   0.271   1.554
 1700SOL    HW2 5439   3.050   0.255   1.394
 1701SOL     OW 5440   1.950   1.801   0.927
 1701SOL    HW1 5441   1.908   1.715   0.900
 1701SOL    HW2 5442   2.044   1.804   0.893
 1702SOL     OW 5443   2.366   1.568   0.910
 1702SOL    HW1 5444   2.432   1.642   0.919
 1702SOL    HW2 5445   2.410   1.489   0.868
 1703SOL     OW 5446   2.864   0.796   1.238
 1703SOL    HW1 5447   2.905   0.764   1.324
 1703SOL    HW2 5448   2.768   0.769   1.235
 1704SOL     OW 5449   1.902   0.544   1.114
 1704SOL    HW1 5450   1.987   0.511   1.073
 1704SOL    HW2 5451   1.915   0.559   1.212
 1705SOL     OW 5452   2.051   0.520   1.722
 1705SOL    HW1 5453   2.110   0.480   1.652
 1705SOL    HW2 5454   1.993   0.591   1.681
 1706SOL     OW 5455   3.231   0.950   1.660
 1706SOL    HW1 5456   3.270   1.039   1.680
 1706SOL    HW2 5457   3.241   0.930   1.563
 1707SOL     OW 5458   2.677   0.572   0.325
 1707SOL    HW1 5459   2.684   0.483   0.279
 1707SOL    HW2 5460   2.583   0.606   0.317
 1708SOL     OW 5461   3.519   0.604   1.206
 1708SOL    HW1 5462   3.481   0.535   1.268
 1708SOL    HW2 5463   3.601   0.568   1.162
 1709SOL     OW 5464   2.114   1.564   1.744
 1709SOL    HW1 5465   2.084   1.621   1.820
 1709SOL    HW2 5466   2.107   1.467   1.770
 1710SOL     OW 5467   2.533   0.464   1.269
 1710SOL    HW1 5468   2.499   0.375   1.239
 1710SOL    HW2 5469   2.559   0.518   1.189
 1711SOL     OW 5470   2.792   1.678   1.465
 1711SOL    HW1 5471   2.768   1.660   1.370
 1711SOL    HW2 5472   2.822   1.772   1.475
 1712SOL     OW 5473   2.335   0.500   0.191
 1712SOL    HW1 5474   2.396   0.580   0.195
 1712SOL    HW2 5475   2.240   0.531   0.198
 1713SOL     OW 5476   2.021   1.137   1.466
 1713SOL    HW1 5477   2.043   1.076   1.542
 1713SOL    HW2 5478   2.031   1.088   1.380
 1714SOL     OW 5479   3.209   1.059   1.234
 1714SOL    HW1 5480   3.233   0.996   1.160
 1714SOL    HW2 5481   3.119   1.099   1.216
 1715SOL     OW 5482   3.164   0.855   0.309
 1715SOL    HW1 5483   3.078   0.824   0.351
 1715SOL    HW2 5484   3.160   0.841   0.210
 1716SOL     OW 5485   3.621   1.747   1.154
 1716SOL    HW1 5486   3.682   1.777   1.081
 1716SOL    HW2 5487   3.583   1.658   1.132
 1717SOL     OW 5488   3.114   1.731   1.128
 1717SOL    HW1 5489   3.198   1.736   1.074
 1717SOL    HW2 5490   3.091   1.635   1.146
 1718SOL     OW 5491   1.945   1.258   1.022
 1718SOL    HW1 5492   1.940   1.257   1.122
 1718SOL    HW2 5493   1.862   1.217   0.984
 1719SOL     OW 5494   2.550   1.662   1.716
 1719SOL    HW1 5495   2.494   1.743   1.725
 1719SOL    HW2 5496   2.602   1.666   1.630
 1720SOL     OW 5497   2.765   0.086   0.133
 1720SOL    HW1 5498   2.816   0.087   0.047
 1720SOL    HW2 5499   2.821   0.044   0.204
 1721SOL     OW 5500   3.588   0.135   0.523
 1721SOL    HW1 5501   3.661   0.118   0.456
 1721SOL    HW2 5502   3.557   0.048   0.561
 1722SOL     OW 5503   3.250   1.573   0.477
 1722SOL    HW1 5504   3.317   1.585   0.403
 1722SOL    HW2 5505   3.210   1.662   0.500
 1723SOL     OW 5506   3.142   0.927   0.672
 1723SOL    HW1 5507   3.202   0.846   0.674
 1723SOL    HW2 5508   3.182   0.996   0.612
 1724SOL     OW 5509   2.692   1.273   1.422
 1724SOL    HW1 5510   2.687   1.306   1.517
 1724SOL    HW2 5511   2.606   1.292   1.376
 1725SOL     OW 5512   2.534   1.616   0.154
 1725SOL    HW1 5513   2.543   1.626   0.055
 1725SOL    HW2 5514   2.494   1.527   0.175
 1726SOL     OW 5515   3.512   1.720   1.394
 1726SOL    HW1 5516   3.565   1.730   1.310
 1726SOL    HW2 5517   3.485   1.810   1.428
 1727SOL     OW 5518   3.703   0.175   0.963
 1727SOL    HW1 5519   3.742   0.090   0.927
 1727SOL    HW2 5520   3.605   0.177   0.944
 1728SOL     OW 5521   2.125   0.326   0.720
 1728SOL    HW1 5522   2.046   0.377   0.686
 1728SOL    HW2 5523   2.116   0.311   0.818
 1729SOL     OW 5524   3.056   1.612   0.031
 1729SOL    HW1 5525   3.062   1.519   0.068
 1729SOL    HW2 5526   2.997   1.612  -0.049
 1730SOL     OW 5527   2.684   1.002   1.372
 1730SOL    HW1 5528   2.724   1.001   1.280
 1730SOL    HW2 5529   2.694   1.094   1.412
 1731SOL     OW 5530   2.778   0.910   0.291
 1731SOL    HW1 5531   2.841   0.948   0.223
 1731SOL    HW2 5532   2.818   0.827   0.330
 1732SOL     OW 5533   3.366   1.607   0.044
 1732SOL    HW1 5534   3.274   1.644   0.051
 1732SOL    HW2 5535   3.404   1.627  -0.046
 1733SOL     OW 5536   2.234   1.288   1.490
 1733SOL    HW1 5537   2.221   1.381   1.456
 1733SOL    HW2 5538   2.150   1.236   1.477
 1734SOL     OW 5539   3.476   1.292   1.289
 1734SOL    HW1 5540   3.536   1.295   1.369
 1734SOL    HW2 5541   3.401   1.356   1.302
 1735SOL     OW 5542   2.901   1.098   0.696
 1735SOL    HW1 5543   2.831   1.051   0.750
 1735SOL    HW2 5544   2.960   1.030   0.653
 1736SOL     OW 5545   2.876   0.236   0.971
 1736SOL    HW1 5546   2.868   0.200   0.878
 1736SOL    HW2 5547   2.874   0.160   1.036
 1737SOL     OW 5548   2.452   1.487   0.491
 1737SOL    HW1 5549   2.494   1.429   0.421
 1737SOL    HW2 5550   2.408   1.566   0.447
 1738SOL     OW 5551   3.571   0.385   1.381
 1738SOL    HW1 5552   3.644   0.454   1.385
 1738SOL    HW2 5553   3.599   0.310   1.322
 1739SOL     OW 5554   2.117   1.348   0.290
 1739SOL    HW1 5555   2.021   1.349   0.263
 1739SOL    HW2 5556   2.129   1.401   0.374
 1740SOL     OW 5557   1.967   1.013   1.726
 1740SOL    HW1 5558   1.890   0.980   1.780
 1740SOL    HW2 5559   2.052   0.983   1.768
 1741SOL     OW 5560   2.534   0.203   1.489
 1741SOL    HW1 5561   2.624   0.187   1.449
 1741SOL    HW2 5562   2.542   0.208   1.588
 1742SOL     OW 5563   3.302   0.856   1.398
 1742SOL    HW1 5564   3.245   0.908   1.335
 1742SOL    HW2 5565   3.398   0.868   1.374
 1743SOL     OW 5566   1.934   0.166   0.318
 1743SOL    HW1 5567   1.917   0.249   0.264
 1743SOL    HW2 5568   2.024   0.129   0.296
 1744SOL     OW 5569   3.045   1.335   0.119
 1744SOL    HW1 5570   2.946   1.324   0.121
 1744SOL    HW2 5571   3.079   1.350   0.212
 1745SOL     OW 5572   2.475   0.842   1.431
 1745SOL    HW1 5573   2.531   0.923   1.414
 1745SOL    HW2 5574   2.534   0.762   1.434
 1746SOL     OW 5575   3.355   1.767   0.959
 1746SOL    HW1 5576   3.388   1.831   0.890
 1746SOL    HW2 5577   3.421   1.761   1.034
 1747SOL     OW 5578   2.578   0.565   1.708
 1747SOL    HW1 5579   2.597   0.630   1.782
 1747SOL    HW2 5580   2.638   0.485   1.717
 1748SOL     OW 5581   3.312   1.220   1.633
 1748SOL    HW1 5582   3.303   1.210   1.732
 1748SOL    HW2 5583   3.408   1.213   1.607
 1749SOL     OW 5584   2.252   1.741   1.560
 1749SOL    HW1 5585   2.161   1.782   1.558
 1749SOL    HW2 5586   2.245   1.647   1.592
 1750SOL     OW 5587   3.536   0.883   1.254
 1750SOL    HW1 5588   3.509   0.794   1.217
 1750SOL    HW2 5589   3.537   0.951   1.181
 1751SOL     OW 5590   3.087   0.325   0.449
 1751SOL    HW1 5591   3.152   0.251   0.438
 1751SOL    HW2 5592   3.107   0.375   0.533
 1752SOL     OW 5593   2.456   0.745   0.652
 1752SOL    HW1 5594   2.506   0.830   0.633
 1752SOL    HW2 5595   2.368   0.747   0.604
 1753SOL     OW 5596   3.639   0.342   1.642
 1753SOL    HW1 5597   3.622   0.373   1.548
 1753SOL    HW2 5598   3.555   0.305   1.680
 1754SOL     OW 5599   3.592   0.934   1.517
 1754SOL    HW1 5600   3.630   1.025   1.532
 1754SOL    HW2 5601   3.584   0.917   1.418
 1755SOL     OW 5602   2.721   1.374   0.016
 1755SOL    HW1 5603   2.675   1.389   0.104
 1755SOL    HW2 5604   2.765   1.459  -0.014
 1756SOL     OW 5605   2.523   1.790   0.953
 1756SOL    HW1 5606   2.477   1.878   0.940
 1756SOL    HW2 5607   2.622   1.802   0.946
 1757SOL     OW 5608   2.721   0.956   0.861
 1757SOL    HW1 5609   2.775   0.887   0.909
 1757SOL    HW2 5610   2.689   1.025   0.927
 1758SOL     OW 5611   2.945   0.984   0.087
 1758SOL    HW1 5612   2.922   1.037   0.005
 1758SOL    HW2 5613   3.026   0.928   0.068
 1759SOL     OW 5614   3.723   1.569   0.851
 1759SOL    HW1 5615   3.652   1.557   0.781
 1759SOL    HW2 5616   3.724   1.490   0.911
 1760SOL     OW 5617   1.941   1.240   0.653
 1760SOL    HW1 5618   1.940   1.193   0.741
 1760SOL    HW2 5619   2.023   1.212   0.602
 1761SOL     OW 5620   2.534   1.391   1.624
 1761SOL    HW1 5621   2.456   1.341   1.662
 1761SOL    HW2 5622   2.531   1.486   1.655
 1762SOL     OW 5623   3.686   0.192   1.227
 1762SOL    HW1 5624   3.682   0.102   1.271
 1762SOL    HW2 5625   3.689   0.181   1.128
 1763SOL     OW 5626   2.290   0.424   0.520
 1763SOL    HW1 5627   2.320   0.352   0.458
 1763SOL    HW2 5628   2.251   0.384   0.603
 1764SOL     OW 5629   3.567   1.487   1.104
 1764SOL    HW1 5630   3.474   1.462   1.077
 1764SOL    HW2 5631   3.593   1.437   1.186
 1765SOL     OW 5632   2.179   0.547   1.280
 1765SOL    HW1 5633   2.217   0.488   1.352
 1765SOL    HW2 5634   2.219   0.521   1.192
 1766SOL     OW 5635   2.674   1.586   0.687
 1766SOL    HW1 5636   2.706   1.596   0.593
 1766SOL    HW2 5637   2.595   1.524   0.689
 1767SOL     OW 5638   3.286   0.214   1.112
 1767SOL    HW1 5639   3.338   0.149   1.167
 1767SOL    HW2 5640   3.237   0.277   1.173
 1768SOL     OW 5641   2.863   0.034   1.154
 1768SOL    HW1 5642   2.800  -0.038   1.123
 1768SOL    HW2 5643   2.956  -0.002   1.154
 1769SOL     OW 5644   2.632   1.330   0.301
 1769SOL    HW1 5645   2.586   1.243   0.318
 1769SOL    HW2 5646   2.723   1.327   0.342
 1770SOL     OW 5647   2.480   1.567   1.284
 1770SOL    HW1 5648   2.475   1.649   1.341
 1770SOL    HW2 5649   2.569   1.564   1.239
 1771SOL     OW 5650   3.214   0.052   0.168
 1771SOL    HW1 5651   3.249   0.011   0.084
 1771SOL    HW2 5652   3.124   0.014   0.188
 1772SOL     OW 5653   3.162   0.453   0.691
 1772SOL    HW1 5654   3.103   0.533   0.695
 1772SOL    HW2 5655   3.177   0.418   0.784
 1773SOL     OW 5656   3.455   0.221   0.882
 1773SOL    HW1 5657   3.371   0.220   0.936
 1773SOL    HW2 5658   3.457   0.304   0.826
 1774SOL     OW 5659   1.901   1.077   0.300
 1774SOL    HW1 5660   2.000   1.066   0.291
 1774SOL    HW2 5661   1.861   0.991   0.332
 1775SOL     OW 5662   2.737   1.646   0.337
 1775SOL    HW1 5663   2.660   1.611   0.283
 1775SOL    HW2 5664   2.705   1.717   0.399
 1776SOL     OW 5665   2.092   0.628   1.975
 1776SOL    HW1 5666   1.999   0.626   2.012
 1776SOL    HW2 5667   2.093   0.589   1.883
 1777SOL     OW 5668   2.087   0.275   2.858
 1777SOL    HW1 5669   2.122   0.258   2.950
 1777SOL    HW2 5670   1.999   0.230   2.846
 1778SOL     OW 5671   1.881   0.368   2.509
 1778SOL    HW1 5672   1.799   0.411   2.548
 1778SOL    HW2 5673   1.853   0.295   2.446
 1779SOL     OW 5674   2.431   1.275   3.027
 1779SOL    HW1 5675   2.338   1.268   2.990
 1779SOL    HW2 5676   2.442   1.364   3.071
 1780SOL     OW 5677   3.417   1.511   2.565
 1780SOL    HW1 5678   3.360   1.495   2.646
 1780SOL    HW2 5679   3.358   1.521   2.485
 1781SOL     OW 5680   2.997   0.703   2.579
 1781SOL    HW1 5681   3.054   0.781   2.554
 1781SOL    HW2 5682   2.937   0.729   2.655
 1782SOL     OW 5683   3.617   0.607   2.093
 1782SOL    HW1 5684   3.605   0.594   1.994
 1782SOL    HW2 5685   3.587   0.526   2.142
 1783SOL     OW 5686   2.630   1.144   2.885
 1783SOL    HW1 5687   2.552   1.161   2.945
 1783SOL    HW2 5688   2.664   1.231   2.849
 1784SOL     OW 5689   2.712   0.798   3.685
 1784SOL    HW1 5690   2.708   0.874   3.750
 1784SOL    HW2 5691   2.734   0.834   3.594
 1785SOL     OW 5692   2.547   1.012   2.527
 1785SOL    HW1 5693   2.616   0.996   2.597
 1785SOL    HW2 5694   2.474   1.069   2.565
 1786SOL     OW 5695   2.548   1.161   3.665
 1786SOL    HW1 5696   2.608   1.240   3.679
 1786SOL    HW2 5697   2.462   1.192   3.624
 1787SOL     OW 5698   2.197   1.435   2.923
 1787SOL    HW1 5699   2.119   1.404   2.870
 1787SOL    HW2 5700   2.255   1.493   2.866
 1788SOL     OW 5701   3.322   1.505   3.201
 1788SOL    HW1 5702   3.346   1.599   3.227
 1788SOL    HW2 5703   3.306   1.451   3.283
 1789SOL     OW 5704   2.300   0.392   3.361
 1789SOL    HW1 5705   2.382   0.336   3.370
 1789SOL    HW2 5706   2.219   0.334   3.365
 1790SOL     OW 5707   3.465   0.447   2.599
 1790SOL    HW1 5708   3.391   0.493   2.549
 1790SOL    HW2 5709   3.516   0.515   2.652
 1791SOL     OW 5710   2.989   1.341   3.552
 1791SOL    HW1 5711   3.036   1.341   3.640
 1791SOL    HW2 5712   2.941   1.254   3.541
 1792SOL     OW 5713   2.102   1.091   2.748
 1792SOL    HW1 5714   2.116   1.007   2.800
 1792SOL    HW2 5715   2.047   1.155   2.803
 1793SOL     OW 5716   2.482   1.786   3.301
 1793SOL    HW1 5717   2.390   1.769   3.336
 1793SOL    HW2 5718   2.510   1.878   3.327
 1794SOL     OW 5719   2.468   0.964   1.985
 1794SOL    HW1 5720   2.475   1.048   1.931
 1794SOL    HW2 5721   2.514   0.977   2.073
 1795SOL     OW 5722   3.456   0.114   3.342
 1795SOL    HW1 5723   3.438   0.181   3.270
 1795SOL    HW2 5724   3.453   0.160   3.431
 1796SOL     OW 5725   1.984   0.643   2.425
 1796SOL    HW1 5726   1.939   0.555   2.442
 1796SOL    HW2 5727   1.983   0.697   2.509
 1797SOL     OW 5728   3.704   1.767   2.221
 1797SOL    HW1 5729   3.758   1.738   2.301
 1797SOL    HW2 5730   3.734   1.857   2.192
 1798SOL     OW 5731   3.551   0.922   2.474
 1798SOL    HW1 5732   3.646   0.893   2.482
 1798SOL    HW2 5733   3.543   0.987   2.399
 1799SOL     OW 5734   3.503   1.108   2.294
 1799SOL    HW1 5735   3.589   1.110   2.242
 1799SOL    HW2 5736   3.517   1.155   2.382
 1800SOL     OW 5737   1.975   0.737   3.459
 1800SOL    HW1 5738   2.063   0.724   3.504
 1800SOL    HW2 5739   1.962   0.834   3.437
 1801SOL     OW 5740   2.475   1.365   2.588
 1801SOL    HW1 5741   2.426   1.278   2.597
 1801SOL    HW2 5742   2.452   1.408   2.501
 1802SOL     OW 5743   3.155   1.228   3.285
 1802SOL    HW1 5744   3.192   1.155   3.227
 1802SOL    HW2 5745   3.207   1.233   3.370
 1803SOL     OW 5746   2.671   0.004   2.364
 1803SOL    HW1 5747   2.711   0.095   2.355
 1803SOL    HW2 5748   2.571   0.012   2.370
 1804SOL     OW 5749   2.059   0.976   3.126
 1804SOL    HW1 5750   2.148   0.931   3.112
 1804SOL    HW2 5751   1.986   0.911   3.107
 1805SOL     OW 5752   3.387   0.999   2.052
 1805SOL    HW1 5753   3.324   0.923   2.065
 1805SOL    HW2 5754   3.435   1.017   2.138
 1806SOL     OW 5755   3.049   1.792   3.478
 1806SOL    HW1 5756   3.073   1.852   3.402
 1806SOL    HW2 5757   3.056   1.697   3.448
 1807SOL     OW 5758   2.179   0.251   3.663
 1807SOL    HW1 5759   2.250   0.322   3.669
 1807SOL    HW2 5760   2.091   0.290   3.691
 1808SOL     OW 5761   3.328   1.417   2.815
 1808SOL    HW1 5762   3.269   1.423   2.895
 1808SOL    HW2 5763   3.313   1.329   2.769
 1809SOL     OW 5764   3.529   1.714   2.434
 1809SOL    HW1 5765   3.488   1.691   2.346
 1809SOL    HW2 5766   3.511   1.640   2.499
 1810SOL     OW 5767   2.460   0.729   2.132
 1810SOL    HW1 5768   2.484   0.798   2.064
 1810SOL    HW2 5769   2.382   0.762   2.186
 1811SOL     OW 5770   3.143   0.345   2.806
 1811SOL    HW1 5771   3.057   0.295   2.793
 1811SOL    HW2 5772   3.205   0.291   2.862
 1812SOL     OW 5773   3.438   1.662   2.169
 1812SOL    HW1 5774   3.527   1.708   2.172
 1812SOL    HW2 5775   3.417   1.638   2.074
 1813SOL     OW 5776   2.669   0.605   3.327
 1813SOL    HW1 5777   2.622   0.602   3.416
 1813SOL    HW2 5778   2.618   0.550   3.261
 1814SOL     OW 5779   3.256   0.469   3.536
 1814SOL    HW1 5780   3.236   0.512   3.624
 1814SOL    HW2 5781   3.334   0.407   3.545
 1815SOL     OW 5782   2.835   0.890   3.434
 1815SOL    HW1 5783   2.881   0.806   3.405
 1815SOL    HW2 5784   2.779   0.924   3.359
 1816SOL     OW 5785   2.853   0.410   3.104
 1816SOL    HW1 5786   2.776   0.444   3.158
 1816SOL    HW2 5787   2.819   0.359   3.025
 1817SOL     OW 5788   2.903   0.701   2.291
 1817SOL    HW1 5789   2.929   0.697   2.387
 1817SOL    HW2 5790   2.818   0.650   2.277
 1818SOL     OW 5791   1.938   0.811   2.651
 1818SOL    HW1 5792   2.037   0.799   2.660
 1818SOL    HW2 5793   1.914   0.906   2.672
 1819SOL     OW 5794   1.992   1.821   3.433
 1819SOL    HW1 5795   1.982   1.806   3.532
 1819SOL    HW2 5796   1.906   1.857   3.397
 1820SOL     OW 5797   2.727   0.348   2.057
 1820SOL    HW1 5798   2.786   0.411   2.008
 1820SOL    HW2 5799   2.746   0.254   2.028
 1821SOL     OW 5800   3.581   0.585   3.693
 1821SOL    HW1 5801   3.555   0.674   3.657
 1821SOL    HW2 5802   3.579   0.517   3.620
 1822SOL     OW 5803   3.224   1.144   2.407
 1822SOL    HW1 5804   3.307   1.115   2.359
 1822SOL    HW2 5805   3.175   1.211   2.351
 1823SOL     OW 5806   2.412   0.196   2.747
 1823SOL    HW1 5807   2.407   0.191   2.847
 1823SOL    HW2 5808   2.414   0.292   2.718
 1824SOL     OW 5809   2.870   1.456   2.339
 1824SOL    HW1 5810   2.824   1.528   2.287
 1824SOL    HW2 5811   2.866   1.476   2.437
 1825SOL     OW 5812   3.657   1.066   2.735
 1825SOL    HW1 5813   3.595   1.051   2.659
 1825SOL    HW2 5814   3.605   1.077   2.820
 1826SOL     OW 5815   3.089   1.550   3.368
 1826SOL    HW1 5816   3.095   1.473   3.432
 1826SOL    HW2 5817   3.037   1.524   3.288
 1827SOL     OW 5818   2.183   0.943   2.104
 1827SOL    HW1 5819   2.265   0.982   2.062
 1827SOL    HW2 5820   2.156   0.861   2.055
 1828SOL     OW 5821   3.320   0.735   2.590
 1828SOL    HW1 5822   3.315   0.670   2.665
 1828SOL    HW2 5823   3.400   0.794   2.603
 1829SOL     OW 5824   2.323   1.266   3.589
 1829SOL    HW1 5825   2.273   1.267   3.503
 1829SOL    HW2 5826   2.260   1.248   3.665
 1830SOL     OW 5827   2.973   1.776   2.099
 1830SOL    HW1 5828   2.913   1.714   2.149
 1830SOL    HW2 5829   3.004   1.732   2.014
 1831SOL     OW 5830   2.064   0.285   3.360
 1831SOL    HW1 5831   1.984   0.345   3.347
 1831SOL    HW2 5832   2.054   0.236   3.446
 1832SOL     OW 5833   3.494   1.377   1.943
 1832SOL    HW1 5834   3.462   1.471   1.933
 1832SOL    HW2 5835   3.418   1.314   1.931
 1833SOL     OW 5836   2.326   1.743   2.185
 1833SOL    HW1 5837   2.359   1.782   2.271
 1833SOL    HW2 5838   2.402   1.736   2.120
 1834SOL     OW 5839   3.262   0.107   2.288
 1834SOL    HW1 5840   3.238   0.070   2.198
 1834SOL    HW2 5841   3.361   0.123   2.292
 1835SOL     OW 5842   2.111   1.785   3.103
 1835SOL    HW1 5843   2.168   1.720   3.153
 1835SOL    HW2 5844   2.095   1.752   3.010
 1836SOL     OW 5845   2.802   1.698   2.766
 1836SOL    HW1 5846   2.882   1.641   2.787
 1836SOL    HW2 5847   2.753   1.658   2.689
 1837SOL     OW 5848   2.244   0.700   2.342
 1837SOL    HW1 5849   2.289   0.610   2.339
 1837SOL    HW2 5850   2.150   0.689   2.375
 1838SOL     OW 5851   3.409   0.222   3.591
 1838SOL    HW1 5852   3.404   0.259   3.683
 1838SOL    HW2 5853   3.337   0.153   3.579
 1839SOL     OW 5854   2.476   0.122   1.979
 1839SOL    HW1 5855   2.574   0.100   1.986
 1839SOL    HW2 5856   2.445   0.105   1.886
 1840SOL     OW 5857   2.643   0.264   3.611
 1840SOL    HW1 5858   2.710   0.203   3.654
 1840SOL    HW2 5859   2.570   0.283   3.676
 1841SOL     OW 5860   2.750   1.514   3.057
 1841SOL    HW1 5861   2.727   1.489   2.963
 1841SOL    HW2 5862   2.811   1.445   3.096
 1842SOL     OW 5863   3.213   0.590   3.295
 1842SOL    HW1 5864   3.241   0.547   3.380
 1842SOL    HW2 5865   3.238   0.686   3.296
 1843SOL     OW 5866   2.665   1.402   2.786
 1843SOL    HW1 5867   2.755   1.416   2.744
 1843SOL    HW2 5868   2.594   1.404   2.715
 1844SOL     OW 5869   2.784   0.503   2.761
 1844SOL    HW1 5870   2.759   0.494   2.665
 1844SOL    HW2 5871   2.832   0.421   2.792
 1845SOL     OW 5872   2.401   0.064   2.374
 1845SOL    HW1 5873   2.320   0.065   2.432
 1845SOL    HW2 5874   2.404   0.147   2.319
 1846SOL     OW 5875   3.296   1.188   1.903
 1846SOL    HW1 5876   3.328   1.112   1.960
 1846SOL    HW2 5877   3.204   1.215   1.933
 1847SOL     OW 5878   2.159   0.035   2.033
 1847SOL    HW1 5879   2.208   0.119   2.012
 1847SOL    HW2 5880   2.221  -0.030   2.078
 1848SOL     OW 5881   2.797   0.236   2.342
 1848SOL    HW1 5882   2.749   0.277   2.264
 1848SOL    HW2 5883   2.896   0.234   2.323
 1849SOL     OW 5884   2.938   0.683   3.326
 1849SOL    HW1 5885   2.858   0.622   3.329
 1849SOL    HW2 5886   3.019   0.630   3.302
 1850SOL     OW 5887   3.089   1.570   2.655
 1850SOL    HW1 5888   3.110   1.644   2.590
 1850SOL    HW2 5889   3.157   1.570   2.728
 1851SOL     OW 5890   2.321   1.152   2.603
 1851SOL    HW1 5891   2.250   1.125   2.668
 1851SOL    HW2 5892   2.295   1.124   2.510
 1852SOL     OW 5893   3.133   1.797   2.453
 1852SOL    HW1 5894   3.177   1.861   2.389
 1852SOL    HW2 5895   3.083   1.849   2.523
 1853SOL     OW 5896   2.894   0.549   1.878
 1853SOL    HW1 5897   2.853   0.631   1.839
 1853SOL    HW2 5898   2.958   0.575   1.951
 1854SOL     OW 5899   1.940   0.556   3.248
 1854SOL    HW1 5900   2.032   0.555   3.207
 1854SOL    HW2 5901   1.934   0.630   3.315
 1855SOL     OW 5902   2.423   0.222   3.009
 1855SOL    HW1 5903   2.461   0.138   3.046
 1855SOL    HW2 5904   2.335   0.241   3.053
 1856SOL     OW 5905   2.728   0.454   2.504
 1856SOL    HW1 5906   2.696   0.526   2.442
 1856SOL    HW2 5907   2.752   0.373   2.451
 1857SOL     OW 5908   2.879   0.039   2.615
 1857SOL    HW1 5909   2.807   0.044   2.546
 1857SOL    HW2 5910   2.855  -0.030   2.684
 1858SOL     OW 5911   3.291   1.173   2.729
 1858SOL    HW1 5912   3.236   1.089   2.722
 1858SOL    HW2 5913   3.317   1.202   2.637
 1859SOL     OW 5914   3.328   0.590   2.854
 1859SOL    HW1 5915   3.298   0.495   2.861
 1859SOL    HW2 5916   3.401   0.606   2.920
 1860SOL     OW 5917   3.719   0.833   2.239
 1860SOL    HW1 5918   3.761   0.769   2.303
 1860SOL    HW2 5919   3.681   0.782   2.161
 1861SOL     OW 5920   2.350   1.385   2.036
 1861SOL    HW1 5921   2.263   1.370   2.083
 1861SOL    HW2 5922   2.333   1.411   1.941
 1862SOL     OW 5923   3.526   1.280   2.519
 1862SOL    HW1 5924   3.625   1.288   2.533
 1862SOL    HW2 5925   3.481   1.364   2.550
 1863SOL     OW 5926   3.252   0.575   1.940
 1863SOL    HW1 5927   3.198   0.554   2.021
 1863SOL    HW2 5928   3.343   0.534   1.949
 1864SOL     OW 5929   2.389   0.256   2.190
 1864SOL    HW1 5930   2.416   0.197   2.115
 1864SOL    HW2 5931   2.389   0.351   2.159
 1865SOL     OW 5932   3.616   1.223   3.450
 1865SOL    HW1 5933   3.707   1.184   3.437
 1865SOL    HW2 5934   3.624   1.319   3.474
 1866SOL     OW 5935   2.926   1.347   3.202
 1866SOL    HW1 5936   2.846   1.324   3.257
 1866SOL    HW2 5937   3.009   1.321   3.251
 1867SOL     OW 5938   3.454   1.629   3.487
 1867SOL    HW1 5939   3.481   1.663   3.397
 1867SOL    HW2 5940   3.533   1.591   3.533
 1868SOL     OW 5941   2.973   1.195   2.962
 1868SOL    HW1 5942   2.933   1.239   3.043
 1868SOL    HW2 5943   2.932   1.232   2.879
 1869SOL     OW 5944   3.500   1.099   2.941
 1869SOL    HW1 5945   3.505   1.180   3.000
 1869SOL    HW2 5946   3.414   1.101   2.890
 1870SOL     OW 5947   2.777   0.089   3.264
 1870SOL    HW1 5948   2.802   0.069   3.169
 1870SOL    HW2 5949   2.849   0.145   3.306
 1871SOL     OW 5950   2.842   1.116   3.581
 1871SOL    HW1 5951   2.743   1.122   3.591
 1871SOL    HW2 5952   2.865   1.036   3.525
 1872SOL     OW 5953   2.567   1.050   2.230
 1872SOL    HW1 5954   2.553   1.057   2.329
 1872SOL    HW2 5955   2.651   0.999   2.212
 1873SOL     OW 5956   2.272   0.813   3.113
 1873SOL    HW1 5957   2.358   0.825   3.163
 1873SOL    HW2 5958   2.230   0.726   3.140
 1874SOL     OW 5959   3.136   0.386   3.124
 1874SOL    HW1 5960   3.157   0.460   3.188
 1874SOL    HW2 5961   3.047   0.403   3.081
 1875SOL     OW 5962   1.926   1.564   3.193
 1875SOL    HW1 5963   1.880   1.646   3.159
 1875SOL    HW2 5964   2.024   1.583   3.202
 1876SOL     OW 5965   2.229   1.100   2.363
 1876SOL    HW1 5966   2.222   1.183   2.307
 1876SOL    HW2 5967   2.233   1.020   2.303
 1877SOL     OW 5968   2.428   0.537   2.727
 1877SOL    HW1 5969   2.440   0.603   2.653
 1877SOL    HW2 5970   2.474   0.571   2.810
 1878SOL     OW 5971   3.114   1.348   2.250
 1878SOL    HW1 5972   3.164   1.425   2.290
 1878SOL    HW2 5973   3.019   1.350   2.282
 1879SOL     OW 5974   3.134   1.445   3.004
 1879SOL    HW1 5975   3.181   1.458   3.091
 1879SOL    HW2 5976   3.068   1.371   3.013
 1880SOL     OW 5977   3.444   0.639   2.334
 1880SOL    HW1 5978   3.413   0.700   2.407
 1880SOL    HW2 5979   3.494   0.691   2.265
 1881SOL     OW 5980   2.216   1.510   3.191
 1881SOL    HW1 5981   2.195   1.466   3.104
 1881SOL    HW2 5982   2.313   1.536   3.194
 1882SOL     OW 5983   2.264   0.751   3.460
 1882SOL    HW1 5984   2.332   0.806   3.413
 1882SOL    HW2 5985   2.304   0.663   3.487
 1883SOL     OW 5986   3.449   0.779   3.532
 1883SOL    HW1 5987   3.357   0.817   3.527
 1883SOL    HW2 5988   3.509   0.826   3.467
 1884SOL     OW 5989   2.875   0.105   3.632
 1884SOL    HW1 5990   2.881   0.190   3.580
 1884SOL    HW2 5991   2.907   0.029   3.575
 1885SOL     OW 5992   2.366   0.050   3.602
 1885SOL    HW1 5993   2.324  -0.007   3.532
 1885SOL    HW2 5994   2.300   0.119   3.634
 1886SOL     OW 5995   2.435   0.870   2.891
 1886SOL    HW1 5996   2.479   0.959   2.882
 1886SOL    HW2 5997   2.372   0.870   2.968
 1887SOL     OW 5998   3.222   0.862   2.907
 1887SOL    HW1 5999   3.147   0.862   2.841
 1887SOL    HW2 6000   3.259   0.770   2.916
 1888SOL     OW 6001   3.071   0.525   2.137
 1888SOL    HW1 6002   3.084   0.441   2.191
 1888SOL    HW2 6003   3.042   0.599   2.197
 1889SOL     OW 6004   2.169   0.213   3.093
 1889SOL    HW1 6005   2.146   0.250   3.183
 1889SOL    HW2 6006   2.139   0.118   3.087
 1890SOL     OW 6007   1.899   1.310   3.144
 1890SOL    HW1 6008   1.952   1.261   3.212
 1890SOL    HW2 6009   1.921   1.408   3.149
 1891SOL     OW 6010   2.594   0.634   2.926
 1891SOL    HW1 6011   2.653   0.608   2.850
 1891SOL    HW2 6012   2.566   0.730   2.915
 1892SOL     OW 6013   3.590   0.935   3.716
 1892SOL    HW1 6014   3.544   0.928   3.627
 1892SOL    HW2 6015   3.528   0.979   3.782
 1893SOL     OW 6016   2.169   0.063   2.480
 1893SOL    HW1 6017   2.158   0.157   2.513
 1893SOL    HW2 6018   2.164   0.000   2.557
 1894SOL     OW 6019   3.484   0.367   2.236
 1894SOL    HW1 6020   3.486   0.291   2.300
 1894SOL    HW2 6021   3.436   0.444   2.276
 1895SOL     OW 6022   2.885   0.766   2.828
 1895SOL    HW1 6023   2.900   0.787   2.924
 1895SOL    HW2 6024   2.855   0.671   2.819
 1896SOL     OW 6025   2.842   1.573   3.562
 1896SOL    HW1 6026   2.822   1.617   3.474
 1896SOL    HW2 6027   2.881   1.482   3.546
 1897SOL     OW 6028   3.721   1.518   3.467
 1897SOL    HW1 6029   3.735   1.545   3.372
 1897SOL    HW2 6030   3.804   1.540   3.520
 1898SOL     OW 6031   2.212   0.898   3.666
 1898SOL    HW1 6032   2.288   0.942   3.714
 1898SOL    HW2 6033   2.247   0.851   3.584
 1899SOL     OW 6034   3.402   0.274   1.987
 1899SOL    HW1 6035   3.341   0.199   2.010
 1899SOL    HW2 6036   3.424   0.326   2.070
 1900SOL     OW 6037   3.165   0.838   1.904
 1900SOL    HW1 6038   3.199   0.745   1.919
 1900SOL    HW2 6039   3.183   0.865   1.809
 1901SOL     OW 6040   2.930   1.333   2.711
 1901SOL    HW1 6041   2.937   1.249   2.656
 1901SOL    HW2 6042   2.992   1.402   2.675
 1902SOL     OW 6043   2.181   0.810   2.811
 1902SOL    HW1 6044   2.274   0.846   2.816
 1902SOL    HW2 6045   2.175   0.725   2.863
 1903SOL     OW 6046   2.201   0.509   2.868
 1903SOL    HW1 6047   2.149   0.426   2.851
 1903SOL    HW2 6048   2.278   0.514   2.804
 1904SOL     OW 6049   3.000   0.380   3.540
 1904SOL    HW1 6050   2.955   0.443   3.604
 1904SOL    HW2 6051   3.093   0.411   3.523
 1905SOL     OW 6052   3.022   0.207   3.339
 1905SOL    HW1 6053   3.022   0.271   3.416
 1905SOL    HW2 6054   3.050   0.255   3.256
 1906SOL     OW 6055   1.870   1.326   2.062
 1906SOL    HW1 6056   1.777   1.347   2.031
 1906SOL    HW2 6057   1.880   1.227   2.075
 1907SOL     OW 6058   1.950   1.801   2.789
 1907SOL    HW1 6059   1.908   1.715   2.762
 1907SOL    HW2 6060   2.044   1.804   2.755
 1908SOL     OW 6061   2.366   1.568   2.772
 1908SOL    HW1 6062   2.432   1.642   2.781
 1908SOL    HW2 6063   2.410   1.489   2.730
 1909SOL     OW 6064   2.864   0.796   3.100
 1909SOL    HW1 6065   2.905   0.764   3.186
 1909SOL    HW2 6066   2.768   0.769   3.097
 1910SOL     OW 6067   1.902   0.544   2.976
 1910SOL    HW1 6068   1.987   0.511   2.935
 1910SOL    HW2 6069   1.915   0.559   3.074
 1911SOL     OW 6070   2.051   0.520   3.584
 1911SOL    HW1 6071   2.110   0.480   3.514
 1911SOL    HW2 6072   1.993   0.591   3.543
 1912SOL     OW 6073   3.231   0.950   3.522
 1912SOL    HW1 6074   3.270   1.039   3.542
 1912SOL    HW2 6075   3.241   0.930   3.425
 1913SOL     OW 6076   2.677   0.572   2.187
 1913SOL    HW1 6077   2.684   0.483   2.141
 1913SOL    HW2 6078   2.583   0.606   2.179
 1914SOL     OW 6079   3.519   0.604   3.068
 1914SOL    HW1 6080   3.481   0.535   3.130
 1914SOL    HW2 6081   3.601   0.568   3.024
 1915SOL     OW 6082   2.114   1.564   3.606
 1915SOL    HW1 6083   2.084   1.621   3.682
 1915SOL    HW2 6084   2.107   1.467   3.632
 1916SOL     OW 6085   2.533   0.464   3.131
 1916SOL    HW1 6086   2.499   0.375   3.101
 1916SOL    HW2 6087   2.559   0.518   3.051
 1917SOL     OW 6088   2.792   1.678   3.327
 1917SOL    HW1 6089   2.768   1.660   3.232
 1917SOL    HW2 6090   2.822   1.772   3.337
 1918SOL     OW 6091   2.335   0.500   2.053
 1918SOL    HW1 6092   2.396   0.580   2.057
 1918SOL    HW2 6093   2.240   0.531   2.060
 1919SOL     OW 6094   2.021   1.137   3.328
 1919SOL    HW1 6095   2.043   1.076   3.404
 1919SOL    HW2 6096   2.031   1.088   3.242
 1920SOL     OW 6097   3.209   1.059   3.096
 1920SOL    HW1 6098   3.233   0.996   3.022
 1920SOL    HW2 6099   3.119   1.099   3.078
 1921SOL     OW 6100   3.164   0.855   2.171
 1921SOL    HW1 6101   3.078   0.824   2.213
 1921SOL    HW2 6102   3.160   0.841   2.072
 1922SOL     OW 6103   3.621   1.747   3.016
 1922SOL    HW1 6104   3.682   1.777   2.943
 1922SOL    HW2 6105   3.583   1.658   2.994
 1923SOL     OW 6106   3.114   1.731   2.990
 1923SOL    HW1 6107   3.198   1.736   2.936
 1923SOL    HW2 6108   3.091   1.635   3.008
 1924SOL     OW 6109   1.945   1.258   2.884
 1924SOL    HW1 6110   1.940   1.257   2.984
 1924SOL    HW2 6111   1.862   1.217   2.846
 1925SOL     OW 6112   2.550   1.662   3.578
 1925SOL    HW1 6113   2.494   1.743   3.587
 1925SOL    HW2 6114   2.602   1.666   3.492
 1926SOL     OW 6115   3.588   0.135   2.385
 1926SOL    HW1 6116   3.661   0.118   2.318
 1926SOL    HW2 6117   3.557   0.048   2.423
 1927SOL     OW 6118   3.250   1.573   2.339
 1927SOL    HW1 6119   3.317   1.585   2.265
 1927SOL    HW2 6120   3.210   1.662   2.362
 1928SOL     OW 6121   1.992   1.794   3.713
 1928SOL    HW1 6122   1.951   1.720   3.766
 1928SOL    HW2 6123   2.056   1.845   3.771
 1929SOL     OW 6124   3.142   0.927   2.534
 1929SOL    HW1 6125   3.202   0.846   2.536
 1929SOL    HW2 6126   3.182   0.996   2.474
 1930SOL     OW 6127   2.692   1.273   3.284
 1930SOL    HW1 6128   2.687   1.306   3.379
 1930SOL    HW2 6129   2.606   1.292   3.238
 1931SOL     OW 6130   2.534   1.616   2.016
 1931SOL    HW1 6131   2.543   1.626   1.917
 1931SOL    HW2 6132   2.494   1.527   2.037
 1932SOL     OW 6133   3.512   1.720   3.256
 1932SOL    HW1 6134   3.565   1.730   3.172
 1932SOL    HW2 6135   3.485   1.810   3.290
 1933SOL     OW 6136   3.703   0.175   2.825
 1933SOL    HW1 6137   3.742   0.090   2.789
 1933SOL    HW2 6138   3.605   0.177   2.806
 1934SOL     OW 6139   2.125   0.326   2.582
 1934SOL    HW1 6140   2.046   0.377   2.548
 1934SOL    HW2 6141   2.116   0.311   2.680
 1935SOL     OW 6142   3.056   1.612   1.893
 1935SOL    HW1 6143   3.062   1.519   1.930
 1935SOL    HW2 6144   2.997   1.612   1.813
 1936SOL     OW 6145   2.684   1.002   3.234
 1936SOL    HW1 6146   2.724   1.001   3.142
 1936SOL    HW2 6147   2.694   1.094   3.274
 1937SOL     OW 6148   2.778   0.910   2.153
 1937SOL    HW1 6149   2.841   0.948   2.085
 1937SOL    HW2 6150   2.818   0.827   2.192
 1938SOL     OW 6151   3.366   1.607   1.906
 1938SOL    HW1 6152   3.274   1.644   1.913
 1938SOL    HW2 6153   3.404   1.627   1.816
 1939SOL     OW 6154   2.234   1.288   3.352
 1939SOL    HW1 6155   2.221   1.381   3.318
 1939SOL    HW2 6156   2.150   1.236   3.339
 1940SOL     OW 6157   3.476   1.292   3.151
 1940SOL    HW1 6158   3.536   1.295   3.231
 1940SOL    HW2 6159   3.401   1.356   3.164
 1941SOL     OW 6160   2.901   1.098   2.558
 1941SOL    HW1 6161   2.831   1.051   2.612
 1941SOL    HW2 6162   2.960   1.030   2.515
 1942SOL     OW 6163   2.876   0.236   2.833
 1942SOL    HW1 6164   2.868   0.200   2.740
 1942SOL    HW2 6165   2.874   0.160   2.898
 1943SOL     OW 6166   2.452   1.487   2.353
 1943SOL    HW1 6167   2.494   1.429   2.283
 1943SOL    HW2 6168   2.408   1.566   2.309
 1944SOL     OW 6169   3.571   0.385   3.243
 1944SOL    HW1 6170   3.644   0.454   3.247
 1944SOL    HW2 6171   3.599   0.310   3.184
 1945SOL     OW 6172   1.967   1.013   3.588
 1945SOL    HW1 6173   1.890   0.980   3.642
 1945SOL    HW2 6174   2.052   0.983   3.630
 1946SOL     OW 6175   2.534   0.203   3.351
 1946SOL    HW1 6176   2.624   0.187   3.311
 1946SOL    HW2 6177   2.542   0.208   3.450
 1947SOL     OW 6178   1.937   0.345   1.895
 1947SOL    HW1 6179   1.845   0.317   1.866
 1947SOL    HW2 6180   1.968   0.422   1.839
 1948SOL     OW 6181   3.302   0.856   3.260
 1948SOL    HW1 6182   3.245   0.908   3.197
 1948SOL    HW2 6183   3.398   0.868   3.236
 1949SOL     OW 6184   1.934   0.166   2.180
 1949SOL    HW1 6185   1.917   0.249   2.126
 1949SOL    HW2 6186   2.024   0.129   2.158
 1950SOL     OW 6187   3.045   1.335   1.981
 1950SOL    HW1 6188   2.946   1.324   1.983
 1950SOL    HW2 6189   3.079   1.350   2.074
 1951SOL     OW 6190   2.475   0.842   3.293
 1951SOL    HW1 6191   2.531   0.923   3.276
 1951SOL    HW2 6192   2.534   0.762   3.296
 1952SOL     OW 6193   3.355   1.767   2.821
 1952SOL    HW1 6194   3.388   1.831   2.752
 1952SOL    HW2 6195   3.421   1.761   2.896
 1953SOL     OW 6196   2.578   0.565   3.570
 1953SOL    HW1 6197   2.597   0.630   3.644
 1953SOL    HW2 6198   2.638   0.485   3.579
 1954SOL     OW 6199   3.312   1.220   3.495
 1954SOL    HW1 6200   3.303   1.210   3.594
 1954SOL    HW2 6201   3.408   1.213   3.469
 1955SOL     OW 6202   2.252   1.741   3.422
 1955SOL    HW1 6203   2.161   1.782   3.420
 1955SOL    HW2 6204   2.245   1.647   3.454
 1956SOL     OW 6205   3.536   0.883   3.116
 1956SOL    HW1 6206   3.509   0.794   3.079
 1956SOL    HW2 6207   3.537   0.951   3.043
 1957SOL     OW 6208   3.087   0.325   2.311
 1957SOL    HW1 6209   3.152   0.251   2.300
 1957SOL    HW2 6210   3.107   0.375   2.395
 1958SOL     OW 6211   2.456   0.745   2.514
 1958SOL    HW1 6212   2.506   0.830   2.495
 1958SOL    HW2 6213   2.368   0.747   2.466
 1959SOL     OW 6214   3.639   0.342   3.504
 1959SOL    HW1 6215   3.622   0.373   3.410
 1959SOL    HW2 6216   3.555   0.305   3.542
 1960SOL     OW 6217   3.592   0.934   3.379
 1960SOL    HW1 6218   3.630   1.025   3.394
 1960SOL    HW2 6219   3.584   0.917   3.280
 1961SOL     OW 6220   2.721   1.374   1.878
 1961SOL    HW1 6221   2.675   1.389   1.966
 1961SOL    HW2 6222   2.765   1.459   1.848
 1962SOL     OW 6223   2.523   1.790   2.815
 1962SOL    HW1 6224   2.477   1.878   2.802
 1962SOL    HW2 6225   2.622   1.802   2.808
 1963SOL     OW 6226   2.721   0.956   2.723
 1963SOL    HW1 6227   2.775   0.887   2.771
 1963SOL    HW2 6228   2.689   1.025   2.789
 1964SOL     OW 6229   2.945   0.984   1.949
 1964SOL    HW1 6230   2.922   1.037   1.867
 1964SOL    HW2 6231   3.026   0.928   1.930
 1965SOL     OW 6232   3.723   1.569   2.713
 1965SOL    HW1 6233   3.652   1.557   2.643
 1965SOL    HW2 6234   3.724   1.490   2.773
 1966SOL     OW 6235   2.083   1.314   3.706
 1966SOL    HW1 6236   2.018   1.241   3.685
 1966SOL    HW2 6237   2.087   1.328   3.804
 1967SOL     OW 6238   1.941   1.240   2.515
 1967SOL    HW1 6239   1.940   1.193   2.603
 1967SOL    HW2 6240   2.023   1.212   2.464
 1968SOL     OW 6241   2.534   1.391   3.486
 1968SOL    HW1 6242   2.456   1.341   3.524
 1968SOL    HW2 6243   2.531   1.486   3.517
 1969SOL     OW 6244   3.686   0.192   3.089
 1969SOL    HW1 6245   3.682   0.102   3.133
 1969SOL    HW2 6246   3.689   0.181   2.990
 1970SOL     OW 6247   2.290   0.424   2.382
 1970SOL    HW1 6248   2.320   0.352   2.320
 1970SOL    HW2 6249   2.251   0.384   2.465
 1971SOL     OW 6250   3.567   1.487   2.966
 1971SOL    HW1 6251   3.474   1.462   2.939
 1971SOL    HW2 6252   3.593   1.437   3.048
 1972SOL     OW 6253   2.179   0.547   3.142
 1972SOL    HW1 6254   2.217   0.488   3.214
 1972SOL    HW2 6255   2.219   0.521   3.054
 1973SOL     OW 6256   2.674   1.586   2.549
 1973SOL    HW1 6257   2.706   1.596   2.455
 1973SOL    HW2 6258   2.595   1.524   2.551
 1974SOL     OW 6259   3.286   0.214   2.974
 1974SOL    HW1 6260   3.338   0.149   3.029
 1974SOL    HW2 6261   3.237   0.277   3.035
 1975SOL     OW 6262   2.863   0.034   3.016
 1975SOL    HW1 6263   2.800  -0.038   2.985
 1975SOL    HW2 6264   2.956  -0.002   3.016
 1976SOL     OW 6265   2.632   1.330   2.163
 1976SOL    HW1 6266   2.586   1.243   2.180
 1976SOL    HW2 6267   2.723   1.327   2.204
 1977SOL     OW 6268   2.480   1.567   3.146
 1977SOL    HW1 6269   2.475   1.649   3.203
 1977SOL    HW2 6270   2.569   1.564   3.101
 1978SOL     OW 6271   3.214   0.052   2.030
 1978SOL    HW1 6272   3.249   0.011   1.946
 1978SOL    HW2 6273   3.124   0.014   2.050
 1979SOL     OW 6274   3.162   0.453   2.553
 1979SOL    HW1 6275   3.103   0.533   2.557
 1979SOL    HW2 6276   3.177   0.418   2.646
 1980SOL     OW 6277   3.455   0.221   2.744
 1980SOL    HW1 6278   3.371   0.220   2.798
 1980SOL    HW2 6279   3.457   0.304   2.688
 1981SOL     OW 6280   1.901   1.077   2.162
 1981SOL    HW1 6281   2.000   1.066   2.153
 1981SOL    HW2 6282   1.861   0.991   2.194
 1982SOL     OW 6283   2.737   1.646   2.199
 1982SOL    HW1 6284   2.660   1.611   2.145
 1982SOL    HW2 6285   2.705   1.717   2.261
 1983SOL     OW 6286   2.092   0.628   3.837
 1983SOL    HW1 6287   1.999   0.626   3.874
 1983SOL    HW2 6288   2.093   0.589   3.745
 1984SOL     OW 6289   2.087   0.275   4.720
 1984SOL    HW1 6290   2.122   0.258   4.812
 1984SOL    HW2 6291   1.999   0.230   4.708
 1985SOL     OW 6292   1.881   0.368   4.371
 1985SOL    HW1 6293   1.799   0.411   4.410
 1985SOL    HW2 6294   1.853   0.295   4.308
 1986SOL     OW 6295   2.431   1.275   4.889
 1986SOL    HW1 6296   2.338   1.268   4.852
 1986SOL    HW2 6297   2.442   1.364   4.933
 1987SOL     OW 6298   3.417   1.511   4.427
 1987SOL    HW1 6299   3.360   1.495   4.508
 1987SOL    HW2 6300   3.358   1.521   4.347
 1988SOL     OW 6301   2.997   0.703   4.441
 1988SOL    HW1 6302   3.054   0.781   4.416
 1988SOL    HW2 6303   2.937   0.729   4.517
 1989SOL     OW 6304   3.617   0.607   3.955
 1989SOL    HW1 6305   3.605   0.594   3.856
 1989SOL    HW2 6306   3.587   0.526   4.004
 1990SOL     OW 6307   2.630   1.144   4.747
 1990SOL    HW1 6308   2.552   1.161   4.807
 1990SOL    HW2 6309   2.664   1.231   4.711
 1991SOL     OW 6310   2.547   1.012   4.389
 1991SOL    HW1 6311   2.616   0.996   4.459
 1991SOL    HW2 6312   2.474   1.069   4.427
 1992SOL     OW 6313   2.197   1.435   4.785
 1992SOL    HW1 6314   2.119   1.404   4.732
 1992SOL    HW2 6315   2.255   1.493   4.728
 1993SOL     OW 6316   3.465   0.447   4.461
 1993SOL    HW1 6317   3.391   0.493   4.411
 1993SOL    HW2 6318   3.516   0.515   4.514
 1994SOL     OW 6319   2.093   1.713   4.207
 1994SOL    HW1 6320   2.127   1.790   4.261
 1994SOL    HW2 6321   2.137   1.713   4.117
 1995SOL     OW 6322   2.092   1.434   4.262
 1995SOL    HW1 6323   2.066   1.530   4.262
 1995SOL    HW2 6324   2.021   1.380   4.307
 1996SOL     OW 6325   2.102   1.091   4.610
 1996SOL    HW1 6326   2.116   1.007   4.662
 1996SOL    HW2 6327   2.047   1.155   4.665
 1997SOL     OW 6328   2.482   1.786   5.163
 1997SOL    HW1 6329   2.390   1.769   5.198
 1997SOL    HW2 6330   2.510   1.878   5.189
 1998SOL     OW 6331   2.468   0.964   3.847
 1998SOL    HW1 6332   2.475   1.048   3.793
 1998SOL    HW2 6333   2.514   0.977   3.935
 1999SOL     OW 6334   1.984   0.643   4.287
 1999SOL    HW1 6335   1.939   0.555   4.304
 1999SOL    HW2 6336   1.983   0.697   4.371
 2000SOL     OW 6337   3.704   1.767   4.083
 2000SOL    HW1 6338   3.758   1.738   4.163
 2000SOL    HW2 6339   3.734   1.857   4.054
 2001SOL     OW 6340   1.889   1.596   3.841
 2001SOL    HW1 6341   1.870   1.500   3.862
 2001SOL    HW2 6342   1.856   1.654   3.916
 2002SOL     OW 6343   3.551   0.922   4.336
 2002SOL    HW1 6344   3.646   0.893   4.344
 2002SOL    HW2 6345   3.543   0.987   4.261
 2003SOL     OW 6346   3.503   1.108   4.156
 2003SOL    HW1 6347   3.589   1.110   4.104
 2003SOL    HW2 6348   3.517   1.155   4.244
 2004SOL     OW 6349   2.475   1.365   4.450
 2004SOL    HW1 6350   2.426   1.278   4.459
 2004SOL    HW2 6351   2.452   1.408   4.363
 2005SOL     OW 6352   2.671   0.004   4.226
 2005SOL    HW1 6353   2.711   0.095   4.217
 2005SOL    HW2 6354   2.571   0.012   4.232
 2006SOL     OW 6355   2.059   0.976   4.988
 2006SOL    HW1 6356   2.148   0.931   4.974
 2006SOL    HW2 6357   1.986   0.911   4.969
 2007SOL     OW 6358   3.387   0.999   3.914
 2007SOL    HW1 6359   3.324   0.923   3.927
 2007SOL    HW2 6360   3.435   1.017   4.000
 2008SOL     OW 6361   3.328   1.417   4.677
 2008SOL    HW1 6362   3.269   1.423   4.757
 2008SOL    HW2 6363   3.313   1.329   4.631
 2009SOL     OW 6364   3.529   1.714   4.296
 2009SOL    HW1 6365   3.488   1.691   4.208
 2009SOL    HW2 6366   3.511   1.640   4.361
 2010SOL     OW 6367   2.460   0.729   3.994
 2010SOL    HW1 6368   2.484   0.798   3.926
 2010SOL    HW2 6369   2.382   0.762   4.048
 2011SOL     OW 6370   3.143   0.345   4.668
 2011SOL    HW1 6371   3.057   0.295   4.655
 2011SOL    HW2 6372   3.205   0.291   4.724
 2012SOL     OW 6373   3.438   1.662   4.031
 2012SOL    HW1 6374   3.527   1.708   4.034
 2012SOL    HW2 6375   3.417   1.638   3.936
 2013SOL     OW 6376   2.853   0.410   4.966
 2013SOL    HW1 6377   2.776   0.444   5.020
 2013SOL    HW2 6378   2.819   0.359   4.887
 2014SOL     OW 6379   2.903   0.701   4.153
 2014SOL    HW1 6380   2.929   0.697   4.249
 2014SOL    HW2 6381   2.818   0.650   4.139
 2015SOL     OW 6382   1.938   0.811   4.513
 2015SOL    HW1 6383   2.037   0.799   4.522
 2015SOL    HW2 6384   1.914   0.906   4.534
 2016SOL     OW 6385   2.727   0.348   3.919
 2016SOL    HW1 6386   2.786   0.411   3.870
 2016SOL    HW2 6387   2.746   0.254   3.890
 2017SOL     OW 6388   3.224   1.144   4.269
 2017SOL    HW1 6389   3.307   1.115   4.221
 2017SOL    HW2 6390   3.175   1.211   4.213
 2018SOL     OW 6391   2.412   0.196   4.609
 2018SOL    HW1 6392   2.407   0.191   4.709
 2018SOL    HW2 6393   2.414   0.292   4.580
 2019SOL     OW 6394   2.870   1.456   4.201
 2019SOL    HW1 6395   2.824   1.528   4.149
 2019SOL    HW2 6396   2.866   1.476   4.299
 2020SOL     OW 6397   2.213   1.801   4.577
 2020SOL    HW1 6398   2.263   1.715   4.583
 2020SOL    HW2 6399   2.278   1.878   4.574
 2021SOL     OW 6400   3.657   1.066   4.597
 2021SOL    HW1 6401   3.595   1.051   4.521
 2021SOL    HW2 6402   3.605   1.077   4.682
 2022SOL     OW 6403   2.183   0.943   3.966
 2022SOL    HW1 6404   2.265   0.982   3.924
 2022SOL    HW2 6405   2.156   0.861   3.917
 2023SOL     OW 6406   3.320   0.735   4.452
 2023SOL    HW1 6407   3.315   0.670   4.527
 2023SOL    HW2 6408   3.400   0.794   4.465
 2024SOL     OW 6409   2.973   1.776   3.961
 2024SOL    HW1 6410   2.913   1.714   4.011
 2024SOL    HW2 6411   3.004   1.732   3.876
 2025SOL     OW 6412   3.494   1.377   3.805
 2025SOL    HW1 6413   3.462   1.471   3.795
 2025SOL    HW2 6414   3.418   1.314   3.793
 2026SOL     OW 6415   2.326   1.743   4.047
 2026SOL    HW1 6416   2.359   1.782   4.133
 2026SOL    HW2 6417   2.402   1.736   3.982
 2027SOL     OW 6418   3.262   0.107   4.150
 2027SOL    HW1 6419   3.238   0.070   4.060
 2027SOL    HW2 6420   3.361   0.123   4.154
 2028SOL     OW 6421   2.111   1.785   4.965
 2028SOL    HW1 6422   2.168   1.720   5.015
 2028SOL    HW2 6423   2.095   1.752   4.872
 2029SOL     OW 6424   2.802   1.698   4.628
 2029SOL    HW1 6425   2.882   1.641   4.649
 2029SOL    HW2 6426   2.753   1.658   4.551
 2030SOL     OW 6427   2.244   0.700   4.204
 2030SOL    HW1 6428   2.289   0.610   4.201
 2030SOL    HW2 6429   2.150   0.689   4.237
 2031SOL     OW 6430   2.476   0.122   3.841
 2031SOL    HW1 6431   2.574   0.100   3.848
 2031SOL    HW2 6432   2.445   0.105   3.748
 2032SOL     OW 6433   2.665   1.402   4.648
 2032SOL    HW1 6434   2.755   1.416   4.606
 2032SOL    HW2 6435   2.594   1.404   4.577
 2033SOL     OW 6436   2.784   0.503   4.623
 2033SOL    HW1 6437   2.759   0.494   4.527
 2033SOL    HW2 6438   2.832   0.421   4.654
 2034SOL     OW 6439   2.401   0.064   4.236
 2034SOL    HW1 6440   2.320   0.065   4.294
 2034SOL    HW2 6441   2.404   0.147   4.181
 2035SOL     OW 6442   3.296   1.188   3.765
 2035SOL    HW1 6443   3.328   1.112   3.822
 2035SOL    HW2 6444   3.204   1.215   3.795
 2036SOL     OW 6445   2.159   0.035   3.895
 2036SOL    HW1 6446   2.208   0.119   3.874
 2036SOL    HW2 6447   2.221  -0.030   3.940
 2037SOL     OW 6448   2.797   0.236   4.204
 2037SOL    HW1 6449   2.749   0.277   4.126
 2037SOL    HW2 6450   2.896   0.234   4.185
 2038SOL     OW 6451   3.089   1.570   4.517
 2038SOL    HW1 6452   3.110   1.644   4.452
 2038SOL    HW2 6453   3.157   1.570   4.590
 2039SOL     OW 6454   2.321   1.152   4.465
 2039SOL    HW1 6455   2.250   1.125   4.530
 2039SOL    HW2 6456   2.295   1.124   4.372
 2040SOL     OW 6457   3.133   1.797   4.315
 2040SOL    HW1 6458   3.177   1.861   4.251
 2040SOL    HW2 6459   3.083   1.849   4.385
 2041SOL     OW 6460   2.894   0.549   3.740
 2041SOL    HW1 6461   2.853   0.631   3.701
 2041SOL    HW2 6462   2.958   0.575   3.813
 2042SOL     OW 6463   2.423   0.222   4.871
 2042SOL    HW1 6464   2.461   0.138   4.908
 2042SOL    HW2 6465   2.335   0.241   4.915
 2043SOL     OW 6466   2.728   0.454   4.366
 2043SOL    HW1 6467   2.696   0.526   4.304
 2043SOL    HW2 6468   2.752   0.373   4.313
 2044SOL     OW 6469   2.879   0.039   4.477
 2044SOL    HW1 6470   2.807   0.044   4.408
 2044SOL    HW2 6471   2.855  -0.030   4.546
 2045SOL     OW 6472   3.291   1.173   4.591
 2045SOL    HW1 6473   3.236   1.089   4.584
 2045SOL    HW2 6474   3.317   1.202   4.499
 2046SOL     OW 6475   3.328   0.590   4.716
 2046SOL    HW1 6476   3.298   0.495   4.723
 2046SOL    HW2 6477   3.401   0.606   4.782
 2047SOL     OW 6478   3.719   0.833   4.101
 2047SOL    HW1 6479   3.761   0.769   4.165
 2047SOL    HW2 6480   3.681   0.782   4.023
 2048SOL     OW 6481   2.350   1.385   3.898
 2048SOL    HW1 6482   2.263   1.370   3.945
 2048SOL    HW2 6483   2.333   1.411   3.803
 2049SOL     OW 6484   3.526   1.280   4.381
 2049SOL    HW1 6485   3.625   1.288   4.395
 2049SOL    HW2 6486   3.481   1.364   4.412
 2050SOL     OW 6487   3.252   0.575   3.802
 2050SOL    HW1 6488   3.198   0.554   3.883
 2050SOL    HW2 6489   3.343   0.534   3.811
 2051SOL     OW 6490   2.389   0.256   4.052
 2051SOL    HW1 6491   2.416   0.197   3.977
 2051SOL    HW2 6492   2.389   0.351   4.021
 2052SOL     OW 6493   2.973   1.195   4.824
 2052SOL    HW1 6494   2.933   1.239   4.905
 2052SOL    HW2 6495   2.932   1.232   4.741
 2053SOL     OW 6496   3.500   1.099   4.803
 2053SOL    HW1 6497   3.505   1.180   4.862
 2053SOL    HW2 6498   3.414   1.101   4.752
 2054SOL     OW 6499   2.567   1.050   4.092
 2054SOL    HW1 6500   2.553   1.057   4.191
 2054SOL    HW2 6501   2.651   0.999   4.074
 2055SOL     OW 6502   2.272   0.813   4.975
 2055SOL    HW1 6503   2.358   0.825   5.025
 2055SOL    HW2 6504   2.230   0.726   5.002
 2056SOL     OW 6505   3.136   0.386   4.986
 2056SOL    HW1 6506   3.157   0.460   5.050
 2056SOL    HW2 6507   3.047   0.403   4.943
 2057SOL     OW 6508   2.229   1.100   4.225
 2057SOL    HW1 6509   2.222   1.183   4.169
 2057SOL    HW2 6510   2.233   1.020   4.165
 2058SOL     OW 6511   2.428   0.537   4.589
 2058SOL    HW1 6512   2.440   0.603   4.515
 2058SOL    HW2 6513   2.474   0.571   4.672
 2059SOL     OW 6514   3.114   1.348   4.112
 2059SOL    HW1 6515   3.164   1.425   4.152
 2059SOL    HW2 6516   3.019   1.350   4.144
 2060SOL     OW 6517   3.134   1.445   4.866
 2060SOL    HW1 6518   3.181   1.458   4.953
 2060SOL    HW2 6519   3.068   1.371   4.875
 2061SOL     OW 6520   3.444   0.639   4.196
 2061SOL    HW1 6521   3.413   0.700   4.269
 2061SOL    HW2 6522   3.494   0.691   4.127
 2062SOL     OW 6523   2.216   1.510   5.053
 2062SOL    HW1 6524   2.195   1.466   4.966
 2062SOL    HW2 6525   2.313   1.536   5.056
 2063SOL     OW 6526   2.435   0.870   4.753
 2063SOL    HW1 6527   2.479   0.959   4.744
 2063SOL    HW2 6528   2.372   0.870   4.830
 2064SOL     OW 6529   3.222   0.862   4.769
 2064SOL    HW1 6530   3.147   0.862   4.703
 2064SOL    HW2 6531   3.259   0.770   4.778
 2065SOL     OW 6532   3.071   0.525   3.999
 2065SOL    HW1 6533   3.084   0.441   4.053
 2065SOL    HW2 6534   3.042   0.599   4.059
 2066SOL     OW 6535   2.169   0.213   4.955
 2066SOL    HW1 6536   2.146   0.250   5.045
 2066SOL    HW2 6537   2.139   0.118   4.949
 2067SOL     OW 6538   1.899   1.310   5.006
 2067SOL    HW1 6539   1.952   1.261   5.074
 2067SOL    HW2 6540   1.921   1.408   5.011
 2068SOL     OW 6541   2.594   0.634   4.788
 2068SOL    HW1 6542   2.653   0.608   4.712
 2068SOL    HW2 6543   2.566   0.730   4.777
 2069SOL     OW 6544   2.169   0.063   4.342
 2069SOL    HW1 6545   2.158   0.157   4.375
 2069SOL    HW2 6546   2.164   0.000   4.419
 2070SOL     OW 6547   3.484   0.367   4.098
 2070SOL    HW1 6548   3.486   0.291   4.162
 2070SOL    HW2 6549   3.436   0.444   4.138
 2071SOL     OW 6550   2.885   0.766   4.690
 2071SOL    HW1 6551   2.900   0.787   4.786
 2071SOL    HW2 6552   2.855   0.671   4.681
 2072SOL     OW 6553   3.402   0.274   3.849
 2072SOL    HW1 6554   3.341   0.199   3.872
 2072SOL    HW2 6555   3.424   0.326   3.932
 2073SOL     OW 6556   3.165   0.838   3.766
 2073SOL    HW1 6557   3.199   0.745   3.781
 2073SOL    HW2 6558   3.183   0.865   3.671
 2074SOL     OW 6559   2.930   1.333   4.573
 2074SOL    HW1 6560   2.937   1.249   4.518
 2074SOL    HW2 6561   2.992   1.402   4.537
 2075SOL     OW 6562   2.181   0.810   4.673
 2075SOL    HW1 6563   2.274   0.846   4.678
 2075SOL    HW2 6564   2.175   0.725   4.725
 2076SOL     OW 6565   2.201   0.509   4.730
 2076SOL    HW1 6566   2.149   0.426   4.713
 2076SOL    HW2 6567   2.278   0.514   4.666
 2077SOL     OW 6568   3.022   0.207   5.201
 2077SOL    HW1 6569   3.022   0.271   5.278
 2077SOL    HW2 6570   3.050   0.255   5.118
 2078SOL     OW 6571   1.870   1.326   3.924
 2078SOL    HW1 6572   1.777   1.347   3.893
 2078SOL    HW2 6573   1.880   1.227   3.937
 2079SOL     OW 6574   1.950   1.801   4.651
 2079SOL    HW1 6575   1.908   1.715   4.624
 2079SOL    HW2 6576   2.044   1.804   4.617
 2080SOL     OW 6577   2.366   1.568   4.634
 2080SOL    HW1 6578   2.432   1.642   4.643
 2080SOL    HW2 6579   2.410   1.489   4.592
 2081SOL     OW 6580   2.864   0.796   4.962
 2081SOL    HW1 6581   2.905   0.764   5.048
 2081SOL    HW2 6582   2.768   0.769   4.959
 2082SOL     OW 6583   1.902   0.544   4.838
 2082SOL    HW1 6584   1.987   0.511   4.797
 2082SOL    HW2 6585   1.915   0.559   4.936
 2083SOL     OW 6586   2.677   0.572   4.049
 2083SOL    HW1 6587   2.684   0.483   4.003
 2083SOL    HW2 6588   2.583   0.606   4.041
 2084SOL     OW 6589   3.519   0.604   4.930
 2084SOL    HW1 6590   3.481   0.535   4.992
 2084SOL    HW2 6591   3.601   0.568   4.886
 2085SOL     OW 6592   2.533   0.464   4.993
 2085SOL    HW1 6593   2.499   0.375   4.963
 2085SOL    HW2 6594   2.559   0.518   4.913
 2086SOL     OW 6595   2.792   1.678   5.189
 2086SOL    HW1 6596   2.768   1.660   5.094
 2086SOL    HW2 6597   2.822   1.772   5.199
 2087SOL     OW 6598   2.335   0.500   3.915
 2087SOL    HW1 6599   2.396   0.580   3.919
 2087SOL    HW2 6600   2.240   0.531   3.922
 2088SOL     OW 6601   3.209   1.059   4.958
 2088SOL    HW1 6602   3.233   0.996   4.884
 2088SOL    HW2 6603   3.119   1.099   4.940
 2089SOL     OW 6604   3.164   0.855   4.033
 2089SOL    HW1 6605   3.078   0.824   4.075
 2089SOL    HW2 6606   3.160   0.841   3.934
 2090SOL     OW 6607   3.621   1.747   4.878
 2090SOL    HW1 6608   3.682   1.777   4.805
 2090SOL    HW2 6609   3.583   1.658   4.856
 2091SOL     OW 6610   3.114   1.731   4.852
 2091SOL    HW1 6611   3.198   1.736   4.798
 2091SOL    HW2 6612   3.091   1.635   4.870
 2092SOL     OW 6613   1.945   1.258   4.746
 2092SOL    HW1 6614   1.940   1.257   4.846
 2092SOL    HW2 6615   1.862   1.217   4.708
 2093SOL     OW 6616   3.588   0.135   4.247
 2093SOL    HW1 6617   3.661   0.118   4.180
 2093SOL    HW2 6618   3.557   0.048   4.285
 2094SOL     OW 6619   3.250   1.573   4.201
 2094SOL    HW1 6620   3.317   1.585   4.127
 2094SOL    HW2 6621   3.210   1.662   4.224
 2095SOL     OW 6622   3.142   0.927   4.396
 2095SOL    HW1 6623   3.202   0.846   4.398
 2095SOL    HW2 6624   3.182   0.996   4.336
 2096SOL     OW 6625   2.534   1.616   3.878
 2096SOL    HW1 6626   2.543   1.626   3.779
 2096SOL    HW2 6627   2.494   1.527   3.899
 2097SOL     OW 6628   3.512   1.720   5.118
 2097SOL    HW1 6629   3.565   1.730   5.034
 2097SOL    HW2 6630   3.485   1.810   5.152
 2098SOL     OW 6631   3.703   0.175   4.687
 2098SOL    HW1 6632   3.742   0.090   4.651
 2098SOL    HW2 6633   3.605   0.177   4.668
 2099SOL     OW 6634   2.125   0.326   4.444
 2099SOL    HW1 6635   2.046   0.377   4.410
 2099SOL    HW2 6636   2.116   0.311   4.542
 2100SOL     OW 6637   3.056   1.612   3.755
 2100SOL    HW1 6638   3.062   1.519   3.792
 2100SOL    HW2 6639   2.997   1.612   3.675
 2101SOL     OW 6640   2.684   1.002   5.096
 2101SOL    HW1 6641   2.724   1.001   5.004
 2101SOL    HW2 6642   2.694   1.094   5.136
 2102SOL     OW 6643   2.778   0.910   4.015
 2102SOL    HW1 6644   2.841   0.948   3.947
 2102SOL    HW2 6645   2.818   0.827   4.054
 2103SOL     OW 6646   3.366   1.607   3.768
 2103SOL    HW1 6647   3.274   1.644   3.775
 2103SOL    HW2 6648   3.404   1.627   3.678
 2104SOL     OW 6649   2.901   1.098   4.420
 2104SOL    HW1 6650   2.831   1.051   4.474
 2104SOL    HW2 6651   2.960   1.030   4.377
 2105SOL     OW 6652   2.876   0.236   4.695
 2105SOL    HW1 6653   2.868   0.200   4.602
 2105SOL    HW2 6654   2.874   0.160   4.760
 2106SOL     OW 6655   2.452   1.487   4.215
 2106SOL    HW1 6656   2.494   1.429   4.145
 2106SOL    HW2 6657   2.408   1.566   4.171
 2107SOL     OW 6658   3.571   0.385   5.105
 2107SOL    HW1 6659   3.644   0.454   5.109
 2107SOL    HW2 6660   3.599   0.310   5.046
 2108SOL     OW 6661   2.117   1.348   4.014
 2108SOL    HW1 6662   2.021   1.349   3.987
 2108SOL    HW2 6663   2.129   1.401   4.098
 2109SOL     OW 6664   1.937   0.345   3.757
 2109SOL    HW1 6665   1.845   0.317   3.728
 2109SOL    HW2 6666   1.968   0.422   3.701
 2110SOL     OW 6667   1.934   0.166   4.042
 2110SOL    HW1 6668   1.917   0.249   3.988
 2110SOL    HW2 6669   2.024   0.129   4.020
 2111SOL     OW 6670   3.045   1.335   3.843
 2111SOL    HW1 6671   2.946   1.324   3.845
 2111SOL    HW2 6672   3.079   1.350   3.936
 2112SOL     OW 6673   3.355   1.767   4.683
 2112SOL    HW1 6674   3.388   1.831   4.614
 2112SOL    HW2 6675   3.421   1.761   4.758
 2113SOL     OW 6676   3.312   1.220   5.357
 2113SOL    HW1 6677   3.303   1.210   5.456
 2113SOL    HW2 6678   3.408   1.213   5.331
 2114SOL     OW 6679   3.536   0.883   4.978
 2114SOL    HW1 6680   3.509   0.794   4.941
 2114SOL    HW2 6681   3.537   0.951   4.905
 2115SOL     OW 6682   3.087   0.325   4.173
 2115SOL    HW1 6683   3.152   0.251   4.162
 2115SOL    HW2 6684   3.107   0.375   4.257
 2116SOL     OW 6685   2.456   0.745   4.376
 2116SOL    HW1 6686   2.506   0.830   4.357
 2116SOL    HW2 6687   2.368   0.747   4.328
 2117SOL     OW 6688   3.592   0.934   5.241
 2117SOL    HW1 6689   3.630   1.025   5.256
 2117SOL    HW2 6690   3.584   0.917   5.142
 2118SOL     OW 6691   2.721   1.374   3.740
 2118SOL    HW1 6692   2.675   1.389   3.828
 2118SOL    HW2 6693   2.765   1.459   3.710
 2119SOL     OW 6694   2.523   1.790   4.677
 2119SOL    HW1 6695   2.477   1.878   4.664
 2119SOL    HW2 6696   2.622   1.802   4.670
 2120SOL     OW 6697   2.721   0.956   4.585
 2120SOL    HW1 6698   2.775   0.887   4.633
 2120SOL    HW2 6699   2.689   1.025   4.651
 2121SOL     OW 6700   2.945   0.984   3.811
 2121SOL    HW1 6701   2.922   1.037   3.729
 2121SOL    HW2 6702   3.026   0.928   3.792
 2122SOL     OW 6703   3.723   1.569   4.575
 2122SOL    HW1 6704   3.652   1.557   4.505
 2122SOL    HW2 6705   3.724   1.490   4.635
 2123SOL     OW 6706   1.941   1.240   4.377
 2123SOL    HW1 6707   1.940   1.193   4.465
 2123SOL    HW2 6708   2.023   1.212   4.326
 2124SOL     OW 6709   3.686   0.192   4.951
 2124SOL    HW1 6710   3.682   0.102   4.995
 2124SOL    HW2 6711   3.689   0.181   4.852
 2125SOL     OW 6712   2.290   0.424   4.244
 2125SOL    HW1 6713   2.320   0.352   4.182
 2125SOL    HW2 6714   2.251   0.384   4.327
 2126SOL     OW 6715   3.567   1.487   4.828
 2126SOL    HW1 6716   3.474   1.462   4.801
 2126SOL    HW2 6717   3.593   1.437   4.910
 2127SOL     OW 6718   2.674   1.586   4.411
 2127SOL    HW1 6719   2.706   1.596   4.317
 2127SOL    HW2 6720   2.595   1.524   4.413
 2128SOL     OW 6721   3.286   0.214   4.836
 2128SOL    HW1 6722   3.338   0.149   4.891
 2128SOL    HW2 6723   3.237   0.277   4.897
 2129SOL     OW 6724   2.632   1.330   4.025
 2129SOL    HW1 6725   2.586   1.243   4.042
 2129SOL    HW2 6726   2.723   1.327   4.066
 2130SOL     OW 6727   3.214   0.052   3.892
 2130SOL    HW1 6728   3.249   0.011   3.808
 2130SOL    HW2 6729   3.124   0.014   3.912
 2131SOL     OW 6730   3.162   0.453   4.415
 2131SOL    HW1 6731   3.103   0.533   4.419
 2131SOL    HW2 6732   3.177   0.418   4.508
 2132SOL     OW 6733   3.455   0.221   4.606
 2132SOL    HW1 6734   3.371   0.220   4.660
 2132SOL    HW2 6735   3.457   0.304   4.550
 2133SOL     OW 6736   1.901   1.077   4.024
 2133SOL    HW1 6737   2.000   1.066   4.015
 2133SOL    HW2 6738   1.861   0.991   4.056
 2134SOL     OW 6739   2.737   1.646   4.061
 2134SOL    HW1 6740   2.660   1.611   4.007
 2134SOL    HW2 6741   2.705   1.717   4.123
 2135SOL     OW 6742   2.087   2.137   0.996
 2135SOL    HW1 6743   2.122   2.120   1.088
 2135SOL    HW2 6744   1.999   2.092   0.984
 2136SOL     OW 6745   2.431   3.137   1.165
 2136SOL    HW1 6746   2.338   3.130   1.128
 2136SOL    HW2 6747   2.442   3.226   1.209
 2137SOL     OW 6748   3.417   3.373   0.703
 2137SOL    HW1 6749   3.360   3.357   0.784
 2137SOL    HW2 6750   3.358   3.383   0.623
 2138SOL     OW 6751   2.997   2.565   0.717
 2138SOL    HW1 6752   3.054   2.643   0.692
 2138SOL    HW2 6753   2.937   2.591   0.793
 2139SOL     OW 6754   3.617   2.469   0.231
 2139SOL    HW1 6755   3.605   2.456   0.132
 2139SOL    HW2 6756   3.587   2.388   0.280
 2140SOL     OW 6757   2.630   3.006   1.023
 2140SOL    HW1 6758   2.552   3.023   1.083
 2140SOL    HW2 6759   2.664   3.093   0.987
 2141SOL     OW 6760   2.712   2.660   1.823
 2141SOL    HW1 6761   2.708   2.736   1.888
 2141SOL    HW2 6762   2.734   2.696   1.732
 2142SOL     OW 6763   2.547   2.874   0.665
 2142SOL    HW1 6764   2.616   2.858   0.735
 2142SOL    HW2 6765   2.474   2.931   0.703
 2143SOL     OW 6766   2.548   3.023   1.803
 2143SOL    HW1 6767   2.608   3.102   1.817
 2143SOL    HW2 6768   2.462   3.054   1.762
 2144SOL     OW 6769   2.197   3.297   1.061
 2144SOL    HW1 6770   2.119   3.266   1.008
 2144SOL    HW2 6771   2.255   3.355   1.004
 2145SOL     OW 6772   3.322   3.367   1.339
 2145SOL    HW1 6773   3.346   3.461   1.365
 2145SOL    HW2 6774   3.306   3.313   1.421
 2146SOL     OW 6775   2.300   2.254   1.499
 2146SOL    HW1 6776   2.382   2.198   1.508
 2146SOL    HW2 6777   2.219   2.196   1.503
 2147SOL     OW 6778   3.465   2.309   0.737
 2147SOL    HW1 6779   3.391   2.355   0.687
 2147SOL    HW2 6780   3.516   2.377   0.790
 2148SOL     OW 6781   2.093   3.575   0.483
 2148SOL    HW1 6782   2.127   3.652   0.537
 2148SOL    HW2 6783   2.137   3.575   0.393
 2149SOL     OW 6784   2.989   3.203   1.690
 2149SOL    HW1 6785   3.036   3.203   1.778
 2149SOL    HW2 6786   2.941   3.116   1.679
 2150SOL     OW 6787   2.092   3.296   0.538
 2150SOL    HW1 6788   2.066   3.392   0.538
 2150SOL    HW2 6789   2.021   3.242   0.583
 2151SOL     OW 6790   2.102   2.953   0.886
 2151SOL    HW1 6791   2.116   2.869   0.938
 2151SOL    HW2 6792   2.047   3.017   0.941
 2152SOL     OW 6793   2.482   3.648   1.439
 2152SOL    HW1 6794   2.390   3.631   1.474
 2152SOL    HW2 6795   2.510   3.740   1.465
 2153SOL     OW 6796   2.468   2.826   0.123
 2153SOL    HW1 6797   2.475   2.910   0.069
 2153SOL    HW2 6798   2.514   2.839   0.211
 2154SOL     OW 6799   3.456   1.976   1.480
 2154SOL    HW1 6800   3.438   2.043   1.408
 2154SOL    HW2 6801   3.453   2.022   1.569
 2155SOL     OW 6802   3.704   3.629   0.359
 2155SOL    HW1 6803   3.758   3.600   0.439
 2155SOL    HW2 6804   3.734   3.719   0.330
 2156SOL     OW 6805   1.889   3.458   0.117
 2156SOL    HW1 6806   1.870   3.362   0.138
 2156SOL    HW2 6807   1.856   3.516   0.192
 2157SOL     OW 6808   3.551   2.784   0.612
 2157SOL    HW1 6809   3.646   2.755   0.620
 2157SOL    HW2 6810   3.543   2.849   0.537
 2158SOL     OW 6811   3.503   2.970   0.432
 2158SOL    HW1 6812   3.589   2.972   0.380
 2158SOL    HW2 6813   3.517   3.017   0.520
 2159SOL     OW 6814   1.975   2.599   1.597
 2159SOL    HW1 6815   2.063   2.586   1.642
 2159SOL    HW2 6816   1.962   2.696   1.575
 2160SOL     OW 6817   2.475   3.227   0.726
 2160SOL    HW1 6818   2.426   3.140   0.735
 2160SOL    HW2 6819   2.452   3.270   0.639
 2161SOL     OW 6820   3.155   3.090   1.423
 2161SOL    HW1 6821   3.192   3.017   1.365
 2161SOL    HW2 6822   3.207   3.095   1.508
 2162SOL     OW 6823   2.671   1.866   0.502
 2162SOL    HW1 6824   2.711   1.957   0.493
 2162SOL    HW2 6825   2.571   1.874   0.508
 2163SOL     OW 6826   2.059   2.838   1.264
 2163SOL    HW1 6827   2.148   2.793   1.250
 2163SOL    HW2 6828   1.986   2.773   1.245
 2164SOL     OW 6829   3.387   2.861   0.190
 2164SOL    HW1 6830   3.324   2.785   0.203
 2164SOL    HW2 6831   3.435   2.879   0.276
 2165SOL     OW 6832   3.049   3.654   1.616
 2165SOL    HW1 6833   3.073   3.714   1.540
 2165SOL    HW2 6834   3.056   3.559   1.586
 2166SOL     OW 6835   2.179   2.113   1.801
 2166SOL    HW1 6836   2.250   2.184   1.807
 2166SOL    HW2 6837   2.091   2.152   1.829
 2167SOL     OW 6838   3.328   3.279   0.953
 2167SOL    HW1 6839   3.269   3.285   1.033
 2167SOL    HW2 6840   3.313   3.191   0.907
 2168SOL     OW 6841   3.529   3.576   0.572
 2168SOL    HW1 6842   3.488   3.553   0.484
 2168SOL    HW2 6843   3.511   3.502   0.637
 2169SOL     OW 6844   2.460   2.591   0.270
 2169SOL    HW1 6845   2.484   2.660   0.202
 2169SOL    HW2 6846   2.382   2.624   0.324
 2170SOL     OW 6847   3.143   2.207   0.944
 2170SOL    HW1 6848   3.057   2.157   0.931
 2170SOL    HW2 6849   3.205   2.153   1.000
 2171SOL     OW 6850   3.438   3.524   0.307
 2171SOL    HW1 6851   3.527   3.570   0.310
 2171SOL    HW2 6852   3.417   3.500   0.212
 2172SOL     OW 6853   2.669   2.467   1.465
 2172SOL    HW1 6854   2.622   2.464   1.554
 2172SOL    HW2 6855   2.618   2.412   1.399
 2173SOL     OW 6856   3.256   2.331   1.674
 2173SOL    HW1 6857   3.236   2.374   1.762
 2173SOL    HW2 6858   3.334   2.269   1.683
 2174SOL     OW 6859   2.835   2.752   1.572
 2174SOL    HW1 6860   2.881   2.668   1.543
 2174SOL    HW2 6861   2.779   2.786   1.497
 2175SOL     OW 6862   2.853   2.272   1.242
 2175SOL    HW1 6863   2.776   2.306   1.296
 2175SOL    HW2 6864   2.819   2.221   1.163
 2176SOL     OW 6865   2.903   2.563   0.429
 2176SOL    HW1 6866   2.929   2.559   0.525
 2176SOL    HW2 6867   2.818   2.512   0.415
 2177SOL     OW 6868   1.938   2.673   0.789
 2177SOL    HW1 6869   2.037   2.661   0.798
 2177SOL    HW2 6870   1.914   2.768   0.810
 2178SOL     OW 6871   1.992   3.683   1.571
 2178SOL    HW1 6872   1.982   3.668   1.670
 2178SOL    HW2 6873   1.906   3.719   1.535
 2179SOL     OW 6874   3.581   2.447   1.831
 2179SOL    HW1 6875   3.555   2.536   1.795
 2179SOL    HW2 6876   3.579   2.379   1.758
 2180SOL     OW 6877   3.224   3.006   0.545
 2180SOL    HW1 6878   3.307   2.977   0.497
 2180SOL    HW2 6879   3.175   3.073   0.489
 2181SOL     OW 6880   2.412   2.058   0.885
 2181SOL    HW1 6881   2.407   2.053   0.985
 2181SOL    HW2 6882   2.414   2.154   0.856
 2182SOL     OW 6883   2.870   3.318   0.477
 2182SOL    HW1 6884   2.824   3.390   0.425
 2182SOL    HW2 6885   2.866   3.338   0.575
 2183SOL     OW 6886   2.213   3.663   0.853
 2183SOL    HW1 6887   2.263   3.577   0.859
 2183SOL    HW2 6888   2.278   3.740   0.850
 2184SOL     OW 6889   3.657   2.928   0.873
 2184SOL    HW1 6890   3.595   2.913   0.797
 2184SOL    HW2 6891   3.605   2.939   0.958
 2185SOL     OW 6892   3.089   3.412   1.506
 2185SOL    HW1 6893   3.095   3.335   1.570
 2185SOL    HW2 6894   3.037   3.386   1.426
 2186SOL     OW 6895   2.183   2.805   0.242
 2186SOL    HW1 6896   2.265   2.844   0.200
 2186SOL    HW2 6897   2.156   2.723   0.193
 2187SOL     OW 6898   3.320   2.597   0.728
 2187SOL    HW1 6899   3.315   2.532   0.803
 2187SOL    HW2 6900   3.400   2.656   0.741
 2188SOL     OW 6901   2.323   3.128   1.727
 2188SOL    HW1 6902   2.273   3.129   1.641
 2188SOL    HW2 6903   2.260   3.110   1.803
 2189SOL     OW 6904   2.973   3.638   0.237
 2189SOL    HW1 6905   2.913   3.576   0.287
 2189SOL    HW2 6906   3.004   3.594   0.152
 2190SOL     OW 6907   2.064   2.147   1.498
 2190SOL    HW1 6908   1.984   2.207   1.485
 2190SOL    HW2 6909   2.054   2.098   1.584
 2191SOL     OW 6910   3.494   3.239   0.081
 2191SOL    HW1 6911   3.462   3.333   0.071
 2191SOL    HW2 6912   3.418   3.176   0.069
 2192SOL     OW 6913   2.326   3.605   0.323
 2192SOL    HW1 6914   2.359   3.644   0.409
 2192SOL    HW2 6915   2.402   3.598   0.258
 2193SOL     OW 6916   3.262   1.969   0.426
 2193SOL    HW1 6917   3.238   1.932   0.336
 2193SOL    HW2 6918   3.361   1.985   0.430
 2194SOL     OW 6919   2.111   3.647   1.241
 2194SOL    HW1 6920   2.168   3.582   1.291
 2194SOL    HW2 6921   2.095   3.614   1.148
 2195SOL     OW 6922   2.802   3.560   0.904
 2195SOL    HW1 6923   2.882   3.503   0.925
 2195SOL    HW2 6924   2.753   3.520   0.827
 2196SOL     OW 6925   3.409   2.084   1.729
 2196SOL    HW1 6926   3.404   2.121   1.821
 2196SOL    HW2 6927   3.337   2.015   1.717
 2197SOL     OW 6928   2.643   2.126   1.749
 2197SOL    HW1 6929   2.710   2.065   1.792
 2197SOL    HW2 6930   2.570   2.145   1.814
 2198SOL     OW 6931   2.750   3.376   1.195
 2198SOL    HW1 6932   2.727   3.351   1.101
 2198SOL    HW2 6933   2.811   3.307   1.234
 2199SOL     OW 6934   3.213   2.452   1.433
 2199SOL    HW1 6935   3.241   2.409   1.518
 2199SOL    HW2 6936   3.238   2.548   1.434
 2200SOL     OW 6937   2.665   3.264   0.924
 2200SOL    HW1 6938   2.755   3.278   0.882
 2200SOL    HW2 6939   2.594   3.266   0.853
 2201SOL     OW 6940   2.784   2.365   0.899
 2201SOL    HW1 6941   2.759   2.356   0.803
 2201SOL    HW2 6942   2.832   2.283   0.930
 2202SOL     OW 6943   2.401   1.926   0.512
 2202SOL    HW1 6944   2.320   1.927   0.570
 2202SOL    HW2 6945   2.404   2.009   0.457
 2203SOL     OW 6946   3.296   3.050   0.041
 2203SOL    HW1 6947   3.328   2.974   0.098
 2203SOL    HW2 6948   3.204   3.077   0.071
 2204SOL     OW 6949   2.159   1.897   0.171
 2204SOL    HW1 6950   2.208   1.981   0.150
 2204SOL    HW2 6951   2.221   1.832   0.216
 2205SOL     OW 6952   2.938   2.545   1.464
 2205SOL    HW1 6953   2.858   2.484   1.467
 2205SOL    HW2 6954   3.019   2.492   1.440
 2206SOL     OW 6955   3.089   3.432   0.793
 2206SOL    HW1 6956   3.110   3.506   0.728
 2206SOL    HW2 6957   3.157   3.432   0.866
 2207SOL     OW 6958   2.321   3.014   0.741
 2207SOL    HW1 6959   2.250   2.987   0.806
 2207SOL    HW2 6960   2.295   2.986   0.648
 2208SOL     OW 6961   3.133   3.659   0.591
 2208SOL    HW1 6962   3.177   3.723   0.527
 2208SOL    HW2 6963   3.083   3.711   0.661
 2209SOL     OW 6964   1.940   2.418   1.386
 2209SOL    HW1 6965   2.032   2.417   1.345
 2209SOL    HW2 6966   1.934   2.492   1.453
 2210SOL     OW 6967   2.423   2.084   1.147
 2210SOL    HW1 6968   2.461   2.000   1.184
 2210SOL    HW2 6969   2.335   2.103   1.191
 2211SOL     OW 6970   2.879   1.901   0.753
 2211SOL    HW1 6971   2.807   1.906   0.684
 2211SOL    HW2 6972   2.855   1.832   0.822
 2212SOL     OW 6973   3.291   3.035   0.867
 2212SOL    HW1 6974   3.236   2.951   0.860
 2212SOL    HW2 6975   3.317   3.064   0.775
 2213SOL     OW 6976   3.328   2.452   0.992
 2213SOL    HW1 6977   3.298   2.357   0.999
 2213SOL    HW2 6978   3.401   2.468   1.058
 2214SOL     OW 6979   3.719   2.695   0.377
 2214SOL    HW1 6980   3.761   2.631   0.441
 2214SOL    HW2 6981   3.681   2.644   0.299
 2215SOL     OW 6982   2.350   3.247   0.174
 2215SOL    HW1 6983   2.263   3.232   0.221
 2215SOL    HW2 6984   2.333   3.273   0.079
 2216SOL     OW 6985   3.526   3.142   0.657
 2216SOL    HW1 6986   3.625   3.150   0.671
 2216SOL    HW2 6987   3.481   3.226   0.688
 2217SOL     OW 6988   2.389   2.118   0.328
 2217SOL    HW1 6989   2.416   2.059   0.253
 2217SOL    HW2 6990   2.389   2.213   0.297
 2218SOL     OW 6991   3.616   3.085   1.588
 2218SOL    HW1 6992   3.707   3.046   1.575
 2218SOL    HW2 6993   3.624   3.181   1.612
 2219SOL     OW 6994   2.926   3.209   1.340
 2219SOL    HW1 6995   2.846   3.186   1.395
 2219SOL    HW2 6996   3.009   3.183   1.389
 2220SOL     OW 6997   3.454   3.491   1.625
 2220SOL    HW1 6998   3.481   3.525   1.535
 2220SOL    HW2 6999   3.533   3.453   1.671
 2221SOL     OW 7000   2.973   3.057   1.100
 2221SOL    HW1 7001   2.933   3.101   1.181
 2221SOL    HW2 7002   2.932   3.094   1.017
 2222SOL     OW 7003   3.500   2.961   1.079
 2222SOL    HW1 7004   3.505   3.042   1.138
 2222SOL    HW2 7005   3.414   2.963   1.028
 2223SOL     OW 7006   2.777   1.951   1.402
 2223SOL    HW1 7007   2.802   1.931   1.307
 2223SOL    HW2 7008   2.849   2.007   1.444
 2224SOL     OW 7009   2.842   2.978   1.719
 2224SOL    HW1 7010   2.743   2.984   1.729
 2224SOL    HW2 7011   2.865   2.898   1.663
 2225SOL     OW 7012   2.567   2.912   0.368
 2225SOL    HW1 7013   2.553   2.919   0.467
 2225SOL    HW2 7014   2.651   2.861   0.350
 2226SOL     OW 7015   2.272   2.675   1.251
 2226SOL    HW1 7016   2.358   2.687   1.301
 2226SOL    HW2 7017   2.230   2.588   1.278
 2227SOL     OW 7018   3.136   2.248   1.262
 2227SOL    HW1 7019   3.157   2.322   1.326
 2227SOL    HW2 7020   3.047   2.265   1.219
 2228SOL     OW 7021   1.926   3.426   1.331
 2228SOL    HW1 7022   1.880   3.508   1.297
 2228SOL    HW2 7023   2.024   3.445   1.340
 2229SOL     OW 7024   2.229   2.962   0.501
 2229SOL    HW1 7025   2.222   3.045   0.445
 2229SOL    HW2 7026   2.233   2.882   0.441
 2230SOL     OW 7027   2.428   2.399   0.865
 2230SOL    HW1 7028   2.440   2.465   0.791
 2230SOL    HW2 7029   2.474   2.433   0.948
 2231SOL     OW 7030   3.114   3.210   0.388
 2231SOL    HW1 7031   3.164   3.287   0.428
 2231SOL    HW2 7032   3.019   3.212   0.420
 2232SOL     OW 7033   3.134   3.307   1.142
 2232SOL    HW1 7034   3.181   3.320   1.229
 2232SOL    HW2 7035   3.068   3.233   1.151
 2233SOL     OW 7036   3.444   2.501   0.472
 2233SOL    HW1 7037   3.413   2.562   0.545
 2233SOL    HW2 7038   3.494   2.553   0.403
 2234SOL     OW 7039   2.216   3.372   1.329
 2234SOL    HW1 7040   2.195   3.328   1.242
 2234SOL    HW2 7041   2.313   3.398   1.332
 2235SOL     OW 7042   2.264   2.613   1.598
 2235SOL    HW1 7043   2.332   2.668   1.551
 2235SOL    HW2 7044   2.304   2.525   1.625
 2236SOL     OW 7045   3.449   2.641   1.670
 2236SOL    HW1 7046   3.357   2.679   1.665
 2236SOL    HW2 7047   3.509   2.688   1.605
 2237SOL     OW 7048   2.875   1.967   1.770
 2237SOL    HW1 7049   2.881   2.052   1.718
 2237SOL    HW2 7050   2.907   1.891   1.713
 2238SOL     OW 7051   2.366   1.912   1.740
 2238SOL    HW1 7052   2.324   1.855   1.670
 2238SOL    HW2 7053   2.300   1.981   1.772
 2239SOL     OW 7054   2.435   2.732   1.029
 2239SOL    HW1 7055   2.479   2.821   1.020
 2239SOL    HW2 7056   2.372   2.732   1.106
 2240SOL     OW 7057   3.222   2.724   1.045
 2240SOL    HW1 7058   3.147   2.724   0.979
 2240SOL    HW2 7059   3.259   2.632   1.054
 2241SOL     OW 7060   3.071   2.387   0.275
 2241SOL    HW1 7061   3.084   2.303   0.329
 2241SOL    HW2 7062   3.042   2.461   0.335
 2242SOL     OW 7063   2.169   2.075   1.231
 2242SOL    HW1 7064   2.146   2.112   1.321
 2242SOL    HW2 7065   2.139   1.980   1.225
 2243SOL     OW 7066   1.899   3.172   1.282
 2243SOL    HW1 7067   1.952   3.123   1.350
 2243SOL    HW2 7068   1.921   3.270   1.287
 2244SOL     OW 7069   2.594   2.496   1.064
 2244SOL    HW1 7070   2.653   2.470   0.988
 2244SOL    HW2 7071   2.566   2.592   1.053
 2245SOL     OW 7072   3.590   2.797   1.854
 2245SOL    HW1 7073   3.544   2.790   1.765
 2245SOL    HW2 7074   3.528   2.841   1.920
 2246SOL     OW 7075   2.169   1.925   0.618
 2246SOL    HW1 7076   2.158   2.019   0.651
 2246SOL    HW2 7077   2.164   1.862   0.695
 2247SOL     OW 7078   3.484   2.229   0.374
 2247SOL    HW1 7079   3.486   2.153   0.438
 2247SOL    HW2 7080   3.436   2.306   0.414
 2248SOL     OW 7081   2.885   2.628   0.966
 2248SOL    HW1 7082   2.900   2.649   1.062
 2248SOL    HW2 7083   2.855   2.533   0.957
 2249SOL     OW 7084   2.842   3.435   1.700
 2249SOL    HW1 7085   2.822   3.479   1.612
 2249SOL    HW2 7086   2.881   3.344   1.684
 2250SOL     OW 7087   3.721   3.380   1.605
 2250SOL    HW1 7088   3.735   3.407   1.510
 2250SOL    HW2 7089   3.804   3.402   1.658
 2251SOL     OW 7090   2.212   2.760   1.804
 2251SOL    HW1 7091   2.288   2.804   1.852
 2251SOL    HW2 7092   2.247   2.713   1.722
 2252SOL     OW 7093   3.165   2.700   0.042
 2252SOL    HW1 7094   3.199   2.607   0.057
 2252SOL    HW2 7095   3.183   2.727  -0.053
 2253SOL     OW 7096   2.930   3.195   0.849
 2253SOL    HW1 7097   2.937   3.111   0.794
 2253SOL    HW2 7098   2.992   3.264   0.813
 2254SOL     OW 7099   2.181   2.672   0.949
 2254SOL    HW1 7100   2.274   2.708   0.954
 2254SOL    HW2 7101   2.175   2.587   1.001
 2255SOL     OW 7102   2.201   2.371   1.006
 2255SOL    HW1 7103   2.149   2.288   0.989
 2255SOL    HW2 7104   2.278   2.376   0.942
 2256SOL     OW 7105   3.000   2.242   1.678
 2256SOL    HW1 7106   2.955   2.305   1.742
 2256SOL    HW2 7107   3.093   2.273   1.661
 2257SOL     OW 7108   3.022   2.069   1.477
 2257SOL    HW1 7109   3.022   2.133   1.554
 2257SOL    HW2 7110   3.050   2.117   1.394
 2258SOL     OW 7111   1.950   3.663   0.927
 2258SOL    HW1 7112   1.908   3.577   0.900
 2258SOL    HW2 7113   2.044   3.666   0.893
 2259SOL     OW 7114   2.366   3.430   0.910
 2259SOL    HW1 7115   2.432   3.504   0.919
 2259SOL    HW2 7116   2.410   3.351   0.868
 2260SOL     OW 7117   2.864   2.658   1.238
 2260SOL    HW1 7118   2.905   2.626   1.324
 2260SOL    HW2 7119   2.768   2.631   1.235
 2261SOL     OW 7120   1.902   2.406   1.114
 2261SOL    HW1 7121   1.987   2.373   1.073
 2261SOL    HW2 7122   1.915   2.421   1.212
 2262SOL     OW 7123   2.051   2.382   1.722
 2262SOL    HW1 7124   2.110   2.342   1.652
 2262SOL    HW2 7125   1.993   2.453   1.681
 2263SOL     OW 7126   3.231   2.812   1.660
 2263SOL    HW1 7127   3.270   2.901   1.680
 2263SOL    HW2 7128   3.241   2.792   1.563
 2264SOL     OW 7129   3.519   2.466   1.206
 2264SOL    HW1 7130   3.481   2.397   1.268
 2264SOL    HW2 7131   3.601   2.430   1.162
 2265SOL     OW 7132   2.114   3.426   1.744
 2265SOL    HW1 7133   2.084   3.483   1.820
 2265SOL    HW2 7134   2.107   3.329   1.770
 2266SOL     OW 7135   2.533   2.326   1.269
 2266SOL    HW1 7136   2.499   2.237   1.239
 2266SOL    HW2 7137   2.559   2.380   1.189
 2267SOL     OW 7138   2.792   3.540   1.465
 2267SOL    HW1 7139   2.768   3.522   1.370
 2267SOL    HW2 7140   2.822   3.634   1.475
 2268SOL     OW 7141   2.021   2.999   1.466
 2268SOL    HW1 7142   2.043   2.938   1.542
 2268SOL    HW2 7143   2.031   2.950   1.380
 2269SOL     OW 7144   3.209   2.921   1.234
 2269SOL    HW1 7145   3.233   2.858   1.160
 2269SOL    HW2 7146   3.119   2.961   1.216
 2270SOL     OW 7147   3.164   2.717   0.309
 2270SOL    HW1 7148   3.078   2.686   0.351
 2270SOL    HW2 7149   3.160   2.703   0.210
 2271SOL     OW 7150   3.114   3.593   1.128
 2271SOL    HW1 7151   3.198   3.598   1.074
 2271SOL    HW2 7152   3.091   3.497   1.146
 2272SOL     OW 7153   1.945   3.120   1.022
 2272SOL    HW1 7154   1.940   3.119   1.122
 2272SOL    HW2 7155   1.862   3.079   0.984
 2273SOL     OW 7156   2.550   3.524   1.716
 2273SOL    HW1 7157   2.494   3.605   1.725
 2273SOL    HW2 7158   2.602   3.528   1.630
 2274SOL     OW 7159   3.588   1.997   0.523
 2274SOL    HW1 7160   3.661   1.980   0.456
 2274SOL    HW2 7161   3.557   1.910   0.561
 2275SOL     OW 7162   3.250   3.435   0.477
 2275SOL    HW1 7163   3.317   3.447   0.403
 2275SOL    HW2 7164   3.210   3.524   0.500
 2276SOL     OW 7165   1.992   3.656   1.851
 2276SOL    HW1 7166   1.951   3.582   1.904
 2276SOL    HW2 7167   2.056   3.707   1.909
 2277SOL     OW 7168   3.142   2.789   0.672
 2277SOL    HW1 7169   3.202   2.708   0.674
 2277SOL    HW2 7170   3.182   2.858   0.612
 2278SOL     OW 7171   2.692   3.135   1.422
 2278SOL    HW1 7172   2.687   3.168   1.517
 2278SOL    HW2 7173   2.606   3.154   1.376
 2279SOL     OW 7174   2.534   3.478   0.154
 2279SOL    HW1 7175   2.543   3.488   0.055
 2279SOL    HW2 7176   2.494   3.389   0.175
 2280SOL     OW 7177   3.512   3.582   1.394
 2280SOL    HW1 7178   3.565   3.592   1.310
 2280SOL    HW2 7179   3.485   3.672   1.428
 2281SOL     OW 7180   3.703   2.037   0.963
 2281SOL    HW1 7181   3.742   1.952   0.927
 2281SOL    HW2 7182   3.605   2.039   0.944
 2282SOL     OW 7183   3.056   3.474   0.031
 2282SOL    HW1 7184   3.062   3.381   0.068
 2282SOL    HW2 7185   2.997   3.474  -0.049
 2283SOL     OW 7186   2.684   2.864   1.372
 2283SOL    HW1 7187   2.724   2.863   1.280
 2283SOL    HW2 7188   2.694   2.956   1.412
 2284SOL     OW 7189   2.778   2.772   0.291
 2284SOL    HW1 7190   2.841   2.810   0.223
 2284SOL    HW2 7191   2.818   2.689   0.330
 2285SOL     OW 7192   3.366   3.469   0.044
 2285SOL    HW1 7193   3.274   3.506   0.051
 2285SOL    HW2 7194   3.404   3.489  -0.046
 2286SOL     OW 7195   2.234   3.150   1.490
 2286SOL    HW1 7196   2.221   3.243   1.456
 2286SOL    HW2 7197   2.150   3.098   1.477
 2287SOL     OW 7198   3.476   3.154   1.289
 2287SOL    HW1 7199   3.536   3.157   1.369
 2287SOL    HW2 7200   3.401   3.218   1.302
 2288SOL     OW 7201   2.901   2.960   0.696
 2288SOL    HW1 7202   2.831   2.913   0.750
 2288SOL    HW2 7203   2.960   2.892   0.653
 2289SOL     OW 7204   2.876   2.098   0.971
 2289SOL    HW1 7205   2.868   2.062   0.878
 2289SOL    HW2 7206   2.874   2.022   1.036
 2290SOL     OW 7207   2.452   3.349   0.491
 2290SOL    HW1 7208   2.494   3.291   0.421
 2290SOL    HW2 7209   2.408   3.428   0.447
 2291SOL     OW 7210   3.571   2.247   1.381
 2291SOL    HW1 7211   3.644   2.316   1.385
 2291SOL    HW2 7212   3.599   2.172   1.322
 2292SOL     OW 7213   2.117   3.210   0.290
 2292SOL    HW1 7214   2.021   3.211   0.263
 2292SOL    HW2 7215   2.129   3.263   0.374
 2293SOL     OW 7216   1.967   2.875   1.726
 2293SOL    HW1 7217   1.890   2.842   1.780
 2293SOL    HW2 7218   2.052   2.845   1.768
 2294SOL     OW 7219   2.534   2.065   1.489
 2294SOL    HW1 7220   2.624   2.049   1.449
 2294SOL    HW2 7221   2.542   2.070   1.588
 2295SOL     OW 7222   3.302   2.718   1.398
 2295SOL    HW1 7223   3.245   2.770   1.335
 2295SOL    HW2 7224   3.398   2.730   1.374
 2296SOL     OW 7225   1.934   2.028   0.318
 2296SOL    HW1 7226   1.917   2.111   0.264
 2296SOL    HW2 7227   2.024   1.991   0.296
 2297SOL     OW 7228   3.045   3.197   0.119
 2297SOL    HW1 7229   2.946   3.186   0.121
 2297SOL    HW2 7230   3.079   3.212   0.212
 2298SOL     OW 7231   2.475   2.704   1.431
 2298SOL    HW1 7232   2.531   2.785   1.414
 2298SOL    HW2 7233   2.534   2.624   1.434
 2299SOL     OW 7234   2.578   2.427   1.708
 2299SOL    HW1 7235   2.597   2.492   1.782
 2299SOL    HW2 7236   2.638   2.347   1.717
 2300SOL     OW 7237   3.312   3.082   1.633
 2300SOL    HW1 7238   3.303   3.072   1.732
 2300SOL    HW2 7239   3.408   3.075   1.607
 2301SOL     OW 7240   2.252   3.603   1.560
 2301SOL    HW1 7241   2.161   3.644   1.558
 2301SOL    HW2 7242   2.245   3.509   1.592
 2302SOL     OW 7243   3.536   2.745   1.254
 2302SOL    HW1 7244   3.509   2.656   1.217
 2302SOL    HW2 7245   3.537   2.813   1.181
 2303SOL     OW 7246   3.087   2.187   0.449
 2303SOL    HW1 7247   3.152   2.113   0.438
 2303SOL    HW2 7248   3.107   2.237   0.533
 2304SOL     OW 7249   2.456   2.607   0.652
 2304SOL    HW1 7250   2.506   2.692   0.633
 2304SOL    HW2 7251   2.368   2.609   0.604
 2305SOL     OW 7252   3.639   2.204   1.642
 2305SOL    HW1 7253   3.622   2.235   1.548
 2305SOL    HW2 7254   3.555   2.167   1.680
 2306SOL     OW 7255   3.592   2.796   1.517
 2306SOL    HW1 7256   3.630   2.887   1.532
 2306SOL    HW2 7257   3.584   2.779   1.418
 2307SOL     OW 7258   2.721   3.236   0.016
 2307SOL    HW1 7259   2.675   3.251   0.104
 2307SOL    HW2 7260   2.765   3.321  -0.014
 2308SOL     OW 7261   2.523   3.652   0.953
 2308SOL    HW1 7262   2.477   3.740   0.940
 2308SOL    HW2 7263   2.622   3.664   0.946
 2309SOL     OW 7264   2.721   2.818   0.861
 2309SOL    HW1 7265   2.775   2.749   0.909
 2309SOL    HW2 7266   2.689   2.887   0.927
 2310SOL     OW 7267   2.945   2.846   0.087
 2310SOL    HW1 7268   2.922   2.899   0.005
 2310SOL    HW2 7269   3.026   2.790   0.068
 2311SOL     OW 7270   2.083   3.176   1.844
 2311SOL    HW1 7271   2.018   3.103   1.823
 2311SOL    HW2 7272   2.087   3.190   1.942
 2312SOL     OW 7273   1.941   3.102   0.653
 2312SOL    HW1 7274   1.940   3.055   0.741
 2312SOL    HW2 7275   2.023   3.074   0.602
 2313SOL     OW 7276   2.534   3.253   1.624
 2313SOL    HW1 7277   2.456   3.203   1.662
 2313SOL    HW2 7278   2.531   3.348   1.655
 2314SOL     OW 7279   3.686   2.054   1.227
 2314SOL    HW1 7280   3.682   1.964   1.271
 2314SOL    HW2 7281   3.689   2.043   1.128
 2315SOL     OW 7282   2.290   2.286   0.520
 2315SOL    HW1 7283   2.320   2.214   0.458
 2315SOL    HW2 7284   2.251   2.246   0.603
 2316SOL     OW 7285   3.567   3.349   1.104
 2316SOL    HW1 7286   3.474   3.324   1.077
 2316SOL    HW2 7287   3.593   3.299   1.186
 2317SOL     OW 7288   2.179   2.409   1.280
 2317SOL    HW1 7289   2.217   2.350   1.352
 2317SOL    HW2 7290   2.219   2.383   1.192
 2318SOL     OW 7291   2.674   3.448   0.687
 2318SOL    HW1 7292   2.706   3.458   0.593
 2318SOL    HW2 7293   2.595   3.386   0.689
 2319SOL     OW 7294   3.286   2.076   1.112
 2319SOL    HW1 7295   3.338   2.011   1.167
 2319SOL    HW2 7296   3.237   2.139   1.173
 2320SOL     OW 7297   2.863   1.896   1.154
 2320SOL    HW1 7298   2.800   1.824   1.123
 2320SOL    HW2 7299   2.956   1.860   1.154
 2321SOL     OW 7300   2.632   3.192   0.301
 2321SOL    HW1 7301   2.586   3.105   0.318
 2321SOL    HW2 7302   2.723   3.189   0.342
 2322SOL     OW 7303   2.480   3.429   1.284
 2322SOL    HW1 7304   2.475   3.511   1.341
 2322SOL    HW2 7305   2.569   3.426   1.239
 2323SOL     OW 7306   3.162   2.315   0.691
 2323SOL    HW1 7307   3.103   2.395   0.695
 2323SOL    HW2 7308   3.177   2.280   0.784
 2324SOL     OW 7309   3.455   2.083   0.882
 2324SOL    HW1 7310   3.371   2.082   0.936
 2324SOL    HW2 7311   3.457   2.166   0.826
 2325SOL     OW 7312   1.901   2.939   0.300
 2325SOL    HW1 7313   2.000   2.928   0.291
 2325SOL    HW2 7314   1.861   2.853   0.332
 2326SOL     OW 7315   2.737   3.508   0.337
 2326SOL    HW1 7316   2.660   3.473   0.283
 2326SOL    HW2 7317   2.705   3.579   0.399
 2327SOL     OW 7318   2.092   2.490   1.975
 2327SOL    HW1 7319   1.999   2.488   2.012
 2327SOL    HW2 7320   2.093   2.451   1.883
 2328SOL     OW 7321   2.087   2.137   2.858
 2328SOL    HW1 7322   2.122   2.120   2.950
 2328SOL    HW2 7323   1.999   2.092   2.846
 2329SOL     OW 7324   1.881   2.230   2.509
 2329SOL    HW1 7325   1.799   2.273   2.548
 2329SOL    HW2 7326   1.853   2.157   2.446
 2330SOL     OW 7327   2.431   3.137   3.027
 2330SOL    HW1 7328   2.338   3.130   2.990
 2330SOL    HW2 7329   2.442   3.226   3.071
 2331SOL     OW 7330   3.417   3.373   2.565
 2331SOL    HW1 7331   3.360   3.357   2.646
 2331SOL    HW2 7332   3.358   3.383   2.485
 2332SOL     OW 7333   3.617   2.469   2.093
 2332SOL    HW1 7334   3.605   2.456   1.994
 2332SOL    HW2 7335   3.587   2.388   2.142
 2333SOL     OW 7336   2.630   3.006   2.885
 2333SOL    HW1 7337   2.552   3.023   2.945
 2333SOL    HW2 7338   2.664   3.093   2.849
 2334SOL     OW 7339   2.712   2.660   3.685
 2334SOL    HW1 7340   2.708   2.736   3.750
 2334SOL    HW2 7341   2.734   2.696   3.594
 2335SOL     OW 7342   2.548   3.023   3.665
 2335SOL    HW1 7343   2.608   3.102   3.679
 2335SOL    HW2 7344   2.462   3.054   3.624
 2336SOL     OW 7345   2.197   3.297   2.923
 2336SOL    HW1 7346   2.119   3.266   2.870
 2336SOL    HW2 7347   2.255   3.355   2.866
 2337SOL     OW 7348   3.322   3.367   3.201
 2337SOL    HW1 7349   3.346   3.461   3.227
 2337SOL    HW2 7350   3.306   3.313   3.283
 2338SOL     OW 7351   2.300   2.254   3.361
 2338SOL    HW1 7352   2.382   2.198   3.370
 2338SOL    HW2 7353   2.219   2.196   3.365
 2339SOL     OW 7354   3.465   2.309   2.599
 2339SOL    HW1 7355   3.391   2.355   2.549
 2339SOL    HW2 7356   3.516   2.377   2.652
 2340SOL     OW 7357   2.093   3.575   2.345
 2340SOL    HW1 7358   2.127   3.652   2.399
 2340SOL    HW2 7359   2.137   3.575   2.255
 2341SOL     OW 7360   2.989   3.203   3.552
 2341SOL    HW1 7361   3.036   3.203   3.640
 2341SOL    HW2 7362   2.941   3.116   3.541
 2342SOL     OW 7363   2.092   3.296   2.400
 2342SOL    HW1 7364   2.066   3.392   2.400
 2342SOL    HW2 7365   2.021   3.242   2.445
 2343SOL     OW 7366   2.102   2.953   2.748
 2343SOL    HW1 7367   2.116   2.869   2.800
 2343SOL    HW2 7368   2.047   3.017   2.803
 2344SOL     OW 7369   2.482   3.648   3.301
 2344SOL    HW1 7370   2.390   3.631   3.336
 2344SOL    HW2 7371   2.510   3.740   3.327
 2345SOL     OW 7372   2.468   2.826   1.985
 2345SOL    HW1 7373   2.475   2.910   1.931
 2345SOL    HW2 7374   2.514   2.839   2.073
 2346SOL     OW 7375   3.456   1.976   3.342
 2346SOL    HW1 7376   3.438   2.043   3.270
 2346SOL    HW2 7377   3.453   2.022   3.431
 2347SOL     OW 7378   3.704   3.629   2.221
 2347SOL    HW1 7379   3.758   3.600   2.301
 2347SOL    HW2 7380   3.734   3.719   2.192
 2348SOL     OW 7381   1.889   3.458   1.979
 2348SOL    HW1 7382   1.870   3.362   2.000
 2348SOL    HW2 7383   1.856   3.516   2.054
 2349SOL     OW 7384   3.551   2.784   2.474
 2349SOL    HW1 7385   3.646   2.755   2.482
 2349SOL    HW2 7386   3.543   2.849   2.399
 2350SOL     OW 7387   3.503   2.970   2.294
 2350SOL    HW1 7388   3.589   2.972   2.242
 2350SOL    HW2 7389   3.517   3.017   2.382
 2351SOL     OW 7390   1.975   2.599   3.459
 2351SOL    HW1 7391   2.063   2.586   3.504
 2351SOL    HW2 7392   1.962   2.696   3.437
 2352SOL     OW 7393   2.475   3.227   2.588
 2352SOL    HW1 7394   2.426   3.140   2.597
 2352SOL    HW2 7395   2.452   3.270   2.501
 2353SOL     OW 7396   3.155   3.090   3.285
 2353SOL    HW1 7397   3.192   3.017   3.227
 2353SOL    HW2 7398   3.207   3.095   3.370
 2354SOL     OW 7399   2.671   1.866   2.364
 2354SOL    HW1 7400   2.711   1.957   2.355
 2354SOL    HW2 7401   2.571   1.874   2.370
 2355SOL     OW 7402   2.059   2.838   3.126
 2355SOL    HW1 7403   2.148   2.793   3.112
 2355SOL    HW2 7404   1.986   2.773   3.107
 2356SOL     OW 7405   3.387   2.861   2.052
 2356SOL    HW1 7406   3.324   2.785   2.065
 2356SOL    HW2 7407   3.435   2.879   2.138
 2357SOL     OW 7408   3.049   3.654   3.478
 2357SOL    HW1 7409   3.073   3.714   3.402
 2357SOL    HW2 7410   3.056   3.559   3.448
 2358SOL     OW 7411   2.179   2.113   3.663
 2358SOL    HW1 7412   2.250   2.184   3.669
 2358SOL    HW2 7413   2.091   2.152   3.691
 2359SOL     OW 7414   3.328   3.279   2.815
 2359SOL    HW1 7415   3.269   3.285   2.895
 2359SOL    HW2 7416   3.313   3.191   2.769
 2360SOL     OW 7417   3.529   3.576   2.434
 2360SOL    HW1 7418   3.488   3.553   2.346
 2360SOL    HW2 7419   3.511   3.502   2.499
 2361SOL     OW 7420   2.460   2.591   2.132
 2361SOL    HW1 7421   2.484   2.660   2.064
 2361SOL    HW2 7422   2.382   2.624   2.186
 2362SOL     OW 7423   3.143   2.207   2.806
 2362SOL    HW1 7424   3.057   2.157   2.793
 2362SOL    HW2 7425   3.205   2.153   2.862
 2363SOL     OW 7426   3.438   3.524   2.169
 2363SOL    HW1 7427   3.527   3.570   2.172
 2363SOL    HW2 7428   3.417   3.500   2.074
 2364SOL     OW 7429   2.669   2.467   3.327
 2364SOL    HW1 7430   2.622   2.464   3.416
 2364SOL    HW2 7431   2.618   2.412   3.261
 2365SOL     OW 7432   3.256   2.331   3.536
 2365SOL    HW1 7433   3.236   2.374   3.624
 2365SOL    HW2 7434   3.334   2.269   3.545
 2366SOL     OW 7435   2.835   2.752   3.434
 2366SOL    HW1 7436   2.881   2.668   3.405
 2366SOL    HW2 7437   2.779   2.786   3.359
 2367SOL     OW 7438   2.853   2.272   3.104
 2367SOL    HW1 7439   2.776   2.306   3.158
 2367SOL    HW2 7440   2.819   2.221   3.025
 2368SOL     OW 7441   2.903   2.563   2.291
 2368SOL    HW1 7442   2.929   2.559   2.387
 2368SOL    HW2 7443   2.818   2.512   2.277
 2369SOL     OW 7444   1.938   2.673   2.651
 2369SOL    HW1 7445   2.037   2.661   2.660
 2369SOL    HW2 7446   1.914   2.768   2.672
 2370SOL     OW 7447   1.992   3.683   3.433
 2370SOL    HW1 7448   1.982   3.668   3.532
 2370SOL    HW2 7449   1.906   3.719   3.397
 2371SOL     OW 7450   2.727   2.210   2.057
 2371SOL    HW1 7451   2.786   2.273   2.008
 2371SOL    HW2 7452   2.746   2.116   2.028
 2372SOL     OW 7453   3.581   2.447   3.693
 2372SOL    HW1 7454   3.555   2.536   3.657
 2372SOL    HW2 7455   3.579   2.379   3.620
 2373SOL     OW 7456   3.224   3.006   2.407
 2373SOL    HW1 7457   3.307   2.977   2.359
 2373SOL    HW2 7458   3.175   3.073   2.351
 2374SOL     OW 7459   2.412   2.058   2.747
 2374SOL    HW1 7460   2.407   2.053   2.847
 2374SOL    HW2 7461   2.414   2.154   2.718
 2375SOL     OW 7462   2.870   3.318   2.339
 2375SOL    HW1 7463   2.824   3.390   2.287
 2375SOL    HW2 7464   2.866   3.338   2.437
 2376SOL     OW 7465   2.213   3.663   2.715
 2376SOL    HW1 7466   2.263   3.577   2.721
 2376SOL    HW2 7467   2.278   3.740   2.712
 2377SOL     OW 7468   3.657   2.928   2.735
 2377SOL    HW1 7469   3.595   2.913   2.659
 2377SOL    HW2 7470   3.605   2.939   2.820
 2378SOL     OW 7471   3.089   3.412   3.368
 2378SOL    HW1 7472   3.095   3.335   3.432
 2378SOL    HW2 7473   3.037   3.386   3.288
 2379SOL     OW 7474   2.183   2.805   2.104
 2379SOL    HW1 7475   2.265   2.844   2.062
 2379SOL    HW2 7476   2.156   2.723   2.055
 2380SOL     OW 7477   3.320   2.597   2.590
 2380SOL    HW1 7478   3.315   2.532   2.665
 2380SOL    HW2 7479   3.400   2.656   2.603
 2381SOL     OW 7480   2.323   3.128   3.589
 2381SOL    HW1 7481   2.273   3.129   3.503
 2381SOL    HW2 7482   2.260   3.110   3.665
 2382SOL     OW 7483   2.973   3.638   2.099
 2382SOL    HW1 7484   2.913   3.576   2.149
 2382SOL    HW2 7485   3.004   3.594   2.014
 2383SOL     OW 7486   2.064   2.147   3.360
 2383SOL    HW1 7487   1.984   2.207   3.347
 2383SOL    HW2 7488   2.054   2.098   3.446
 2384SOL     OW 7489   3.494   3.239   1.943
 2384SOL    HW1 7490   3.462   3.333   1.933
 2384SOL    HW2 7491   3.418   3.176   1.931
 2385SOL     OW 7492   2.326   3.605   2.185
 2385SOL    HW1 7493   2.359   3.644   2.271
 2385SOL    HW2 7494   2.402   3.598   2.120
 2386SOL     OW 7495   3.262   1.969   2.288
 2386SOL    HW1 7496   3.238   1.932   2.198
 2386SOL    HW2 7497   3.361   1.985   2.292
 2387SOL     OW 7498   2.111   3.647   3.103
 2387SOL    HW1 7499   2.168   3.582   3.153
 2387SOL    HW2 7500   2.095   3.614   3.010
 2388SOL     OW 7501   2.802   3.560   2.766
 2388SOL    HW1 7502   2.882   3.503   2.787
 2388SOL    HW2 7503   2.753   3.520   2.689
 2389SOL     OW 7504   2.244   2.562   2.342
 2389SOL    HW1 7505   2.289   2.472   2.339
 2389SOL    HW2 7506   2.150   2.551   2.375
 2390SOL     OW 7507   3.409   2.084   3.591
 2390SOL    HW1 7508   3.404   2.121   3.683
 2390SOL    HW2 7509   3.337   2.015   3.579
 2391SOL     OW 7510   2.476   1.984   1.979
 2391SOL    HW1 7511   2.574   1.962   1.986
 2391SOL    HW2 7512   2.445   1.967   1.886
 2392SOL     OW 7513   2.643   2.126   3.611
 2392SOL    HW1 7514   2.710   2.065   3.654
 2392SOL    HW2 7515   2.570   2.145   3.676
 2393SOL     OW 7516   2.750   3.376   3.057
 2393SOL    HW1 7517   2.727   3.351   2.963
 2393SOL    HW2 7518   2.811   3.307   3.096
 2394SOL     OW 7519   3.213   2.452   3.295
 2394SOL    HW1 7520   3.241   2.409   3.380
 2394SOL    HW2 7521   3.238   2.548   3.296
 2395SOL     OW 7522   2.665   3.264   2.786
 2395SOL    HW1 7523   2.755   3.278   2.744
 2395SOL    HW2 7524   2.594   3.266   2.715
 2396SOL     OW 7525   3.296   3.050   1.903
 2396SOL    HW1 7526   3.328   2.974   1.960
 2396SOL    HW2 7527   3.204   3.077   1.933
 2397SOL     OW 7528   2.797   2.098   2.342
 2397SOL    HW1 7529   2.749   2.139   2.264
 2397SOL    HW2 7530   2.896   2.096   2.323
 2398SOL     OW 7531   2.938   2.545   3.326
 2398SOL    HW1 7532   2.858   2.484   3.329
 2398SOL    HW2 7533   3.019   2.492   3.302
 2399SOL     OW 7534   3.089   3.432   2.655
 2399SOL    HW1 7535   3.110   3.506   2.590
 2399SOL    HW2 7536   3.157   3.432   2.728
 2400SOL     OW 7537   2.321   3.014   2.603
 2400SOL    HW1 7538   2.250   2.987   2.668
 2400SOL    HW2 7539   2.295   2.986   2.510
 2401SOL     OW 7540   3.133   3.659   2.453
 2401SOL    HW1 7541   3.177   3.723   2.389
 2401SOL    HW2 7542   3.083   3.711   2.523
 2402SOL     OW 7543   2.894   2.411   1.878
 2402SOL    HW1 7544   2.853   2.493   1.839
 2402SOL    HW2 7545   2.958   2.437   1.951
 2403SOL     OW 7546   1.940   2.418   3.248
 2403SOL    HW1 7547   2.032   2.417   3.207
 2403SOL    HW2 7548   1.934   2.492   3.315
 2404SOL     OW 7549   2.423   2.084   3.009
 2404SOL    HW1 7550   2.461   2.000   3.046
 2404SOL    HW2 7551   2.335   2.103   3.053
 2405SOL     OW 7552   2.879   1.901   2.615
 2405SOL    HW1 7553   2.807   1.906   2.546
 2405SOL    HW2 7554   2.855   1.832   2.684
 2406SOL     OW 7555   3.291   3.035   2.729
 2406SOL    HW1 7556   3.236   2.951   2.722
 2406SOL    HW2 7557   3.317   3.064   2.637
 2407SOL     OW 7558   3.328   2.452   2.854
 2407SOL    HW1 7559   3.298   2.357   2.861
 2407SOL    HW2 7560   3.401   2.468   2.920
 2408SOL     OW 7561   3.719   2.695   2.239
 2408SOL    HW1 7562   3.761   2.631   2.303
 2408SOL    HW2 7563   3.681   2.644   2.161
 2409SOL     OW 7564   2.350   3.247   2.036
 2409SOL    HW1 7565   2.263   3.232   2.083
 2409SOL    HW2 7566   2.333   3.273   1.941
 2410SOL     OW 7567   3.526   3.142   2.519
 2410SOL    HW1 7568   3.625   3.150   2.533
 2410SOL    HW2 7569   3.481   3.226   2.550
 2411SOL     OW 7570   3.252   2.437   1.940
 2411SOL    HW1 7571   3.198   2.416   2.021
 2411SOL    HW2 7572   3.343   2.396   1.949
 2412SOL     OW 7573   2.389   2.118   2.190
 2412SOL    HW1 7574   2.416   2.059   2.115
 2412SOL    HW2 7575   2.389   2.213   2.159
 2413SOL     OW 7576   2.926   3.209   3.202
 2413SOL    HW1 7577   2.846   3.186   3.257
 2413SOL    HW2 7578   3.009   3.183   3.251
 2414SOL     OW 7579   3.454   3.491   3.487
 2414SOL    HW1 7580   3.481   3.525   3.397
 2414SOL    HW2 7581   3.533   3.453   3.533
 2415SOL     OW 7582   2.973   3.057   2.962
 2415SOL    HW1 7583   2.933   3.101   3.043
 2415SOL    HW2 7584   2.932   3.094   2.879
 2416SOL     OW 7585   3.500   2.961   2.941
 2416SOL    HW1 7586   3.505   3.042   3.000
 2416SOL    HW2 7587   3.414   2.963   2.890
 2417SOL     OW 7588   2.777   1.951   3.264
 2417SOL    HW1 7589   2.802   1.931   3.169
 2417SOL    HW2 7590   2.849   2.007   3.306
 2418SOL     OW 7591   2.842   2.978   3.581
 2418SOL    HW1 7592   2.743   2.984   3.591
 2418SOL    HW2 7593   2.865   2.898   3.525
 2419SOL     OW 7594   2.272   2.675   3.113
 2419SOL    HW1 7595   2.358   2.687   3.163
 2419SOL    HW2 7596   2.230   2.588   3.140
 2420SOL     OW 7597   3.136   2.248   3.124
 2420SOL    HW1 7598   3.157   2.322   3.188
 2420SOL    HW2 7599   3.047   2.265   3.081
 2421SOL     OW 7600   1.926   3.426   3.193
 2421SOL    HW1 7601   1.880   3.508   3.159
 2421SOL    HW2 7602   2.024   3.445   3.202
 2422SOL     OW 7603   2.229   2.962   2.363
 2422SOL    HW1 7604   2.222   3.045   2.307
 2422SOL    HW2 7605   2.233   2.882   2.303
 2423SOL     OW 7606   3.114   3.210   2.250
 2423SOL    HW1 7607   3.164   3.287   2.290
 2423SOL    HW2 7608   3.019   3.212   2.282
 2424SOL     OW 7609   3.134   3.307   3.004
 2424SOL    HW1 7610   3.181   3.320   3.091
 2424SOL    HW2 7611   3.068   3.233   3.013
 2425SOL     OW 7612   3.444   2.501   2.334
 2425SOL    HW1 7613   3.413   2.562   2.407
 2425SOL    HW2 7614   3.494   2.553   2.265
 2426SOL     OW 7615   2.216   3.372   3.191
 2426SOL    HW1 7616   2.195   3.328   3.104
 2426SOL    HW2 7617   2.313   3.398   3.194
 2427SOL     OW 7618   2.264   2.613   3.460
 2427SOL    HW1 7619   2.332   2.668   3.413
 2427SOL    HW2 7620   2.304   2.525   3.487
 2428SOL     OW 7621   3.449   2.641   3.532
 2428SOL    HW1 7622   3.357   2.679   3.527
 2428SOL    HW2 7623   3.509   2.688   3.467
 2429SOL     OW 7624   2.875   1.967   3.632
 2429SOL    HW1 7625   2.881   2.052   3.580
 2429SOL    HW2 7626   2.907   1.891   3.575
 2430SOL     OW 7627   2.366   1.912   3.602
 2430SOL    HW1 7628   2.324   1.855   3.532
 2430SOL    HW2 7629   2.300   1.981   3.634
 2431SOL     OW 7630   2.435   2.732   2.891
 2431SOL    HW1 7631   2.479   2.821   2.882
 2431SOL    HW2 7632   2.372   2.732   2.968
 2432SOL     OW 7633   3.222   2.724   2.907
 2432SOL    HW1 7634   3.147   2.724   2.841
 2432SOL    HW2 7635   3.259   2.632   2.916
 2433SOL     OW 7636   3.071   2.387   2.137
 2433SOL    HW1 7637   3.084   2.303   2.191
 2433SOL    HW2 7638   3.042   2.461   2.197
 2434SOL     OW 7639   2.169   2.075   3.093
 2434SOL    HW1 7640   2.146   2.112   3.183
 2434SOL    HW2 7641   2.139   1.980   3.087
 2435SOL     OW 7642   1.899   3.172   3.144
 2435SOL    HW1 7643   1.952   3.123   3.212
 2435SOL    HW2 7644   1.921   3.270   3.149
 2436SOL     OW 7645   3.590   2.797   3.716
 2436SOL    HW1 7646   3.544   2.790   3.627
 2436SOL    HW2 7647   3.528   2.841   3.782
 2437SOL     OW 7648   3.484   2.229   2.236
 2437SOL    HW1 7649   3.486   2.153   2.300
 2437SOL    HW2 7650   3.436   2.306   2.276
 2438SOL     OW 7651   2.885   2.628   2.828
 2438SOL    HW1 7652   2.900   2.649   2.924
 2438SOL    HW2 7653   2.855   2.533   2.819
 2439SOL     OW 7654   2.842   3.435   3.562
 2439SOL    HW1 7655   2.822   3.479   3.474
 2439SOL    HW2 7656   2.881   3.344   3.546
 2440SOL     OW 7657   3.721   3.380   3.467
 2440SOL    HW1 7658   3.735   3.407   3.372
 2440SOL    HW2 7659   3.804   3.402   3.520
 2441SOL     OW 7660   2.212   2.760   3.666
 2441SOL    HW1 7661   2.288   2.804   3.714
 2441SOL    HW2 7662   2.247   2.713   3.584
 2442SOL     OW 7663   3.402   2.136   1.987
 2442SOL    HW1 7664   3.341   2.061   2.010
 2442SOL    HW2 7665   3.424   2.188   2.070
 2443SOL     OW 7666   3.165   2.700   1.904
 2443SOL    HW1 7667   3.199   2.607   1.919
 2443SOL    HW2 7668   3.183   2.727   1.809
 2444SOL     OW 7669   2.930   3.195   2.711
 2444SOL    HW1 7670   2.937   3.111   2.656
 2444SOL    HW2 7671   2.992   3.264   2.675
 2445SOL     OW 7672   2.181   2.672   2.811
 2445SOL    HW1 7673   2.274   2.708   2.816
 2445SOL    HW2 7674   2.175   2.587   2.863
 2446SOL     OW 7675   2.201   2.371   2.868
 2446SOL    HW1 7676   2.149   2.288   2.851
 2446SOL    HW2 7677   2.278   2.376   2.804
 2447SOL     OW 7678   3.000   2.242   3.540
 2447SOL    HW1 7679   2.955   2.305   3.604
 2447SOL    HW2 7680   3.093   2.273   3.523
 2448SOL     OW 7681   3.022   2.069   3.339
 2448SOL    HW1 7682   3.022   2.133   3.416
 2448SOL    HW2 7683   3.050   2.117   3.256
 2449SOL     OW 7684   1.870   3.188   2.062
 2449SOL    HW1 7685   1.777   3.209   2.031
 2449SOL    HW2 7686   1.880   3.089   2.075
 2450SOL     OW 7687   1.950   3.663   2.789
 2450SOL    HW1 7688   1.908   3.577   2.762
 2450SOL    HW2 7689   2.044   3.666   2.755
 2451SOL     OW 7690   2.366   3.430   2.772
 2451SOL    HW1 7691   2.432   3.504   2.781
 2451SOL    HW2 7692   2.410   3.351   2.730
 2452SOL     OW 7693   2.864   2.658   3.100
 2452SOL    HW1 7694   2.905   2.626   3.186
 2452SOL    HW2 7695   2.768   2.631   3.097
 2453SOL     OW 7696   1.902   2.406   2.976
 2453SOL    HW1 7697   1.987   2.373   2.935
 2453SOL    HW2 7698   1.915   2.421   3.074
 2454SOL     OW 7699   2.051   2.382   3.584
 2454SOL    HW1 7700   2.110   2.342   3.514
 2454SOL    HW2 7701   1.993   2.453   3.543
 2455SOL     OW 7702   3.231   2.812   3.522
 2455SOL    HW1 7703   3.270   2.901   3.542
 2455SOL    HW2 7704   3.241   2.792   3.425
 2456SOL     OW 7705   2.677   2.434   2.187
 2456SOL    HW1 7706   2.684   2.345   2.141
 2456SOL    HW2 7707   2.583   2.468   2.179
 2457SOL     OW 7708   3.519   2.466   3.068
 2457SOL    HW1 7709   3.481   2.397   3.130
 2457SOL    HW2 7710   3.601   2.430   3.024
 2458SOL     OW 7711   2.114   3.426   3.606
 2458SOL    HW1 7712   2.084   3.483   3.682
 2458SOL    HW2 7713   2.107   3.329   3.632
 2459SOL     OW 7714   2.533   2.326   3.131
 2459SOL    HW1 7715   2.499   2.237   3.101
 2459SOL    HW2 7716   2.559   2.380   3.051
 2460SOL     OW 7717   2.792   3.540   3.327
 2460SOL    HW1 7718   2.768   3.522   3.232
 2460SOL    HW2 7719   2.822   3.634   3.337
 2461SOL     OW 7720   2.335   2.362   2.053
 2461SOL    HW1 7721   2.396   2.442   2.057
 2461SOL    HW2 7722   2.240   2.393   2.060
 2462SOL     OW 7723   2.021   2.999   3.328
 2462SOL    HW1 7724   2.043   2.938   3.404
 2462SOL    HW2 7725   2.031   2.950   3.242
 2463SOL     OW 7726   3.209   2.921   3.096
 2463SOL    HW1 7727   3.233   2.858   3.022
 2463SOL    HW2 7728   3.119   2.961   3.078
 2464SOL     OW 7729   3.164   2.717   2.171
 2464SOL    HW1 7730   3.078   2.686   2.213
 2464SOL    HW2 7731   3.160   2.703   2.072
 2465SOL     OW 7732   3.621   3.609   3.016
 2465SOL    HW1 7733   3.682   3.639   2.943
 2465SOL    HW2 7734   3.583   3.520   2.994
 2466SOL     OW 7735   3.114   3.593   2.990
 2466SOL    HW1 7736   3.198   3.598   2.936
 2466SOL    HW2 7737   3.091   3.497   3.008
 2467SOL     OW 7738   1.945   3.120   2.884
 2467SOL    HW1 7739   1.940   3.119   2.984
 2467SOL    HW2 7740   1.862   3.079   2.846
 2468SOL     OW 7741   2.550   3.524   3.578
 2468SOL    HW1 7742   2.494   3.605   3.587
 2468SOL    HW2 7743   2.602   3.528   3.492
 2469SOL     OW 7744   3.588   1.997   2.385
 2469SOL    HW1 7745   3.661   1.980   2.318
 2469SOL    HW2 7746   3.557   1.910   2.423
 2470SOL     OW 7747   3.250   3.435   2.339
 2470SOL    HW1 7748   3.317   3.447   2.265
 2470SOL    HW2 7749   3.210   3.524   2.362
 2471SOL     OW 7750   1.992   3.656   3.713
 2471SOL    HW1 7751   1.951   3.582   3.766
 2471SOL    HW2 7752   2.056   3.707   3.771
 2472SOL     OW 7753   3.142   2.789   2.534
 2472SOL    HW1 7754   3.202   2.708   2.536
 2472SOL    HW2 7755   3.182   2.858   2.474
 2473SOL     OW 7756   2.692   3.135   3.284
 2473SOL    HW1 7757   2.687   3.168   3.379
 2473SOL    HW2 7758   2.606   3.154   3.238
 2474SOL     OW 7759   2.534   3.478   2.016
 2474SOL    HW1 7760   2.543   3.488   1.917
 2474SOL    HW2 7761   2.494   3.389   2.037
 2475SOL     OW 7762   3.512   3.582   3.256
 2475SOL    HW1 7763   3.565   3.592   3.172
 2475SOL    HW2 7764   3.485   3.672   3.290
 2476SOL     OW 7765   3.703   2.037   2.825
 2476SOL    HW1 7766   3.742   1.952   2.789
 2476SOL    HW2 7767   3.605   2.039   2.806
 2477SOL     OW 7768   3.056   3.474   1.893
 2477SOL    HW1 7769   3.062   3.381   1.930
 2477SOL    HW2 7770   2.997   3.474   1.813
 2478SOL     OW 7771   2.684   2.864   3.234
 2478SOL    HW1 7772   2.724   2.863   3.142
 2478SOL    HW2 7773   2.694   2.956   3.274
 2479SOL     OW 7774   2.778   2.772   2.153
 2479SOL    HW1 7775   2.841   2.810   2.085
 2479SOL    HW2 7776   2.818   2.689   2.192
 2480SOL     OW 7777   3.366   3.469   1.906
 2480SOL    HW1 7778   3.274   3.506   1.913
 2480SOL    HW2 7779   3.404   3.489   1.816
 2481SOL     OW 7780   2.234   3.150   3.352
 2481SOL    HW1 7781   2.221   3.243   3.318
 2481SOL    HW2 7782   2.150   3.098   3.339
 2482SOL     OW 7783   3.476   3.154   3.151
 2482SOL    HW1 7784   3.536   3.157   3.231
 2482SOL    HW2 7785   3.401   3.218   3.164
 2483SOL     OW 7786   2.901   2.960   2.558
 2483SOL    HW1 7787   2.831   2.913   2.612
 2483SOL    HW2 7788   2.960   2.892   2.515
 2484SOL     OW 7789   2.876   2.098   2.833
 2484SOL    HW1 7790   2.868   2.062   2.740
 2484SOL    HW2 7791   2.874   2.022   2.898
 2485SOL     OW 7792   2.452   3.349   2.353
 2485SOL    HW1 7793   2.494   3.291   2.283
 2485SOL    HW2 7794   2.408   3.428   2.309
 2486SOL     OW 7795   3.571   2.247   3.243
 2486SOL    HW1 7796   3.644   2.316   3.247
 2486SOL    HW2 7797   3.599   2.172   3.184
 2487SOL     OW 7798   2.117   3.210   2.152
 2487SOL    HW1 7799   2.021   3.211   2.125
 2487SOL    HW2 7800   2.129   3.263   2.236
 2488SOL     OW 7801   1.967   2.875   3.588
 2488SOL    HW1 7802   1.890   2.842   3.642
 2488SOL    HW2 7803   2.052   2.845   3.630
 2489SOL     OW 7804   2.534   2.065   3.351
 2489SOL    HW1 7805   2.624   2.049   3.311
 2489SOL    HW2 7806   2.542   2.070   3.450
 2490SOL     OW 7807   1.937   2.207   1.895
 2490SOL    HW1 7808   1.845   2.179   1.866
 2490SOL    HW2 7809   1.968   2.284   1.839
 2491SOL     OW 7810   3.302   2.718   3.260
 2491SOL    HW1 7811   3.245   2.770   3.197
 2491SOL    HW2 7812   3.398   2.730   3.236
 2492SOL     OW 7813   1.934   2.028   2.180
 2492SOL    HW1 7814   1.917   2.111   2.126
 2492SOL    HW2 7815   2.024   1.991   2.158
 2493SOL     OW 7816   3.045   3.197   1.981
 2493SOL    HW1 7817   2.946   3.186   1.983
 2493SOL    HW2 7818   3.079   3.212   2.074
 2494SOL     OW 7819   2.475   2.704   3.293
 2494SOL    HW1 7820   2.531   2.785   3.276
 2494SOL    HW2 7821   2.534   2.624   3.296
 2495SOL     OW 7822   3.355   3.629   2.821
 2495SOL    HW1 7823   3.388   3.693   2.752
 2495SOL    HW2 7824   3.421   3.623   2.896
 2496SOL     OW 7825   2.578   2.427   3.570
 2496SOL    HW1 7826   2.597   2.492   3.644
 2496SOL    HW2 7827   2.638   2.347   3.579
 2497SOL     OW 7828   2.252   3.603   3.422
 2497SOL    HW1 7829   2.161   3.644   3.420
 2497SOL    HW2 7830   2.245   3.509   3.454
 2498SOL     OW 7831   3.536   2.745   3.116
 2498SOL    HW1 7832   3.509   2.656   3.079
 2498SOL    HW2 7833   3.537   2.813   3.043
 2499SOL     OW 7834   3.087   2.187   2.311
 2499SOL    HW1 7835   3.152   2.113   2.300
 2499SOL    HW2 7836   3.107   2.237   2.395
 2500SOL     OW 7837   3.639   2.204   3.504
 2500SOL    HW1 7838   3.622   2.235   3.410
 2500SOL    HW2 7839   3.555   2.167   3.542
 2501SOL     OW 7840   2.721   3.236   1.878
 2501SOL    HW1 7841   2.675   3.251   1.966
 2501SOL    HW2 7842   2.765   3.321   1.848
 2502SOL     OW 7843   2.523   3.652   2.815
 2502SOL    HW1 7844   2.477   3.740   2.802
 2502SOL    HW2 7845   2.622   3.664   2.808
 2503SOL     OW 7846   2.945   2.846   1.949
 2503SOL    HW1 7847   2.922   2.899   1.867
 2503SOL    HW2 7848   3.026   2.790   1.930
 2504SOL     OW 7849   3.723   3.431   2.713
 2504SOL    HW1 7850   3.652   3.419   2.643
 2504SOL    HW2 7851   3.724   3.352   2.773
 2505SOL     OW 7852   2.083   3.176   3.706
 2505SOL    HW1 7853   2.018   3.103   3.685
 2505SOL    HW2 7854   2.087   3.190   3.804
 2506SOL     OW 7855   1.941   3.102   2.515
 2506SOL    HW1 7856   1.940   3.055   2.603
 2506SOL    HW2 7857   2.023   3.074   2.464
 2507SOL     OW 7858   2.534   3.253   3.486
 2507SOL    HW1 7859   2.456   3.203   3.524
 2507SOL    HW2 7860   2.531   3.348   3.517
 2508SOL     OW 7861   3.686   2.054   3.089
 2508SOL    HW1 7862   3.682   1.964   3.133
 2508SOL    HW2 7863   3.689   2.043   2.990
 2509SOL     OW 7864   3.567   3.349   2.966
 2509SOL    HW1 7865   3.474   3.324   2.939
 2509SOL    HW2 7866   3.593   3.299   3.048
 2510SOL     OW 7867   2.179   2.409   3.142
 2510SOL    HW1 7868   2.217   2.350   3.214
 2510SOL    HW2 7869   2.219   2.383   3.054
 2511SOL     OW 7870   2.674   3.448   2.549
 2511SOL    HW1 7871   2.706   3.458   2.455
 2511SOL    HW2 7872   2.595   3.386   2.551
 2512SOL     OW 7873   3.286   2.076   2.974
 2512SOL    HW1 7874   3.338   2.011   3.029
 2512SOL    HW2 7875   3.237   2.139   3.035
 2513SOL     OW 7876   2.863   1.896   3.016
 2513SOL    HW1 7877   2.800   1.824   2.985
 2513SOL    HW2 7878   2.956   1.860   3.016
 2514SOL     OW 7879   2.632   3.192   2.163
 2514SOL    HW1 7880   2.586   3.105   2.180
 2514SOL    HW2 7881   2.723   3.189   2.204
 2515SOL     OW 7882   2.480   3.429   3.146
 2515SOL    HW1 7883   2.475   3.511   3.203
 2515SOL    HW2 7884   2.569   3.426   3.101
 2516SOL     OW 7885   3.214   1.914   2.030
 2516SOL    HW1 7886   3.249   1.873   1.946
 2516SOL    HW2 7887   3.124   1.876   2.050
 2517SOL     OW 7888   3.455   2.083   2.744
 2517SOL    HW1 7889   3.371   2.082   2.798
 2517SOL    HW2 7890   3.457   2.166   2.688
 2518SOL     OW 7891   1.901   2.939   2.162
 2518SOL    HW1 7892   2.000   2.928   2.153
 2518SOL    HW2 7893   1.861   2.853   2.194
 2519SOL     OW 7894   2.737   3.508   2.199
 2519SOL    HW1 7895   2.660   3.473   2.145
 2519SOL    HW2 7896   2.705   3.579   2.261
 2520SOL     OW 7897   2.092   2.490   3.837
 2520SOL    HW1 7898   1.999   2.488   3.874
 2520SOL    HW2 7899   2.093   2.451   3.745
 2521SOL     OW 7900   2.087   2.137   4.720
 2521SOL    HW1 7901   2.122   2.120   4.812
 2521SOL    HW2 7902   1.999   2.092   4.708
 2522SOL     OW 7903   1.881   2.230   4.371
 2522SOL    HW1 7904   1.799   2.273   4.410
 2522SOL    HW2 7905   1.853   2.157   4.308
 2523SOL     OW 7906   2.431   3.137   4.889
 2523SOL    HW1 7907   2.338   3.130   4.852
 2523SOL    HW2 7908   2.442   3.226   4.933
 2524SOL     OW 7909   3.417   3.373   4.427
 2524SOL    HW1 7910   3.360   3.357   4.508
 2524SOL    HW2 7911   3.358   3.383   4.347
 2525SOL     OW 7912   2.997   2.565   4.441
 2525SOL    HW1 7913   3.054   2.643   4.416
 2525SOL    HW2 7914   2.937   2.591   4.517
 2526SOL     OW 7915   3.617   2.469   3.955
 2526SOL    HW1 7916   3.605   2.456   3.856
 2526SOL    HW2 7917   3.587   2.388   4.004
 2527SOL     OW 7918   2.630   3.006   4.747
 2527SOL    HW1 7919   2.552   3.023   4.807
 2527SOL    HW2 7920   2.664   3.093   4.711
 2528SOL     OW 7921   2.547   2.874   4.389
 2528SOL    HW1 7922   2.616   2.858   4.459
 2528SOL    HW2 7923   2.474   2.931   4.427
 2529SOL     OW 7924   2.197   3.297   4.785
 2529SOL    HW1 7925   2.119   3.266   4.732
 2529SOL    HW2 7926   2.255   3.355   4.728
 2530SOL     OW 7927   3.465   2.309   4.461
 2530SOL    HW1 7928   3.391   2.355   4.411
 2530SOL    HW2 7929   3.516   2.377   4.514
 2531SOL     OW 7930   2.093   3.575   4.207
 2531SOL    HW1 7931   2.127   3.652   4.261
 2531SOL    HW2 7932   2.137   3.575   4.117
 2532SOL     OW 7933   2.092   3.296   4.262
 2532SOL    HW1 7934   2.066   3.392   4.262
 2532SOL    HW2 7935   2.021   3.242   4.307
 2533SOL     OW 7936   2.102   2.953   4.610
 2533SOL    HW1 7937   2.116   2.869   4.662
 2533SOL    HW2 7938   2.047   3.017   4.665
 2534SOL     OW 7939   2.482   3.648   5.163
 2534SOL    HW1 7940   2.390   3.631   5.198
 2534SOL    HW2 7941   2.510   3.740   5.189
 2535SOL     OW 7942   2.468   2.826   3.847
 2535SOL    HW1 7943   2.475   2.910   3.793
 2535SOL    HW2 7944   2.514   2.839   3.935
 2536SOL     OW 7945   1.984   2.505   4.287
 2536SOL    HW1 7946   1.939   2.417   4.304
 2536SOL    HW2 7947   1.983   2.559   4.371
 2537SOL     OW 7948   3.704   3.629   4.083
 2537SOL    HW1 7949   3.758   3.600   4.163
 2537SOL    HW2 7950   3.734   3.719   4.054
 2538SOL     OW 7951   1.889   3.458   3.841
 2538SOL    HW1 7952   1.870   3.362   3.862
 2538SOL    HW2 7953   1.856   3.516   3.916
 2539SOL     OW 7954   3.551   2.784   4.336
 2539SOL    HW1 7955   3.646   2.755   4.344
 2539SOL    HW2 7956   3.543   2.849   4.261
 2540SOL     OW 7957   3.503   2.970   4.156
 2540SOL    HW1 7958   3.589   2.972   4.104
 2540SOL    HW2 7959   3.517   3.017   4.244
 2541SOL     OW 7960   2.475   3.227   4.450
 2541SOL    HW1 7961   2.426   3.140   4.459
 2541SOL    HW2 7962   2.452   3.270   4.363
 2542SOL     OW 7963   2.671   1.866   4.226
 2542SOL    HW1 7964   2.711   1.957   4.217
 2542SOL    HW2 7965   2.571   1.874   4.232
 2543SOL     OW 7966   2.059   2.838   4.988
 2543SOL    HW1 7967   2.148   2.793   4.974
 2543SOL    HW2 7968   1.986   2.773   4.969
 2544SOL     OW 7969   3.387   2.861   3.914
 2544SOL    HW1 7970   3.324   2.785   3.927
 2544SOL    HW2 7971   3.435   2.879   4.000
 2545SOL     OW 7972   3.328   3.279   4.677
 2545SOL    HW1 7973   3.269   3.285   4.757
 2545SOL    HW2 7974   3.313   3.191   4.631
 2546SOL     OW 7975   3.529   3.576   4.296
 2546SOL    HW1 7976   3.488   3.553   4.208
 2546SOL    HW2 7977   3.511   3.502   4.361
 2547SOL     OW 7978   2.460   2.591   3.994
 2547SOL    HW1 7979   2.484   2.660   3.926
 2547SOL    HW2 7980   2.382   2.624   4.048
 2548SOL     OW 7981   3.438   3.524   4.031
 2548SOL    HW1 7982   3.527   3.570   4.034
 2548SOL    HW2 7983   3.417   3.500   3.936
 2549SOL     OW 7984   2.903   2.563   4.153
 2549SOL    HW1 7985   2.929   2.559   4.249
 2549SOL    HW2 7986   2.818   2.512   4.139
 2550SOL     OW 7987   1.938   2.673   4.513
 2550SOL    HW1 7988   2.037   2.661   4.522
 2550SOL    HW2 7989   1.914   2.768   4.534
 2551SOL     OW 7990   2.727   2.210   3.919
 2551SOL    HW1 7991   2.786   2.273   3.870
 2551SOL    HW2 7992   2.746   2.116   3.890
 2552SOL     OW 7993   3.224   3.006   4.269
 2552SOL    HW1 7994   3.307   2.977   4.221
 2552SOL    HW2 7995   3.175   3.073   4.213
 2553SOL     OW 7996   2.412   2.058   4.609
 2553SOL    HW1 7997   2.407   2.053   4.709
 2553SOL    HW2 7998   2.414   2.154   4.580
 2554SOL     OW 7999   2.870   3.318   4.201
 2554SOL    HW1 8000   2.824   3.390   4.149
 2554SOL    HW2 8001   2.866   3.338   4.299
 2555SOL     OW 8002   2.213   3.663   4.577
 2555SOL    HW1 8003   2.263   3.577   4.583
 2555SOL    HW2 8004   2.278   3.740   4.574
 2556SOL     OW 8005   3.657   2.928   4.597
 2556SOL    HW1 8006   3.595   2.913   4.521
 2556SOL    HW2 8007   3.605   2.939   4.682
 2557SOL     OW 8008   2.183   2.805   3.966
 2557SOL    HW1 8009   2.265   2.844   3.924
 2557SOL    HW2 8010   2.156   2.723   3.917
 2558SOL     OW 8011   3.320   2.597   4.452
 2558SOL    HW1 8012   3.315   2.532   4.527
 2558SOL    HW2 8013   3.400   2.656   4.465
 2559SOL     OW 8014   2.973   3.638   3.961
 2559SOL    HW1 8015   2.913   3.576   4.011
 2559SOL    HW2 8016   3.004   3.594   3.876
 2560SOL     OW 8017   3.494   3.239   3.805
 2560SOL    HW1 8018   3.462   3.333   3.795
 2560SOL    HW2 8019   3.418   3.176   3.793
 2561SOL     OW 8020   2.326   3.605   4.047
 2561SOL    HW1 8021   2.359   3.644   4.133
 2561SOL    HW2 8022   2.402   3.598   3.982
 2562SOL     OW 8023   3.262   1.969   4.150
 2562SOL    HW1 8024   3.238   1.932   4.060
 2562SOL    HW2 8025   3.361   1.985   4.154
 2563SOL     OW 8026   2.111   3.647   4.965
 2563SOL    HW1 8027   2.168   3.582   5.015
 2563SOL    HW2 8028   2.095   3.614   4.872
 2564SOL     OW 8029   2.802   3.560   4.628
 2564SOL    HW1 8030   2.882   3.503   4.649
 2564SOL    HW2 8031   2.753   3.520   4.551
 2565SOL     OW 8032   2.244   2.562   4.204
 2565SOL    HW1 8033   2.289   2.472   4.201
 2565SOL    HW2 8034   2.150   2.551   4.237
 2566SOL     OW 8035   2.476   1.984   3.841
 2566SOL    HW1 8036   2.574   1.962   3.848
 2566SOL    HW2 8037   2.445   1.967   3.748
 2567SOL     OW 8038   2.665   3.264   4.648
 2567SOL    HW1 8039   2.755   3.278   4.606
 2567SOL    HW2 8040   2.594   3.266   4.577
 2568SOL     OW 8041   2.401   1.926   4.236
 2568SOL    HW1 8042   2.320   1.927   4.294
 2568SOL    HW2 8043   2.404   2.009   4.181
 2569SOL     OW 8044   3.296   3.050   3.765
 2569SOL    HW1 8045   3.328   2.974   3.822
 2569SOL    HW2 8046   3.204   3.077   3.795
 2570SOL     OW 8047   2.159   1.897   3.895
 2570SOL    HW1 8048   2.208   1.981   3.874
 2570SOL    HW2 8049   2.221   1.832   3.940
 2571SOL     OW 8050   2.797   2.098   4.204
 2571SOL    HW1 8051   2.749   2.139   4.126
 2571SOL    HW2 8052   2.896   2.096   4.185
 2572SOL     OW 8053   3.089   3.432   4.517
 2572SOL    HW1 8054   3.110   3.506   4.452
 2572SOL    HW2 8055   3.157   3.432   4.590
 2573SOL     OW 8056   2.321   3.014   4.465
 2573SOL    HW1 8057   2.250   2.987   4.530
 2573SOL    HW2 8058   2.295   2.986   4.372
 2574SOL     OW 8059   3.133   3.659   4.315
 2574SOL    HW1 8060   3.177   3.723   4.251
 2574SOL    HW2 8061   3.083   3.711   4.385
 2575SOL     OW 8062   2.894   2.411   3.740
 2575SOL    HW1 8063   2.853   2.493   3.701
 2575SOL    HW2 8064   2.958   2.437   3.813
 2576SOL     OW 8065   2.423   2.084   4.871
 2576SOL    HW1 8066   2.461   2.000   4.908
 2576SOL    HW2 8067   2.335   2.103   4.915
 2577SOL     OW 8068   2.728   2.316   4.366
 2577SOL    HW1 8069   2.696   2.388   4.304
 2577SOL    HW2 8070   2.752   2.235   4.313
 2578SOL     OW 8071   2.879   1.901   4.477
 2578SOL    HW1 8072   2.807   1.906   4.408
 2578SOL    HW2 8073   2.855   1.832   4.546
 2579SOL     OW 8074   3.291   3.035   4.591
 2579SOL    HW1 8075   3.236   2.951   4.584
 2579SOL    HW2 8076   3.317   3.064   4.499
 2580SOL     OW 8077   3.328   2.452   4.716
 2580SOL    HW1 8078   3.298   2.357   4.723
 2580SOL    HW2 8079   3.401   2.468   4.782
 2581SOL     OW 8080   3.719   2.695   4.101
 2581SOL    HW1 8081   3.761   2.631   4.165
 2581SOL    HW2 8082   3.681   2.644   4.023
 2582SOL     OW 8083   2.350   3.247   3.898
 2582SOL    HW1 8084   2.263   3.232   3.945
 2582SOL    HW2 8085   2.333   3.273   3.803
 2583SOL     OW 8086   3.526   3.142   4.381
 2583SOL    HW1 8087   3.625   3.150   4.395
 2583SOL    HW2 8088   3.481   3.226   4.412
 2584SOL     OW 8089   3.252   2.437   3.802
 2584SOL    HW1 8090   3.198   2.416   3.883
 2584SOL    HW2 8091   3.343   2.396   3.811
 2585SOL     OW 8092   2.389   2.118   4.052
 2585SOL    HW1 8093   2.416   2.059   3.977
 2585SOL    HW2 8094   2.389   2.213   4.021
 2586SOL     OW 8095   2.973   3.057   4.824
 2586SOL    HW1 8096   2.933   3.101   4.905
 2586SOL    HW2 8097   2.932   3.094   4.741
 2587SOL     OW 8098   3.500   2.961   4.803
 2587SOL    HW1 8099   3.505   3.042   4.862
 2587SOL    HW2 8100   3.414   2.963   4.752
 2588SOL     OW 8101   2.567   2.912   4.092
 2588SOL    HW1 8102   2.553   2.919   4.191
 2588SOL    HW2 8103   2.651   2.861   4.074
 2589SOL     OW 8104   2.272   2.675   4.975
 2589SOL    HW1 8105   2.358   2.687   5.025
 2589SOL    HW2 8106   2.230   2.588   5.002
 2590SOL     OW 8107   2.229   2.962   4.225
 2590SOL    HW1 8108   2.222   3.045   4.169
 2590SOL    HW2 8109   2.233   2.882   4.165
 2591SOL     OW 8110   2.428   2.399   4.589
 2591SOL    HW1 8111   2.440   2.465   4.515
 2591SOL    HW2 8112   2.474   2.433   4.672
 2592SOL     OW 8113   3.114   3.210   4.112
 2592SOL    HW1 8114   3.164   3.287   4.152
 2592SOL    HW2 8115   3.019   3.212   4.144
 2593SOL     OW 8116   3.134   3.307   4.866
 2593SOL    HW1 8117   3.181   3.320   4.953
 2593SOL    HW2 8118   3.068   3.233   4.875
 2594SOL     OW 8119   3.444   2.501   4.196
 2594SOL    HW1 8120   3.413   2.562   4.269
 2594SOL    HW2 8121   3.494   2.553   4.127
 2595SOL     OW 8122   2.216   3.372   5.053
 2595SOL    HW1 8123   2.195   3.328   4.966
 2595SOL    HW2 8124   2.313   3.398   5.056
 2596SOL     OW 8125   2.435   2.732   4.753
 2596SOL    HW1 8126   2.479   2.821   4.744
 2596SOL    HW2 8127   2.372   2.732   4.830
 2597SOL     OW 8128   3.222   2.724   4.769
 2597SOL    HW1 8129   3.147   2.724   4.703
 2597SOL    HW2 8130   3.259   2.632   4.778
 2598SOL     OW 8131   3.071   2.387   3.999
 2598SOL    HW1 8132   3.084   2.303   4.053
 2598SOL    HW2 8133   3.042   2.461   4.059
 2599SOL     OW 8134   2.169   2.075   4.955
 2599SOL    HW1 8135   2.146   2.112   5.045
 2599SOL    HW2 8136   2.139   1.980   4.949
 2600SOL     OW 8137   1.899   3.172   5.006
 2600SOL    HW1 8138   1.952   3.123   5.074
 2600SOL    HW2 8139   1.921   3.270   5.011
 2601SOL     OW 8140   2.594   2.496   4.788
 2601SOL    HW1 8141   2.653   2.470   4.712
 2601SOL    HW2 8142   2.566   2.592   4.777
 2602SOL     OW 8143   2.169   1.925   4.342
 2602SOL    HW1 8144   2.158   2.019   4.375
 2602SOL    HW2 8145   2.164   1.862   4.419
 2603SOL     OW 8146   3.484   2.229   4.098
 2603SOL    HW1 8147   3.486   2.153   4.162
 2603SOL    HW2 8148   3.436   2.306   4.138
 2604SOL     OW 8149   2.885   2.628   4.690
 2604SOL    HW1 8150   2.900   2.649   4.786
 2604SOL    HW2 8151   2.855   2.533   4.681
 2605SOL     OW 8152   3.402   2.136   3.849
 2605SOL    HW1 8153   3.341   2.061   3.872
 2605SOL    HW2 8154   3.424   2.188   3.932
 2606SOL     OW 8155   3.165   2.700   3.766
 2606SOL    HW1 8156   3.199   2.607   3.781
 2606SOL    HW2 8157   3.183   2.727   3.671
 2607SOL     OW 8158   2.930   3.195   4.573
 2607SOL    HW1 8159   2.937   3.111   4.518
 2607SOL    HW2 8160   2.992   3.264   4.537
 2608SOL     OW 8161   2.181   2.672   4.673
 2608SOL    HW1 8162   2.274   2.708   4.678
 2608SOL    HW2 8163   2.175   2.587   4.725
 2609SOL     OW 8164   2.201   2.371   4.730
 2609SOL    HW1 8165   2.149   2.288   4.713
 2609SOL    HW2 8166   2.278   2.376   4.666
 2610SOL     OW 8167   1.870   3.188   3.924
 2610SOL    HW1 8168   1.777   3.209   3.893
 2610SOL    HW2 8169   1.880   3.089   3.937
 2611SOL     OW 8170   1.950   3.663   4.651
 2611SOL    HW1 8171   1.908   3.577   4.624
 2611SOL    HW2 8172   2.044   3.666   4.617
 2612SOL     OW 8173   2.366   3.430   4.634
 2612SOL    HW1 8174   2.432   3.504   4.643
 2612SOL    HW2 8175   2.410   3.351   4.592
 2613SOL     OW 8176   2.864   2.658   4.962
 2613SOL    HW1 8177   2.905   2.626   5.048
 2613SOL    HW2 8178   2.768   2.631   4.959
 2614SOL     OW 8179   1.902   2.406   4.838
 2614SOL    HW1 8180   1.987   2.373   4.797
 2614SOL    HW2 8181   1.915   2.421   4.936
 2615SOL     OW 8182   2.677   2.434   4.049
 2615SOL    HW1 8183   2.684   2.345   4.003
 2615SOL    HW2 8184   2.583   2.468   4.041
 2616SOL     OW 8185   3.519   2.466   4.930
 2616SOL    HW1 8186   3.481   2.397   4.992
 2616SOL    HW2 8187   3.601   2.430   4.886
 2617SOL     OW 8188   2.792   3.540   5.189
 2617SOL    HW1 8189   2.768   3.522   5.094
 2617SOL    HW2 8190   2.822   3.634   5.199
 2618SOL     OW 8191   2.335   2.362   3.915
 2618SOL    HW1 8192   2.396   2.442   3.919
 2618SOL    HW2 8193   2.240   2.393   3.922
 2619SOL     OW 8194   3.209   2.921   4.958
 2619SOL    HW1 8195   3.233   2.858   4.884
 2619SOL    HW2 8196   3.119   2.961   4.940
 2620SOL     OW 8197   3.164   2.717   4.033
 2620SOL    HW1 8198   3.078   2.686   4.075
 2620SOL    HW2 8199   3.160   2.703   3.934
 2621SOL     OW 8200   3.621   3.609   4.878
 2621SOL    HW1 8201   3.682   3.639   4.805
 2621SOL    HW2 8202   3.583   3.520   4.856
 2622SOL     OW 8203   3.114   3.593   4.852
 2622SOL    HW1 8204   3.198   3.598   4.798
 2622SOL    HW2 8205   3.091   3.497   4.870
 2623SOL     OW 8206   1.945   3.120   4.746
 2623SOL    HW1 8207   1.940   3.119   4.846
 2623SOL    HW2 8208   1.862   3.079   4.708
 2624SOL     OW 8209   3.588   1.997   4.247
 2624SOL    HW1 8210   3.661   1.980   4.180
 2624SOL    HW2 8211   3.557   1.910   4.285
 2625SOL     OW 8212   3.250   3.435   4.201
 2625SOL    HW1 8213   3.317   3.447   4.127
 2625SOL    HW2 8214   3.210   3.524   4.224
 2626SOL     OW 8215   3.142   2.789   4.396
 2626SOL    HW1 8216   3.202   2.708   4.398
 2626SOL    HW2 8217   3.182   2.858   4.336
 2627SOL     OW 8218   2.534   3.478   3.878
 2627SOL    HW1 8219   2.543   3.488   3.779
 2627SOL    HW2 8220   2.494   3.389   3.899
 2628SOL     OW 8221   3.512   3.582   5.118
 2628SOL    HW1 8222   3.565   3.592   5.034
 2628SOL    HW2 8223   3.485   3.672   5.152
 2629SOL     OW 8224   3.703   2.037   4.687
 2629SOL    HW1 8225   3.742   1.952   4.651
 2629SOL    HW2 8226   3.605   2.039   4.668
 2630SOL     OW 8227   2.125   2.188   4.444
 2630SOL    HW1 8228   2.046   2.239   4.410
 2630SOL    HW2 8229   2.116   2.173   4.542
 2631SOL     OW 8230   3.056   3.474   3.755
 2631SOL    HW1 8231   3.062   3.381   3.792
 2631SOL    HW2 8232   2.997   3.474   3.675
 2632SOL     OW 8233   2.684   2.864   5.096
 2632SOL    HW1 8234   2.724   2.863   5.004
 2632SOL    HW2 8235   2.694   2.956   5.136
 2633SOL     OW 8236   2.778   2.772   4.015
 2633SOL    HW1 8237   2.841   2.810   3.947
 2633SOL    HW2 8238   2.818   2.689   4.054
 2634SOL     OW 8239   3.366   3.469   3.768
 2634SOL    HW1 8240   3.274   3.506   3.775
 2634SOL    HW2 8241   3.404   3.489   3.678
 2635SOL     OW 8242   2.901   2.960   4.420
 2635SOL    HW1 8243   2.831   2.913   4.474
 2635SOL    HW2 8244   2.960   2.892   4.377
 2636SOL     OW 8245   2.452   3.349   4.215
 2636SOL    HW1 8246   2.494   3.291   4.145
 2636SOL    HW2 8247   2.408   3.428   4.171
 2637SOL     OW 8248   3.571   2.247   5.105
 2637SOL    HW1 8249   3.644   2.316   5.109
 2637SOL    HW2 8250   3.599   2.172   5.046
 2638SOL     OW 8251   2.117   3.210   4.014
 2638SOL    HW1 8252   2.021   3.211   3.987
 2638SOL    HW2 8253   2.129   3.263   4.098
 2639SOL     OW 8254   1.937   2.207   3.757
 2639SOL    HW1 8255   1.845   2.179   3.728
 2639SOL    HW2 8256   1.968   2.284   3.701
 2640SOL     OW 8257   1.934   2.028   4.042
 2640SOL    HW1 8258   1.917   2.111   3.988
 2640SOL    HW2 8259   2.024   1.991   4.020
 2641SOL     OW 8260   3.045   3.197   3.843
 2641SOL    HW1 8261   2.946   3.186   3.845
 2641SOL    HW2 8262   3.079   3.212   3.936
 2642SOL     OW 8263   3.355   3.629   4.683
 2642SOL    HW1 8264   3.388   3.693   4.614
 2642SOL    HW2 8265   3.421   3.623   4.758
 2643SOL     OW 8266   3.312   3.082   5.357
 2643SOL    HW1 8267   3.303   3.072   5.456
 2643SOL    HW2 8268   3.408   3.075   5.331
 2644SOL     OW 8269   3.536   2.745   4.978
 2644SOL    HW1 8270   3.509   2.656   4.941
 2644SOL    HW2 8271   3.537   2.813   4.905
 2645SOL     OW 8272   3.087   2.187   4.173
 2645SOL    HW1 8273   3.152   2.113   4.162
 2645SOL    HW2 8274   3.107   2.237   4.257
 2646SOL     OW 8275   2.456   2.607   4.376
 2646SOL    HW1 8276   2.506   2.692   4.357
 2646SOL    HW2 8277   2.368   2.609   4.328
 2647SOL     OW 8278   3.592   2.796   5.241
 2647SOL    HW1 8279   3.630   2.887   5.256
 2647SOL    HW2 8280   3.584   2.779   5.142
 2648SOL     OW 8281   2.721   3.236   3.740
 2648SOL    HW1 8282   2.675   3.251   3.828
 2648SOL    HW2 8283   2.765   3.321   3.710
 2649SOL     OW 8284   2.523   3.652   4.677
 2649SOL    HW1 8285   2.477   3.740   4.664
 2649SOL    HW2 8286   2.622   3.664   4.670
 2650SOL     OW 8287   2.721   2.818   4.585
 2650SOL    HW1 8288   2.775   2.749   4.633
 2650SOL    HW2 8289   2.689   2.887   4.651
 2651SOL     OW 8290   2.945   2.846   3.811
 2651SOL    HW1 8291   2.922   2.899   3.729
 2651SOL    HW2 8292   3.026   2.790   3.792
 2652SOL     OW 8293   3.723   3.431   4.575
 2652SOL    HW1 8294   3.652   3.419   4.505
 2652SOL    HW2 8295   3.724   3.352   4.635
 2653SOL     OW 8296   1.941   3.102   4.377
 2653SOL    HW1 8297   1.940   3.055   4.465
 2653SOL    HW2 8298   2.023   3.074   4.326
 2654SOL     OW 8299   3.686   2.054   4.951
 2654SOL    HW1 8300   3.682   1.964   4.995
 2654SOL    HW2 8301   3.689   2.043   4.852
 2655SOL     OW 8302   2.290   2.286   4.244
 2655SOL    HW1 8303   2.320   2.214   4.182
 2655SOL    HW2 8304   2.251   2.246   4.327
 2656SOL     OW 8305   3.567   3.349   4.828
 2656SOL    HW1 8306   3.474   3.324   4.801
 2656SOL    HW2 8307   3.593   3.299   4.910
 2657SOL     OW 8308   2.674   3.448   4.411
 2657SOL    HW1 8309   2.706   3.458   4.317
 2657SOL    HW2 8310   2.595   3.386   4.413
 2658SOL     OW 8311   2.863   1.896   4.878
 2658SOL    HW1 8312   2.800   1.824   4.847
 2658SOL    HW2 8313   2.956   1.860   4.878
 2659SOL     OW 8314   2.632   3.192   4.025
 2659SOL    HW1 8315   2.586   3.105   4.042
 2659SOL    HW2 8316   2.723   3.189   4.066
 2660SOL     OW 8317   3.214   1.914   3.892
 2660SOL    HW1 8318   3.249   1.873   3.808
 2660SOL    HW2 8319   3.124   1.876   3.912
 2661SOL     OW 8320   3.162   2.315   4.415
 2661SOL    HW1 8321   3.103   2.395   4.419
 2661SOL    HW2 8322   3.177   2.280   4.508
 2662SOL     OW 8323   3.455   2.083   4.606
 2662SOL    HW1 8324   3.371   2.082   4.660
 2662SOL    HW2 8325   3.457   2.166   4.550
 2663SOL     OW 8326   1.901   2.939   4.024
 2663SOL    HW1 8327   2.000   2.928   4.015
 2663SOL    HW2 8328   1.861   2.853   4.056
 2664SOL     OW 8329   2.737   3.508   4.061
 2664SOL    HW1 8330   2.660   3.473   4.007
 2664SOL    HW2 8331   2.705   3.579   4.123
 2665SOL     OW 8332   2.092   4.352   0.113
 2665SOL    HW1 8333   1.999   4.350   0.150
 2665SOL    HW2 8334   2.093   4.313   0.021
 2666SOL     OW 8335   2.087   3.999   0.996
 2666SOL    HW1 8336   2.122   3.982   1.088
 2666SOL    HW2 8337   1.999   3.954   0.984
 2667SOL     OW 8338   1.881   4.092   0.647
 2667SOL    HW1 8339   1.799   4.135   0.686
 2667SOL    HW2 8340   1.853   4.019   0.584
 2668SOL     OW 8341   2.431   4.999   1.165
 2668SOL    HW1 8342   2.338   4.992   1.128
 2668SOL    HW2 8343   2.442   5.088   1.209
 2669SOL     OW 8344   3.417   5.235   0.703
 2669SOL    HW1 8345   3.360   5.219   0.784
 2669SOL    HW2 8346   3.358   5.245   0.623
 2670SOL     OW 8347   2.997   4.427   0.717
 2670SOL    HW1 8348   3.054   4.505   0.692
 2670SOL    HW2 8349   2.937   4.453   0.793
 2671SOL     OW 8350   3.617   4.331   0.231
 2671SOL    HW1 8351   3.605   4.318   0.132
 2671SOL    HW2 8352   3.587   4.250   0.280
 2672SOL     OW 8353   2.630   4.868   1.023
 2672SOL    HW1 8354   2.552   4.885   1.083
 2672SOL    HW2 8355   2.664   4.955   0.987
 2673SOL     OW 8356   2.712   4.522   1.823
 2673SOL    HW1 8357   2.708   4.598   1.888
 2673SOL    HW2 8358   2.734   4.558   1.732
 2674SOL     OW 8359   2.547   4.736   0.665
 2674SOL    HW1 8360   2.616   4.720   0.735
 2674SOL    HW2 8361   2.474   4.793   0.703
 2675SOL     OW 8362   2.548   4.885   1.803
 2675SOL    HW1 8363   2.608   4.964   1.817
 2675SOL    HW2 8364   2.462   4.916   1.762
 2676SOL     OW 8365   2.197   5.159   1.061
 2676SOL    HW1 8366   2.119   5.128   1.008
 2676SOL    HW2 8367   2.255   5.217   1.004
 2677SOL     OW 8368   2.300   4.116   1.499
 2677SOL    HW1 8369   2.382   4.060   1.508
 2677SOL    HW2 8370   2.219   4.058   1.503
 2678SOL     OW 8371   3.465   4.171   0.737
 2678SOL    HW1 8372   3.391   4.217   0.687
 2678SOL    HW2 8373   3.516   4.239   0.790
 2679SOL     OW 8374   2.102   4.815   0.886
 2679SOL    HW1 8375   2.116   4.731   0.938
 2679SOL    HW2 8376   2.047   4.879   0.941
 2680SOL     OW 8377   2.468   4.688   0.123
 2680SOL    HW1 8378   2.475   4.772   0.069
 2680SOL    HW2 8379   2.514   4.701   0.211
 2681SOL     OW 8380   3.456   3.838   1.480
 2681SOL    HW1 8381   3.438   3.905   1.408
 2681SOL    HW2 8382   3.453   3.884   1.569
 2682SOL     OW 8383   1.984   4.367   0.563
 2682SOL    HW1 8384   1.939   4.279   0.580
 2682SOL    HW2 8385   1.983   4.421   0.647
 2683SOL     OW 8386   3.551   4.646   0.612
 2683SOL    HW1 8387   3.646   4.617   0.620
 2683SOL    HW2 8388   3.543   4.711   0.537
 2684SOL     OW 8389   3.503   4.832   0.432
 2684SOL    HW1 8390   3.589   4.834   0.380
 2684SOL    HW2 8391   3.517   4.879   0.520
 2685SOL     OW 8392   1.975   4.461   1.597
 2685SOL    HW1 8393   2.063   4.448   1.642
 2685SOL    HW2 8394   1.962   4.558   1.575
 2686SOL     OW 8395   3.155   4.952   1.423
 2686SOL    HW1 8396   3.192   4.879   1.365
 2686SOL    HW2 8397   3.207   4.957   1.508
 2687SOL     OW 8398   2.671   3.728   0.502
 2687SOL    HW1 8399   2.711   3.819   0.493
 2687SOL    HW2 8400   2.571   3.736   0.508
 2688SOL     OW 8401   2.059   4.700   1.264
 2688SOL    HW1 8402   2.148   4.655   1.250
 2688SOL    HW2 8403   1.986   4.635   1.245
 2689SOL     OW 8404   3.387   4.723   0.190
 2689SOL    HW1 8405   3.324   4.647   0.203
 2689SOL    HW2 8406   3.435   4.741   0.276
 2690SOL     OW 8407   2.179   3.975   1.801
 2690SOL    HW1 8408   2.250   4.046   1.807
 2690SOL    HW2 8409   2.091   4.014   1.829
 2691SOL     OW 8410   3.328   5.141   0.953
 2691SOL    HW1 8411   3.269   5.147   1.033
 2691SOL    HW2 8412   3.313   5.053   0.907
 2692SOL     OW 8413   2.460   4.453   0.270
 2692SOL    HW1 8414   2.484   4.522   0.202
 2692SOL    HW2 8415   2.382   4.486   0.324
 2693SOL     OW 8416   3.143   4.069   0.944
 2693SOL    HW1 8417   3.057   4.019   0.931
 2693SOL    HW2 8418   3.205   4.015   1.000
 2694SOL     OW 8419   2.669   4.329   1.465
 2694SOL    HW1 8420   2.622   4.326   1.554
 2694SOL    HW2 8421   2.618   4.274   1.399
 2695SOL     OW 8422   3.256   4.193   1.674
 2695SOL    HW1 8423   3.236   4.236   1.762
 2695SOL    HW2 8424   3.334   4.131   1.683
 2696SOL     OW 8425   2.835   4.614   1.572
 2696SOL    HW1 8426   2.881   4.530   1.543
 2696SOL    HW2 8427   2.779   4.648   1.497
 2697SOL     OW 8428   2.853   4.134   1.242
 2697SOL    HW1 8429   2.776   4.168   1.296
 2697SOL    HW2 8430   2.819   4.083   1.163
 2698SOL     OW 8431   2.903   4.425   0.429
 2698SOL    HW1 8432   2.929   4.421   0.525
 2698SOL    HW2 8433   2.818   4.374   0.415
 2699SOL     OW 8434   1.938   4.535   0.789
 2699SOL    HW1 8435   2.037   4.523   0.798
 2699SOL    HW2 8436   1.914   4.630   0.810
 2700SOL     OW 8437   2.727   4.072   0.195
 2700SOL    HW1 8438   2.786   4.135   0.146
 2700SOL    HW2 8439   2.746   3.978   0.166
 2701SOL     OW 8440   3.581   4.309   1.831
 2701SOL    HW1 8441   3.555   4.398   1.795
 2701SOL    HW2 8442   3.579   4.241   1.758
 2702SOL     OW 8443   3.224   4.868   0.545
 2702SOL    HW1 8444   3.307   4.839   0.497
 2702SOL    HW2 8445   3.175   4.935   0.489
 2703SOL     OW 8446   2.412   3.920   0.885
 2703SOL    HW1 8447   2.407   3.915   0.985
 2703SOL    HW2 8448   2.414   4.016   0.856
 2704SOL     OW 8449   3.657   4.790   0.873
 2704SOL    HW1 8450   3.595   4.775   0.797
 2704SOL    HW2 8451   3.605   4.801   0.958
 2705SOL     OW 8452   2.183   4.667   0.242
 2705SOL    HW1 8453   2.265   4.706   0.200
 2705SOL    HW2 8454   2.156   4.585   0.193
 2706SOL     OW 8455   3.320   4.459   0.728
 2706SOL    HW1 8456   3.315   4.394   0.803
 2706SOL    HW2 8457   3.400   4.518   0.741
 2707SOL     OW 8458   2.064   4.009   1.498
 2707SOL    HW1 8459   1.984   4.069   1.485
 2707SOL    HW2 8460   2.054   3.960   1.584
 2708SOL     OW 8461   3.494   5.101   0.081
 2708SOL    HW1 8462   3.462   5.195   0.071
 2708SOL    HW2 8463   3.418   5.038   0.069
 2709SOL     OW 8464   3.262   3.831   0.426
 2709SOL    HW1 8465   3.238   3.794   0.336
 2709SOL    HW2 8466   3.361   3.847   0.430
 2710SOL     OW 8467   2.244   4.424   0.480
 2710SOL    HW1 8468   2.289   4.334   0.477
 2710SOL    HW2 8469   2.150   4.413   0.513
 2711SOL     OW 8470   3.409   3.946   1.729
 2711SOL    HW1 8471   3.404   3.983   1.821
 2711SOL    HW2 8472   3.337   3.877   1.717
 2712SOL     OW 8473   2.643   3.988   1.749
 2712SOL    HW1 8474   2.710   3.927   1.792
 2712SOL    HW2 8475   2.570   4.007   1.814
 2713SOL     OW 8476   3.213   4.314   1.433
 2713SOL    HW1 8477   3.241   4.271   1.518
 2713SOL    HW2 8478   3.238   4.410   1.434
 2714SOL     OW 8479   2.665   5.126   0.924
 2714SOL    HW1 8480   2.755   5.140   0.882
 2714SOL    HW2 8481   2.594   5.128   0.853
 2715SOL     OW 8482   2.784   4.227   0.899
 2715SOL    HW1 8483   2.759   4.218   0.803
 2715SOL    HW2 8484   2.832   4.145   0.930
 2716SOL     OW 8485   2.401   3.788   0.512
 2716SOL    HW1 8486   2.320   3.789   0.570
 2716SOL    HW2 8487   2.404   3.871   0.457
 2717SOL     OW 8488   2.159   3.759   0.171
 2717SOL    HW1 8489   2.208   3.843   0.150
 2717SOL    HW2 8490   2.221   3.694   0.216
 2718SOL     OW 8491   2.797   3.960   0.480
 2718SOL    HW1 8492   2.749   4.001   0.402
 2718SOL    HW2 8493   2.896   3.958   0.461
 2719SOL     OW 8494   2.938   4.407   1.464
 2719SOL    HW1 8495   2.858   4.346   1.467
 2719SOL    HW2 8496   3.019   4.354   1.440
 2720SOL     OW 8497   3.089   5.294   0.793
 2720SOL    HW1 8498   3.110   5.368   0.728
 2720SOL    HW2 8499   3.157   5.294   0.866
 2721SOL     OW 8500   2.321   4.876   0.741
 2721SOL    HW1 8501   2.250   4.849   0.806
 2721SOL    HW2 8502   2.295   4.848   0.648
 2722SOL     OW 8503   1.940   4.280   1.386
 2722SOL    HW1 8504   2.032   4.279   1.345
 2722SOL    HW2 8505   1.934   4.354   1.453
 2723SOL     OW 8506   2.423   3.946   1.147
 2723SOL    HW1 8507   2.461   3.862   1.184
 2723SOL    HW2 8508   2.335   3.965   1.191
 2724SOL     OW 8509   2.728   4.178   0.642
 2724SOL    HW1 8510   2.696   4.250   0.580
 2724SOL    HW2 8511   2.752   4.097   0.589
 2725SOL     OW 8512   2.879   3.763   0.753
 2725SOL    HW1 8513   2.807   3.768   0.684
 2725SOL    HW2 8514   2.855   3.694   0.822
 2726SOL     OW 8515   3.291   4.897   0.867
 2726SOL    HW1 8516   3.236   4.813   0.860
 2726SOL    HW2 8517   3.317   4.926   0.775
 2727SOL     OW 8518   3.328   4.314   0.992
 2727SOL    HW1 8519   3.298   4.219   0.999
 2727SOL    HW2 8520   3.401   4.330   1.058
 2728SOL     OW 8521   3.719   4.557   0.377
 2728SOL    HW1 8522   3.761   4.493   0.441
 2728SOL    HW2 8523   3.681   4.506   0.299
 2729SOL     OW 8524   3.526   5.004   0.657
 2729SOL    HW1 8525   3.625   5.012   0.671
 2729SOL    HW2 8526   3.481   5.088   0.688
 2730SOL     OW 8527   2.389   3.980   0.328
 2730SOL    HW1 8528   2.416   3.921   0.253
 2730SOL    HW2 8529   2.389   4.075   0.297
 2731SOL     OW 8530   3.616   4.947   1.588
 2731SOL    HW1 8531   3.707   4.908   1.575
 2731SOL    HW2 8532   3.624   5.043   1.612
 2732SOL     OW 8533   3.500   4.823   1.079
 2732SOL    HW1 8534   3.505   4.904   1.138
 2732SOL    HW2 8535   3.414   4.825   1.028
 2733SOL     OW 8536   2.777   3.813   1.402
 2733SOL    HW1 8537   2.802   3.793   1.307
 2733SOL    HW2 8538   2.849   3.869   1.444
 2734SOL     OW 8539   2.842   4.840   1.719
 2734SOL    HW1 8540   2.743   4.846   1.729
 2734SOL    HW2 8541   2.865   4.760   1.663
 2735SOL     OW 8542   2.567   4.774   0.368
 2735SOL    HW1 8543   2.553   4.781   0.467
 2735SOL    HW2 8544   2.651   4.723   0.350
 2736SOL     OW 8545   2.272   4.537   1.251
 2736SOL    HW1 8546   2.358   4.549   1.301
 2736SOL    HW2 8547   2.230   4.450   1.278
 2737SOL     OW 8548   3.136   4.110   1.262
 2737SOL    HW1 8549   3.157   4.184   1.326
 2737SOL    HW2 8550   3.047   4.127   1.219
 2738SOL     OW 8551   2.229   4.824   0.501
 2738SOL    HW1 8552   2.222   4.907   0.445
 2738SOL    HW2 8553   2.233   4.744   0.441
 2739SOL     OW 8554   2.428   4.261   0.865
 2739SOL    HW1 8555   2.440   4.327   0.791
 2739SOL    HW2 8556   2.474   4.295   0.948
 2740SOL     OW 8557   3.444   4.363   0.472
 2740SOL    HW1 8558   3.413   4.424   0.545
 2740SOL    HW2 8559   3.494   4.415   0.403
 2741SOL     OW 8560   2.264   4.475   1.598
 2741SOL    HW1 8561   2.332   4.530   1.551
 2741SOL    HW2 8562   2.304   4.387   1.625
 2742SOL     OW 8563   3.449   4.503   1.670
 2742SOL    HW1 8564   3.357   4.541   1.665
 2742SOL    HW2 8565   3.509   4.550   1.605
 2743SOL     OW 8566   2.875   3.829   1.770
 2743SOL    HW1 8567   2.881   3.914   1.718
 2743SOL    HW2 8568   2.907   3.753   1.713
 2744SOL     OW 8569   2.366   3.774   1.740
 2744SOL    HW1 8570   2.324   3.717   1.670
 2744SOL    HW2 8571   2.300   3.843   1.772
 2745SOL     OW 8572   2.435   4.594   1.029
 2745SOL    HW1 8573   2.479   4.683   1.020
 2745SOL    HW2 8574   2.372   4.594   1.106
 2746SOL     OW 8575   3.222   4.586   1.045
 2746SOL    HW1 8576   3.147   4.586   0.979
 2746SOL    HW2 8577   3.259   4.494   1.054
 2747SOL     OW 8578   3.071   4.249   0.275
 2747SOL    HW1 8579   3.084   4.165   0.329
 2747SOL    HW2 8580   3.042   4.323   0.335
 2748SOL     OW 8581   2.169   3.937   1.231
 2748SOL    HW1 8582   2.146   3.974   1.321
 2748SOL    HW2 8583   2.139   3.842   1.225
 2749SOL     OW 8584   2.594   4.358   1.064
 2749SOL    HW1 8585   2.653   4.332   0.988
 2749SOL    HW2 8586   2.566   4.454   1.053
 2750SOL     OW 8587   3.590   4.659   1.854
 2750SOL    HW1 8588   3.544   4.652   1.765
 2750SOL    HW2 8589   3.528   4.703   1.920
 2751SOL     OW 8590   2.169   3.787   0.618
 2751SOL    HW1 8591   2.158   3.881   0.651
 2751SOL    HW2 8592   2.164   3.724   0.695
 2752SOL     OW 8593   3.484   4.091   0.374
 2752SOL    HW1 8594   3.486   4.015   0.438
 2752SOL    HW2 8595   3.436   4.168   0.414
 2753SOL     OW 8596   2.885   4.490   0.966
 2753SOL    HW1 8597   2.900   4.511   1.062
 2753SOL    HW2 8598   2.855   4.395   0.957
 2754SOL     OW 8599   3.721   5.242   1.605
 2754SOL    HW1 8600   3.735   5.269   1.510
 2754SOL    HW2 8601   3.804   5.264   1.658
 2755SOL     OW 8602   2.212   4.622   1.804
 2755SOL    HW1 8603   2.288   4.666   1.852
 2755SOL    HW2 8604   2.247   4.575   1.722
 2756SOL     OW 8605   3.402   3.998   0.125
 2756SOL    HW1 8606   3.341   3.923   0.148
 2756SOL    HW2 8607   3.424   4.050   0.208
 2757SOL     OW 8608   2.181   4.534   0.949
 2757SOL    HW1 8609   2.274   4.570   0.954
 2757SOL    HW2 8610   2.175   4.449   1.001
 2758SOL     OW 8611   2.201   4.233   1.006
 2758SOL    HW1 8612   2.149   4.150   0.989
 2758SOL    HW2 8613   2.278   4.238   0.942
 2759SOL     OW 8614   3.000   4.104   1.678
 2759SOL    HW1 8615   2.955   4.167   1.742
 2759SOL    HW2 8616   3.093   4.135   1.661
 2760SOL     OW 8617   3.022   3.931   1.477
 2760SOL    HW1 8618   3.022   3.995   1.554
 2760SOL    HW2 8619   3.050   3.979   1.394
 2761SOL     OW 8620   2.864   4.520   1.238
 2761SOL    HW1 8621   2.905   4.488   1.324
 2761SOL    HW2 8622   2.768   4.493   1.235
 2762SOL     OW 8623   1.902   4.268   1.114
 2762SOL    HW1 8624   1.987   4.235   1.073
 2762SOL    HW2 8625   1.915   4.283   1.212
 2763SOL     OW 8626   2.051   4.244   1.722
 2763SOL    HW1 8627   2.110   4.204   1.652
 2763SOL    HW2 8628   1.993   4.315   1.681
 2764SOL     OW 8629   3.231   4.674   1.660
 2764SOL    HW1 8630   3.270   4.763   1.680
 2764SOL    HW2 8631   3.241   4.654   1.563
 2765SOL     OW 8632   2.677   4.296   0.325
 2765SOL    HW1 8633   2.684   4.207   0.279
 2765SOL    HW2 8634   2.583   4.330   0.317
 2766SOL     OW 8635   3.519   4.328   1.206
 2766SOL    HW1 8636   3.481   4.259   1.268
 2766SOL    HW2 8637   3.601   4.292   1.162
 2767SOL     OW 8638   2.533   4.188   1.269
 2767SOL    HW1 8639   2.499   4.099   1.239
 2767SOL    HW2 8640   2.559   4.242   1.189
 2768SOL     OW 8641   2.335   4.224   0.191
 2768SOL    HW1 8642   2.396   4.304   0.195
 2768SOL    HW2 8643   2.240   4.255   0.198
 2769SOL     OW 8644   2.021   4.861   1.466
 2769SOL    HW1 8645   2.043   4.800   1.542
 2769SOL    HW2 8646   2.031   4.812   1.380
 2770SOL     OW 8647   3.209   4.783   1.234
 2770SOL    HW1 8648   3.233   4.720   1.160
 2770SOL    HW2 8649   3.119   4.823   1.216
 2771SOL     OW 8650   3.164   4.579   0.309
 2771SOL    HW1 8651   3.078   4.548   0.351
 2771SOL    HW2 8652   3.160   4.565   0.210
 2772SOL     OW 8653   1.945   4.982   1.022
 2772SOL    HW1 8654   1.940   4.981   1.122
 2772SOL    HW2 8655   1.862   4.941   0.984
 2773SOL     OW 8656   2.765   3.810   0.133
 2773SOL    HW1 8657   2.816   3.811   0.047
 2773SOL    HW2 8658   2.821   3.768   0.204
 2774SOL     OW 8659   3.588   3.859   0.523
 2774SOL    HW1 8660   3.661   3.842   0.456
 2774SOL    HW2 8661   3.557   3.772   0.561
 2775SOL     OW 8662   3.142   4.651   0.672
 2775SOL    HW1 8663   3.202   4.570   0.674
 2775SOL    HW2 8664   3.182   4.720   0.612
 2776SOL     OW 8665   2.692   4.997   1.422
 2776SOL    HW1 8666   2.687   5.030   1.517
 2776SOL    HW2 8667   2.606   5.016   1.376
 2777SOL     OW 8668   2.125   4.050   0.720
 2777SOL    HW1 8669   2.046   4.101   0.686
 2777SOL    HW2 8670   2.116   4.035   0.818
 2778SOL     OW 8671   2.684   4.726   1.372
 2778SOL    HW1 8672   2.724   4.725   1.280
 2778SOL    HW2 8673   2.694   4.818   1.412
 2779SOL     OW 8674   2.234   5.012   1.490
 2779SOL    HW1 8675   2.221   5.105   1.456
 2779SOL    HW2 8676   2.150   4.960   1.477
 2780SOL     OW 8677   3.476   5.016   1.289
 2780SOL    HW1 8678   3.536   5.019   1.369
 2780SOL    HW2 8679   3.401   5.080   1.302
 2781SOL     OW 8680   2.901   4.822   0.696
 2781SOL    HW1 8681   2.831   4.775   0.750
 2781SOL    HW2 8682   2.960   4.754   0.653
 2782SOL     OW 8683   2.876   3.960   0.971
 2782SOL    HW1 8684   2.868   3.924   0.878
 2782SOL    HW2 8685   2.874   3.884   1.036
 2783SOL     OW 8686   3.571   4.109   1.381
 2783SOL    HW1 8687   3.644   4.178   1.385
 2783SOL    HW2 8688   3.599   4.034   1.322
 2784SOL     OW 8689   1.967   4.737   1.726
 2784SOL    HW1 8690   1.890   4.704   1.780
 2784SOL    HW2 8691   2.052   4.707   1.768
 2785SOL     OW 8692   2.534   3.927   1.489
 2785SOL    HW1 8693   2.624   3.911   1.449
 2785SOL    HW2 8694   2.542   3.932   1.588
 2786SOL     OW 8695   3.302   4.580   1.398
 2786SOL    HW1 8696   3.245   4.632   1.335
 2786SOL    HW2 8697   3.398   4.592   1.374
 2787SOL     OW 8698   1.934   3.890   0.318
 2787SOL    HW1 8699   1.917   3.973   0.264
 2787SOL    HW2 8700   2.024   3.853   0.296
 2788SOL     OW 8701   2.475   4.566   1.431
 2788SOL    HW1 8702   2.531   4.647   1.414
 2788SOL    HW2 8703   2.534   4.486   1.434
 2789SOL     OW 8704   2.578   4.289   1.708
 2789SOL    HW1 8705   2.597   4.354   1.782
 2789SOL    HW2 8706   2.638   4.209   1.717
 2790SOL     OW 8707   3.312   4.944   1.633
 2790SOL    HW1 8708   3.303   4.934   1.732
 2790SOL    HW2 8709   3.408   4.937   1.607
 2791SOL     OW 8710   3.536   4.607   1.254
 2791SOL    HW1 8711   3.509   4.518   1.217
 2791SOL    HW2 8712   3.537   4.675   1.181
 2792SOL     OW 8713   3.087   4.049   0.449
 2792SOL    HW1 8714   3.152   3.975   0.438
 2792SOL    HW2 8715   3.107   4.099   0.533
 2793SOL     OW 8716   2.456   4.469   0.652
 2793SOL    HW1 8717   2.506   4.554   0.633
 2793SOL    HW2 8718   2.368   4.471   0.604
 2794SOL     OW 8719   3.639   4.066   1.642
 2794SOL    HW1 8720   3.622   4.097   1.548
 2794SOL    HW2 8721   3.555   4.029   1.680
 2795SOL     OW 8722   3.592   4.658   1.517
 2795SOL    HW1 8723   3.630   4.749   1.532
 2795SOL    HW2 8724   3.584   4.641   1.418
 2796SOL     OW 8725   2.721   4.680   0.861
 2796SOL    HW1 8726   2.775   4.611   0.909
 2796SOL    HW2 8727   2.689   4.749   0.927
 2797SOL     OW 8728   1.941   4.964   0.653
 2797SOL    HW1 8729   1.940   4.917   0.741
 2797SOL    HW2 8730   2.023   4.936   0.602
 2798SOL     OW 8731   2.290   4.148   0.520
 2798SOL    HW1 8732   2.320   4.076   0.458
 2798SOL    HW2 8733   2.251   4.108   0.603
 2799SOL     OW 8734   2.179   4.271   1.280
 2799SOL    HW1 8735   2.217   4.212   1.352
 2799SOL    HW2 8736   2.219   4.245   1.192
 2800SOL     OW 8737   3.286   3.938   1.112
 2800SOL    HW1 8738   3.338   3.873   1.167
 2800SOL    HW2 8739   3.237   4.001   1.173
 2801SOL     OW 8740   2.863   3.758   1.154
 2801SOL    HW1 8741   2.800   3.686   1.123
 2801SOL    HW2 8742   2.956   3.722   1.154
 2802SOL     OW 8743   2.632   5.054   0.301
 2802SOL    HW1 8744   2.586   4.967   0.318
 2802SOL    HW2 8745   2.723   5.051   0.342
 2803SOL     OW 8746   3.214   3.776   0.168
 2803SOL    HW1 8747   3.249   3.735   0.084
 2803SOL    HW2 8748   3.124   3.738   0.188
 2804SOL     OW 8749   3.162   4.177   0.691
 2804SOL    HW1 8750   3.103   4.257   0.695
 2804SOL    HW2 8751   3.177   4.142   0.784
 2805SOL     OW 8752   3.455   3.945   0.882
 2805SOL    HW1 8753   3.371   3.944   0.936
 2805SOL    HW2 8754   3.457   4.028   0.826
 2806SOL     OW 8755   1.901   4.801   0.300
 2806SOL    HW1 8756   2.000   4.790   0.291
 2806SOL    HW2 8757   1.861   4.715   0.332
 2807SOL     OW 8758   2.092   4.352   1.975
 2807SOL    HW1 8759   1.999   4.350   2.012
 2807SOL    HW2 8760   2.093   4.313   1.883
 2808SOL     OW 8761   2.087   3.999   2.858
 2808SOL    HW1 8762   2.122   3.982   2.950
 2808SOL    HW2 8763   1.999   3.954   2.846
 2809SOL     OW 8764   1.881   4.092   2.509
 2809SOL    HW1 8765   1.799   4.135   2.548
 2809SOL    HW2 8766   1.853   4.019   2.446
 2810SOL     OW 8767   2.431   4.999   3.027
 2810SOL    HW1 8768   2.338   4.992   2.990
 2810SOL    HW2 8769   2.442   5.088   3.071
 2811SOL     OW 8770   3.417   5.235   2.565
 2811SOL    HW1 8771   3.360   5.219   2.646
 2811SOL    HW2 8772   3.358   5.245   2.485
 2812SOL     OW 8773   2.997   4.427   2.579
 2812SOL    HW1 8774   3.054   4.505   2.554
 2812SOL    HW2 8775   2.937   4.453   2.655
 2813SOL     OW 8776   3.617   4.331   2.093
 2813SOL    HW1 8777   3.605   4.318   1.994
 2813SOL    HW2 8778   3.587   4.250   2.142
 2814SOL     OW 8779   2.630   4.868   2.885
 2814SOL    HW1 8780   2.552   4.885   2.945
 2814SOL    HW2 8781   2.664   4.955   2.849
 2815SOL     OW 8782   2.712   4.522   3.685
 2815SOL    HW1 8783   2.708   4.598   3.750
 2815SOL    HW2 8784   2.734   4.558   3.594
 2816SOL     OW 8785   2.547   4.736   2.527
 2816SOL    HW1 8786   2.616   4.720   2.597
 2816SOL    HW2 8787   2.474   4.793   2.565
 2817SOL     OW 8788   2.548   4.885   3.665
 2817SOL    HW1 8789   2.608   4.964   3.679
 2817SOL    HW2 8790   2.462   4.916   3.624
 2818SOL     OW 8791   2.197   5.159   2.923
 2818SOL    HW1 8792   2.119   5.128   2.870
 2818SOL    HW2 8793   2.255   5.217   2.866
 2819SOL     OW 8794   2.300   4.116   3.361
 2819SOL    HW1 8795   2.382   4.060   3.370
 2819SOL    HW2 8796   2.219   4.058   3.365
 2820SOL     OW 8797   3.465   4.171   2.599
 2820SOL    HW1 8798   3.391   4.217   2.549
 2820SOL    HW2 8799   3.516   4.239   2.652
 2821SOL     OW 8800   2.102   4.815   2.748
 2821SOL    HW1 8801   2.116   4.731   2.800
 2821SOL    HW2 8802   2.047   4.879   2.803
 2822SOL     OW 8803   2.468   4.688   1.985
 2822SOL    HW1 8804   2.475   4.772   1.931
 2822SOL    HW2 8805   2.514   4.701   2.073
 2823SOL     OW 8806   3.456   3.838   3.342
 2823SOL    HW1 8807   3.438   3.905   3.270
 2823SOL    HW2 8808   3.453   3.884   3.431
 2824SOL     OW 8809   1.984   4.367   2.425
 2824SOL    HW1 8810   1.939   4.279   2.442
 2824SOL    HW2 8811   1.983   4.421   2.509
 2825SOL     OW 8812   3.551   4.646   2.474
 2825SOL    HW1 8813   3.646   4.617   2.482
 2825SOL    HW2 8814   3.543   4.711   2.399
 2826SOL     OW 8815   3.503   4.832   2.294
 2826SOL    HW1 8816   3.589   4.834   2.242
 2826SOL    HW2 8817   3.517   4.879   2.382
 2827SOL     OW 8818   1.975   4.461   3.459
 2827SOL    HW1 8819   2.063   4.448   3.504
 2827SOL    HW2 8820   1.962   4.558   3.437
 2828SOL     OW 8821   3.155   4.952   3.285
 2828SOL    HW1 8822   3.192   4.879   3.227
 2828SOL    HW2 8823   3.207   4.957   3.370
 2829SOL     OW 8824   2.671   3.728   2.364
 2829SOL    HW1 8825   2.711   3.819   2.355
 2829SOL    HW2 8826   2.571   3.736   2.370
 2830SOL     OW 8827   2.059   4.700   3.126
 2830SOL    HW1 8828   2.148   4.655   3.112
 2830SOL    HW2 8829   1.986   4.635   3.107
 2831SOL     OW 8830   3.387   4.723   2.052
 2831SOL    HW1 8831   3.324   4.647   2.065
 2831SOL    HW2 8832   3.435   4.741   2.138
 2832SOL     OW 8833   2.179   3.975   3.663
 2832SOL    HW1 8834   2.250   4.046   3.669
 2832SOL    HW2 8835   2.091   4.014   3.691
 2833SOL     OW 8836   3.328   5.141   2.815
 2833SOL    HW1 8837   3.269   5.147   2.895
 2833SOL    HW2 8838   3.313   5.053   2.769
 2834SOL     OW 8839   2.460   4.453   2.132
 2834SOL    HW1 8840   2.484   4.522   2.064
 2834SOL    HW2 8841   2.382   4.486   2.186
 2835SOL     OW 8842   3.143   4.069   2.806
 2835SOL    HW1 8843   3.057   4.019   2.793
 2835SOL    HW2 8844   3.205   4.015   2.862
 2836SOL     OW 8845   2.669   4.329   3.327
 2836SOL    HW1 8846   2.622   4.326   3.416
 2836SOL    HW2 8847   2.618   4.274   3.261
 2837SOL     OW 8848   3.256   4.193   3.536
 2837SOL    HW1 8849   3.236   4.236   3.624
 2837SOL    HW2 8850   3.334   4.131   3.545
 2838SOL     OW 8851   2.835   4.614   3.434
 2838SOL    HW1 8852   2.881   4.530   3.405
 2838SOL    HW2 8853   2.779   4.648   3.359
 2839SOL     OW 8854   2.853   4.134   3.104
 2839SOL    HW1 8855   2.776   4.168   3.158
 2839SOL    HW2 8856   2.819   4.083   3.025
 2840SOL     OW 8857   2.903   4.425   2.291
 2840SOL    HW1 8858   2.929   4.421   2.387
 2840SOL    HW2 8859   2.818   4.374   2.277
 2841SOL     OW 8860   1.938   4.535   2.651
 2841SOL    HW1 8861   2.037   4.523   2.660
 2841SOL    HW2 8862   1.914   4.630   2.672
 2842SOL     OW 8863   2.727   4.072   2.057
 2842SOL    HW1 8864   2.786   4.135   2.008
 2842SOL    HW2 8865   2.746   3.978   2.028
 2843SOL     OW 8866   3.581   4.309   3.693
 2843SOL    HW1 8867   3.555   4.398   3.657
 2843SOL    HW2 8868   3.579   4.241   3.620
 2844SOL     OW 8869   3.224   4.868   2.407
 2844SOL    HW1 8870   3.307   4.839   2.359
 2844SOL    HW2 8871   3.175   4.935   2.351
 2845SOL     OW 8872   2.412   3.920   2.747
 2845SOL    HW1 8873   2.407   3.915   2.847
 2845SOL    HW2 8874   2.414   4.016   2.718
 2846SOL     OW 8875   3.657   4.790   2.735
 2846SOL    HW1 8876   3.595   4.775   2.659
 2846SOL    HW2 8877   3.605   4.801   2.820
 2847SOL     OW 8878   2.183   4.667   2.104
 2847SOL    HW1 8879   2.265   4.706   2.062
 2847SOL    HW2 8880   2.156   4.585   2.055
 2848SOL     OW 8881   3.320   4.459   2.590
 2848SOL    HW1 8882   3.315   4.394   2.665
 2848SOL    HW2 8883   3.400   4.518   2.603
 2849SOL     OW 8884   2.064   4.009   3.360
 2849SOL    HW1 8885   1.984   4.069   3.347
 2849SOL    HW2 8886   2.054   3.960   3.446
 2850SOL     OW 8887   3.494   5.101   1.943
 2850SOL    HW1 8888   3.462   5.195   1.933
 2850SOL    HW2 8889   3.418   5.038   1.931
 2851SOL     OW 8890   3.262   3.831   2.288
 2851SOL    HW1 8891   3.238   3.794   2.198
 2851SOL    HW2 8892   3.361   3.847   2.292
 2852SOL     OW 8893   2.244   4.424   2.342
 2852SOL    HW1 8894   2.289   4.334   2.339
 2852SOL    HW2 8895   2.150   4.413   2.375
 2853SOL     OW 8896   3.409   3.946   3.591
 2853SOL    HW1 8897   3.404   3.983   3.683
 2853SOL    HW2 8898   3.337   3.877   3.579
 2854SOL     OW 8899   2.476   3.846   1.979
 2854SOL    HW1 8900   2.574   3.824   1.986
 2854SOL    HW2 8901   2.445   3.829   1.886
 2855SOL     OW 8902   2.643   3.988   3.611
 2855SOL    HW1 8903   2.710   3.927   3.654
 2855SOL    HW2 8904   2.570   4.007   3.676
 2856SOL     OW 8905   3.213   4.314   3.295
 2856SOL    HW1 8906   3.241   4.271   3.380
 2856SOL    HW2 8907   3.238   4.410   3.296
 2857SOL     OW 8908   2.665   5.126   2.786
 2857SOL    HW1 8909   2.755   5.140   2.744
 2857SOL    HW2 8910   2.594   5.128   2.715
 2858SOL     OW 8911   2.784   4.227   2.761
 2858SOL    HW1 8912   2.759   4.218   2.665
 2858SOL    HW2 8913   2.832   4.145   2.792
 2859SOL     OW 8914   2.401   3.788   2.374
 2859SOL    HW1 8915   2.320   3.789   2.432
 2859SOL    HW2 8916   2.404   3.871   2.319
 2860SOL     OW 8917   3.296   4.912   1.903
 2860SOL    HW1 8918   3.328   4.836   1.960
 2860SOL    HW2 8919   3.204   4.939   1.933
 2861SOL     OW 8920   2.159   3.759   2.033
 2861SOL    HW1 8921   2.208   3.843   2.012
 2861SOL    HW2 8922   2.221   3.694   2.078
 2862SOL     OW 8923   2.797   3.960   2.342
 2862SOL    HW1 8924   2.749   4.001   2.264
 2862SOL    HW2 8925   2.896   3.958   2.323
 2863SOL     OW 8926   2.938   4.407   3.326
 2863SOL    HW1 8927   2.858   4.346   3.329
 2863SOL    HW2 8928   3.019   4.354   3.302
 2864SOL     OW 8929   3.089   5.294   2.655
 2864SOL    HW1 8930   3.110   5.368   2.590
 2864SOL    HW2 8931   3.157   5.294   2.728
 2865SOL     OW 8932   2.321   4.876   2.603
 2865SOL    HW1 8933   2.250   4.849   2.668
 2865SOL    HW2 8934   2.295   4.848   2.510
 2866SOL     OW 8935   2.894   4.273   1.878
 2866SOL    HW1 8936   2.853   4.355   1.839
 2866SOL    HW2 8937   2.958   4.299   1.951
 2867SOL     OW 8938   1.940   4.280   3.248
 2867SOL    HW1 8939   2.032   4.279   3.207
 2867SOL    HW2 8940   1.934   4.354   3.315
 2868SOL     OW 8941   2.423   3.946   3.009
 2868SOL    HW1 8942   2.461   3.862   3.046
 2868SOL    HW2 8943   2.335   3.965   3.053
 2869SOL     OW 8944   2.728   4.178   2.504
 2869SOL    HW1 8945   2.696   4.250   2.442
 2869SOL    HW2 8946   2.752   4.097   2.451
 2870SOL     OW 8947   2.879   3.763   2.615
 2870SOL    HW1 8948   2.807   3.768   2.546
 2870SOL    HW2 8949   2.855   3.694   2.684
 2871SOL     OW 8950   3.291   4.897   2.729
 2871SOL    HW1 8951   3.236   4.813   2.722
 2871SOL    HW2 8952   3.317   4.926   2.637
 2872SOL     OW 8953   3.328   4.314   2.854
 2872SOL    HW1 8954   3.298   4.219   2.861
 2872SOL    HW2 8955   3.401   4.330   2.920
 2873SOL     OW 8956   3.719   4.557   2.239
 2873SOL    HW1 8957   3.761   4.493   2.303
 2873SOL    HW2 8958   3.681   4.506   2.161
 2874SOL     OW 8959   3.526   5.004   2.519
 2874SOL    HW1 8960   3.625   5.012   2.533
 2874SOL    HW2 8961   3.481   5.088   2.550
 2875SOL     OW 8962   3.252   4.299   1.940
 2875SOL    HW1 8963   3.198   4.278   2.021
 2875SOL    HW2 8964   3.343   4.258   1.949
 2876SOL     OW 8965   2.389   3.980   2.190
 2876SOL    HW1 8966   2.416   3.921   2.115
 2876SOL    HW2 8967   2.389   4.075   2.159
 2877SOL     OW 8968   3.616   4.947   3.450
 2877SOL    HW1 8969   3.707   4.908   3.437
 2877SOL    HW2 8970   3.624   5.043   3.474
 2878SOL     OW 8971   3.500   4.823   2.941
 2878SOL    HW1 8972   3.505   4.904   3.000
 2878SOL    HW2 8973   3.414   4.825   2.890
 2879SOL     OW 8974   2.777   3.813   3.264
 2879SOL    HW1 8975   2.802   3.793   3.169
 2879SOL    HW2 8976   2.849   3.869   3.306
 2880SOL     OW 8977   2.842   4.840   3.581
 2880SOL    HW1 8978   2.743   4.846   3.591
 2880SOL    HW2 8979   2.865   4.760   3.525
 2881SOL     OW 8980   2.567   4.774   2.230
 2881SOL    HW1 8981   2.553   4.781   2.329
 2881SOL    HW2 8982   2.651   4.723   2.212
 2882SOL     OW 8983   2.272   4.537   3.113
 2882SOL    HW1 8984   2.358   4.549   3.163
 2882SOL    HW2 8985   2.230   4.450   3.140
 2883SOL     OW 8986   3.136   4.110   3.124
 2883SOL    HW1 8987   3.157   4.184   3.188
 2883SOL    HW2 8988   3.047   4.127   3.081
 2884SOL     OW 8989   2.229   4.824   2.363
 2884SOL    HW1 8990   2.222   4.907   2.307
 2884SOL    HW2 8991   2.233   4.744   2.303
 2885SOL     OW 8992   2.428   4.261   2.727
 2885SOL    HW1 8993   2.440   4.327   2.653
 2885SOL    HW2 8994   2.474   4.295   2.810
 2886SOL     OW 8995   3.444   4.363   2.334
 2886SOL    HW1 8996   3.413   4.424   2.407
 2886SOL    HW2 8997   3.494   4.415   2.265
 2887SOL     OW 8998   2.264   4.475   3.460
 2887SOL    HW1 8999   2.332   4.530   3.413
 2887SOL    HW2 9000   2.304   4.387   3.487
 2888SOL     OW 9001   3.449   4.503   3.532
 2888SOL    HW1 9002   3.357   4.541   3.527
 2888SOL    HW2 9003   3.509   4.550   3.467
 2889SOL     OW 9004   2.875   3.829   3.632
 2889SOL    HW1 9005   2.881   3.914   3.580
 2889SOL    HW2 9006   2.907   3.753   3.575
 2890SOL     OW 9007   2.366   3.774   3.602
 2890SOL    HW1 9008   2.324   3.717   3.532
 2890SOL    HW2 9009   2.300   3.843   3.634
 2891SOL     OW 9010   2.435   4.594   2.891
 2891SOL    HW1 9011   2.479   4.683   2.882
 2891SOL    HW2 9012   2.372   4.594   2.968
 2892SOL     OW 9013   3.222   4.586   2.907
 2892SOL    HW1 9014   3.147   4.586   2.841
 2892SOL    HW2 9015   3.259   4.494   2.916
 2893SOL     OW 9016   3.071   4.249   2.137
 2893SOL    HW1 9017   3.084   4.165   2.191
 2893SOL    HW2 9018   3.042   4.323   2.197
 2894SOL     OW 9019   2.169   3.937   3.093
 2894SOL    HW1 9020   2.146   3.974   3.183
 2894SOL    HW2 9021   2.139   3.842   3.087
 2895SOL     OW 9022   2.594   4.358   2.926
 2895SOL    HW1 9023   2.653   4.332   2.850
 2895SOL    HW2 9024   2.566   4.454   2.915
 2896SOL     OW 9025   3.590   4.659   3.716
 2896SOL    HW1 9026   3.544   4.652   3.627
 2896SOL    HW2 9027   3.528   4.703   3.782
 2897SOL     OW 9028   2.169   3.787   2.480
 2897SOL    HW1 9029   2.158   3.881   2.513
 2897SOL    HW2 9030   2.164   3.724   2.557
 2898SOL     OW 9031   3.484   4.091   2.236
 2898SOL    HW1 9032   3.486   4.015   2.300
 2898SOL    HW2 9033   3.436   4.168   2.276
 2899SOL     OW 9034   2.885   4.490   2.828
 2899SOL    HW1 9035   2.900   4.511   2.924
 2899SOL    HW2 9036   2.855   4.395   2.819
 2900SOL     OW 9037   3.721   5.242   3.467
 2900SOL    HW1 9038   3.735   5.269   3.372
 2900SOL    HW2 9039   3.804   5.264   3.520
 2901SOL     OW 9040   2.212   4.622   3.666
 2901SOL    HW1 9041   2.288   4.666   3.714
 2901SOL    HW2 9042   2.247   4.575   3.584
 2902SOL     OW 9043   3.402   3.998   1.987
 2902SOL    HW1 9044   3.341   3.923   2.010
 2902SOL    HW2 9045   3.424   4.050   2.070
 2903SOL     OW 9046   3.165   4.562   1.904
 2903SOL    HW1 9047   3.199   4.469   1.919
 2903SOL    HW2 9048   3.183   4.589   1.809
 2904SOL     OW 9049   2.181   4.534   2.811
 2904SOL    HW1 9050   2.274   4.570   2.816
 2904SOL    HW2 9051   2.175   4.449   2.863
 2905SOL     OW 9052   2.201   4.233   2.868
 2905SOL    HW1 9053   2.149   4.150   2.851
 2905SOL    HW2 9054   2.278   4.238   2.804
 2906SOL     OW 9055   3.000   4.104   3.540
 2906SOL    HW1 9056   2.955   4.167   3.604
 2906SOL    HW2 9057   3.093   4.135   3.523
 2907SOL     OW 9058   3.022   3.931   3.339
 2907SOL    HW1 9059   3.022   3.995   3.416
 2907SOL    HW2 9060   3.050   3.979   3.256
 2908SOL     OW 9061   1.870   5.050   2.062
 2908SOL    HW1 9062   1.777   5.071   2.031
 2908SOL    HW2 9063   1.880   4.951   2.075
 2909SOL     OW 9064   2.864   4.520   3.100
 2909SOL    HW1 9065   2.905   4.488   3.186
 2909SOL    HW2 9066   2.768   4.493   3.097
 2910SOL     OW 9067   1.902   4.268   2.976
 2910SOL    HW1 9068   1.987   4.235   2.935
 2910SOL    HW2 9069   1.915   4.283   3.074
 2911SOL     OW 9070   2.051   4.244   3.584
 2911SOL    HW1 9071   2.110   4.204   3.514
 2911SOL    HW2 9072   1.993   4.315   3.543
 2912SOL     OW 9073   3.231   4.674   3.522
 2912SOL    HW1 9074   3.270   4.763   3.542
 2912SOL    HW2 9075   3.241   4.654   3.425
 2913SOL     OW 9076   2.677   4.296   2.187
 2913SOL    HW1 9077   2.684   4.207   2.141
 2913SOL    HW2 9078   2.583   4.330   2.179
 2914SOL     OW 9079   3.519   4.328   3.068
 2914SOL    HW1 9080   3.481   4.259   3.130
 2914SOL    HW2 9081   3.601   4.292   3.024
 2915SOL     OW 9082   2.533   4.188   3.131
 2915SOL    HW1 9083   2.499   4.099   3.101
 2915SOL    HW2 9084   2.559   4.242   3.051
 2916SOL     OW 9085   2.335   4.224   2.053
 2916SOL    HW1 9086   2.396   4.304   2.057
 2916SOL    HW2 9087   2.240   4.255   2.060
 2917SOL     OW 9088   2.021   4.861   3.328
 2917SOL    HW1 9089   2.043   4.800   3.404
 2917SOL    HW2 9090   2.031   4.812   3.242
 2918SOL     OW 9091   3.209   4.783   3.096
 2918SOL    HW1 9092   3.233   4.720   3.022
 2918SOL    HW2 9093   3.119   4.823   3.078
 2919SOL     OW 9094   3.164   4.579   2.171
 2919SOL    HW1 9095   3.078   4.548   2.213
 2919SOL    HW2 9096   3.160   4.565   2.072
 2920SOL     OW 9097   1.945   4.982   2.884
 2920SOL    HW1 9098   1.940   4.981   2.984
 2920SOL    HW2 9099   1.862   4.941   2.846
 2921SOL     OW 9100   3.588   3.859   2.385
 2921SOL    HW1 9101   3.661   3.842   2.318
 2921SOL    HW2 9102   3.557   3.772   2.423
 2922SOL     OW 9103   3.142   4.651   2.534
 2922SOL    HW1 9104   3.202   4.570   2.536
 2922SOL    HW2 9105   3.182   4.720   2.474
 2923SOL     OW 9106   2.692   4.997   3.284
 2923SOL    HW1 9107   2.687   5.030   3.379
 2923SOL    HW2 9108   2.606   5.016   3.238
 2924SOL     OW 9109   3.703   3.899   2.825
 2924SOL    HW1 9110   3.742   3.814   2.789
 2924SOL    HW2 9111   3.605   3.901   2.806
 2925SOL     OW 9112   2.125   4.050   2.582
 2925SOL    HW1 9113   2.046   4.101   2.548
 2925SOL    HW2 9114   2.116   4.035   2.680
 2926SOL     OW 9115   3.056   5.336   1.893
 2926SOL    HW1 9116   3.062   5.243   1.930
 2926SOL    HW2 9117   2.997   5.336   1.813
 2927SOL     OW 9118   2.684   4.726   3.234
 2927SOL    HW1 9119   2.724   4.725   3.142
 2927SOL    HW2 9120   2.694   4.818   3.274
 2928SOL     OW 9121   2.778   4.634   2.153
 2928SOL    HW1 9122   2.841   4.672   2.085
 2928SOL    HW2 9123   2.818   4.551   2.192
 2929SOL     OW 9124   2.234   5.012   3.352
 2929SOL    HW1 9125   2.221   5.105   3.318
 2929SOL    HW2 9126   2.150   4.960   3.339
 2930SOL     OW 9127   3.476   5.016   3.151
 2930SOL    HW1 9128   3.536   5.019   3.231
 2930SOL    HW2 9129   3.401   5.080   3.164
 2931SOL     OW 9130   2.901   4.822   2.558
 2931SOL    HW1 9131   2.831   4.775   2.612
 2931SOL    HW2 9132   2.960   4.754   2.515
 2932SOL     OW 9133   2.876   3.960   2.833
 2932SOL    HW1 9134   2.868   3.924   2.740
 2932SOL    HW2 9135   2.874   3.884   2.898
 2933SOL     OW 9136   3.571   4.109   3.243
 2933SOL    HW1 9137   3.644   4.178   3.247
 2933SOL    HW2 9138   3.599   4.034   3.184
 2934SOL     OW 9139   1.967   4.737   3.588
 2934SOL    HW1 9140   1.890   4.704   3.642
 2934SOL    HW2 9141   2.052   4.707   3.630
 2935SOL     OW 9142   2.534   3.927   3.351
 2935SOL    HW1 9143   2.624   3.911   3.311
 2935SOL    HW2 9144   2.542   3.932   3.450
 2936SOL     OW 9145   1.937   4.069   1.895
 2936SOL    HW1 9146   1.845   4.041   1.866
 2936SOL    HW2 9147   1.968   4.146   1.839
 2937SOL     OW 9148   3.302   4.580   3.260
 2937SOL    HW1 9149   3.245   4.632   3.197
 2937SOL    HW2 9150   3.398   4.592   3.236
 2938SOL     OW 9151   1.934   3.890   2.180
 2938SOL    HW1 9152   1.917   3.973   2.126
 2938SOL    HW2 9153   2.024   3.853   2.158
 2939SOL     OW 9154   2.475   4.566   3.293
 2939SOL    HW1 9155   2.531   4.647   3.276
 2939SOL    HW2 9156   2.534   4.486   3.296
 2940SOL     OW 9157   2.578   4.289   3.570
 2940SOL    HW1 9158   2.597   4.354   3.644
 2940SOL    HW2 9159   2.638   4.209   3.579
 2941SOL     OW 9160   3.312   4.944   3.495
 2941SOL    HW1 9161   3.303   4.934   3.594
 2941SOL    HW2 9162   3.408   4.937   3.469
 2942SOL     OW 9163   3.536   4.607   3.116
 2942SOL    HW1 9164   3.509   4.518   3.079
 2942SOL    HW2 9165   3.537   4.675   3.043
 2943SOL     OW 9166   3.087   4.049   2.311
 2943SOL    HW1 9167   3.152   3.975   2.300
 2943SOL    HW2 9168   3.107   4.099   2.395
 2944SOL     OW 9169   2.456   4.469   2.514
 2944SOL    HW1 9170   2.506   4.554   2.495
 2944SOL    HW2 9171   2.368   4.471   2.466
 2945SOL     OW 9172   3.639   4.066   3.504
 2945SOL    HW1 9173   3.622   4.097   3.410
 2945SOL    HW2 9174   3.555   4.029   3.542
 2946SOL     OW 9175   3.592   4.658   3.379
 2946SOL    HW1 9176   3.630   4.749   3.394
 2946SOL    HW2 9177   3.584   4.641   3.280
 2947SOL     OW 9178   2.721   4.680   2.723
 2947SOL    HW1 9179   2.775   4.611   2.771
 2947SOL    HW2 9180   2.689   4.749   2.789
 2948SOL     OW 9181   2.945   4.708   1.949
 2948SOL    HW1 9182   2.922   4.761   1.867
 2948SOL    HW2 9183   3.026   4.652   1.930
 2949SOL     OW 9184   1.941   4.964   2.515
 2949SOL    HW1 9185   1.940   4.917   2.603
 2949SOL    HW2 9186   2.023   4.936   2.464
 2950SOL     OW 9187   3.686   3.916   3.089
 2950SOL    HW1 9188   3.682   3.826   3.133
 2950SOL    HW2 9189   3.689   3.905   2.990
 2951SOL     OW 9190   2.290   4.148   2.382
 2951SOL    HW1 9191   2.320   4.076   2.320
 2951SOL    HW2 9192   2.251   4.108   2.465
 2952SOL     OW 9193   2.179   4.271   3.142
 2952SOL    HW1 9194   2.217   4.212   3.214
 2952SOL    HW2 9195   2.219   4.245   3.054
 2953SOL     OW 9196   3.286   3.938   2.974
 2953SOL    HW1 9197   3.338   3.873   3.029
 2953SOL    HW2 9198   3.237   4.001   3.035
 2954SOL     OW 9199   2.863   3.758   3.016
 2954SOL    HW1 9200   2.800   3.686   2.985
 2954SOL    HW2 9201   2.956   3.722   3.016
 2955SOL     OW 9202   2.632   5.054   2.163
 2955SOL    HW1 9203   2.586   4.967   2.180
 2955SOL    HW2 9204   2.723   5.051   2.204
 2956SOL     OW 9205   3.214   3.776   2.030
 2956SOL    HW1 9206   3.249   3.735   1.946
 2956SOL    HW2 9207   3.124   3.738   2.050
 2957SOL     OW 9208   3.162   4.177   2.553
 2957SOL    HW1 9209   3.103   4.257   2.557
 2957SOL    HW2 9210   3.177   4.142   2.646
 2958SOL     OW 9211   3.455   3.945   2.744
 2958SOL    HW1 9212   3.371   3.944   2.798
 2958SOL    HW2 9213   3.457   4.028   2.688
 2959SOL     OW 9214   1.901   4.801   2.162
 2959SOL    HW1 9215   2.000   4.790   2.153
 2959SOL    HW2 9216   1.861   4.715   2.194
 2960SOL     OW 9217   2.092   4.352   3.837
 2960SOL    HW1 9218   1.999   4.350   3.874
 2960SOL    HW2 9219   2.093   4.313   3.745
 2961SOL     OW 9220   2.087   3.999   4.720
 2961SOL    HW1 9221   2.122   3.982   4.812
 2961SOL    HW2 9222   1.999   3.954   4.708
 2962SOL     OW 9223   1.881   4.092   4.371
 2962SOL    HW1 9224   1.799   4.135   4.410
 2962SOL    HW2 9225   1.853   4.019   4.308
 2963SOL     OW 9226   2.431   4.999   4.889
 2963SOL    HW1 9227   2.338   4.992   4.852
 2963SOL    HW2 9228   2.442   5.088   4.933
 2964SOL     OW 9229   3.417   5.235   4.427
 2964SOL    HW1 9230   3.360   5.219   4.508
 2964SOL    HW2 9231   3.358   5.245   4.347
 2965SOL     OW 9232   2.997   4.427   4.441
 2965SOL    HW1 9233   3.054   4.505   4.416
 2965SOL    HW2 9234   2.937   4.453   4.517
 2966SOL     OW 9235   3.617   4.331   3.955
 2966SOL    HW1 9236   3.605   4.318   3.856
 2966SOL    HW2 9237   3.587   4.250   4.004
 2967SOL     OW 9238   2.630   4.868   4.747
 2967SOL    HW1 9239   2.552   4.885   4.807
 2967SOL    HW2 9240   2.664   4.955   4.711
 2968SOL     OW 9241   2.547   4.736   4.389
 2968SOL    HW1 9242   2.616   4.720   4.459
 2968SOL    HW2 9243   2.474   4.793   4.427
 2969SOL     OW 9244   2.197   5.159   4.785
 2969SOL    HW1 9245   2.119   5.128   4.732
 2969SOL    HW2 9246   2.255   5.217   4.728
 2970SOL     OW 9247   3.465   4.171   4.461
 2970SOL    HW1 9248   3.391   4.217   4.411
 2970SOL    HW2 9249   3.516   4.239   4.514
 2971SOL     OW 9250   2.102   4.815   4.610
 2971SOL    HW1 9251   2.116   4.731   4.662
 2971SOL    HW2 9252   2.047   4.879   4.665
 2972SOL     OW 9253   2.468   4.688   3.847
 2972SOL    HW1 9254   2.475   4.772   3.793
 2972SOL    HW2 9255   2.514   4.701   3.935
 2973SOL     OW 9256   1.984   4.367   4.287
 2973SOL    HW1 9257   1.939   4.279   4.304
 2973SOL    HW2 9258   1.983   4.421   4.371
 2974SOL     OW 9259   3.551   4.646   4.336
 2974SOL    HW1 9260   3.646   4.617   4.344
 2974SOL    HW2 9261   3.543   4.711   4.261
 2975SOL     OW 9262   3.503   4.832   4.156
 2975SOL    HW1 9263   3.589   4.834   4.104
 2975SOL    HW2 9264   3.517   4.879   4.244
 2976SOL     OW 9265   2.671   3.728   4.226
 2976SOL    HW1 9266   2.711   3.819   4.217
 2976SOL    HW2 9267   2.571   3.736   4.232
 2977SOL     OW 9268   2.059   4.700   4.988
 2977SOL    HW1 9269   2.148   4.655   4.974
 2977SOL    HW2 9270   1.986   4.635   4.969
 2978SOL     OW 9271   3.387   4.723   3.914
 2978SOL    HW1 9272   3.324   4.647   3.927
 2978SOL    HW2 9273   3.435   4.741   4.000
 2979SOL     OW 9274   3.328   5.141   4.677
 2979SOL    HW1 9275   3.269   5.147   4.757
 2979SOL    HW2 9276   3.313   5.053   4.631
 2980SOL     OW 9277   2.460   4.453   3.994
 2980SOL    HW1 9278   2.484   4.522   3.926
 2980SOL    HW2 9279   2.382   4.486   4.048
 2981SOL     OW 9280   3.143   4.069   4.668
 2981SOL    HW1 9281   3.057   4.019   4.655
 2981SOL    HW2 9282   3.205   4.015   4.724
 2982SOL     OW 9283   2.853   4.134   4.966
 2982SOL    HW1 9284   2.776   4.168   5.020
 2982SOL    HW2 9285   2.819   4.083   4.887
 2983SOL     OW 9286   2.903   4.425   4.153
 2983SOL    HW1 9287   2.929   4.421   4.249
 2983SOL    HW2 9288   2.818   4.374   4.139
 2984SOL     OW 9289   1.938   4.535   4.513
 2984SOL    HW1 9290   2.037   4.523   4.522
 2984SOL    HW2 9291   1.914   4.630   4.534
 2985SOL     OW 9292   2.727   4.072   3.919
 2985SOL    HW1 9293   2.786   4.135   3.870
 2985SOL    HW2 9294   2.746   3.978   3.890
 2986SOL     OW 9295   3.224   4.868   4.269
 2986SOL    HW1 9296   3.307   4.839   4.221
 2986SOL    HW2 9297   3.175   4.935   4.213
 2987SOL     OW 9298   2.412   3.920   4.609
 2987SOL    HW1 9299   2.407   3.915   4.709
 2987SOL    HW2 9300   2.414   4.016   4.580
 2988SOL     OW 9301   2.183   4.667   3.966
 2988SOL    HW1 9302   2.265   4.706   3.924
 2988SOL    HW2 9303   2.156   4.585   3.917
 2989SOL     OW 9304   3.320   4.459   4.452
 2989SOL    HW1 9305   3.315   4.394   4.527
 2989SOL    HW2 9306   3.400   4.518   4.465
 2990SOL     OW 9307   3.494   5.101   3.805
 2990SOL    HW1 9308   3.462   5.195   3.795
 2990SOL    HW2 9309   3.418   5.038   3.793
 2991SOL     OW 9310   3.262   3.831   4.150
 2991SOL    HW1 9311   3.238   3.794   4.060
 2991SOL    HW2 9312   3.361   3.847   4.154
 2992SOL     OW 9313   2.244   4.424   4.204
 2992SOL    HW1 9314   2.289   4.334   4.201
 2992SOL    HW2 9315   2.150   4.413   4.237
 2993SOL     OW 9316   2.476   3.846   3.841
 2993SOL    HW1 9317   2.574   3.824   3.848
 2993SOL    HW2 9318   2.445   3.829   3.748
 2994SOL     OW 9319   2.665   5.126   4.648
 2994SOL    HW1 9320   2.755   5.140   4.606
 2994SOL    HW2 9321   2.594   5.128   4.577
 2995SOL     OW 9322   2.784   4.227   4.623
 2995SOL    HW1 9323   2.759   4.218   4.527
 2995SOL    HW2 9324   2.832   4.145   4.654
 2996SOL     OW 9325   2.401   3.788   4.236
 2996SOL    HW1 9326   2.320   3.789   4.294
 2996SOL    HW2 9327   2.404   3.871   4.181
 2997SOL     OW 9328   3.296   4.912   3.765
 2997SOL    HW1 9329   3.328   4.836   3.822
 2997SOL    HW2 9330   3.204   4.939   3.795
 2998SOL     OW 9331   2.159   3.759   3.895
 2998SOL    HW1 9332   2.208   3.843   3.874
 2998SOL    HW2 9333   2.221   3.694   3.940
 2999SOL     OW 9334   2.797   3.960   4.204
 2999SOL    HW1 9335   2.749   4.001   4.126
 2999SOL    HW2 9336   2.896   3.958   4.185
 3000SOL     OW 9337   3.089   5.294   4.517
 3000SOL    HW1 9338   3.110   5.368   4.452
 3000SOL    HW2 9339   3.157   5.294   4.590
 3001SOL     OW 9340   2.321   4.876   4.465
 3001SOL    HW1 9341   2.250   4.849   4.530
 3001SOL    HW2 9342   2.295   4.848   4.372
 3002SOL     OW 9343   2.894   4.273   3.740
 3002SOL    HW1 9344   2.853   4.355   3.701
 3002SOL    HW2 9345   2.958   4.299   3.813
 3003SOL     OW 9346   2.423   3.946   4.871
 3003SOL    HW1 9347   2.461   3.862   4.908
 3003SOL    HW2 9348   2.335   3.965   4.915
 3004SOL     OW 9349   2.728   4.178   4.366
 3004SOL    HW1 9350   2.696   4.250   4.304
 3004SOL    HW2 9351   2.752   4.097   4.313
 3005SOL     OW 9352   2.879   3.763   4.477
 3005SOL    HW1 9353   2.807   3.768   4.408
 3005SOL    HW2 9354   2.855   3.694   4.546
 3006SOL     OW 9355   3.291   4.897   4.591
 3006SOL    HW1 9356   3.236   4.813   4.584
 3006SOL    HW2 9357   3.317   4.926   4.499
 3007SOL     OW 9358   3.328   4.314   4.716
 3007SOL    HW1 9359   3.298   4.219   4.723
 3007SOL    HW2 9360   3.401   4.330   4.782
 3008SOL     OW 9361   3.719   4.557   4.101
 3008SOL    HW1 9362   3.761   4.493   4.165
 3008SOL    HW2 9363   3.681   4.506   4.023
 3009SOL     OW 9364   3.526   5.004   4.381
 3009SOL    HW1 9365   3.625   5.012   4.395
 3009SOL    HW2 9366   3.481   5.088   4.412
 3010SOL     OW 9367   3.252   4.299   3.802
 3010SOL    HW1 9368   3.198   4.278   3.883
 3010SOL    HW2 9369   3.343   4.258   3.811
 3011SOL     OW 9370   2.389   3.980   4.052
 3011SOL    HW1 9371   2.416   3.921   3.977
 3011SOL    HW2 9372   2.389   4.075   4.021
 3012SOL     OW 9373   2.567   4.774   4.092
 3012SOL    HW1 9374   2.553   4.781   4.191
 3012SOL    HW2 9375   2.651   4.723   4.074
 3013SOL     OW 9376   2.272   4.537   4.975
 3013SOL    HW1 9377   2.358   4.549   5.025
 3013SOL    HW2 9378   2.230   4.450   5.002
 3014SOL     OW 9379   2.229   4.824   4.225
 3014SOL    HW1 9380   2.222   4.907   4.169
 3014SOL    HW2 9381   2.233   4.744   4.165
 3015SOL     OW 9382   2.428   4.261   4.589
 3015SOL    HW1 9383   2.440   4.327   4.515
 3015SOL    HW2 9384   2.474   4.295   4.672
 3016SOL     OW 9385   3.444   4.363   4.196
 3016SOL    HW1 9386   3.413   4.424   4.269
 3016SOL    HW2 9387   3.494   4.415   4.127
 3017SOL     OW 9388   2.435   4.594   4.753
 3017SOL    HW1 9389   2.479   4.683   4.744
 3017SOL    HW2 9390   2.372   4.594   4.830
 3018SOL     OW 9391   3.071   4.249   3.999
 3018SOL    HW1 9392   3.084   4.165   4.053
 3018SOL    HW2 9393   3.042   4.323   4.059
 3019SOL     OW 9394   2.169   3.937   4.955
 3019SOL    HW1 9395   2.146   3.974   5.045
 3019SOL    HW2 9396   2.139   3.842   4.949
 3020SOL     OW 9397   2.594   4.358   4.788
 3020SOL    HW1 9398   2.653   4.332   4.712
 3020SOL    HW2 9399   2.566   4.454   4.777
 3021SOL     OW 9400   2.169   3.787   4.342
 3021SOL    HW1 9401   2.158   3.881   4.375
 3021SOL    HW2 9402   2.164   3.724   4.419
 3022SOL     OW 9403   3.484   4.091   4.098
 3022SOL    HW1 9404   3.486   4.015   4.162
 3022SOL    HW2 9405   3.436   4.168   4.138
 3023SOL     OW 9406   2.885   4.490   4.690
 3023SOL    HW1 9407   2.900   4.511   4.786
 3023SOL    HW2 9408   2.855   4.395   4.681
 3024SOL     OW 9409   3.402   3.998   3.849
 3024SOL    HW1 9410   3.341   3.923   3.872
 3024SOL    HW2 9411   3.424   4.050   3.932
 3025SOL     OW 9412   3.165   4.562   3.766
 3025SOL    HW1 9413   3.199   4.469   3.781
 3025SOL    HW2 9414   3.183   4.589   3.671
 3026SOL     OW 9415   2.181   4.534   4.673
 3026SOL    HW1 9416   2.274   4.570   4.678
 3026SOL    HW2 9417   2.175   4.449   4.725
 3027SOL     OW 9418   2.201   4.233   4.730
 3027SOL    HW1 9419   2.149   4.150   4.713
 3027SOL    HW2 9420   2.278   4.238   4.666
 3028SOL     OW 9421   3.022   3.931   5.201
 3028SOL    HW1 9422   3.022   3.995   5.278
 3028SOL    HW2 9423   3.050   3.979   5.118
 3029SOL     OW 9424   1.870   5.050   3.924
 3029SOL    HW1 9425   1.777   5.071   3.893
 3029SOL    HW2 9426   1.880   4.951   3.937
 3030SOL     OW 9427   1.902   4.268   4.838
 3030SOL    HW1 9428   1.987   4.235   4.797
 3030SOL    HW2 9429   1.915   4.283   4.936
 3031SOL     OW 9430   2.677   4.296   4.049
 3031SOL    HW1 9431   2.684   4.207   4.003
 3031SOL    HW2 9432   2.583   4.330   4.041
 3032SOL     OW 9433   3.519   4.328   4.930
 3032SOL    HW1 9434   3.481   4.259   4.992
 3032SOL    HW2 9435   3.601   4.292   4.886
 3033SOL     OW 9436   2.533   4.188   4.993
 3033SOL    HW1 9437   2.499   4.099   4.963
 3033SOL    HW2 9438   2.559   4.242   4.913
 3034SOL     OW 9439   2.335   4.224   3.915
 3034SOL    HW1 9440   2.396   4.304   3.919
 3034SOL    HW2 9441   2.240   4.255   3.922
 3035SOL     OW 9442   3.164   4.579   4.033
 3035SOL    HW1 9443   3.078   4.548   4.075
 3035SOL    HW2 9444   3.160   4.565   3.934
 3036SOL     OW 9445   1.945   4.982   4.746
 3036SOL    HW1 9446   1.940   4.981   4.846
 3036SOL    HW2 9447   1.862   4.941   4.708
 3037SOL     OW 9448   3.588   3.859   4.247
 3037SOL    HW1 9449   3.661   3.842   4.180
 3037SOL    HW2 9450   3.557   3.772   4.285
 3038SOL     OW 9451   3.142   4.651   4.396
 3038SOL    HW1 9452   3.202   4.570   4.398
 3038SOL    HW2 9453   3.182   4.720   4.336
 3039SOL     OW 9454   2.692   4.997   5.146
 3039SOL    HW1 9455   2.687   5.030   5.241
 3039SOL    HW2 9456   2.606   5.016   5.100
 3040SOL     OW 9457   3.703   3.899   4.687
 3040SOL    HW1 9458   3.742   3.814   4.651
 3040SOL    HW2 9459   3.605   3.901   4.668
 3041SOL     OW 9460   2.125   4.050   4.444
 3041SOL    HW1 9461   2.046   4.101   4.410
 3041SOL    HW2 9462   2.116   4.035   4.542
 3042SOL     OW 9463   3.056   5.336   3.755
 3042SOL    HW1 9464   3.062   5.243   3.792
 3042SOL    HW2 9465   2.997   5.336   3.675
 3043SOL     OW 9466   2.684   4.726   5.096
 3043SOL    HW1 9467   2.724   4.725   5.004
 3043SOL    HW2 9468   2.694   4.818   5.136
 3044SOL     OW 9469   2.778   4.634   4.015
 3044SOL    HW1 9470   2.841   4.672   3.947
 3044SOL    HW2 9471   2.818   4.551   4.054
 3045SOL     OW 9472   2.901   4.822   4.420
 3045SOL    HW1 9473   2.831   4.775   4.474
 3045SOL    HW2 9474   2.960   4.754   4.377
 3046SOL     OW 9475   2.876   3.960   4.695
 3046SOL    HW1 9476   2.868   3.924   4.602
 3046SOL    HW2 9477   2.874   3.884   4.760
 3047SOL     OW 9478   3.571   4.109   5.105
 3047SOL    HW1 9479   3.644   4.178   5.109
 3047SOL    HW2 9480   3.599   4.034   5.046
 3048SOL     OW 9481   1.937   4.069   3.757
 3048SOL    HW1 9482   1.845   4.041   3.728
 3048SOL    HW2 9483   1.968   4.146   3.701
 3049SOL     OW 9484   1.934   3.890   4.042
 3049SOL    HW1 9485   1.917   3.973   3.988
 3049SOL    HW2 9486   2.024   3.853   4.020
 3050SOL     OW 9487   3.087   4.049   4.173
 3050SOL    HW1 9488   3.152   3.975   4.162
 3050SOL    HW2 9489   3.107   4.099   4.257
 3051SOL     OW 9490   2.456   4.469   4.376
 3051SOL    HW1 9491   2.506   4.554   4.357
 3051SOL    HW2 9492   2.368   4.471   4.328
 3052SOL     OW 9493   3.592   4.658   5.241
 3052SOL    HW1 9494   3.630   4.749   5.256
 3052SOL    HW2 9495   3.584   4.641   5.142
 3053SOL     OW 9496   2.721   4.680   4.585
 3053SOL    HW1 9497   2.775   4.611   4.633
 3053SOL    HW2 9498   2.689   4.749   4.651
 3054SOL     OW 9499   2.945   4.708   3.811
 3054SOL    HW1 9500   2.922   4.761   3.729
 3054SOL    HW2 9501   3.026   4.652   3.792
 3055SOL     OW 9502   1.941   4.964   4.377
 3055SOL    HW1 9503   1.940   4.917   4.465
 3055SOL    HW2 9504   2.023   4.936   4.326
 3056SOL     OW 9505   3.686   3.916   4.951
 3056SOL    HW1 9506   3.682   3.826   4.995
 3056SOL    HW2 9507   3.689   3.905   4.852
 3057SOL     OW 9508   2.290   4.148   4.244
 3057SOL    HW1 9509   2.320   4.076   4.182
 3057SOL    HW2 9510   2.251   4.108   4.327
 3058SOL     OW 9511   3.286   3.938   4.836
 3058SOL    HW1 9512   3.338   3.873   4.891
 3058SOL    HW2 9513   3.237   4.001   4.897
 3059SOL     OW 9514   2.863   3.758   4.878
 3059SOL    HW1 9515   2.800   3.686   4.847
 3059SOL    HW2 9516   2.956   3.722   4.878
 3060SOL     OW 9517   2.632   5.054   4.025
 3060SOL    HW1 9518   2.586   4.967   4.042
 3060SOL    HW2 9519   2.723   5.051   4.066
 3061SOL     OW 9520   3.214   3.776   3.892
 3061SOL    HW1 9521   3.249   3.735   3.808
 3061SOL    HW2 9522   3.124   3.738   3.912
 3062SOL     OW 9523   3.162   4.177   4.415
 3062SOL    HW1 9524   3.103   4.257   4.419
 3062SOL    HW2 9525   3.177   4.142   4.508
 3063SOL     OW 9526   3.455   3.945   4.606
 3063SOL    HW1 9527   3.371   3.944   4.660
 3063SOL    HW2 9528   3.457   4.028   4.550
 3064SOL     OW 9529   1.901   4.801   4.024
 3064SOL    HW1 9530   2.000   4.790   4.015
 3064SOL    HW2 9531   1.861   4.715   4.056
 3065SOL     OW 9532   3.954   0.628   0.113
 3065SOL    HW1 9533   3.861   0.626   0.150
 3065SOL    HW2 9534   3.955   0.589   0.021
 3066SOL     OW 9535   3.949   0.275   0.996
 3066SOL    HW1 9536   3.984   0.258   1.088
 3066SOL    HW2 9537   3.861   0.230   0.984
 3067SOL     OW 9538   3.743   0.368   0.647
 3067SOL    HW1 9539   3.661   0.411   0.686
 3067SOL    HW2 9540   3.715   0.295   0.584
 3068SOL     OW 9541   4.293   1.275   1.165
 3068SOL    HW1 9542   4.200   1.268   1.128
 3068SOL    HW2 9543   4.304   1.364   1.209
 3069SOL     OW 9544   4.859   0.703   0.717
 3069SOL    HW1 9545   4.916   0.781   0.692
 3069SOL    HW2 9546   4.799   0.729   0.793
 3070SOL     OW 9547   4.492   1.144   1.023
 3070SOL    HW1 9548   4.414   1.161   1.083
 3070SOL    HW2 9549   4.526   1.231   0.987
 3071SOL     OW 9550   4.574   0.798   1.823
 3071SOL    HW1 9551   4.570   0.874   1.888
 3071SOL    HW2 9552   4.596   0.834   1.732
 3072SOL     OW 9553   4.409   1.012   0.665
 3072SOL    HW1 9554   4.478   0.996   0.735
 3072SOL    HW2 9555   4.336   1.069   0.703
 3073SOL     OW 9556   4.410   1.161   1.803
 3073SOL    HW1 9557   4.470   1.240   1.817
 3073SOL    HW2 9558   4.324   1.192   1.762
 3074SOL     OW 9559   4.059   1.435   1.061
 3074SOL    HW1 9560   3.981   1.404   1.008
 3074SOL    HW2 9561   4.117   1.493   1.004
 3075SOL     OW 9562   4.162   0.392   1.499
 3075SOL    HW1 9563   4.244   0.336   1.508
 3075SOL    HW2 9564   4.081   0.334   1.503
 3076SOL     OW 9565   3.955   1.713   0.483
 3076SOL    HW1 9566   3.989   1.790   0.537
 3076SOL    HW2 9567   3.999   1.713   0.393
 3077SOL     OW 9568   4.851   1.341   1.690
 3077SOL    HW1 9569   4.898   1.341   1.778
 3077SOL    HW2 9570   4.803   1.254   1.679
 3078SOL     OW 9571   3.954   1.434   0.538
 3078SOL    HW1 9572   3.928   1.530   0.538
 3078SOL    HW2 9573   3.883   1.380   0.583
 3079SOL     OW 9574   3.964   1.091   0.886
 3079SOL    HW1 9575   3.978   1.007   0.938
 3079SOL    HW2 9576   3.909   1.155   0.941
 3080SOL     OW 9577   4.344   1.786   1.439
 3080SOL    HW1 9578   4.252   1.769   1.474
 3080SOL    HW2 9579   4.372   1.878   1.465
 3081SOL     OW 9580   4.330   0.964   0.123
 3081SOL    HW1 9581   4.337   1.048   0.069
 3081SOL    HW2 9582   4.376   0.977   0.211
 3082SOL     OW 9583   3.846   0.643   0.563
 3082SOL    HW1 9584   3.801   0.555   0.580
 3082SOL    HW2 9585   3.845   0.697   0.647
 3083SOL     OW 9586   3.751   1.596   0.117
 3083SOL    HW1 9587   3.732   1.500   0.138
 3083SOL    HW2 9588   3.718   1.654   0.192
 3084SOL     OW 9589   3.837   0.737   1.597
 3084SOL    HW1 9590   3.925   0.724   1.642
 3084SOL    HW2 9591   3.824   0.834   1.575
 3085SOL     OW 9592   4.337   1.365   0.726
 3085SOL    HW1 9593   4.288   1.278   0.735
 3085SOL    HW2 9594   4.314   1.408   0.639
 3086SOL     OW 9595   5.017   1.228   1.423
 3086SOL    HW1 9596   5.054   1.155   1.365
 3086SOL    HW2 9597   5.069   1.233   1.508
 3087SOL     OW 9598   3.921   0.976   1.264
 3087SOL    HW1 9599   4.010   0.931   1.250
 3087SOL    HW2 9600   3.848   0.911   1.245
 3088SOL     OW 9601   4.911   1.792   1.616
 3088SOL    HW1 9602   4.935   1.852   1.540
 3088SOL    HW2 9603   4.918   1.697   1.586
 3089SOL     OW 9604   4.041   0.251   1.801
 3089SOL    HW1 9605   4.112   0.322   1.807
 3089SOL    HW2 9606   3.953   0.290   1.829
 3090SOL     OW 9607   5.005   0.345   0.944
 3090SOL    HW1 9608   4.919   0.295   0.931
 3090SOL    HW2 9609   5.067   0.291   1.000
 3091SOL     OW 9610   4.531   0.605   1.465
 3091SOL    HW1 9611   4.484   0.602   1.554
 3091SOL    HW2 9612   4.480   0.550   1.399
 3092SOL     OW 9613   4.697   0.890   1.572
 3092SOL    HW1 9614   4.743   0.806   1.543
 3092SOL    HW2 9615   4.641   0.924   1.497
 3093SOL     OW 9616   4.715   0.410   1.242
 3093SOL    HW1 9617   4.638   0.444   1.296
 3093SOL    HW2 9618   4.681   0.359   1.163
 3094SOL     OW 9619   4.765   0.701   0.429
 3094SOL    HW1 9620   4.791   0.697   0.525
 3094SOL    HW2 9621   4.680   0.650   0.415
 3095SOL     OW 9622   3.800   0.811   0.789
 3095SOL    HW1 9623   3.899   0.799   0.798
 3095SOL    HW2 9624   3.776   0.906   0.810
 3096SOL     OW 9625   3.854   1.821   1.571
 3096SOL    HW1 9626   3.844   1.806   1.670
 3096SOL    HW2 9627   3.768   1.857   1.535
 3097SOL     OW 9628   4.274   0.196   0.885
 3097SOL    HW1 9629   4.269   0.191   0.985
 3097SOL    HW2 9630   4.276   0.292   0.856
 3098SOL     OW 9631   4.732   1.456   0.477
 3098SOL    HW1 9632   4.686   1.528   0.425
 3098SOL    HW2 9633   4.728   1.476   0.575
 3099SOL     OW 9634   4.075   1.801   0.853
 3099SOL    HW1 9635   4.125   1.715   0.859
 3099SOL    HW2 9636   4.140   1.878   0.850
 3100SOL     OW 9637   4.951   1.550   1.506
 3100SOL    HW1 9638   4.957   1.473   1.570
 3100SOL    HW2 9639   4.899   1.524   1.426
 3101SOL     OW 9640   4.045   0.943   0.242
 3101SOL    HW1 9641   4.127   0.982   0.200
 3101SOL    HW2 9642   4.018   0.861   0.193
 3102SOL     OW 9643   4.185   1.266   1.727
 3102SOL    HW1 9644   4.135   1.267   1.641
 3102SOL    HW2 9645   4.122   1.248   1.803
 3103SOL     OW 9646   4.835   1.776   0.237
 3103SOL    HW1 9647   4.775   1.714   0.287
 3103SOL    HW2 9648   4.866   1.732   0.152
 3104SOL     OW 9649   3.926   0.285   1.498
 3104SOL    HW1 9650   3.846   0.345   1.485
 3104SOL    HW2 9651   3.916   0.236   1.584
 3105SOL     OW 9652   5.356   1.377   0.081
 3105SOL    HW1 9653   5.324   1.471   0.071
 3105SOL    HW2 9654   5.280   1.314   0.069
 3106SOL     OW 9655   4.188   1.743   0.323
 3106SOL    HW1 9656   4.221   1.782   0.409
 3106SOL    HW2 9657   4.264   1.736   0.258
 3107SOL     OW 9658   3.973   1.785   1.241
 3107SOL    HW1 9659   4.030   1.720   1.291
 3107SOL    HW2 9660   3.957   1.752   1.148
 3108SOL     OW 9661   4.664   1.698   0.904
 3108SOL    HW1 9662   4.744   1.641   0.925
 3108SOL    HW2 9663   4.615   1.658   0.827
 3109SOL     OW 9664   4.106   0.700   0.480
 3109SOL    HW1 9665   4.151   0.610   0.477
 3109SOL    HW2 9666   4.012   0.689   0.513
 3110SOL     OW 9667   4.505   0.264   1.749
 3110SOL    HW1 9668   4.572   0.203   1.792
 3110SOL    HW2 9669   4.432   0.283   1.814
 3111SOL     OW 9670   4.612   1.514   1.195
 3111SOL    HW1 9671   4.589   1.489   1.101
 3111SOL    HW2 9672   4.673   1.445   1.234
 3112SOL     OW 9673   4.527   1.402   0.924
 3112SOL    HW1 9674   4.617   1.416   0.882
 3112SOL    HW2 9675   4.456   1.404   0.853
 3113SOL     OW 9676   4.646   0.503   0.899
 3113SOL    HW1 9677   4.621   0.494   0.803
 3113SOL    HW2 9678   4.694   0.421   0.930
 3114SOL     OW 9679   4.263   0.064   0.512
 3114SOL    HW1 9680   4.182   0.065   0.570
 3114SOL    HW2 9681   4.266   0.147   0.457
 3115SOL     OW 9682   4.800   0.683   1.464
 3115SOL    HW1 9683   4.720   0.622   1.467
 3115SOL    HW2 9684   4.881   0.630   1.440
 3116SOL     OW 9685   4.951   1.570   0.793
 3116SOL    HW1 9686   4.972   1.644   0.728
 3116SOL    HW2 9687   5.019   1.570   0.866
 3117SOL     OW 9688   4.183   1.152   0.741
 3117SOL    HW1 9689   4.112   1.125   0.806
 3117SOL    HW2 9690   4.157   1.124   0.648
 3118SOL     OW 9691   4.995   1.797   0.591
 3118SOL    HW1 9692   5.039   1.861   0.527
 3118SOL    HW2 9693   4.945   1.849   0.661
 3119SOL     OW 9694   4.756   0.549   0.016
 3119SOL    HW1 9695   4.715   0.631  -0.023
 3119SOL    HW2 9696   4.820   0.575   0.089
 3120SOL     OW 9697   3.802   0.556   1.386
 3120SOL    HW1 9698   3.894   0.555   1.345
 3120SOL    HW2 9699   3.796   0.630   1.453
 3121SOL     OW 9700   4.285   0.222   1.147
 3121SOL    HW1 9701   4.323   0.138   1.184
 3121SOL    HW2 9702   4.197   0.241   1.191
 3122SOL     OW 9703   4.590   0.454   0.642
 3122SOL    HW1 9704   4.558   0.526   0.580
 3122SOL    HW2 9705   4.614   0.373   0.589
 3123SOL     OW 9706   4.741   0.039   0.753
 3123SOL    HW1 9707   4.669   0.044   0.684
 3123SOL    HW2 9708   4.717  -0.030   0.822
 3124SOL     OW 9709   4.212   1.385   0.174
 3124SOL    HW1 9710   4.125   1.370   0.221
 3124SOL    HW2 9711   4.195   1.411   0.079
 3125SOL     OW 9712   5.388   1.280   0.657
 3125SOL    HW1 9713   5.487   1.288   0.671
 3125SOL    HW2 9714   5.343   1.364   0.688
 3126SOL     OW 9715   4.788   1.347   1.340
 3126SOL    HW1 9716   4.708   1.324   1.395
 3126SOL    HW2 9717   4.871   1.321   1.389
 3127SOL     OW 9718   4.835   1.195   1.100
 3127SOL    HW1 9719   4.795   1.239   1.181
 3127SOL    HW2 9720   4.794   1.232   1.017
 3128SOL     OW 9721   4.639   0.089   1.402
 3128SOL    HW1 9722   4.664   0.069   1.307
 3128SOL    HW2 9723   4.711   0.145   1.444
 3129SOL     OW 9724   4.704   1.116   1.719
 3129SOL    HW1 9725   4.605   1.122   1.729
 3129SOL    HW2 9726   4.727   1.036   1.663
 3130SOL     OW 9727   4.429   1.050   0.368
 3130SOL    HW1 9728   4.415   1.057   0.467
 3130SOL    HW2 9729   4.513   0.999   0.350
 3131SOL     OW 9730   4.134   0.813   1.251
 3131SOL    HW1 9731   4.220   0.825   1.301
 3131SOL    HW2 9732   4.092   0.726   1.278
 3132SOL     OW 9733   4.998   0.386   1.262
 3132SOL    HW1 9734   5.019   0.460   1.326
 3132SOL    HW2 9735   4.909   0.403   1.219
 3133SOL     OW 9736   3.788   1.564   1.331
 3133SOL    HW1 9737   3.742   1.646   1.297
 3133SOL    HW2 9738   3.886   1.583   1.340
 3134SOL     OW 9739   4.091   1.100   0.501
 3134SOL    HW1 9740   4.084   1.183   0.445
 3134SOL    HW2 9741   4.095   1.020   0.441
 3135SOL     OW 9742   4.290   0.537   0.865
 3135SOL    HW1 9743   4.302   0.603   0.791
 3135SOL    HW2 9744   4.336   0.571   0.948
 3136SOL     OW 9745   4.976   1.348   0.388
 3136SOL    HW1 9746   5.026   1.425   0.428
 3136SOL    HW2 9747   4.881   1.350   0.420
 3137SOL     OW 9748   4.078   1.510   1.329
 3137SOL    HW1 9749   4.057   1.466   1.242
 3137SOL    HW2 9750   4.175   1.536   1.332
 3138SOL     OW 9751   4.126   0.751   1.598
 3138SOL    HW1 9752   4.194   0.806   1.551
 3138SOL    HW2 9753   4.166   0.663   1.625
 3139SOL     OW 9754   4.737   0.105   1.770
 3139SOL    HW1 9755   4.743   0.190   1.718
 3139SOL    HW2 9756   4.769   0.029   1.713
 3140SOL     OW 9757   4.228   0.050   1.740
 3140SOL    HW1 9758   4.186  -0.007   1.670
 3140SOL    HW2 9759   4.162   0.119   1.772
 3141SOL     OW 9760   4.297   0.870   1.029
 3141SOL    HW1 9761   4.341   0.959   1.020
 3141SOL    HW2 9762   4.234   0.870   1.106
 3142SOL     OW 9763   5.084   0.862   1.045
 3142SOL    HW1 9764   5.009   0.862   0.979
 3142SOL    HW2 9765   5.121   0.770   1.054
 3143SOL     OW 9766   4.933   0.525   0.275
 3143SOL    HW1 9767   4.946   0.441   0.329
 3143SOL    HW2 9768   4.904   0.599   0.335
 3144SOL     OW 9769   4.031   0.213   1.231
 3144SOL    HW1 9770   4.008   0.250   1.321
 3144SOL    HW2 9771   4.001   0.118   1.225
 3145SOL     OW 9772   3.761   1.310   1.282
 3145SOL    HW1 9773   3.814   1.261   1.350
 3145SOL    HW2 9774   3.783   1.408   1.287
 3146SOL     OW 9775   4.456   0.634   1.064
 3146SOL    HW1 9776   4.515   0.608   0.988
 3146SOL    HW2 9777   4.428   0.730   1.053
 3147SOL     OW 9778   4.031   0.063   0.618
 3147SOL    HW1 9779   4.020   0.157   0.651
 3147SOL    HW2 9780   4.026   0.000   0.695
 3148SOL     OW 9781   5.346   0.367   0.374
 3148SOL    HW1 9782   5.348   0.291   0.438
 3148SOL    HW2 9783   5.298   0.444   0.414
 3149SOL     OW 9784   4.747   0.766   0.966
 3149SOL    HW1 9785   4.762   0.787   1.062
 3149SOL    HW2 9786   4.717   0.671   0.957
 3150SOL     OW 9787   4.704   1.573   1.700
 3150SOL    HW1 9788   4.684   1.617   1.612
 3150SOL    HW2 9789   4.743   1.482   1.684
 3151SOL     OW 9790   4.074   0.898   1.804
 3151SOL    HW1 9791   4.150   0.942   1.852
 3151SOL    HW2 9792   4.109   0.851   1.722
 3152SOL     OW 9793   5.027   0.838   0.042
 3152SOL    HW1 9794   5.061   0.745   0.057
 3152SOL    HW2 9795   5.045   0.865  -0.053
 3153SOL     OW 9796   4.792   1.333   0.849
 3153SOL    HW1 9797   4.799   1.249   0.794
 3153SOL    HW2 9798   4.854   1.402   0.813
 3154SOL     OW 9799   4.043   0.810   0.949
 3154SOL    HW1 9800   4.136   0.846   0.954
 3154SOL    HW2 9801   4.037   0.725   1.001
 3155SOL     OW 9802   4.063   0.509   1.006
 3155SOL    HW1 9803   4.011   0.426   0.989
 3155SOL    HW2 9804   4.140   0.514   0.942
 3156SOL     OW 9805   4.862   0.380   1.678
 3156SOL    HW1 9806   4.817   0.443   1.742
 3156SOL    HW2 9807   4.955   0.411   1.661
 3157SOL     OW 9808   4.884   0.207   1.477
 3157SOL    HW1 9809   4.884   0.271   1.554
 3157SOL    HW2 9810   4.912   0.255   1.394
 3158SOL     OW 9811   3.812   1.801   0.927
 3158SOL    HW1 9812   3.770   1.715   0.900
 3158SOL    HW2 9813   3.906   1.804   0.893
 3159SOL     OW 9814   4.228   1.568   0.910
 3159SOL    HW1 9815   4.294   1.642   0.919
 3159SOL    HW2 9816   4.272   1.489   0.868
 3160SOL     OW 9817   4.726   0.796   1.238
 3160SOL    HW1 9818   4.767   0.764   1.324
 3160SOL    HW2 9819   4.630   0.769   1.235
 3161SOL     OW 9820   3.764   0.544   1.114
 3161SOL    HW1 9821   3.849   0.511   1.073
 3161SOL    HW2 9822   3.777   0.559   1.212
 3162SOL     OW 9823   3.913   0.520   1.722
 3162SOL    HW1 9824   3.972   0.480   1.652
 3162SOL    HW2 9825   3.855   0.591   1.681
 3163SOL     OW 9826   3.976   1.564   1.744
 3163SOL    HW1 9827   3.946   1.621   1.820
 3163SOL    HW2 9828   3.969   1.467   1.770
 3164SOL     OW 9829   4.395   0.464   1.269
 3164SOL    HW1 9830   4.361   0.375   1.239
 3164SOL    HW2 9831   4.421   0.518   1.189
 3165SOL     OW 9832   4.654   1.678   1.465
 3165SOL    HW1 9833   4.630   1.660   1.370
 3165SOL    HW2 9834   4.684   1.772   1.475
 3166SOL     OW 9835   3.883   1.137   1.466
 3166SOL    HW1 9836   3.905   1.076   1.542
 3166SOL    HW2 9837   3.893   1.088   1.380
 3167SOL     OW 9838   5.071   1.059   1.234
 3167SOL    HW1 9839   5.095   0.996   1.160
 3167SOL    HW2 9840   4.981   1.099   1.216
 3168SOL     OW 9841   4.976   1.731   1.128
 3168SOL    HW1 9842   5.060   1.736   1.074
 3168SOL    HW2 9843   4.953   1.635   1.146
 3169SOL     OW 9844   3.807   1.258   1.022
 3169SOL    HW1 9845   3.802   1.257   1.122
 3169SOL    HW2 9846   3.724   1.217   0.984
 3170SOL     OW 9847   4.412   1.662   1.716
 3170SOL    HW1 9848   4.356   1.743   1.725
 3170SOL    HW2 9849   4.464   1.666   1.630
 3171SOL     OW 9850   5.112   1.573   0.477
 3171SOL    HW1 9851   5.179   1.585   0.403
 3171SOL    HW2 9852   5.072   1.662   0.500
 3172SOL     OW 9853   3.854   1.794   1.851
 3172SOL    HW1 9854   3.813   1.720   1.904
 3172SOL    HW2 9855   3.918   1.845   1.909
 3173SOL     OW 9856   5.004   0.927   0.672
 3173SOL    HW1 9857   5.064   0.846   0.674
 3173SOL    HW2 9858   5.044   0.996   0.612
 3174SOL     OW 9859   4.554   1.273   1.422
 3174SOL    HW1 9860   4.549   1.306   1.517
 3174SOL    HW2 9861   4.468   1.292   1.376
 3175SOL     OW 9862   4.396   1.616   0.154
 3175SOL    HW1 9863   4.405   1.626   0.055
 3175SOL    HW2 9864   4.356   1.527   0.175
 3176SOL     OW 9865   3.987   0.326   0.720
 3176SOL    HW1 9866   3.908   0.377   0.686
 3176SOL    HW2 9867   3.978   0.311   0.818
 3177SOL     OW 9868   4.918   1.612   0.031
 3177SOL    HW1 9869   4.924   1.519   0.068
 3177SOL    HW2 9870   4.859   1.612  -0.049
 3178SOL     OW 9871   4.546   1.002   1.372
 3178SOL    HW1 9872   4.586   1.001   1.280
 3178SOL    HW2 9873   4.556   1.094   1.412
 3179SOL     OW 9874   4.640   0.910   0.291
 3179SOL    HW1 9875   4.703   0.948   0.223
 3179SOL    HW2 9876   4.680   0.827   0.330
 3180SOL     OW 9877   4.096   1.288   1.490
 3180SOL    HW1 9878   4.083   1.381   1.456
 3180SOL    HW2 9879   4.012   1.236   1.477
 3181SOL     OW 9880   4.763   1.098   0.696
 3181SOL    HW1 9881   4.693   1.051   0.750
 3181SOL    HW2 9882   4.822   1.030   0.653
 3182SOL     OW 9883   4.738   0.236   0.971
 3182SOL    HW1 9884   4.730   0.200   0.878
 3182SOL    HW2 9885   4.736   0.160   1.036
 3183SOL     OW 9886   4.314   1.487   0.491
 3183SOL    HW1 9887   4.356   1.429   0.421
 3183SOL    HW2 9888   4.270   1.566   0.447
 3184SOL     OW 9889   3.979   1.348   0.290
 3184SOL    HW1 9890   3.883   1.349   0.263
 3184SOL    HW2 9891   3.991   1.401   0.374
 3185SOL     OW 9892   3.829   1.013   1.726
 3185SOL    HW1 9893   3.752   0.980   1.780
 3185SOL    HW2 9894   3.914   0.983   1.768
 3186SOL     OW 9895   4.396   0.203   1.489
 3186SOL    HW1 9896   4.486   0.187   1.449
 3186SOL    HW2 9897   4.404   0.208   1.588
 3187SOL     OW 9898   5.164   0.856   1.398
 3187SOL    HW1 9899   5.107   0.908   1.335
 3187SOL    HW2 9900   5.260   0.868   1.374
 3188SOL     OW 9901   4.337   0.842   1.431
 3188SOL    HW1 9902   4.393   0.923   1.414
 3188SOL    HW2 9903   4.396   0.762   1.434
 3189SOL     OW 9904   4.440   0.565   1.708
 3189SOL    HW1 9905   4.459   0.630   1.782
 3189SOL    HW2 9906   4.500   0.485   1.717
 3190SOL     OW 9907   4.114   1.741   1.560
 3190SOL    HW1 9908   4.023   1.782   1.558
 3190SOL    HW2 9909   4.107   1.647   1.592
 3191SOL     OW 9910   4.949   0.325   0.449
 3191SOL    HW1 9911   5.014   0.251   0.438
 3191SOL    HW2 9912   4.969   0.375   0.533
 3192SOL     OW 9913   4.318   0.745   0.652
 3192SOL    HW1 9914   4.368   0.830   0.633
 3192SOL    HW2 9915   4.230   0.747   0.604
 3193SOL     OW 9916   4.583   1.374   0.016
 3193SOL    HW1 9917   4.537   1.389   0.104
 3193SOL    HW2 9918   4.627   1.459  -0.014
 3194SOL     OW 9919   4.385   1.790   0.953
 3194SOL    HW1 9920   4.339   1.878   0.940
 3194SOL    HW2 9921   4.484   1.802   0.946
 3195SOL     OW 9922   4.583   0.956   0.861
 3195SOL    HW1 9923   4.637   0.887   0.909
 3195SOL    HW2 9924   4.551   1.025   0.927
 3196SOL     OW 9925   4.807   0.984   0.087
 3196SOL    HW1 9926   4.784   1.037   0.005
 3196SOL    HW2 9927   4.888   0.928   0.068
 3197SOL     OW 9928   3.945   1.314   1.844
 3197SOL    HW1 9929   3.880   1.241   1.823
 3197SOL    HW2 9930   3.949   1.328   1.942
 3198SOL     OW 9931   3.803   1.240   0.653
 3198SOL    HW1 9932   3.802   1.193   0.741
 3198SOL    HW2 9933   3.885   1.212   0.602
 3199SOL     OW 9934   4.396   1.391   1.624
 3199SOL    HW1 9935   4.318   1.341   1.662
 3199SOL    HW2 9936   4.393   1.486   1.655
 3200SOL     OW 9937   4.041   0.547   1.280
 3200SOL    HW1 9938   4.079   0.488   1.352
 3200SOL    HW2 9939   4.081   0.521   1.192
 3201SOL     OW 9940   4.536   1.586   0.687
 3201SOL    HW1 9941   4.568   1.596   0.593
 3201SOL    HW2 9942   4.457   1.524   0.689
 3202SOL     OW 9943   4.725   0.034   1.154
 3202SOL    HW1 9944   4.662  -0.038   1.123
 3202SOL    HW2 9945   4.818  -0.002   1.154
 3203SOL     OW 9946   4.494   1.330   0.301
 3203SOL    HW1 9947   4.448   1.243   0.318
 3203SOL    HW2 9948   4.585   1.327   0.342
 3204SOL     OW 9949   4.342   1.567   1.284
 3204SOL    HW1 9950   4.337   1.649   1.341
 3204SOL    HW2 9951   4.431   1.564   1.239
 3205SOL     OW 9952   3.763   1.077   0.300
 3205SOL    HW1 9953   3.862   1.066   0.291
 3205SOL    HW2 9954   3.723   0.991   0.332
 3206SOL     OW 9955   4.599   1.646   0.337
 3206SOL    HW1 9956   4.522   1.611   0.283
 3206SOL    HW2 9957   4.567   1.717   0.399
 3207SOL     OW 9958   3.954   0.628   1.975
 3207SOL    HW1 9959   3.861   0.626   2.012
 3207SOL    HW2 9960   3.955   0.589   1.883
 3208SOL     OW 9961   3.949   0.275   2.858
 3208SOL    HW1 9962   3.984   0.258   2.950
 3208SOL    HW2 9963   3.861   0.230   2.846
 3209SOL     OW 9964   3.743   0.368   2.509
 3209SOL    HW1 9965   3.661   0.411   2.548
 3209SOL    HW2 9966   3.715   0.295   2.446
 3210SOL     OW 9967   4.293   1.275   3.027
 3210SOL    HW1 9968   4.200   1.268   2.990
 3210SOL    HW2 9969   4.304   1.364   3.071
 3211SOL     OW 9970   4.859   0.703   2.579
 3211SOL    HW1 9971   4.916   0.781   2.554
 3211SOL    HW2 9972   4.799   0.729   2.655
 3212SOL     OW 9973   4.492   1.144   2.885
 3212SOL    HW1 9974   4.414   1.161   2.945
 3212SOL    HW2 9975   4.526   1.231   2.849
 3213SOL     OW 9976   4.574   0.798   3.685
 3213SOL    HW1 9977   4.570   0.874   3.750
 3213SOL    HW2 9978   4.596   0.834   3.594
 3214SOL     OW 9979   4.409   1.012   2.527
 3214SOL    HW1 9980   4.478   0.996   2.597
 3214SOL    HW2 9981   4.336   1.069   2.565
 3215SOL     OW 9982   4.410   1.161   3.665
 3215SOL    HW1 9983   4.470   1.240   3.679
 3215SOL    HW2 9984   4.324   1.192   3.624
 3216SOL     OW 9985   4.059   1.435   2.923
 3216SOL    HW1 9986   3.981   1.404   2.870
 3216SOL    HW2 9987   4.117   1.493   2.866
 3217SOL     OW 9988   4.162   0.392   3.361
 3217SOL    HW1 9989   4.244   0.336   3.370
 3217SOL    HW2 9990   4.081   0.334   3.365
 3218SOL     OW 9991   3.955   1.713   2.345
 3218SOL    HW1 9992   3.989   1.790   2.399
 3218SOL    HW2 9993   3.999   1.713   2.255
 3219SOL     OW 9994   4.851   1.341   3.552
 3219SOL    HW1 9995   4.898   1.341   3.640
 3219SOL    HW2 9996   4.803   1.254   3.541
 3220SOL     OW 9997   3.954   1.434   2.400
 3220SOL    HW1 9998   3.928   1.530   2.400
 3220SOL    HW2 9999   3.883   1.380   2.445
 3221SOL     OW10000   3.964   1.091   2.748
 3221SOL    HW110001   3.978   1.007   2.800
 3221SOL    HW210002   3.909   1.155   2.803
 3222SOL     OW10003   4.344   1.786   3.301
 3222SOL    HW110004   4.252   1.769   3.336
 3222SOL    HW210005   4.372   1.878   3.327
 3223SOL     OW10006   4.330   0.964   1.985
 3223SOL    HW110007   4.337   1.048   1.931
 3223SOL    HW210008   4.376   0.977   2.073
 3224SOL     OW10009   3.846   0.643   2.425
 3224SOL    HW110010   3.801   0.555   2.442
 3224SOL    HW210011   3.845   0.697   2.509
 3225SOL     OW10012   3.751   1.596   1.979
 3225SOL    HW110013   3.732   1.500   2.000
 3225SOL    HW210014   3.718   1.654   2.054
 3226SOL     OW10015   3.837   0.737   3.459
 3226SOL    HW110016   3.925   0.724   3.504
 3226SOL    HW210017   3.824   0.834   3.437
 3227SOL     OW10018   4.337   1.365   2.588
 3227SOL    HW110019   4.288   1.278   2.597
 3227SOL    HW210020   4.314   1.408   2.501
 3228SOL     OW10021   5.017   1.228   3.285
 3228SOL    HW110022   5.054   1.155   3.227
 3228SOL    HW210023   5.069   1.233   3.370
 3229SOL     OW10024   4.533   0.004   2.364
 3229SOL    HW110025   4.573   0.095   2.355
 3229SOL    HW210026   4.433   0.012   2.370
 3230SOL     OW10027   3.921   0.976   3.126
 3230SOL    HW110028   4.010   0.931   3.112
 3230SOL    HW210029   3.848   0.911   3.107
 3231SOL     OW10030   4.911   1.792   3.478
 3231SOL    HW110031   4.935   1.852   3.402
 3231SOL    HW210032   4.918   1.697   3.448
 3232SOL     OW10033   4.041   0.251   3.663
 3232SOL    HW110034   4.112   0.322   3.669
 3232SOL    HW210035   3.953   0.290   3.691
 3233SOL     OW10036   4.322   0.729   2.132
 3233SOL    HW110037   4.346   0.798   2.064
 3233SOL    HW210038   4.244   0.762   2.186
 3234SOL     OW10039   5.005   0.345   2.806
 3234SOL    HW110040   4.919   0.295   2.793
 3234SOL    HW210041   5.067   0.291   2.862
 3235SOL     OW10042   4.531   0.605   3.327
 3235SOL    HW110043   4.484   0.602   3.416
 3235SOL    HW210044   4.480   0.550   3.261
 3236SOL     OW10045   4.697   0.890   3.434
 3236SOL    HW110046   4.743   0.806   3.405
 3236SOL    HW210047   4.641   0.924   3.359
 3237SOL     OW10048   4.715   0.410   3.104
 3237SOL    HW110049   4.638   0.444   3.158
 3237SOL    HW210050   4.681   0.359   3.025
 3238SOL     OW10051   4.765   0.701   2.291
 3238SOL    HW110052   4.791   0.697   2.387
 3238SOL    HW210053   4.680   0.650   2.277
 3239SOL     OW10054   3.800   0.811   2.651
 3239SOL    HW110055   3.899   0.799   2.660
 3239SOL    HW210056   3.776   0.906   2.672
 3240SOL     OW10057   3.854   1.821   3.433
 3240SOL    HW110058   3.844   1.806   3.532
 3240SOL    HW210059   3.768   1.857   3.397
 3241SOL     OW10060   4.589   0.348   2.057
 3241SOL    HW110061   4.648   0.411   2.008
 3241SOL    HW210062   4.608   0.254   2.028
 3242SOL     OW10063   4.274   0.196   2.747
 3242SOL    HW110064   4.269   0.191   2.847
 3242SOL    HW210065   4.276   0.292   2.718
 3243SOL     OW10066   4.732   1.456   2.339
 3243SOL    HW110067   4.686   1.528   2.287
 3243SOL    HW210068   4.728   1.476   2.437
 3244SOL     OW10069   4.075   1.801   2.715
 3244SOL    HW110070   4.125   1.715   2.721
 3244SOL    HW210071   4.140   1.878   2.712
 3245SOL     OW10072   4.951   1.550   3.368
 3245SOL    HW110073   4.957   1.473   3.432
 3245SOL    HW210074   4.899   1.524   3.288
 3246SOL     OW10075   4.045   0.943   2.104
 3246SOL    HW110076   4.127   0.982   2.062
 3246SOL    HW210077   4.018   0.861   2.055
 3247SOL     OW10078   4.185   1.266   3.589
 3247SOL    HW110079   4.135   1.267   3.503
 3247SOL    HW210080   4.122   1.248   3.665
 3248SOL     OW10081   4.835   1.776   2.099
 3248SOL    HW110082   4.775   1.714   2.149
 3248SOL    HW210083   4.866   1.732   2.014
 3249SOL     OW10084   3.926   0.285   3.360
 3249SOL    HW110085   3.846   0.345   3.347
 3249SOL    HW210086   3.916   0.236   3.446
 3250SOL     OW10087   4.188   1.743   2.185
 3250SOL    HW110088   4.221   1.782   2.271
 3250SOL    HW210089   4.264   1.736   2.120
 3251SOL     OW10090   3.973   1.785   3.103
 3251SOL    HW110091   4.030   1.720   3.153
 3251SOL    HW210092   3.957   1.752   3.010
 3252SOL     OW10093   4.664   1.698   2.766
 3252SOL    HW110094   4.744   1.641   2.787
 3252SOL    HW210095   4.615   1.658   2.689
 3253SOL     OW10096   4.106   0.700   2.342
 3253SOL    HW110097   4.151   0.610   2.339
 3253SOL    HW210098   4.012   0.689   2.375
 3254SOL     OW10099   4.338   0.122   1.979
 3254SOL    HW110100   4.436   0.100   1.986
 3254SOL    HW210101   4.307   0.105   1.886
 3255SOL     OW10102   4.505   0.264   3.611
 3255SOL    HW110103   4.572   0.203   3.654
 3255SOL    HW210104   4.432   0.283   3.676
 3256SOL     OW10105   4.612   1.514   3.057
 3256SOL    HW110106   4.589   1.489   2.963
 3256SOL    HW210107   4.673   1.445   3.096
 3257SOL     OW10108   4.527   1.402   2.786
 3257SOL    HW110109   4.617   1.416   2.744
 3257SOL    HW210110   4.456   1.404   2.715
 3258SOL     OW10111   4.646   0.503   2.761
 3258SOL    HW110112   4.621   0.494   2.665
 3258SOL    HW210113   4.694   0.421   2.792
 3259SOL     OW10114   4.263   0.064   2.374
 3259SOL    HW110115   4.182   0.065   2.432
 3259SOL    HW210116   4.266   0.147   2.319
 3260SOL     OW10117   4.021   0.035   2.033
 3260SOL    HW110118   4.070   0.119   2.012
 3260SOL    HW210119   4.083  -0.030   2.078
 3261SOL     OW10120   4.659   0.236   2.342
 3261SOL    HW110121   4.611   0.277   2.264
 3261SOL    HW210122   4.758   0.234   2.323
 3262SOL     OW10123   4.800   0.683   3.326
 3262SOL    HW110124   4.720   0.622   3.329
 3262SOL    HW210125   4.881   0.630   3.302
 3263SOL     OW10126   4.951   1.570   2.655
 3263SOL    HW110127   4.972   1.644   2.590
 3263SOL    HW210128   5.019   1.570   2.728
 3264SOL     OW10129   4.183   1.152   2.603
 3264SOL    HW110130   4.112   1.125   2.668
 3264SOL    HW210131   4.157   1.124   2.510
 3265SOL     OW10132   4.995   1.797   2.453
 3265SOL    HW110133   5.039   1.861   2.389
 3265SOL    HW210134   4.945   1.849   2.523
 3266SOL     OW10135   4.756   0.549   1.878
 3266SOL    HW110136   4.715   0.631   1.839
 3266SOL    HW210137   4.820   0.575   1.951
 3267SOL     OW10138   3.802   0.556   3.248
 3267SOL    HW110139   3.894   0.555   3.207
 3267SOL    HW210140   3.796   0.630   3.315
 3268SOL     OW10141   4.285   0.222   3.009
 3268SOL    HW110142   4.323   0.138   3.046
 3268SOL    HW210143   4.197   0.241   3.053
 3269SOL     OW10144   4.590   0.454   2.504
 3269SOL    HW110145   4.558   0.526   2.442
 3269SOL    HW210146   4.614   0.373   2.451
 3270SOL     OW10147   4.741   0.039   2.615
 3270SOL    HW110148   4.669   0.044   2.546
 3270SOL    HW210149   4.717  -0.030   2.684
 3271SOL     OW10150   4.212   1.385   2.036
 3271SOL    HW110151   4.125   1.370   2.083
 3271SOL    HW210152   4.195   1.411   1.941
 3272SOL     OW10153   5.388   1.280   2.519
 3272SOL    HW110154   5.487   1.288   2.533
 3272SOL    HW210155   5.343   1.364   2.550
 3273SOL     OW10156   4.251   0.256   2.190
 3273SOL    HW110157   4.278   0.197   2.115
 3273SOL    HW210158   4.251   0.351   2.159
 3274SOL     OW10159   4.788   1.347   3.202
 3274SOL    HW110160   4.708   1.324   3.257
 3274SOL    HW210161   4.871   1.321   3.251
 3275SOL     OW10162   4.835   1.195   2.962
 3275SOL    HW110163   4.795   1.239   3.043
 3275SOL    HW210164   4.794   1.232   2.879
 3276SOL     OW10165   4.639   0.089   3.264
 3276SOL    HW110166   4.664   0.069   3.169
 3276SOL    HW210167   4.711   0.145   3.306
 3277SOL     OW10168   4.704   1.116   3.581
 3277SOL    HW110169   4.605   1.122   3.591
 3277SOL    HW210170   4.727   1.036   3.525
 3278SOL     OW10171   4.429   1.050   2.230
 3278SOL    HW110172   4.415   1.057   2.329
 3278SOL    HW210173   4.513   0.999   2.212
 3279SOL     OW10174   4.134   0.813   3.113
 3279SOL    HW110175   4.220   0.825   3.163
 3279SOL    HW210176   4.092   0.726   3.140
 3280SOL     OW10177   4.998   0.386   3.124
 3280SOL    HW110178   5.019   0.460   3.188
 3280SOL    HW210179   4.909   0.403   3.081
 3281SOL     OW10180   3.788   1.564   3.193
 3281SOL    HW110181   3.742   1.646   3.159
 3281SOL    HW210182   3.886   1.583   3.202
 3282SOL     OW10183   4.091   1.100   2.363
 3282SOL    HW110184   4.084   1.183   2.307
 3282SOL    HW210185   4.095   1.020   2.303
 3283SOL     OW10186   4.290   0.537   2.727
 3283SOL    HW110187   4.302   0.603   2.653
 3283SOL    HW210188   4.336   0.571   2.810
 3284SOL     OW10189   4.976   1.348   2.250
 3284SOL    HW110190   5.026   1.425   2.290
 3284SOL    HW210191   4.881   1.350   2.282
 3285SOL     OW10192   4.078   1.510   3.191
 3285SOL    HW110193   4.057   1.466   3.104
 3285SOL    HW210194   4.175   1.536   3.194
 3286SOL     OW10195   4.126   0.751   3.460
 3286SOL    HW110196   4.194   0.806   3.413
 3286SOL    HW210197   4.166   0.663   3.487
 3287SOL     OW10198   4.737   0.105   3.632
 3287SOL    HW110199   4.743   0.190   3.580
 3287SOL    HW210200   4.769   0.029   3.575
 3288SOL     OW10201   4.228   0.050   3.602
 3288SOL    HW110202   4.186  -0.007   3.532
 3288SOL    HW210203   4.162   0.119   3.634
 3289SOL     OW10204   4.297   0.870   2.891
 3289SOL    HW110205   4.341   0.959   2.882
 3289SOL    HW210206   4.234   0.870   2.968
 3290SOL     OW10207   5.084   0.862   2.907
 3290SOL    HW110208   5.009   0.862   2.841
 3290SOL    HW210209   5.121   0.770   2.916
 3291SOL     OW10210   4.933   0.525   2.137
 3291SOL    HW110211   4.946   0.441   2.191
 3291SOL    HW210212   4.904   0.599   2.197
 3292SOL     OW10213   4.031   0.213   3.093
 3292SOL    HW110214   4.008   0.250   3.183
 3292SOL    HW210215   4.001   0.118   3.087
 3293SOL     OW10216   3.761   1.310   3.144
 3293SOL    HW110217   3.814   1.261   3.212
 3293SOL    HW210218   3.783   1.408   3.149
 3294SOL     OW10219   4.456   0.634   2.926
 3294SOL    HW110220   4.515   0.608   2.850
 3294SOL    HW210221   4.428   0.730   2.915
 3295SOL     OW10222   4.031   0.063   2.480
 3295SOL    HW110223   4.020   0.157   2.513
 3295SOL    HW210224   4.026   0.000   2.557
 3296SOL     OW10225   5.346   0.367   2.236
 3296SOL    HW110226   5.348   0.291   2.300
 3296SOL    HW210227   5.298   0.444   2.276
 3297SOL     OW10228   4.747   0.766   2.828
 3297SOL    HW110229   4.762   0.787   2.924
 3297SOL    HW210230   4.717   0.671   2.819
 3298SOL     OW10231   4.704   1.573   3.562
 3298SOL    HW110232   4.684   1.617   3.474
 3298SOL    HW210233   4.743   1.482   3.546
 3299SOL     OW10234   4.074   0.898   3.666
 3299SOL    HW110235   4.150   0.942   3.714
 3299SOL    HW210236   4.109   0.851   3.584
 3300SOL     OW10237   5.027   0.838   1.904
 3300SOL    HW110238   5.061   0.745   1.919
 3300SOL    HW210239   5.045   0.865   1.809
 3301SOL     OW10240   4.792   1.333   2.711
 3301SOL    HW110241   4.799   1.249   2.656
 3301SOL    HW210242   4.854   1.402   2.675
 3302SOL     OW10243   4.043   0.810   2.811
 3302SOL    HW110244   4.136   0.846   2.816
 3302SOL    HW210245   4.037   0.725   2.863
 3303SOL     OW10246   4.063   0.509   2.868
 3303SOL    HW110247   4.011   0.426   2.851
 3303SOL    HW210248   4.140   0.514   2.804
 3304SOL     OW10249   4.862   0.380   3.540
 3304SOL    HW110250   4.817   0.443   3.604
 3304SOL    HW210251   4.955   0.411   3.523
 3305SOL     OW10252   4.884   0.207   3.339
 3305SOL    HW110253   4.884   0.271   3.416
 3305SOL    HW210254   4.912   0.255   3.256
 3306SOL     OW10255   3.732   1.326   2.062
 3306SOL    HW110256   3.639   1.347   2.031
 3306SOL    HW210257   3.742   1.227   2.075
 3307SOL     OW10258   3.812   1.801   2.789
 3307SOL    HW110259   3.770   1.715   2.762
 3307SOL    HW210260   3.906   1.804   2.755
 3308SOL     OW10261   4.228   1.568   2.772
 3308SOL    HW110262   4.294   1.642   2.781
 3308SOL    HW210263   4.272   1.489   2.730
 3309SOL     OW10264   4.726   0.796   3.100
 3309SOL    HW110265   4.767   0.764   3.186
 3309SOL    HW210266   4.630   0.769   3.097
 3310SOL     OW10267   3.764   0.544   2.976
 3310SOL    HW110268   3.849   0.511   2.935
 3310SOL    HW210269   3.777   0.559   3.074
 3311SOL     OW10270   3.913   0.520   3.584
 3311SOL    HW110271   3.972   0.480   3.514
 3311SOL    HW210272   3.855   0.591   3.543
 3312SOL     OW10273   4.539   0.572   2.187
 3312SOL    HW110274   4.546   0.483   2.141
 3312SOL    HW210275   4.445   0.606   2.179
 3313SOL     OW10276   3.976   1.564   3.606
 3313SOL    HW110277   3.946   1.621   3.682
 3313SOL    HW210278   3.969   1.467   3.632
 3314SOL     OW10279   4.395   0.464   3.131
 3314SOL    HW110280   4.361   0.375   3.101
 3314SOL    HW210281   4.421   0.518   3.051
 3315SOL     OW10282   4.654   1.678   3.327
 3315SOL    HW110283   4.630   1.660   3.232
 3315SOL    HW210284   4.684   1.772   3.337
 3316SOL     OW10285   4.197   0.500   2.053
 3316SOL    HW110286   4.258   0.580   2.057
 3316SOL    HW210287   4.102   0.531   2.060
 3317SOL     OW10288   3.883   1.137   3.328
 3317SOL    HW110289   3.905   1.076   3.404
 3317SOL    HW210290   3.893   1.088   3.242
 3318SOL     OW10291   5.071   1.059   3.096
 3318SOL    HW110292   5.095   0.996   3.022
 3318SOL    HW210293   4.981   1.099   3.078
 3319SOL     OW10294   4.976   1.731   2.990
 3319SOL    HW110295   5.060   1.736   2.936
 3319SOL    HW210296   4.953   1.635   3.008
 3320SOL     OW10297   3.807   1.258   2.884
 3320SOL    HW110298   3.802   1.257   2.984
 3320SOL    HW210299   3.724   1.217   2.846
 3321SOL     OW10300   4.412   1.662   3.578
 3321SOL    HW110301   4.356   1.743   3.587
 3321SOL    HW210302   4.464   1.666   3.492
 3322SOL     OW10303   5.112   1.573   2.339
 3322SOL    HW110304   5.179   1.585   2.265
 3322SOL    HW210305   5.072   1.662   2.362
 3323SOL     OW10306   3.854   1.794   3.713
 3323SOL    HW110307   3.813   1.720   3.766
 3323SOL    HW210308   3.918   1.845   3.771
 3324SOL     OW10309   5.004   0.927   2.534
 3324SOL    HW110310   5.064   0.846   2.536
 3324SOL    HW210311   5.044   0.996   2.474
 3325SOL     OW10312   4.554   1.273   3.284
 3325SOL    HW110313   4.549   1.306   3.379
 3325SOL    HW210314   4.468   1.292   3.238
 3326SOL     OW10315   4.396   1.616   2.016
 3326SOL    HW110316   4.405   1.626   1.917
 3326SOL    HW210317   4.356   1.527   2.037
 3327SOL     OW10318   3.987   0.326   2.582
 3327SOL    HW110319   3.908   0.377   2.548
 3327SOL    HW210320   3.978   0.311   2.680
 3328SOL     OW10321   4.918   1.612   1.893
 3328SOL    HW110322   4.924   1.519   1.930
 3328SOL    HW210323   4.859   1.612   1.813
 3329SOL     OW10324   4.546   1.002   3.234
 3329SOL    HW110325   4.586   1.001   3.142
 3329SOL    HW210326   4.556   1.094   3.274
 3330SOL     OW10327   4.640   0.910   2.153
 3330SOL    HW110328   4.703   0.948   2.085
 3330SOL    HW210329   4.680   0.827   2.192
 3331SOL     OW10330   4.096   1.288   3.352
 3331SOL    HW110331   4.083   1.381   3.318
 3331SOL    HW210332   4.012   1.236   3.339
 3332SOL     OW10333   4.763   1.098   2.558
 3332SOL    HW110334   4.693   1.051   2.612
 3332SOL    HW210335   4.822   1.030   2.515
 3333SOL     OW10336   4.738   0.236   2.833
 3333SOL    HW110337   4.730   0.200   2.740
 3333SOL    HW210338   4.736   0.160   2.898
 3334SOL     OW10339   4.314   1.487   2.353
 3334SOL    HW110340   4.356   1.429   2.283
 3334SOL    HW210341   4.270   1.566   2.309
 3335SOL     OW10342   3.979   1.348   2.152
 3335SOL    HW110343   3.883   1.349   2.125
 3335SOL    HW210344   3.991   1.401   2.236
 3336SOL     OW10345   3.829   1.013   3.588
 3336SOL    HW110346   3.752   0.980   3.642
 3336SOL    HW210347   3.914   0.983   3.630
 3337SOL     OW10348   4.396   0.203   3.351
 3337SOL    HW110349   4.486   0.187   3.311
 3337SOL    HW210350   4.404   0.208   3.450
 3338SOL     OW10351   3.799   0.345   1.895
 3338SOL    HW110352   3.707   0.317   1.866
 3338SOL    HW210353   3.830   0.422   1.839
 3339SOL     OW10354   5.164   0.856   3.260
 3339SOL    HW110355   5.107   0.908   3.197
 3339SOL    HW210356   5.260   0.868   3.236
 3340SOL     OW10357   3.796   0.166   2.180
 3340SOL    HW110358   3.779   0.249   2.126
 3340SOL    HW210359   3.886   0.129   2.158
 3341SOL     OW10360   4.337   0.842   3.293
 3341SOL    HW110361   4.393   0.923   3.276
 3341SOL    HW210362   4.396   0.762   3.296
 3342SOL     OW10363   4.440   0.565   3.570
 3342SOL    HW110364   4.459   0.630   3.644
 3342SOL    HW210365   4.500   0.485   3.579
 3343SOL     OW10366   4.114   1.741   3.422
 3343SOL    HW110367   4.023   1.782   3.420
 3343SOL    HW210368   4.107   1.647   3.454
 3344SOL     OW10369   4.949   0.325   2.311
 3344SOL    HW110370   5.014   0.251   2.300
 3344SOL    HW210371   4.969   0.375   2.395
 3345SOL     OW10372   4.318   0.745   2.514
 3345SOL    HW110373   4.368   0.830   2.495
 3345SOL    HW210374   4.230   0.747   2.466
 3346SOL     OW10375   4.583   1.374   1.878
 3346SOL    HW110376   4.537   1.389   1.966
 3346SOL    HW210377   4.627   1.459   1.848
 3347SOL     OW10378   4.385   1.790   2.815
 3347SOL    HW110379   4.339   1.878   2.802
 3347SOL    HW210380   4.484   1.802   2.808
 3348SOL     OW10381   4.583   0.956   2.723
 3348SOL    HW110382   4.637   0.887   2.771
 3348SOL    HW210383   4.551   1.025   2.789
 3349SOL     OW10384   4.807   0.984   1.949
 3349SOL    HW110385   4.784   1.037   1.867
 3349SOL    HW210386   4.888   0.928   1.930
 3350SOL     OW10387   3.945   1.314   3.706
 3350SOL    HW110388   3.880   1.241   3.685
 3350SOL    HW210389   3.949   1.328   3.804
 3351SOL     OW10390   3.803   1.240   2.515
 3351SOL    HW110391   3.802   1.193   2.603
 3351SOL    HW210392   3.885   1.212   2.464
 3352SOL     OW10393   4.396   1.391   3.486
 3352SOL    HW110394   4.318   1.341   3.524
 3352SOL    HW210395   4.393   1.486   3.517
 3353SOL     OW10396   4.152   0.424   2.382
 3353SOL    HW110397   4.182   0.352   2.320
 3353SOL    HW210398   4.113   0.384   2.465
 3354SOL     OW10399   4.041   0.547   3.142
 3354SOL    HW110400   4.079   0.488   3.214
 3354SOL    HW210401   4.081   0.521   3.054
 3355SOL     OW10402   4.536   1.586   2.549
 3355SOL    HW110403   4.568   1.596   2.455
 3355SOL    HW210404   4.457   1.524   2.551
 3356SOL     OW10405   4.725   0.034   3.016
 3356SOL    HW110406   4.662  -0.038   2.985
 3356SOL    HW210407   4.818  -0.002   3.016
 3357SOL     OW10408   4.494   1.330   2.163
 3357SOL    HW110409   4.448   1.243   2.180
 3357SOL    HW210410   4.585   1.327   2.204
 3358SOL     OW10411   4.342   1.567   3.146
 3358SOL    HW110412   4.337   1.649   3.203
 3358SOL    HW210413   4.431   1.564   3.101
 3359SOL     OW10414   3.763   1.077   2.162
 3359SOL    HW110415   3.862   1.066   2.153
 3359SOL    HW210416   3.723   0.991   2.194
 3360SOL     OW10417   4.599   1.646   2.199
 3360SOL    HW110418   4.522   1.611   2.145
 3360SOL    HW210419   4.567   1.717   2.261
 3361SOL     OW10420   3.954   0.628   3.837
 3361SOL    HW110421   3.861   0.626   3.874
 3361SOL    HW210422   3.955   0.589   3.745
 3362SOL     OW10423   4.293   1.275   4.889
 3362SOL    HW110424   4.200   1.268   4.852
 3362SOL    HW210425   4.304   1.364   4.933
 3363SOL     OW10426   4.859   0.703   4.441
 3363SOL    HW110427   4.916   0.781   4.416
 3363SOL    HW210428   4.799   0.729   4.517
 3364SOL     OW10429   4.492   1.144   4.747
 3364SOL    HW110430   4.414   1.161   4.807
 3364SOL    HW210431   4.526   1.231   4.711
 3365SOL     OW10432   4.409   1.012   4.389
 3365SOL    HW110433   4.478   0.996   4.459
 3365SOL    HW210434   4.336   1.069   4.427
 3366SOL     OW10435   4.059   1.435   4.785
 3366SOL    HW110436   3.981   1.404   4.732
 3366SOL    HW210437   4.117   1.493   4.728
 3367SOL     OW10438   3.955   1.713   4.207
 3367SOL    HW110439   3.989   1.790   4.261
 3367SOL    HW210440   3.999   1.713   4.117
 3368SOL     OW10441   3.954   1.434   4.262
 3368SOL    HW110442   3.928   1.530   4.262
 3368SOL    HW210443   3.883   1.380   4.307
 3369SOL     OW10444   3.964   1.091   4.610
 3369SOL    HW110445   3.978   1.007   4.662
 3369SOL    HW210446   3.909   1.155   4.665
 3370SOL     OW10447   4.344   1.786   5.163
 3370SOL    HW110448   4.252   1.769   5.198
 3370SOL    HW210449   4.372   1.878   5.189
 3371SOL     OW10450   4.330   0.964   3.847
 3371SOL    HW110451   4.337   1.048   3.793
 3371SOL    HW210452   4.376   0.977   3.935
 3372SOL     OW10453   3.846   0.643   4.287
 3372SOL    HW110454   3.801   0.555   4.304
 3372SOL    HW210455   3.845   0.697   4.371
 3373SOL     OW10456   3.751   1.596   3.841
 3373SOL    HW110457   3.732   1.500   3.862
 3373SOL    HW210458   3.718   1.654   3.916
 3374SOL     OW10459   4.337   1.365   4.450
 3374SOL    HW110460   4.288   1.278   4.459
 3374SOL    HW210461   4.314   1.408   4.363
 3375SOL     OW10462   3.921   0.976   4.988
 3375SOL    HW110463   4.010   0.931   4.974
 3375SOL    HW210464   3.848   0.911   4.969
 3376SOL     OW10465   4.322   0.729   3.994
 3376SOL    HW110466   4.346   0.798   3.926
 3376SOL    HW210467   4.244   0.762   4.048
 3377SOL     OW10468   5.005   0.345   4.668
 3377SOL    HW110469   4.919   0.295   4.655
 3377SOL    HW210470   5.067   0.291   4.724
 3378SOL     OW10471   4.715   0.410   4.966
 3378SOL    HW110472   4.638   0.444   5.020
 3378SOL    HW210473   4.681   0.359   4.887
 3379SOL     OW10474   4.765   0.701   4.153
 3379SOL    HW110475   4.791   0.697   4.249
 3379SOL    HW210476   4.680   0.650   4.139
 3380SOL     OW10477   3.800   0.811   4.513
 3380SOL    HW110478   3.899   0.799   4.522
 3380SOL    HW210479   3.776   0.906   4.534
 3381SOL     OW10480   4.589   0.348   3.919
 3381SOL    HW110481   4.648   0.411   3.870
 3381SOL    HW210482   4.608   0.254   3.890
 3382SOL     OW10483   4.732   1.456   4.201
 3382SOL    HW110484   4.686   1.528   4.149
 3382SOL    HW210485   4.728   1.476   4.299
 3383SOL     OW10486   4.075   1.801   4.577
 3383SOL    HW110487   4.125   1.715   4.583
 3383SOL    HW210488   4.140   1.878   4.574
 3384SOL     OW10489   4.045   0.943   3.966
 3384SOL    HW110490   4.127   0.982   3.924
 3384SOL    HW210491   4.018   0.861   3.917
 3385SOL     OW10492   4.835   1.776   3.961
 3385SOL    HW110493   4.775   1.714   4.011
 3385SOL    HW210494   4.866   1.732   3.876
 3386SOL     OW10495   4.188   1.743   4.047
 3386SOL    HW110496   4.221   1.782   4.133
 3386SOL    HW210497   4.264   1.736   3.982
 3387SOL     OW10498   3.973   1.785   4.965
 3387SOL    HW110499   4.030   1.720   5.015
 3387SOL    HW210500   3.957   1.752   4.872
 3388SOL     OW10501   4.664   1.698   4.628
 3388SOL    HW110502   4.744   1.641   4.649
 3388SOL    HW210503   4.615   1.658   4.551
 3389SOL     OW10504   4.106   0.700   4.204
 3389SOL    HW110505   4.151   0.610   4.201
 3389SOL    HW210506   4.012   0.689   4.237
 3390SOL     OW10507   4.338   0.122   3.841
 3390SOL    HW110508   4.436   0.100   3.848
 3390SOL    HW210509   4.307   0.105   3.748
 3391SOL     OW10510   4.527   1.402   4.648
 3391SOL    HW110511   4.617   1.416   4.606
 3391SOL    HW210512   4.456   1.404   4.577
 3392SOL     OW10513   4.646   0.503   4.623
 3392SOL    HW110514   4.621   0.494   4.527
 3392SOL    HW210515   4.694   0.421   4.654
 3393SOL     OW10516   4.021   0.035   3.895
 3393SOL    HW110517   4.070   0.119   3.874
 3393SOL    HW210518   4.083  -0.030   3.940
 3394SOL     OW10519   4.659   0.236   4.204
 3394SOL    HW110520   4.611   0.277   4.126
 3394SOL    HW210521   4.758   0.234   4.185
 3395SOL     OW10522   4.951   1.570   4.517
 3395SOL    HW110523   4.972   1.644   4.452
 3395SOL    HW210524   5.019   1.570   4.590
 3396SOL     OW10525   4.183   1.152   4.465
 3396SOL    HW110526   4.112   1.125   4.530
 3396SOL    HW210527   4.157   1.124   4.372
 3397SOL     OW10528   4.995   1.797   4.315
 3397SOL    HW110529   5.039   1.861   4.251
 3397SOL    HW210530   4.945   1.849   4.385
 3398SOL     OW10531   4.756   0.549   3.740
 3398SOL    HW110532   4.715   0.631   3.701
 3398SOL    HW210533   4.820   0.575   3.813
 3399SOL     OW10534   4.285   0.222   4.871
 3399SOL    HW110535   4.323   0.138   4.908
 3399SOL    HW210536   4.197   0.241   4.915
 3400SOL     OW10537   4.590   0.454   4.366
 3400SOL    HW110538   4.558   0.526   4.304
 3400SOL    HW210539   4.614   0.373   4.313
 3401SOL     OW10540   4.212   1.385   3.898
 3401SOL    HW110541   4.125   1.370   3.945
 3401SOL    HW210542   4.195   1.411   3.803
 3402SOL     OW10543   5.388   1.280   4.381
 3402SOL    HW110544   5.487   1.288   4.395
 3402SOL    HW210545   5.343   1.364   4.412
 3403SOL     OW10546   4.251   0.256   4.052
 3403SOL    HW110547   4.278   0.197   3.977
 3403SOL    HW210548   4.251   0.351   4.021
 3404SOL     OW10549   5.316   1.629   5.349
 3404SOL    HW110550   5.343   1.663   5.259
 3404SOL    HW210551   5.395   1.591   5.395
 3405SOL     OW10552   4.835   1.195   4.824
 3405SOL    HW110553   4.795   1.239   4.905
 3405SOL    HW210554   4.794   1.232   4.741
 3406SOL     OW10555   4.429   1.050   4.092
 3406SOL    HW110556   4.415   1.057   4.191
 3406SOL    HW210557   4.513   0.999   4.074
 3407SOL     OW10558   4.134   0.813   4.975
 3407SOL    HW110559   4.220   0.825   5.025
 3407SOL    HW210560   4.092   0.726   5.002
 3408SOL     OW10561   4.091   1.100   4.225
 3408SOL    HW110562   4.084   1.183   4.169
 3408SOL    HW210563   4.095   1.020   4.165
 3409SOL     OW10564   4.290   0.537   4.589
 3409SOL    HW110565   4.302   0.603   4.515
 3409SOL    HW210566   4.336   0.571   4.672
 3410SOL     OW10567   4.976   1.348   4.112
 3410SOL    HW110568   5.026   1.425   4.152
 3410SOL    HW210569   4.881   1.350   4.144
 3411SOL     OW10570   4.078   1.510   5.053
 3411SOL    HW110571   4.057   1.466   4.966
 3411SOL    HW210572   4.175   1.536   5.056
 3412SOL     OW10573   4.297   0.870   4.753
 3412SOL    HW110574   4.341   0.959   4.744
 3412SOL    HW210575   4.234   0.870   4.830
 3413SOL     OW10576   5.084   0.862   4.769
 3413SOL    HW110577   5.009   0.862   4.703
 3413SOL    HW210578   5.121   0.770   4.778
 3414SOL     OW10579   4.933   0.525   3.999
 3414SOL    HW110580   4.946   0.441   4.053
 3414SOL    HW210581   4.904   0.599   4.059
 3415SOL     OW10582   4.031   0.213   4.955
 3415SOL    HW110583   4.008   0.250   5.045
 3415SOL    HW210584   4.001   0.118   4.949
 3416SOL     OW10585   3.761   1.310   5.006
 3416SOL    HW110586   3.814   1.261   5.074
 3416SOL    HW210587   3.783   1.408   5.011
 3417SOL     OW10588   4.456   0.634   4.788
 3417SOL    HW110589   4.515   0.608   4.712
 3417SOL    HW210590   4.428   0.730   4.777
 3418SOL     OW10591   5.346   0.367   4.098
 3418SOL    HW110592   5.348   0.291   4.162
 3418SOL    HW210593   5.298   0.444   4.138
 3419SOL     OW10594   4.747   0.766   4.690
 3419SOL    HW110595   4.762   0.787   4.786
 3419SOL    HW210596   4.717   0.671   4.681
 3420SOL     OW10597   5.027   0.838   3.766
 3420SOL    HW110598   5.061   0.745   3.781
 3420SOL    HW210599   5.045   0.865   3.671
 3421SOL     OW10600   4.792   1.333   4.573
 3421SOL    HW110601   4.799   1.249   4.518
 3421SOL    HW210602   4.854   1.402   4.537
 3422SOL     OW10603   4.043   0.810   4.673
 3422SOL    HW110604   4.136   0.846   4.678
 3422SOL    HW210605   4.037   0.725   4.725
 3423SOL     OW10606   4.884   0.207   5.201
 3423SOL    HW110607   4.884   0.271   5.278
 3423SOL    HW210608   4.912   0.255   5.118
 3424SOL     OW10609   3.732   1.326   3.924
 3424SOL    HW110610   3.639   1.347   3.893
 3424SOL    HW210611   3.742   1.227   3.937
 3425SOL     OW10612   3.812   1.801   4.651
 3425SOL    HW110613   3.770   1.715   4.624
 3425SOL    HW210614   3.906   1.804   4.617
 3426SOL     OW10615   4.228   1.568   4.634
 3426SOL    HW110616   4.294   1.642   4.643
 3426SOL    HW210617   4.272   1.489   4.592
 3427SOL     OW10618   4.726   0.796   4.962
 3427SOL    HW110619   4.767   0.764   5.048
 3427SOL    HW210620   4.630   0.769   4.959
 3428SOL     OW10621   3.764   0.544   4.838
 3428SOL    HW110622   3.849   0.511   4.797
 3428SOL    HW210623   3.777   0.559   4.936
 3429SOL     OW10624   4.539   0.572   4.049
 3429SOL    HW110625   4.546   0.483   4.003
 3429SOL    HW210626   4.445   0.606   4.041
 3430SOL     OW10627   4.654   1.678   5.189
 3430SOL    HW110628   4.630   1.660   5.094
 3430SOL    HW210629   4.684   1.772   5.199
 3431SOL     OW10630   4.197   0.500   3.915
 3431SOL    HW110631   4.258   0.580   3.919
 3431SOL    HW210632   4.102   0.531   3.922
 3432SOL     OW10633   5.071   1.059   4.958
 3432SOL    HW110634   5.095   0.996   4.884
 3432SOL    HW210635   4.981   1.099   4.940
 3433SOL     OW10636   4.976   1.731   4.852
 3433SOL    HW110637   5.060   1.736   4.798
 3433SOL    HW210638   4.953   1.635   4.870
 3434SOL     OW10639   3.807   1.258   4.746
 3434SOL    HW110640   3.802   1.257   4.846
 3434SOL    HW210641   3.724   1.217   4.708
 3435SOL     OW10642   5.112   1.573   4.201
 3435SOL    HW110643   5.179   1.585   4.127
 3435SOL    HW210644   5.072   1.662   4.224
 3436SOL     OW10645   5.004   0.927   4.396
 3436SOL    HW110646   5.064   0.846   4.398
 3436SOL    HW210647   5.044   0.996   4.336
 3437SOL     OW10648   4.396   1.616   3.878
 3437SOL    HW110649   4.405   1.626   3.779
 3437SOL    HW210650   4.356   1.527   3.899
 3438SOL     OW10651   4.918   1.612   3.755
 3438SOL    HW110652   4.924   1.519   3.792
 3438SOL    HW210653   4.859   1.612   3.675
 3439SOL     OW10654   4.546   1.002   5.096
 3439SOL    HW110655   4.586   1.001   5.004
 3439SOL    HW210656   4.556   1.094   5.136
 3440SOL     OW10657   4.640   0.910   4.015
 3440SOL    HW110658   4.703   0.948   3.947
 3440SOL    HW210659   4.680   0.827   4.054
 3441SOL     OW10660   4.763   1.098   4.420
 3441SOL    HW110661   4.693   1.051   4.474
 3441SOL    HW210662   4.822   1.030   4.377
 3442SOL     OW10663   4.738   0.236   4.695
 3442SOL    HW110664   4.730   0.200   4.602
 3442SOL    HW210665   4.736   0.160   4.760
 3443SOL     OW10666   4.314   1.487   4.215
 3443SOL    HW110667   4.356   1.429   4.145
 3443SOL    HW210668   4.270   1.566   4.171
 3444SOL     OW10669   3.979   1.348   4.014
 3444SOL    HW110670   3.883   1.349   3.987
 3444SOL    HW210671   3.991   1.401   4.098
 3445SOL     OW10672   3.799   0.345   3.757
 3445SOL    HW110673   3.707   0.317   3.728
 3445SOL    HW210674   3.830   0.422   3.701
 3446SOL     OW10675   3.796   0.166   4.042
 3446SOL    HW110676   3.779   0.249   3.988
 3446SOL    HW210677   3.886   0.129   4.020
 3447SOL     OW10678   4.949   0.325   4.173
 3447SOL    HW110679   5.014   0.251   4.162
 3447SOL    HW210680   4.969   0.375   4.257
 3448SOL     OW10681   4.318   0.745   4.376
 3448SOL    HW110682   4.368   0.830   4.357
 3448SOL    HW210683   4.230   0.747   4.328
 3449SOL     OW10684   4.583   1.374   3.740
 3449SOL    HW110685   4.537   1.389   3.828
 3449SOL    HW210686   4.627   1.459   3.710
 3450SOL     OW10687   4.385   1.790   4.677
 3450SOL    HW110688   4.339   1.878   4.664
 3450SOL    HW210689   4.484   1.802   4.670
 3451SOL     OW10690   4.583   0.956   4.585
 3451SOL    HW110691   4.637   0.887   4.633
 3451SOL    HW210692   4.551   1.025   4.651
 3452SOL     OW10693   4.807   0.984   3.811
 3452SOL    HW110694   4.784   1.037   3.729
 3452SOL    HW210695   4.888   0.928   3.792
 3453SOL     OW10696   3.803   1.240   4.377
 3453SOL    HW110697   3.802   1.193   4.465
 3453SOL    HW210698   3.885   1.212   4.326
 3454SOL     OW10699   4.536   1.586   4.411
 3454SOL    HW110700   4.568   1.596   4.317
 3454SOL    HW210701   4.457   1.524   4.413
 3455SOL     OW10702   4.494   1.330   4.025
 3455SOL    HW110703   4.448   1.243   4.042
 3455SOL    HW210704   4.585   1.327   4.066
 3456SOL     OW10705   3.763   1.077   4.024
 3456SOL    HW110706   3.862   1.066   4.015
 3456SOL    HW210707   3.723   0.991   4.056
 3457SOL     OW10708   4.599   1.646   4.061
 3457SOL    HW110709   4.522   1.611   4.007
 3457SOL    HW210710   4.567   1.717   4.123
 3458SOL     OW10711   3.954   2.490   0.113
 3458SOL    HW110712   3.861   2.488   0.150
 3458SOL    HW210713   3.955   2.451   0.021
 3459SOL     OW10714   3.949   2.137   0.996
 3459SOL    HW110715   3.984   2.120   1.088
 3459SOL    HW210716   3.861   2.092   0.984
 3460SOL     OW10717   3.743   2.230   0.647
 3460SOL    HW110718   3.661   2.273   0.686
 3460SOL    HW210719   3.715   2.157   0.584
 3461SOL     OW10720   4.293   3.137   1.165
 3461SOL    HW110721   4.200   3.130   1.128
 3461SOL    HW210722   4.304   3.226   1.209
 3462SOL     OW10723   4.859   2.565   0.717
 3462SOL    HW110724   4.916   2.643   0.692
 3462SOL    HW210725   4.799   2.591   0.793
 3463SOL     OW10726   4.492   3.006   1.023
 3463SOL    HW110727   4.414   3.023   1.083
 3463SOL    HW210728   4.526   3.093   0.987
 3464SOL     OW10729   4.574   2.660   1.823
 3464SOL    HW110730   4.570   2.736   1.888
 3464SOL    HW210731   4.596   2.696   1.732
 3465SOL     OW10732   4.409   2.874   0.665
 3465SOL    HW110733   4.478   2.858   0.735
 3465SOL    HW210734   4.336   2.931   0.703
 3466SOL     OW10735   4.410   3.023   1.803
 3466SOL    HW110736   4.470   3.102   1.817
 3466SOL    HW210737   4.324   3.054   1.762
 3467SOL     OW10738   4.059   3.297   1.061
 3467SOL    HW110739   3.981   3.266   1.008
 3467SOL    HW210740   4.117   3.355   1.004
 3468SOL     OW10741   4.162   2.254   1.499
 3468SOL    HW110742   4.244   2.198   1.508
 3468SOL    HW210743   4.081   2.196   1.503
 3469SOL     OW10744   3.955   3.575   0.483
 3469SOL    HW110745   3.989   3.652   0.537
 3469SOL    HW210746   3.999   3.575   0.393
 3470SOL     OW10747   4.851   3.203   1.690
 3470SOL    HW110748   4.898   3.203   1.778
 3470SOL    HW210749   4.803   3.116   1.679
 3471SOL     OW10750   3.954   3.296   0.538
 3471SOL    HW110751   3.928   3.392   0.538
 3471SOL    HW210752   3.883   3.242   0.583
 3472SOL     OW10753   3.964   2.953   0.886
 3472SOL    HW110754   3.978   2.869   0.938
 3472SOL    HW210755   3.909   3.017   0.941
 3473SOL     OW10756   4.344   3.648   1.439
 3473SOL    HW110757   4.252   3.631   1.474
 3473SOL    HW210758   4.372   3.740   1.465
 3474SOL     OW10759   4.330   2.826   0.123
 3474SOL    HW110760   4.337   2.910   0.069
 3474SOL    HW210761   4.376   2.839   0.211
 3475SOL     OW10762   3.846   2.505   0.563
 3475SOL    HW110763   3.801   2.417   0.580
 3475SOL    HW210764   3.845   2.559   0.647
 3476SOL     OW10765   3.751   3.458   0.117
 3476SOL    HW110766   3.732   3.362   0.138
 3476SOL    HW210767   3.718   3.516   0.192
 3477SOL     OW10768   3.837   2.599   1.597
 3477SOL    HW110769   3.925   2.586   1.642
 3477SOL    HW210770   3.824   2.696   1.575
 3478SOL     OW10771   4.337   3.227   0.726
 3478SOL    HW110772   4.288   3.140   0.735
 3478SOL    HW210773   4.314   3.270   0.639
 3479SOL     OW10774   5.017   3.090   1.423
 3479SOL    HW110775   5.054   3.017   1.365
 3479SOL    HW210776   5.069   3.095   1.508
 3480SOL     OW10777   4.533   1.866   0.502
 3480SOL    HW110778   4.573   1.957   0.493
 3480SOL    HW210779   4.433   1.874   0.508
 3481SOL     OW10780   3.921   2.838   1.264
 3481SOL    HW110781   4.010   2.793   1.250
 3481SOL    HW210782   3.848   2.773   1.245
 3482SOL     OW10783   4.911   3.654   1.616
 3482SOL    HW110784   4.935   3.714   1.540
 3482SOL    HW210785   4.918   3.559   1.586
 3483SOL     OW10786   4.041   2.113   1.801
 3483SOL    HW110787   4.112   2.184   1.807
 3483SOL    HW210788   3.953   2.152   1.829
 3484SOL     OW10789   4.322   2.591   0.270
 3484SOL    HW110790   4.346   2.660   0.202
 3484SOL    HW210791   4.244   2.624   0.324
 3485SOL     OW10792   5.005   2.207   0.944
 3485SOL    HW110793   4.919   2.157   0.931
 3485SOL    HW210794   5.067   2.153   1.000
 3486SOL     OW10795   4.531   2.467   1.465
 3486SOL    HW110796   4.484   2.464   1.554
 3486SOL    HW210797   4.480   2.412   1.399
 3487SOL     OW10798   4.697   2.752   1.572
 3487SOL    HW110799   4.743   2.668   1.543
 3487SOL    HW210800   4.641   2.786   1.497
 3488SOL     OW10801   4.715   2.272   1.242
 3488SOL    HW110802   4.638   2.306   1.296
 3488SOL    HW210803   4.681   2.221   1.163
 3489SOL     OW10804   4.765   2.563   0.429
 3489SOL    HW110805   4.791   2.559   0.525
 3489SOL    HW210806   4.680   2.512   0.415
 3490SOL     OW10807   3.800   2.673   0.789
 3490SOL    HW110808   3.899   2.661   0.798
 3490SOL    HW210809   3.776   2.768   0.810
 3491SOL     OW10810   3.854   3.683   1.571
 3491SOL    HW110811   3.844   3.668   1.670
 3491SOL    HW210812   3.768   3.719   1.535
 3492SOL     OW10813   4.589   2.210   0.195
 3492SOL    HW110814   4.648   2.273   0.146
 3492SOL    HW210815   4.608   2.116   0.166
 3493SOL     OW10816   4.274   2.058   0.885
 3493SOL    HW110817   4.269   2.053   0.985
 3493SOL    HW210818   4.276   2.154   0.856
 3494SOL     OW10819   4.732   3.318   0.477
 3494SOL    HW110820   4.686   3.390   0.425
 3494SOL    HW210821   4.728   3.338   0.575
 3495SOL     OW10822   4.951   3.412   1.506
 3495SOL    HW110823   4.957   3.335   1.570
 3495SOL    HW210824   4.899   3.386   1.426
 3496SOL     OW10825   4.045   2.805   0.242
 3496SOL    HW110826   4.127   2.844   0.200
 3496SOL    HW210827   4.018   2.723   0.193
 3497SOL     OW10828   4.185   3.128   1.727
 3497SOL    HW110829   4.135   3.129   1.641
 3497SOL    HW210830   4.122   3.110   1.803
 3498SOL     OW10831   4.835   3.638   0.237
 3498SOL    HW110832   4.775   3.576   0.287
 3498SOL    HW210833   4.866   3.594   0.152
 3499SOL     OW10834   3.926   2.147   1.498
 3499SOL    HW110835   3.846   2.207   1.485
 3499SOL    HW210836   3.916   2.098   1.584
 3500SOL     OW10837   5.356   3.239   0.081
 3500SOL    HW110838   5.324   3.333   0.071
 3500SOL    HW210839   5.280   3.176   0.069
 3501SOL     OW10840   4.188   3.605   0.323
 3501SOL    HW110841   4.221   3.644   0.409
 3501SOL    HW210842   4.264   3.598   0.258
 3502SOL     OW10843   3.973   3.647   1.241
 3502SOL    HW110844   4.030   3.582   1.291
 3502SOL    HW210845   3.957   3.614   1.148
 3503SOL     OW10846   4.664   3.560   0.904
 3503SOL    HW110847   4.744   3.503   0.925
 3503SOL    HW210848   4.615   3.520   0.827
 3504SOL     OW10849   4.106   2.562   0.480
 3504SOL    HW110850   4.151   2.472   0.477
 3504SOL    HW210851   4.012   2.551   0.513
 3505SOL     OW10852   4.505   2.126   1.749
 3505SOL    HW110853   4.572   2.065   1.792
 3505SOL    HW210854   4.432   2.145   1.814
 3506SOL     OW10855   4.612   3.376   1.195
 3506SOL    HW110856   4.589   3.351   1.101
 3506SOL    HW210857   4.673   3.307   1.234
 3507SOL     OW10858   4.527   3.264   0.924
 3507SOL    HW110859   4.617   3.278   0.882
 3507SOL    HW210860   4.456   3.266   0.853
 3508SOL     OW10861   4.646   2.365   0.899
 3508SOL    HW110862   4.621   2.356   0.803
 3508SOL    HW210863   4.694   2.283   0.930
 3509SOL     OW10864   4.263   1.926   0.512
 3509SOL    HW110865   4.182   1.927   0.570
 3509SOL    HW210866   4.266   2.009   0.457
 3510SOL     OW10867   4.021   1.897   0.171
 3510SOL    HW110868   4.070   1.981   0.150
 3510SOL    HW210869   4.083   1.832   0.216
 3511SOL     OW10870   4.659   2.098   0.480
 3511SOL    HW110871   4.611   2.139   0.402
 3511SOL    HW210872   4.758   2.096   0.461
 3512SOL     OW10873   4.800   2.545   1.464
 3512SOL    HW110874   4.720   2.484   1.467
 3512SOL    HW210875   4.881   2.492   1.440
 3513SOL     OW10876   4.951   3.432   0.793
 3513SOL    HW110877   4.972   3.506   0.728
 3513SOL    HW210878   5.019   3.432   0.866
 3514SOL     OW10879   4.183   3.014   0.741
 3514SOL    HW110880   4.112   2.987   0.806
 3514SOL    HW210881   4.157   2.986   0.648
 3515SOL     OW10882   4.995   3.659   0.591
 3515SOL    HW110883   5.039   3.723   0.527
 3515SOL    HW210884   4.945   3.711   0.661
 3516SOL     OW10885   4.756   2.411   0.016
 3516SOL    HW110886   4.715   2.493  -0.023
 3516SOL    HW210887   4.820   2.437   0.089
 3517SOL     OW10888   3.802   2.418   1.386
 3517SOL    HW110889   3.894   2.417   1.345
 3517SOL    HW210890   3.796   2.492   1.453
 3518SOL     OW10891   4.285   2.084   1.147
 3518SOL    HW110892   4.323   2.000   1.184
 3518SOL    HW210893   4.197   2.103   1.191
 3519SOL     OW10894   4.590   2.316   0.642
 3519SOL    HW110895   4.558   2.388   0.580
 3519SOL    HW210896   4.614   2.235   0.589
 3520SOL     OW10897   4.741   1.901   0.753
 3520SOL    HW110898   4.669   1.906   0.684
 3520SOL    HW210899   4.717   1.832   0.822
 3521SOL     OW10900   4.212   3.247   0.174
 3521SOL    HW110901   4.125   3.232   0.221
 3521SOL    HW210902   4.195   3.273   0.079
 3522SOL     OW10903   5.388   3.142   0.657
 3522SOL    HW110904   5.487   3.150   0.671
 3522SOL    HW210905   5.343   3.226   0.688
 3523SOL     OW10906   4.251   2.118   0.328
 3523SOL    HW110907   4.278   2.059   0.253
 3523SOL    HW210908   4.251   2.213   0.297
 3524SOL     OW10909   4.788   3.209   1.340
 3524SOL    HW110910   4.708   3.186   1.395
 3524SOL    HW210911   4.871   3.183   1.389
 3525SOL     OW10912   4.835   3.057   1.100
 3525SOL    HW110913   4.795   3.101   1.181
 3525SOL    HW210914   4.794   3.094   1.017
 3526SOL     OW10915   4.639   1.951   1.402
 3526SOL    HW110916   4.664   1.931   1.307
 3526SOL    HW210917   4.711   2.007   1.444
 3527SOL     OW10918   4.704   2.978   1.719
 3527SOL    HW110919   4.605   2.984   1.729
 3527SOL    HW210920   4.727   2.898   1.663
 3528SOL     OW10921   4.429   2.912   0.368
 3528SOL    HW110922   4.415   2.919   0.467
 3528SOL    HW210923   4.513   2.861   0.350
 3529SOL     OW10924   4.134   2.675   1.251
 3529SOL    HW110925   4.220   2.687   1.301
 3529SOL    HW210926   4.092   2.588   1.278
 3530SOL     OW10927   4.998   2.248   1.262
 3530SOL    HW110928   5.019   2.322   1.326
 3530SOL    HW210929   4.909   2.265   1.219
 3531SOL     OW10930   3.788   3.426   1.331
 3531SOL    HW110931   3.742   3.508   1.297
 3531SOL    HW210932   3.886   3.445   1.340
 3532SOL     OW10933   4.091   2.962   0.501
 3532SOL    HW110934   4.084   3.045   0.445
 3532SOL    HW210935   4.095   2.882   0.441
 3533SOL     OW10936   4.290   2.399   0.865
 3533SOL    HW110937   4.302   2.465   0.791
 3533SOL    HW210938   4.336   2.433   0.948
 3534SOL     OW10939   4.976   3.210   0.388
 3534SOL    HW110940   5.026   3.287   0.428
 3534SOL    HW210941   4.881   3.212   0.420
 3535SOL     OW10942   4.078   3.372   1.329
 3535SOL    HW110943   4.057   3.328   1.242
 3535SOL    HW210944   4.175   3.398   1.332
 3536SOL     OW10945   4.126   2.613   1.598
 3536SOL    HW110946   4.194   2.668   1.551
 3536SOL    HW210947   4.166   2.525   1.625
 3537SOL     OW10948   4.737   1.967   1.770
 3537SOL    HW110949   4.743   2.052   1.718
 3537SOL    HW210950   4.769   1.891   1.713
 3538SOL     OW10951   4.228   1.912   1.740
 3538SOL    HW110952   4.186   1.855   1.670
 3538SOL    HW210953   4.162   1.981   1.772
 3539SOL     OW10954   4.297   2.732   1.029
 3539SOL    HW110955   4.341   2.821   1.020
 3539SOL    HW210956   4.234   2.732   1.106
 3540SOL     OW10957   5.084   2.724   1.045
 3540SOL    HW110958   5.009   2.724   0.979
 3540SOL    HW210959   5.121   2.632   1.054
 3541SOL     OW10960   4.933   2.387   0.275
 3541SOL    HW110961   4.946   2.303   0.329
 3541SOL    HW210962   4.904   2.461   0.335
 3542SOL     OW10963   4.031   2.075   1.231
 3542SOL    HW110964   4.008   2.112   1.321
 3542SOL    HW210965   4.001   1.980   1.225
 3543SOL     OW10966   3.761   3.172   1.282
 3543SOL    HW110967   3.814   3.123   1.350
 3543SOL    HW210968   3.783   3.270   1.287
 3544SOL     OW10969   4.456   2.496   1.064
 3544SOL    HW110970   4.515   2.470   0.988
 3544SOL    HW210971   4.428   2.592   1.053
 3545SOL     OW10972   4.031   1.925   0.618
 3545SOL    HW110973   4.020   2.019   0.651
 3545SOL    HW210974   4.026   1.862   0.695
 3546SOL     OW10975   5.346   2.229   0.374
 3546SOL    HW110976   5.348   2.153   0.438
 3546SOL    HW210977   5.298   2.306   0.414
 3547SOL     OW10978   4.747   2.628   0.966
 3547SOL    HW110979   4.762   2.649   1.062
 3547SOL    HW210980   4.717   2.533   0.957
 3548SOL     OW10981   4.704   3.435   1.700
 3548SOL    HW110982   4.684   3.479   1.612
 3548SOL    HW210983   4.743   3.344   1.684
 3549SOL     OW10984   4.074   2.760   1.804
 3549SOL    HW110985   4.150   2.804   1.852
 3549SOL    HW210986   4.109   2.713   1.722
 3550SOL     OW10987   5.027   2.700   0.042
 3550SOL    HW110988   5.061   2.607   0.057
 3550SOL    HW210989   5.045   2.727  -0.053
 3551SOL     OW10990   4.792   3.195   0.849
 3551SOL    HW110991   4.799   3.111   0.794
 3551SOL    HW210992   4.854   3.264   0.813
 3552SOL     OW10993   4.043   2.672   0.949
 3552SOL    HW110994   4.136   2.708   0.954
 3552SOL    HW210995   4.037   2.587   1.001
 3553SOL     OW10996   4.063   2.371   1.006
 3553SOL    HW110997   4.011   2.288   0.989
 3553SOL    HW210998   4.140   2.376   0.942
 3554SOL     OW10999   4.862   2.242   1.678
 3554SOL    HW111000   4.817   2.305   1.742
 3554SOL    HW211001   4.955   2.273   1.661
 3555SOL     OW11002   4.884   2.069   1.477
 3555SOL    HW111003   4.884   2.133   1.554
 3555SOL    HW211004   4.912   2.117   1.394
 3556SOL     OW11005   4.228   3.430   0.910
 3556SOL    HW111006   4.294   3.504   0.919
 3556SOL    HW211007   4.272   3.351   0.868
 3557SOL     OW11008   4.726   2.658   1.238
 3557SOL    HW111009   4.767   2.626   1.324
 3557SOL    HW211010   4.630   2.631   1.235
 3558SOL     OW11011   3.764   2.406   1.114
 3558SOL    HW111012   3.849   2.373   1.073
 3558SOL    HW211013   3.777   2.421   1.212
 3559SOL     OW11014   3.913   2.382   1.722
 3559SOL    HW111015   3.972   2.342   1.652
 3559SOL    HW211016   3.855   2.453   1.681
 3560SOL     OW11017   4.539   2.434   0.325
 3560SOL    HW111018   4.546   2.345   0.279
 3560SOL    HW211019   4.445   2.468   0.317
 3561SOL     OW11020   3.976   3.426   1.744
 3561SOL    HW111021   3.946   3.483   1.820
 3561SOL    HW211022   3.969   3.329   1.770
 3562SOL     OW11023   4.395   2.326   1.269
 3562SOL    HW111024   4.361   2.237   1.239
 3562SOL    HW211025   4.421   2.380   1.189
 3563SOL     OW11026   4.654   3.540   1.465
 3563SOL    HW111027   4.630   3.522   1.370
 3563SOL    HW211028   4.684   3.634   1.475
 3564SOL     OW11029   4.197   2.362   0.191
 3564SOL    HW111030   4.258   2.442   0.195
 3564SOL    HW211031   4.102   2.393   0.198
 3565SOL     OW11032   3.883   2.999   1.466
 3565SOL    HW111033   3.905   2.938   1.542
 3565SOL    HW211034   3.893   2.950   1.380
 3566SOL     OW11035   5.071   2.921   1.234
 3566SOL    HW111036   5.095   2.858   1.160
 3566SOL    HW211037   4.981   2.961   1.216
 3567SOL     OW11038   4.976   3.593   1.128
 3567SOL    HW111039   5.060   3.598   1.074
 3567SOL    HW211040   4.953   3.497   1.146
 3568SOL     OW11041   3.807   3.120   1.022
 3568SOL    HW111042   3.802   3.119   1.122
 3568SOL    HW211043   3.724   3.079   0.984
 3569SOL     OW11044   4.412   3.524   1.716
 3569SOL    HW111045   4.356   3.605   1.725
 3569SOL    HW211046   4.464   3.528   1.630
 3570SOL     OW11047   4.627   1.948   0.133
 3570SOL    HW111048   4.678   1.949   0.047
 3570SOL    HW211049   4.683   1.906   0.204
 3571SOL     OW11050   5.112   3.435   0.477
 3571SOL    HW111051   5.179   3.447   0.403
 3571SOL    HW211052   5.072   3.524   0.500
 3572SOL     OW11053   3.854   3.656   1.851
 3572SOL    HW111054   3.813   3.582   1.904
 3572SOL    HW211055   3.918   3.707   1.909
 3573SOL     OW11056   5.004   2.789   0.672
 3573SOL    HW111057   5.064   2.708   0.674
 3573SOL    HW211058   5.044   2.858   0.612
 3574SOL     OW11059   4.554   3.135   1.422
 3574SOL    HW111060   4.549   3.168   1.517
 3574SOL    HW211061   4.468   3.154   1.376
 3575SOL     OW11062   4.396   3.478   0.154
 3575SOL    HW111063   4.405   3.488   0.055
 3575SOL    HW211064   4.356   3.389   0.175
 3576SOL     OW11065   3.987   2.188   0.720
 3576SOL    HW111066   3.908   2.239   0.686
 3576SOL    HW211067   3.978   2.173   0.818
 3577SOL     OW11068   4.918   3.474   0.031
 3577SOL    HW111069   4.924   3.381   0.068
 3577SOL    HW211070   4.859   3.474  -0.049
 3578SOL     OW11071   4.546   2.864   1.372
 3578SOL    HW111072   4.586   2.863   1.280
 3578SOL    HW211073   4.556   2.956   1.412
 3579SOL     OW11074   4.640   2.772   0.291
 3579SOL    HW111075   4.703   2.810   0.223
 3579SOL    HW211076   4.680   2.689   0.330
 3580SOL     OW11077   4.096   3.150   1.490
 3580SOL    HW111078   4.083   3.243   1.456
 3580SOL    HW211079   4.012   3.098   1.477
 3581SOL     OW11080   4.763   2.960   0.696
 3581SOL    HW111081   4.693   2.913   0.750
 3581SOL    HW211082   4.822   2.892   0.653
 3582SOL     OW11083   4.738   2.098   0.971
 3582SOL    HW111084   4.730   2.062   0.878
 3582SOL    HW211085   4.736   2.022   1.036
 3583SOL     OW11086   4.314   3.349   0.491
 3583SOL    HW111087   4.356   3.291   0.421
 3583SOL    HW211088   4.270   3.428   0.447
 3584SOL     OW11089   3.979   3.210   0.290
 3584SOL    HW111090   3.883   3.211   0.263
 3584SOL    HW211091   3.991   3.263   0.374
 3585SOL     OW11092   3.829   2.875   1.726
 3585SOL    HW111093   3.752   2.842   1.780
 3585SOL    HW211094   3.914   2.845   1.768
 3586SOL     OW11095   4.396   2.065   1.489
 3586SOL    HW111096   4.486   2.049   1.449
 3586SOL    HW211097   4.404   2.070   1.588
 3587SOL     OW11098   5.164   2.718   1.398
 3587SOL    HW111099   5.107   2.770   1.335
 3587SOL    HW211100   5.260   2.730   1.374
 3588SOL     OW11101   3.796   2.028   0.318
 3588SOL    HW111102   3.779   2.111   0.264
 3588SOL    HW211103   3.886   1.991   0.296
 3589SOL     OW11104   4.337   2.704   1.431
 3589SOL    HW111105   4.393   2.785   1.414
 3589SOL    HW211106   4.396   2.624   1.434
 3590SOL     OW11107   4.440   2.427   1.708
 3590SOL    HW111108   4.459   2.492   1.782
 3590SOL    HW211109   4.500   2.347   1.717
 3591SOL     OW11110   4.114   3.603   1.560
 3591SOL    HW111111   4.023   3.644   1.558
 3591SOL    HW211112   4.107   3.509   1.592
 3592SOL     OW11113   4.949   2.187   0.449
 3592SOL    HW111114   5.014   2.113   0.438
 3592SOL    HW211115   4.969   2.237   0.533
 3593SOL     OW11116   4.318   2.607   0.652
 3593SOL    HW111117   4.368   2.692   0.633
 3593SOL    HW211118   4.230   2.609   0.604
 3594SOL     OW11119   4.583   3.236   0.016
 3594SOL    HW111120   4.537   3.251   0.104
 3594SOL    HW211121   4.627   3.321  -0.014
 3595SOL     OW11122   4.583   2.818   0.861
 3595SOL    HW111123   4.637   2.749   0.909
 3595SOL    HW211124   4.551   2.887   0.927
 3596SOL     OW11125   4.807   2.846   0.087
 3596SOL    HW111126   4.784   2.899   0.005
 3596SOL    HW211127   4.888   2.790   0.068
 3597SOL     OW11128   3.945   3.176   1.844
 3597SOL    HW111129   3.880   3.103   1.823
 3597SOL    HW211130   3.949   3.190   1.942
 3598SOL     OW11131   3.803   3.102   0.653
 3598SOL    HW111132   3.802   3.055   0.741
 3598SOL    HW211133   3.885   3.074   0.602
 3599SOL     OW11134   4.396   3.253   1.624
 3599SOL    HW111135   4.318   3.203   1.662
 3599SOL    HW211136   4.393   3.348   1.655
 3600SOL     OW11137   4.152   2.286   0.520
 3600SOL    HW111138   4.182   2.214   0.458
 3600SOL    HW211139   4.113   2.246   0.603
 3601SOL     OW11140   4.041   2.409   1.280
 3601SOL    HW111141   4.079   2.350   1.352
 3601SOL    HW211142   4.081   2.383   1.192
 3602SOL     OW11143   4.536   3.448   0.687
 3602SOL    HW111144   4.568   3.458   0.593
 3602SOL    HW211145   4.457   3.386   0.689
 3603SOL     OW11146   4.725   1.896   1.154
 3603SOL    HW111147   4.662   1.824   1.123
 3603SOL    HW211148   4.818   1.860   1.154
 3604SOL     OW11149   4.494   3.192   0.301
 3604SOL    HW111150   4.448   3.105   0.318
 3604SOL    HW211151   4.585   3.189   0.342
 3605SOL     OW11152   4.342   3.429   1.284
 3605SOL    HW111153   4.337   3.511   1.341
 3605SOL    HW211154   4.431   3.426   1.239
 3606SOL     OW11155   3.763   2.939   0.300
 3606SOL    HW111156   3.862   2.928   0.291
 3606SOL    HW211157   3.723   2.853   0.332
 3607SOL     OW11158   4.599   3.508   0.337
 3607SOL    HW111159   4.522   3.473   0.283
 3607SOL    HW211160   4.567   3.579   0.399
 3608SOL     OW11161   3.954   2.490   1.975
 3608SOL    HW111162   3.861   2.488   2.012
 3608SOL    HW211163   3.955   2.451   1.883
 3609SOL     OW11164   3.949   2.137   2.858
 3609SOL    HW111165   3.984   2.120   2.950
 3609SOL    HW211166   3.861   2.092   2.846
 3610SOL     OW11167   3.743   2.230   2.509
 3610SOL    HW111168   3.661   2.273   2.548
 3610SOL    HW211169   3.715   2.157   2.446
 3611SOL     OW11170   4.293   3.137   3.027
 3611SOL    HW111171   4.200   3.130   2.990
 3611SOL    HW211172   4.304   3.226   3.071
 3612SOL     OW11173   4.859   2.565   2.579
 3612SOL    HW111174   4.916   2.643   2.554
 3612SOL    HW211175   4.799   2.591   2.655
 3613SOL     OW11176   4.492   3.006   2.885
 3613SOL    HW111177   4.414   3.023   2.945
 3613SOL    HW211178   4.526   3.093   2.849
 3614SOL     OW11179   4.574   2.660   3.685
 3614SOL    HW111180   4.570   2.736   3.750
 3614SOL    HW211181   4.596   2.696   3.594
 3615SOL     OW11182   4.409   2.874   2.527
 3615SOL    HW111183   4.478   2.858   2.597
 3615SOL    HW211184   4.336   2.931   2.565
 3616SOL     OW11185   4.410   3.023   3.665
 3616SOL    HW111186   4.470   3.102   3.679
 3616SOL    HW211187   4.324   3.054   3.624
 3617SOL     OW11188   4.059   3.297   2.923
 3617SOL    HW111189   3.981   3.266   2.870
 3617SOL    HW211190   4.117   3.355   2.866
 3618SOL     OW11191   4.162   2.254   3.361
 3618SOL    HW111192   4.244   2.198   3.370
 3618SOL    HW211193   4.081   2.196   3.365
 3619SOL     OW11194   3.955   3.575   2.345
 3619SOL    HW111195   3.989   3.652   2.399
 3619SOL    HW211196   3.999   3.575   2.255
 3620SOL     OW11197   4.851   3.203   3.552
 3620SOL    HW111198   4.898   3.203   3.640
 3620SOL    HW211199   4.803   3.116   3.541
 3621SOL     OW11200   3.954   3.296   2.400
 3621SOL    HW111201   3.928   3.392   2.400
 3621SOL    HW211202   3.883   3.242   2.445
 3622SOL     OW11203   4.344   3.648   3.301
 3622SOL    HW111204   4.252   3.631   3.336
 3622SOL    HW211205   4.372   3.740   3.327
 3623SOL     OW11206   4.330   2.826   1.985
 3623SOL    HW111207   4.337   2.910   1.931
 3623SOL    HW211208   4.376   2.839   2.073
 3624SOL     OW11209   3.846   2.505   2.425
 3624SOL    HW111210   3.801   2.417   2.442
 3624SOL    HW211211   3.845   2.559   2.509
 3625SOL     OW11212   3.751   3.458   1.979
 3625SOL    HW111213   3.732   3.362   2.000
 3625SOL    HW211214   3.718   3.516   2.054
 3626SOL     OW11215   3.837   2.599   3.459
 3626SOL    HW111216   3.925   2.586   3.504
 3626SOL    HW211217   3.824   2.696   3.437
 3627SOL     OW11218   4.337   3.227   2.588
 3627SOL    HW111219   4.288   3.140   2.597
 3627SOL    HW211220   4.314   3.270   2.501
 3628SOL     OW11221   5.017   3.090   3.285
 3628SOL    HW111222   5.054   3.017   3.227
 3628SOL    HW211223   5.069   3.095   3.370
 3629SOL     OW11224   4.533   1.866   2.364
 3629SOL    HW111225   4.573   1.957   2.355
 3629SOL    HW211226   4.433   1.874   2.370
 3630SOL     OW11227   4.041   2.113   3.663
 3630SOL    HW111228   4.112   2.184   3.669
 3630SOL    HW211229   3.953   2.152   3.691
 3631SOL     OW11230   4.322   2.591   2.132
 3631SOL    HW111231   4.346   2.660   2.064
 3631SOL    HW211232   4.244   2.624   2.186
 3632SOL     OW11233   5.005   2.207   2.806
 3632SOL    HW111234   4.919   2.157   2.793
 3632SOL    HW211235   5.067   2.153   2.862
 3633SOL     OW11236   4.531   2.467   3.327
 3633SOL    HW111237   4.484   2.464   3.416
 3633SOL    HW211238   4.480   2.412   3.261
 3634SOL     OW11239   4.697   2.752   3.434
 3634SOL    HW111240   4.743   2.668   3.405
 3634SOL    HW211241   4.641   2.786   3.359
 3635SOL     OW11242   4.715   2.272   3.104
 3635SOL    HW111243   4.638   2.306   3.158
 3635SOL    HW211244   4.681   2.221   3.025
 3636SOL     OW11245   4.765   2.563   2.291
 3636SOL    HW111246   4.791   2.559   2.387
 3636SOL    HW211247   4.680   2.512   2.277
 3637SOL     OW11248   3.800   2.673   2.651
 3637SOL    HW111249   3.899   2.661   2.660
 3637SOL    HW211250   3.776   2.768   2.672
 3638SOL     OW11251   3.854   3.683   3.433
 3638SOL    HW111252   3.844   3.668   3.532
 3638SOL    HW211253   3.768   3.719   3.397
 3639SOL     OW11254   4.589   2.210   2.057
 3639SOL    HW111255   4.648   2.273   2.008
 3639SOL    HW211256   4.608   2.116   2.028
 3640SOL     OW11257   4.274   2.058   2.747
 3640SOL    HW111258   4.269   2.053   2.847
 3640SOL    HW211259   4.276   2.154   2.718
 3641SOL     OW11260   4.732   3.318   2.339
 3641SOL    HW111261   4.686   3.390   2.287
 3641SOL    HW211262   4.728   3.338   2.437
 3642SOL     OW11263   4.075   3.663   2.715
 3642SOL    HW111264   4.125   3.577   2.721
 3642SOL    HW211265   4.140   3.740   2.712
 3643SOL     OW11266   4.951   3.412   3.368
 3643SOL    HW111267   4.957   3.335   3.432
 3643SOL    HW211268   4.899   3.386   3.288
 3644SOL     OW11269   4.045   2.805   2.104
 3644SOL    HW111270   4.127   2.844   2.062
 3644SOL    HW211271   4.018   2.723   2.055
 3645SOL     OW11272   4.835   3.638   2.099
 3645SOL    HW111273   4.775   3.576   2.149
 3645SOL    HW211274   4.866   3.594   2.014
 3646SOL     OW11275   3.926   2.147   3.360
 3646SOL    HW111276   3.846   2.207   3.347
 3646SOL    HW211277   3.916   2.098   3.446
 3647SOL     OW11278   4.188   3.605   2.185
 3647SOL    HW111279   4.221   3.644   2.271
 3647SOL    HW211280   4.264   3.598   2.120
 3648SOL     OW11281   3.973   3.647   3.103
 3648SOL    HW111282   4.030   3.582   3.153
 3648SOL    HW211283   3.957   3.614   3.010
 3649SOL     OW11284   4.664   3.560   2.766
 3649SOL    HW111285   4.744   3.503   2.787
 3649SOL    HW211286   4.615   3.520   2.689
 3650SOL     OW11287   4.106   2.562   2.342
 3650SOL    HW111288   4.151   2.472   2.339
 3650SOL    HW211289   4.012   2.551   2.375
 3651SOL     OW11290   4.338   1.984   1.979
 3651SOL    HW111291   4.436   1.962   1.986
 3651SOL    HW211292   4.307   1.967   1.886
 3652SOL     OW11293   4.505   2.126   3.611
 3652SOL    HW111294   4.572   2.065   3.654
 3652SOL    HW211295   4.432   2.145   3.676
 3653SOL     OW11296   4.612   3.376   3.057
 3653SOL    HW111297   4.589   3.351   2.963
 3653SOL    HW211298   4.673   3.307   3.096
 3654SOL     OW11299   4.527   3.264   2.786
 3654SOL    HW111300   4.617   3.278   2.744
 3654SOL    HW211301   4.456   3.266   2.715
 3655SOL     OW11302   4.646   2.365   2.761
 3655SOL    HW111303   4.621   2.356   2.665
 3655SOL    HW211304   4.694   2.283   2.792
 3656SOL     OW11305   4.263   1.926   2.374
 3656SOL    HW111306   4.182   1.927   2.432
 3656SOL    HW211307   4.266   2.009   2.319
 3657SOL     OW11308   4.021   1.897   2.033
 3657SOL    HW111309   4.070   1.981   2.012
 3657SOL    HW211310   4.083   1.832   2.078
 3658SOL     OW11311   4.659   2.098   2.342
 3658SOL    HW111312   4.611   2.139   2.264
 3658SOL    HW211313   4.758   2.096   2.323
 3659SOL     OW11314   4.800   2.545   3.326
 3659SOL    HW111315   4.720   2.484   3.329
 3659SOL    HW211316   4.881   2.492   3.302
 3660SOL     OW11317   4.951   3.432   2.655
 3660SOL    HW111318   4.972   3.506   2.590
 3660SOL    HW211319   5.019   3.432   2.728
 3661SOL     OW11320   4.995   3.659   2.453
 3661SOL    HW111321   5.039   3.723   2.389
 3661SOL    HW211322   4.945   3.711   2.523
 3662SOL     OW11323   4.756   2.411   1.878
 3662SOL    HW111324   4.715   2.493   1.839
 3662SOL    HW211325   4.820   2.437   1.951
 3663SOL     OW11326   3.802   2.418   3.248
 3663SOL    HW111327   3.894   2.417   3.207
 3663SOL    HW211328   3.796   2.492   3.315
 3664SOL     OW11329   4.285   2.084   3.009
 3664SOL    HW111330   4.323   2.000   3.046
 3664SOL    HW211331   4.197   2.103   3.053
 3665SOL     OW11332   4.590   2.316   2.504
 3665SOL    HW111333   4.558   2.388   2.442
 3665SOL    HW211334   4.614   2.235   2.451
 3666SOL     OW11335   4.741   1.901   2.615
 3666SOL    HW111336   4.669   1.906   2.546
 3666SOL    HW211337   4.717   1.832   2.684
 3667SOL     OW11338   4.212   3.247   2.036
 3667SOL    HW111339   4.125   3.232   2.083
 3667SOL    HW211340   4.195   3.273   1.941
 3668SOL     OW11341   5.388   3.142   2.519
 3668SOL    HW111342   5.487   3.150   2.533
 3668SOL    HW211343   5.343   3.226   2.550
 3669SOL     OW11344   4.251   2.118   2.190
 3669SOL    HW111345   4.278   2.059   2.115
 3669SOL    HW211346   4.251   2.213   2.159
 3670SOL     OW11347   4.788   3.209   3.202
 3670SOL    HW111348   4.708   3.186   3.257
 3670SOL    HW211349   4.871   3.183   3.251
 3671SOL     OW11350   4.835   3.057   2.962
 3671SOL    HW111351   4.795   3.101   3.043
 3671SOL    HW211352   4.794   3.094   2.879
 3672SOL     OW11353   4.639   1.951   3.264
 3672SOL    HW111354   4.664   1.931   3.169
 3672SOL    HW211355   4.711   2.007   3.306
 3673SOL     OW11356   4.704   2.978   3.581
 3673SOL    HW111357   4.605   2.984   3.591
 3673SOL    HW211358   4.727   2.898   3.525
 3674SOL     OW11359   4.429   2.912   2.230
 3674SOL    HW111360   4.415   2.919   2.329
 3674SOL    HW211361   4.513   2.861   2.212
 3675SOL     OW11362   4.998   2.248   3.124
 3675SOL    HW111363   5.019   2.322   3.188
 3675SOL    HW211364   4.909   2.265   3.081
 3676SOL     OW11365   3.788   3.426   3.193
 3676SOL    HW111366   3.742   3.508   3.159
 3676SOL    HW211367   3.886   3.445   3.202
 3677SOL     OW11368   4.091   2.962   2.363
 3677SOL    HW111369   4.084   3.045   2.307
 3677SOL    HW211370   4.095   2.882   2.303
 3678SOL     OW11371   4.290   2.399   2.727
 3678SOL    HW111372   4.302   2.465   2.653
 3678SOL    HW211373   4.336   2.433   2.810
 3679SOL     OW11374   4.976   3.210   2.250
 3679SOL    HW111375   5.026   3.287   2.290
 3679SOL    HW211376   4.881   3.212   2.282
 3680SOL     OW11377   4.078   3.372   3.191
 3680SOL    HW111378   4.057   3.328   3.104
 3680SOL    HW211379   4.175   3.398   3.194
 3681SOL     OW11380   4.126   2.613   3.460
 3681SOL    HW111381   4.194   2.668   3.413
 3681SOL    HW211382   4.166   2.525   3.487
 3682SOL     OW11383   4.737   1.967   3.632
 3682SOL    HW111384   4.743   2.052   3.580
 3682SOL    HW211385   4.769   1.891   3.575
 3683SOL     OW11386   4.228   1.912   3.602
 3683SOL    HW111387   4.186   1.855   3.532
 3683SOL    HW211388   4.162   1.981   3.634
 3684SOL     OW11389   4.297   2.732   2.891
 3684SOL    HW111390   4.341   2.821   2.882
 3684SOL    HW211391   4.234   2.732   2.968
 3685SOL     OW11392   5.084   2.724   2.907
 3685SOL    HW111393   5.009   2.724   2.841
 3685SOL    HW211394   5.121   2.632   2.916
 3686SOL     OW11395   4.933   2.387   2.137
 3686SOL    HW111396   4.946   2.303   2.191
 3686SOL    HW211397   4.904   2.461   2.197
 3687SOL     OW11398   4.031   2.075   3.093
 3687SOL    HW111399   4.008   2.112   3.183
 3687SOL    HW211400   4.001   1.980   3.087
 3688SOL     OW11401   3.761   3.172   3.144
 3688SOL    HW111402   3.814   3.123   3.212
 3688SOL    HW211403   3.783   3.270   3.149
 3689SOL     OW11404   4.456   2.496   2.926
 3689SOL    HW111405   4.515   2.470   2.850
 3689SOL    HW211406   4.428   2.592   2.915
 3690SOL     OW11407   4.031   1.925   2.480
 3690SOL    HW111408   4.020   2.019   2.513
 3690SOL    HW211409   4.026   1.862   2.557
 3691SOL     OW11410   5.346   2.229   2.236
 3691SOL    HW111411   5.348   2.153   2.300
 3691SOL    HW211412   5.298   2.306   2.276
 3692SOL     OW11413   4.747   2.628   2.828
 3692SOL    HW111414   4.762   2.649   2.924
 3692SOL    HW211415   4.717   2.533   2.819
 3693SOL     OW11416   4.704   3.435   3.562
 3693SOL    HW111417   4.684   3.479   3.474
 3693SOL    HW211418   4.743   3.344   3.546
 3694SOL     OW11419   5.027   2.700   1.904
 3694SOL    HW111420   5.061   2.607   1.919
 3694SOL    HW211421   5.045   2.727   1.809
 3695SOL     OW11422   4.792   3.195   2.711
 3695SOL    HW111423   4.799   3.111   2.656
 3695SOL    HW211424   4.854   3.264   2.675
 3696SOL     OW11425   4.043   2.672   2.811
 3696SOL    HW111426   4.136   2.708   2.816
 3696SOL    HW211427   4.037   2.587   2.863
 3697SOL     OW11428   4.063   2.371   2.868
 3697SOL    HW111429   4.011   2.288   2.851
 3697SOL    HW211430   4.140   2.376   2.804
 3698SOL     OW11431   4.862   2.242   3.540
 3698SOL    HW111432   4.817   2.305   3.604
 3698SOL    HW211433   4.955   2.273   3.523
 3699SOL     OW11434   4.884   2.069   3.339
 3699SOL    HW111435   4.884   2.133   3.416
 3699SOL    HW211436   4.912   2.117   3.256
 3700SOL     OW11437   3.732   3.188   2.062
 3700SOL    HW111438   3.639   3.209   2.031
 3700SOL    HW211439   3.742   3.089   2.075
 3701SOL     OW11440   3.812   3.663   2.789
 3701SOL    HW111441   3.770   3.577   2.762
 3701SOL    HW211442   3.906   3.666   2.755
 3702SOL     OW11443   4.228   3.430   2.772
 3702SOL    HW111444   4.294   3.504   2.781
 3702SOL    HW211445   4.272   3.351   2.730
 3703SOL     OW11446   4.726   2.658   3.100
 3703SOL    HW111447   4.767   2.626   3.186
 3703SOL    HW211448   4.630   2.631   3.097
 3704SOL     OW11449   3.764   2.406   2.976
 3704SOL    HW111450   3.849   2.373   2.935
 3704SOL    HW211451   3.777   2.421   3.074
 3705SOL     OW11452   3.913   2.382   3.584
 3705SOL    HW111453   3.972   2.342   3.514
 3705SOL    HW211454   3.855   2.453   3.543
 3706SOL     OW11455   4.539   2.434   2.187
 3706SOL    HW111456   4.546   2.345   2.141
 3706SOL    HW211457   4.445   2.468   2.179
 3707SOL     OW11458   3.976   3.426   3.606
 3707SOL    HW111459   3.946   3.483   3.682
 3707SOL    HW211460   3.969   3.329   3.632
 3708SOL     OW11461   4.395   2.326   3.131
 3708SOL    HW111462   4.361   2.237   3.101
 3708SOL    HW211463   4.421   2.380   3.051
 3709SOL     OW11464   4.654   3.540   3.327
 3709SOL    HW111465   4.630   3.522   3.232
 3709SOL    HW211466   4.684   3.634   3.337
 3710SOL     OW11467   4.197   2.362   2.053
 3710SOL    HW111468   4.258   2.442   2.057
 3710SOL    HW211469   4.102   2.393   2.060
 3711SOL     OW11470   5.071   2.921   3.096
 3711SOL    HW111471   5.095   2.858   3.022
 3711SOL    HW211472   4.981   2.961   3.078
 3712SOL     OW11473   4.976   3.593   2.990
 3712SOL    HW111474   5.060   3.598   2.936
 3712SOL    HW211475   4.953   3.497   3.008
 3713SOL     OW11476   3.807   3.120   2.884
 3713SOL    HW111477   3.802   3.119   2.984
 3713SOL    HW211478   3.724   3.079   2.846
 3714SOL     OW11479   4.412   3.524   3.578
 3714SOL    HW111480   4.356   3.605   3.587
 3714SOL    HW211481   4.464   3.528   3.492
 3715SOL     OW11482   5.112   3.435   2.339
 3715SOL    HW111483   5.179   3.447   2.265
 3715SOL    HW211484   5.072   3.524   2.362
 3716SOL     OW11485   3.854   3.656   3.713
 3716SOL    HW111486   3.813   3.582   3.766
 3716SOL    HW211487   3.918   3.707   3.771
 3717SOL     OW11488   5.004   2.789   2.534
 3717SOL    HW111489   5.064   2.708   2.536
 3717SOL    HW211490   5.044   2.858   2.474
 3718SOL     OW11491   4.554   3.135   3.284
 3718SOL    HW111492   4.549   3.168   3.379
 3718SOL    HW211493   4.468   3.154   3.238
 3719SOL     OW11494   4.396   3.478   2.016
 3719SOL    HW111495   4.405   3.488   1.917
 3719SOL    HW211496   4.356   3.389   2.037
 3720SOL     OW11497   3.987   2.188   2.582
 3720SOL    HW111498   3.908   2.239   2.548
 3720SOL    HW211499   3.978   2.173   2.680
 3721SOL     OW11500   4.918   3.474   1.893
 3721SOL    HW111501   4.924   3.381   1.930
 3721SOL    HW211502   4.859   3.474   1.813
 3722SOL     OW11503   4.546   2.864   3.234
 3722SOL    HW111504   4.586   2.863   3.142
 3722SOL    HW211505   4.556   2.956   3.274
 3723SOL     OW11506   4.640   2.772   2.153
 3723SOL    HW111507   4.703   2.810   2.085
 3723SOL    HW211508   4.680   2.689   2.192
 3724SOL     OW11509   4.763   2.960   2.558
 3724SOL    HW111510   4.693   2.913   2.612
 3724SOL    HW211511   4.822   2.892   2.515
 3725SOL     OW11512   4.738   2.098   2.833
 3725SOL    HW111513   4.730   2.062   2.740
 3725SOL    HW211514   4.736   2.022   2.898
 3726SOL     OW11515   4.314   3.349   2.353
 3726SOL    HW111516   4.356   3.291   2.283
 3726SOL    HW211517   4.270   3.428   2.309
 3727SOL     OW11518   3.979   3.210   2.152
 3727SOL    HW111519   3.883   3.211   2.125
 3727SOL    HW211520   3.991   3.263   2.236
 3728SOL     OW11521   4.396   2.065   3.351
 3728SOL    HW111522   4.486   2.049   3.311
 3728SOL    HW211523   4.404   2.070   3.450
 3729SOL     OW11524   3.799   2.207   1.895
 3729SOL    HW111525   3.707   2.179   1.866
 3729SOL    HW211526   3.830   2.284   1.839
 3730SOL     OW11527   5.164   2.718   3.260
 3730SOL    HW111528   5.107   2.770   3.197
 3730SOL    HW211529   5.260   2.730   3.236
 3731SOL     OW11530   3.796   2.028   2.180
 3731SOL    HW111531   3.779   2.111   2.126
 3731SOL    HW211532   3.886   1.991   2.158
 3732SOL     OW11533   4.337   2.704   3.293
 3732SOL    HW111534   4.393   2.785   3.276
 3732SOL    HW211535   4.396   2.624   3.296
 3733SOL     OW11536   4.440   2.427   3.570
 3733SOL    HW111537   4.459   2.492   3.644
 3733SOL    HW211538   4.500   2.347   3.579
 3734SOL     OW11539   4.114   3.603   3.422
 3734SOL    HW111540   4.023   3.644   3.420
 3734SOL    HW211541   4.107   3.509   3.454
 3735SOL     OW11542   4.949   2.187   2.311
 3735SOL    HW111543   5.014   2.113   2.300
 3735SOL    HW211544   4.969   2.237   2.395
 3736SOL     OW11545   4.318   2.607   2.514
 3736SOL    HW111546   4.368   2.692   2.495
 3736SOL    HW211547   4.230   2.609   2.466
 3737SOL     OW11548   4.583   3.236   1.878
 3737SOL    HW111549   4.537   3.251   1.966
 3737SOL    HW211550   4.627   3.321   1.848
 3738SOL     OW11551   4.385   3.652   2.815
 3738SOL    HW111552   4.339   3.740   2.802
 3738SOL    HW211553   4.484   3.664   2.808
 3739SOL     OW11554   4.583   2.818   2.723
 3739SOL    HW111555   4.637   2.749   2.771
 3739SOL    HW211556   4.551   2.887   2.789
 3740SOL     OW11557   4.807   2.846   1.949
 3740SOL    HW111558   4.784   2.899   1.867
 3740SOL    HW211559   4.888   2.790   1.930
 3741SOL     OW11560   3.945   3.176   3.706
 3741SOL    HW111561   3.880   3.103   3.685
 3741SOL    HW211562   3.949   3.190   3.804
 3742SOL     OW11563   3.803   3.102   2.515
 3742SOL    HW111564   3.802   3.055   2.603
 3742SOL    HW211565   3.885   3.074   2.464
 3743SOL     OW11566   4.396   3.253   3.486
 3743SOL    HW111567   4.318   3.203   3.524
 3743SOL    HW211568   4.393   3.348   3.517
 3744SOL     OW11569   4.152   2.286   2.382
 3744SOL    HW111570   4.182   2.214   2.320
 3744SOL    HW211571   4.113   2.246   2.465
 3745SOL     OW11572   4.041   2.409   3.142
 3745SOL    HW111573   4.079   2.350   3.214
 3745SOL    HW211574   4.081   2.383   3.054
 3746SOL     OW11575   4.536   3.448   2.549
 3746SOL    HW111576   4.568   3.458   2.455
 3746SOL    HW211577   4.457   3.386   2.551
 3747SOL     OW11578   4.725   1.896   3.016
 3747SOL    HW111579   4.662   1.824   2.985
 3747SOL    HW211580   4.818   1.860   3.016
 3748SOL     OW11581   4.494   3.192   2.163
 3748SOL    HW111582   4.448   3.105   2.180
 3748SOL    HW211583   4.585   3.189   2.204
 3749SOL     OW11584   4.342   3.429   3.146
 3749SOL    HW111585   4.337   3.511   3.203
 3749SOL    HW211586   4.431   3.426   3.101
 3750SOL     OW11587   5.076   1.914   2.030
 3750SOL    HW111588   5.111   1.873   1.946
 3750SOL    HW211589   4.986   1.876   2.050
 3751SOL     OW11590   3.763   2.939   2.162
 3751SOL    HW111591   3.862   2.928   2.153
 3751SOL    HW211592   3.723   2.853   2.194
 3752SOL     OW11593   4.599   3.508   2.199
 3752SOL    HW111594   4.522   3.473   2.145
 3752SOL    HW211595   4.567   3.579   2.261
 3753SOL     OW11596   3.954   2.490   3.837
 3753SOL    HW111597   3.861   2.488   3.874
 3753SOL    HW211598   3.955   2.451   3.745
 3754SOL     OW11599   3.949   2.137   4.720
 3754SOL    HW111600   3.984   2.120   4.812
 3754SOL    HW211601   3.861   2.092   4.708
 3755SOL     OW11602   3.743   2.230   4.371
 3755SOL    HW111603   3.661   2.273   4.410
 3755SOL    HW211604   3.715   2.157   4.308
 3756SOL     OW11605   4.293   3.137   4.889
 3756SOL    HW111606   4.200   3.130   4.852
 3756SOL    HW211607   4.304   3.226   4.933
 3757SOL     OW11608   4.859   2.565   4.441
 3757SOL    HW111609   4.916   2.643   4.416
 3757SOL    HW211610   4.799   2.591   4.517
 3758SOL     OW11611   4.492   3.006   4.747
 3758SOL    HW111612   4.414   3.023   4.807
 3758SOL    HW211613   4.526   3.093   4.711
 3759SOL     OW11614   4.409   2.874   4.389
 3759SOL    HW111615   4.478   2.858   4.459
 3759SOL    HW211616   4.336   2.931   4.427
 3760SOL     OW11617   4.059   3.297   4.785
 3760SOL    HW111618   3.981   3.266   4.732
 3760SOL    HW211619   4.117   3.355   4.728
 3761SOL     OW11620   3.955   3.575   4.207
 3761SOL    HW111621   3.989   3.652   4.261
 3761SOL    HW211622   3.999   3.575   4.117
 3762SOL     OW11623   3.954   3.296   4.262
 3762SOL    HW111624   3.928   3.392   4.262
 3762SOL    HW211625   3.883   3.242   4.307
 3763SOL     OW11626   3.964   2.953   4.610
 3763SOL    HW111627   3.978   2.869   4.662
 3763SOL    HW211628   3.909   3.017   4.665
 3764SOL     OW11629   4.344   3.648   5.163
 3764SOL    HW111630   4.252   3.631   5.198
 3764SOL    HW211631   4.372   3.740   5.189
 3765SOL     OW11632   4.330   2.826   3.847
 3765SOL    HW111633   4.337   2.910   3.793
 3765SOL    HW211634   4.376   2.839   3.935
 3766SOL     OW11635   3.846   2.505   4.287
 3766SOL    HW111636   3.801   2.417   4.304
 3766SOL    HW211637   3.845   2.559   4.371
 3767SOL     OW11638   3.751   3.458   3.841
 3767SOL    HW111639   3.732   3.362   3.862
 3767SOL    HW211640   3.718   3.516   3.916
 3768SOL     OW11641   4.337   3.227   4.450
 3768SOL    HW111642   4.288   3.140   4.459
 3768SOL    HW211643   4.314   3.270   4.363
 3769SOL     OW11644   4.533   1.866   4.226
 3769SOL    HW111645   4.573   1.957   4.217
 3769SOL    HW211646   4.433   1.874   4.232
 3770SOL     OW11647   3.921   2.838   4.988
 3770SOL    HW111648   4.010   2.793   4.974
 3770SOL    HW211649   3.848   2.773   4.969
 3771SOL     OW11650   4.322   2.591   3.994
 3771SOL    HW111651   4.346   2.660   3.926
 3771SOL    HW211652   4.244   2.624   4.048
 3772SOL     OW11653   5.005   2.207   4.668
 3772SOL    HW111654   4.919   2.157   4.655
 3772SOL    HW211655   5.067   2.153   4.724
 3773SOL     OW11656   4.715   2.272   4.966
 3773SOL    HW111657   4.638   2.306   5.020
 3773SOL    HW211658   4.681   2.221   4.887
 3774SOL     OW11659   4.765   2.563   4.153
 3774SOL    HW111660   4.791   2.559   4.249
 3774SOL    HW211661   4.680   2.512   4.139
 3775SOL     OW11662   3.800   2.673   4.513
 3775SOL    HW111663   3.899   2.661   4.522
 3775SOL    HW211664   3.776   2.768   4.534
 3776SOL     OW11665   4.589   2.210   3.919
 3776SOL    HW111666   4.648   2.273   3.870
 3776SOL    HW211667   4.608   2.116   3.890
 3777SOL     OW11668   4.274   2.058   4.609
 3777SOL    HW111669   4.269   2.053   4.709
 3777SOL    HW211670   4.276   2.154   4.580
 3778SOL     OW11671   4.732   3.318   4.201
 3778SOL    HW111672   4.686   3.390   4.149
 3778SOL    HW211673   4.728   3.338   4.299
 3779SOL     OW11674   4.075   3.663   4.577
 3779SOL    HW111675   4.125   3.577   4.583
 3779SOL    HW211676   4.140   3.740   4.574
 3780SOL     OW11677   4.045   2.805   3.966
 3780SOL    HW111678   4.127   2.844   3.924
 3780SOL    HW211679   4.018   2.723   3.917
 3781SOL     OW11680   4.188   3.605   4.047
 3781SOL    HW111681   4.221   3.644   4.133
 3781SOL    HW211682   4.264   3.598   3.982
 3782SOL     OW11683   3.973   3.647   4.965
 3782SOL    HW111684   4.030   3.582   5.015
 3782SOL    HW211685   3.957   3.614   4.872
 3783SOL     OW11686   4.664   3.560   4.628
 3783SOL    HW111687   4.744   3.503   4.649
 3783SOL    HW211688   4.615   3.520   4.551
 3784SOL     OW11689   4.106   2.562   4.204
 3784SOL    HW111690   4.151   2.472   4.201
 3784SOL    HW211691   4.012   2.551   4.237
 3785SOL     OW11692   4.338   1.984   3.841
 3785SOL    HW111693   4.436   1.962   3.848
 3785SOL    HW211694   4.307   1.967   3.748
 3786SOL     OW11695   4.527   3.264   4.648
 3786SOL    HW111696   4.617   3.278   4.606
 3786SOL    HW211697   4.456   3.266   4.577
 3787SOL     OW11698   4.646   2.365   4.623
 3787SOL    HW111699   4.621   2.356   4.527
 3787SOL    HW211700   4.694   2.283   4.654
 3788SOL     OW11701   4.263   1.926   4.236
 3788SOL    HW111702   4.182   1.927   4.294
 3788SOL    HW211703   4.266   2.009   4.181
 3789SOL     OW11704   4.021   1.897   3.895
 3789SOL    HW111705   4.070   1.981   3.874
 3789SOL    HW211706   4.083   1.832   3.940
 3790SOL     OW11707   4.659   2.098   4.204
 3790SOL    HW111708   4.611   2.139   4.126
 3790SOL    HW211709   4.758   2.096   4.185
 3791SOL     OW11710   4.951   3.432   4.517
 3791SOL    HW111711   4.972   3.506   4.452
 3791SOL    HW211712   5.019   3.432   4.590
 3792SOL     OW11713   4.183   3.014   4.465
 3792SOL    HW111714   4.112   2.987   4.530
 3792SOL    HW211715   4.157   2.986   4.372
 3793SOL     OW11716   4.756   2.411   3.740
 3793SOL    HW111717   4.715   2.493   3.701
 3793SOL    HW211718   4.820   2.437   3.813
 3794SOL     OW11719   4.285   2.084   4.871
 3794SOL    HW111720   4.323   2.000   4.908
 3794SOL    HW211721   4.197   2.103   4.915
 3795SOL     OW11722   4.590   2.316   4.366
 3795SOL    HW111723   4.558   2.388   4.304
 3795SOL    HW211724   4.614   2.235   4.313
 3796SOL     OW11725   4.741   1.901   4.477
 3796SOL    HW111726   4.669   1.906   4.408
 3796SOL    HW211727   4.717   1.832   4.546
 3797SOL     OW11728   4.212   3.247   3.898
 3797SOL    HW111729   4.125   3.232   3.945
 3797SOL    HW211730   4.195   3.273   3.803
 3798SOL     OW11731   5.388   3.142   4.381
 3798SOL    HW111732   5.487   3.150   4.395
 3798SOL    HW211733   5.343   3.226   4.412
 3799SOL     OW11734   4.251   2.118   4.052
 3799SOL    HW111735   4.278   2.059   3.977
 3799SOL    HW211736   4.251   2.213   4.021
 3800SOL     OW11737   5.316   3.491   5.349
 3800SOL    HW111738   5.343   3.525   5.259
 3800SOL    HW211739   5.395   3.453   5.395
 3801SOL     OW11740   4.835   3.057   4.824
 3801SOL    HW111741   4.795   3.101   4.905
 3801SOL    HW211742   4.794   3.094   4.741
 3802SOL     OW11743   4.429   2.912   4.092
 3802SOL    HW111744   4.415   2.919   4.191
 3802SOL    HW211745   4.513   2.861   4.074
 3803SOL     OW11746   4.134   2.675   4.975
 3803SOL    HW111747   4.220   2.687   5.025
 3803SOL    HW211748   4.092   2.588   5.002
 3804SOL     OW11749   4.091   2.962   4.225
 3804SOL    HW111750   4.084   3.045   4.169
 3804SOL    HW211751   4.095   2.882   4.165
 3805SOL     OW11752   4.290   2.399   4.589
 3805SOL    HW111753   4.302   2.465   4.515
 3805SOL    HW211754   4.336   2.433   4.672
 3806SOL     OW11755   4.976   3.210   4.112
 3806SOL    HW111756   5.026   3.287   4.152
 3806SOL    HW211757   4.881   3.212   4.144
 3807SOL     OW11758   4.078   3.372   5.053
 3807SOL    HW111759   4.057   3.328   4.966
 3807SOL    HW211760   4.175   3.398   5.056
 3808SOL     OW11761   4.297   2.732   4.753
 3808SOL    HW111762   4.341   2.821   4.744
 3808SOL    HW211763   4.234   2.732   4.830
 3809SOL     OW11764   5.084   2.724   4.769
 3809SOL    HW111765   5.009   2.724   4.703
 3809SOL    HW211766   5.121   2.632   4.778
 3810SOL     OW11767   4.933   2.387   3.999
 3810SOL    HW111768   4.946   2.303   4.053
 3810SOL    HW211769   4.904   2.461   4.059
 3811SOL     OW11770   4.031   2.075   4.955
 3811SOL    HW111771   4.008   2.112   5.045
 3811SOL    HW211772   4.001   1.980   4.949
 3812SOL     OW11773   3.761   3.172   5.006
 3812SOL    HW111774   3.814   3.123   5.074
 3812SOL    HW211775   3.783   3.270   5.011
 3813SOL     OW11776   4.456   2.496   4.788
 3813SOL    HW111777   4.515   2.470   4.712
 3813SOL    HW211778   4.428   2.592   4.777
 3814SOL     OW11779   4.031   1.925   4.342
 3814SOL    HW111780   4.020   2.019   4.375
 3814SOL    HW211781   4.026   1.862   4.419
 3815SOL     OW11782   5.346   2.229   4.098
 3815SOL    HW111783   5.348   2.153   4.162
 3815SOL    HW211784   5.298   2.306   4.138
 3816SOL     OW11785   4.747   2.628   4.690
 3816SOL    HW111786   4.762   2.649   4.786
 3816SOL    HW211787   4.717   2.533   4.681
 3817SOL     OW11788   5.027   2.700   3.766
 3817SOL    HW111789   5.061   2.607   3.781
 3817SOL    HW211790   5.045   2.727   3.671
 3818SOL     OW11791   4.792   3.195   4.573
 3818SOL    HW111792   4.799   3.111   4.518
 3818SOL    HW211793   4.854   3.264   4.537
 3819SOL     OW11794   4.043   2.672   4.673
 3819SOL    HW111795   4.136   2.708   4.678
 3819SOL    HW211796   4.037   2.587   4.725
 3820SOL     OW11797   4.063   2.371   4.730
 3820SOL    HW111798   4.011   2.288   4.713
 3820SOL    HW211799   4.140   2.376   4.666
 3821SOL     OW11800   4.884   2.069   5.201
 3821SOL    HW111801   4.884   2.133   5.278
 3821SOL    HW211802   4.912   2.117   5.118
 3822SOL     OW11803   3.732   3.188   3.924
 3822SOL    HW111804   3.639   3.209   3.893
 3822SOL    HW211805   3.742   3.089   3.937
 3823SOL     OW11806   3.812   3.663   4.651
 3823SOL    HW111807   3.770   3.577   4.624
 3823SOL    HW211808   3.906   3.666   4.617
 3824SOL     OW11809   4.228   3.430   4.634
 3824SOL    HW111810   4.294   3.504   4.643
 3824SOL    HW211811   4.272   3.351   4.592
 3825SOL     OW11812   4.726   2.658   4.962
 3825SOL    HW111813   4.767   2.626   5.048
 3825SOL    HW211814   4.630   2.631   4.959
 3826SOL     OW11815   3.764   2.406   4.838
 3826SOL    HW111816   3.849   2.373   4.797
 3826SOL    HW211817   3.777   2.421   4.936
 3827SOL     OW11818   4.539   2.434   4.049
 3827SOL    HW111819   4.546   2.345   4.003
 3827SOL    HW211820   4.445   2.468   4.041
 3828SOL     OW11821   4.395   2.326   4.993
 3828SOL    HW111822   4.361   2.237   4.963
 3828SOL    HW211823   4.421   2.380   4.913
 3829SOL     OW11824   4.654   3.540   5.189
 3829SOL    HW111825   4.630   3.522   5.094
 3829SOL    HW211826   4.684   3.634   5.199
 3830SOL     OW11827   4.197   2.362   3.915
 3830SOL    HW111828   4.258   2.442   3.919
 3830SOL    HW211829   4.102   2.393   3.922
 3831SOL     OW11830   5.071   2.921   4.958
 3831SOL    HW111831   5.095   2.858   4.884
 3831SOL    HW211832   4.981   2.961   4.940
 3832SOL     OW11833   4.976   3.593   4.852
 3832SOL    HW111834   5.060   3.598   4.798
 3832SOL    HW211835   4.953   3.497   4.870
 3833SOL     OW11836   3.807   3.120   4.746
 3833SOL    HW111837   3.802   3.119   4.846
 3833SOL    HW211838   3.724   3.079   4.708
 3834SOL     OW11839   5.112   3.435   4.201
 3834SOL    HW111840   5.179   3.447   4.127
 3834SOL    HW211841   5.072   3.524   4.224
 3835SOL     OW11842   5.004   2.789   4.396
 3835SOL    HW111843   5.064   2.708   4.398
 3835SOL    HW211844   5.044   2.858   4.336
 3836SOL     OW11845   4.396   3.478   3.878
 3836SOL    HW111846   4.405   3.488   3.779
 3836SOL    HW211847   4.356   3.389   3.899
 3837SOL     OW11848   3.987   2.188   4.444
 3837SOL    HW111849   3.908   2.239   4.410
 3837SOL    HW211850   3.978   2.173   4.542
 3838SOL     OW11851   4.918   3.474   3.755
 3838SOL    HW111852   4.924   3.381   3.792
 3838SOL    HW211853   4.859   3.474   3.675
 3839SOL     OW11854   4.546   2.864   5.096
 3839SOL    HW111855   4.586   2.863   5.004
 3839SOL    HW211856   4.556   2.956   5.136
 3840SOL     OW11857   4.640   2.772   4.015
 3840SOL    HW111858   4.703   2.810   3.947
 3840SOL    HW211859   4.680   2.689   4.054
 3841SOL     OW11860   4.763   2.960   4.420
 3841SOL    HW111861   4.693   2.913   4.474
 3841SOL    HW211862   4.822   2.892   4.377
 3842SOL     OW11863   4.738   2.098   4.695
 3842SOL    HW111864   4.730   2.062   4.602
 3842SOL    HW211865   4.736   2.022   4.760
 3843SOL     OW11866   4.314   3.349   4.215
 3843SOL    HW111867   4.356   3.291   4.145
 3843SOL    HW211868   4.270   3.428   4.171
 3844SOL     OW11869   3.979   3.210   4.014
 3844SOL    HW111870   3.883   3.211   3.987
 3844SOL    HW211871   3.991   3.263   4.098
 3845SOL     OW11872   3.799   2.207   3.757
 3845SOL    HW111873   3.707   2.179   3.728
 3845SOL    HW211874   3.830   2.284   3.701
 3846SOL     OW11875   3.796   2.028   4.042
 3846SOL    HW111876   3.779   2.111   3.988
 3846SOL    HW211877   3.886   1.991   4.020
 3847SOL     OW11878   4.949   2.187   4.173
 3847SOL    HW111879   5.014   2.113   4.162
 3847SOL    HW211880   4.969   2.237   4.257
 3848SOL     OW11881   4.318   2.607   4.376
 3848SOL    HW111882   4.368   2.692   4.357
 3848SOL    HW211883   4.230   2.609   4.328
 3849SOL     OW11884   4.583   3.236   3.740
 3849SOL    HW111885   4.537   3.251   3.828
 3849SOL    HW211886   4.627   3.321   3.710
 3850SOL     OW11887   4.385   3.652   4.677
 3850SOL    HW111888   4.339   3.740   4.664
 3850SOL    HW211889   4.484   3.664   4.670
 3851SOL     OW11890   4.583   2.818   4.585
 3851SOL    HW111891   4.637   2.749   4.633
 3851SOL    HW211892   4.551   2.887   4.651
 3852SOL     OW11893   4.807   2.846   3.811
 3852SOL    HW111894   4.784   2.899   3.729
 3852SOL    HW211895   4.888   2.790   3.792
 3853SOL     OW11896   3.803   3.102   4.377
 3853SOL    HW111897   3.802   3.055   4.465
 3853SOL    HW211898   3.885   3.074   4.326
 3854SOL     OW11899   4.152   2.286   4.244
 3854SOL    HW111900   4.182   2.214   4.182
 3854SOL    HW211901   4.113   2.246   4.327
 3855SOL     OW11902   4.536   3.448   4.411
 3855SOL    HW111903   4.568   3.458   4.317
 3855SOL    HW211904   4.457   3.386   4.413
 3856SOL     OW11905   4.725   1.896   4.878
 3856SOL    HW111906   4.662   1.824   4.847
 3856SOL    HW211907   4.818   1.860   4.878
 3857SOL     OW11908   4.494   3.192   4.025
 3857SOL    HW111909   4.448   3.105   4.042
 3857SOL    HW211910   4.585   3.189   4.066
 3858SOL     OW11911   5.076   1.914   3.892
 3858SOL    HW111912   5.111   1.873   3.808
 3858SOL    HW211913   4.986   1.876   3.912
 3859SOL     OW11914   3.763   2.939   4.024
 3859SOL    HW111915   3.862   2.928   4.015
 3859SOL    HW211916   3.723   2.853   4.056
 3860SOL     OW11917   4.599   3.508   4.061
 3860SOL    HW111918   4.522   3.473   4.007
 3860SOL    HW211919   4.567   3.579   4.123
 3861SOL     OW11920   3.954   4.352   0.113
 3861SOL    HW111921   3.861   4.350   0.150
 3861SOL    HW211922   3.955   4.313   0.021
 3862SOL     OW11923   3.743   4.092   0.647
 3862SOL    HW111924   3.661   4.135   0.686
 3862SOL    HW211925   3.715   4.019   0.584
 3863SOL     OW11926   4.293   4.999   1.165
 3863SOL    HW111927   4.200   4.992   1.128
 3863SOL    HW211928   4.304   5.088   1.209
 3864SOL     OW11929   4.859   4.427   0.717
 3864SOL    HW111930   4.916   4.505   0.692
 3864SOL    HW211931   4.799   4.453   0.793
 3865SOL     OW11932   4.492   4.868   1.023
 3865SOL    HW111933   4.414   4.885   1.083
 3865SOL    HW211934   4.526   4.955   0.987
 3866SOL     OW11935   4.574   4.522   1.823
 3866SOL    HW111936   4.570   4.598   1.888
 3866SOL    HW211937   4.596   4.558   1.732
 3867SOL     OW11938   4.409   4.736   0.665
 3867SOL    HW111939   4.478   4.720   0.735
 3867SOL    HW211940   4.336   4.793   0.703
 3868SOL     OW11941   4.410   4.885   1.803
 3868SOL    HW111942   4.470   4.964   1.817
 3868SOL    HW211943   4.324   4.916   1.762
 3869SOL     OW11944   4.059   5.159   1.061
 3869SOL    HW111945   3.981   5.128   1.008
 3869SOL    HW211946   4.117   5.217   1.004
 3870SOL     OW11947   4.162   4.116   1.499
 3870SOL    HW111948   4.244   4.060   1.508
 3870SOL    HW211949   4.081   4.058   1.503
 3871SOL     OW11950   3.964   4.815   0.886
 3871SOL    HW111951   3.978   4.731   0.938
 3871SOL    HW211952   3.909   4.879   0.941
 3872SOL     OW11953   4.330   4.688   0.123
 3872SOL    HW111954   4.337   4.772   0.069
 3872SOL    HW211955   4.376   4.701   0.211
 3873SOL     OW11956   3.846   4.367   0.563
 3873SOL    HW111957   3.801   4.279   0.580
 3873SOL    HW211958   3.845   4.421   0.647
 3874SOL     OW11959   3.837   4.461   1.597
 3874SOL    HW111960   3.925   4.448   1.642
 3874SOL    HW211961   3.824   4.558   1.575
 3875SOL     OW11962   5.017   4.952   1.423
 3875SOL    HW111963   5.054   4.879   1.365
 3875SOL    HW211964   5.069   4.957   1.508
 3876SOL     OW11965   4.533   3.728   0.502
 3876SOL    HW111966   4.573   3.819   0.493
 3876SOL    HW211967   4.433   3.736   0.508
 3877SOL     OW11968   3.921   4.700   1.264
 3877SOL    HW111969   4.010   4.655   1.250
 3877SOL    HW211970   3.848   4.635   1.245
 3878SOL     OW11971   4.041   3.975   1.801
 3878SOL    HW111972   4.112   4.046   1.807
 3878SOL    HW211973   3.953   4.014   1.829
 3879SOL     OW11974   4.322   4.453   0.270
 3879SOL    HW111975   4.346   4.522   0.202
 3879SOL    HW211976   4.244   4.486   0.324
 3880SOL     OW11977   5.005   4.069   0.944
 3880SOL    HW111978   4.919   4.019   0.931
 3880SOL    HW211979   5.067   4.015   1.000
 3881SOL     OW11980   4.531   4.329   1.465
 3881SOL    HW111981   4.484   4.326   1.554
 3881SOL    HW211982   4.480   4.274   1.399
 3882SOL     OW11983   4.697   4.614   1.572
 3882SOL    HW111984   4.743   4.530   1.543
 3882SOL    HW211985   4.641   4.648   1.497
 3883SOL     OW11986   4.715   4.134   1.242
 3883SOL    HW111987   4.638   4.168   1.296
 3883SOL    HW211988   4.681   4.083   1.163
 3884SOL     OW11989   4.765   4.425   0.429
 3884SOL    HW111990   4.791   4.421   0.525
 3884SOL    HW211991   4.680   4.374   0.415
 3885SOL     OW11992   3.800   4.535   0.789
 3885SOL    HW111993   3.899   4.523   0.798
 3885SOL    HW211994   3.776   4.630   0.810
 3886SOL     OW11995   4.589   4.072   0.195
 3886SOL    HW111996   4.648   4.135   0.146
 3886SOL    HW211997   4.608   3.978   0.166
 3887SOL     OW11998   4.045   4.667   0.242
 3887SOL    HW111999   4.127   4.706   0.200
 3887SOL    HW212000   4.018   4.585   0.193
 3888SOL     OW12001   3.926   4.009   1.498
 3888SOL    HW112002   3.846   4.069   1.485
 3888SOL    HW212003   3.916   3.960   1.584
 3889SOL     OW12004   4.106   4.424   0.480
 3889SOL    HW112005   4.151   4.334   0.477
 3889SOL    HW212006   4.012   4.413   0.513
 3890SOL     OW12007   4.505   3.988   1.749
 3890SOL    HW112008   4.572   3.927   1.792
 3890SOL    HW212009   4.432   4.007   1.814
 3891SOL     OW12010   4.527   5.126   0.924
 3891SOL    HW112011   4.617   5.140   0.882
 3891SOL    HW212012   4.456   5.128   0.853
 3892SOL     OW12013   4.646   4.227   0.899
 3892SOL    HW112014   4.621   4.218   0.803
 3892SOL    HW212015   4.694   4.145   0.930
 3893SOL     OW12016   4.263   3.788   0.512
 3893SOL    HW112017   4.182   3.789   0.570
 3893SOL    HW212018   4.266   3.871   0.457
 3894SOL     OW12019   4.021   3.759   0.171
 3894SOL    HW112020   4.070   3.843   0.150
 3894SOL    HW212021   4.083   3.694   0.216
 3895SOL     OW12022   4.659   3.960   0.480
 3895SOL    HW112023   4.611   4.001   0.402
 3895SOL    HW212024   4.758   3.958   0.461
 3896SOL     OW12025   4.800   4.407   1.464
 3896SOL    HW112026   4.720   4.346   1.467
 3896SOL    HW212027   4.881   4.354   1.440
 3897SOL     OW12028   4.951   5.294   0.793
 3897SOL    HW112029   4.972   5.368   0.728
 3897SOL    HW212030   5.019   5.294   0.866
 3898SOL     OW12031   4.183   4.876   0.741
 3898SOL    HW112032   4.112   4.849   0.806
 3898SOL    HW212033   4.157   4.848   0.648
 3899SOL     OW12034   4.756   4.273   0.016
 3899SOL    HW112035   4.715   4.355  -0.023
 3899SOL    HW212036   4.820   4.299   0.089
 3900SOL     OW12037   3.802   4.280   1.386
 3900SOL    HW112038   3.894   4.279   1.345
 3900SOL    HW212039   3.796   4.354   1.453
 3901SOL     OW12040   4.590   4.178   0.642
 3901SOL    HW112041   4.558   4.250   0.580
 3901SOL    HW212042   4.614   4.097   0.589
 3902SOL     OW12043   4.741   3.763   0.753
 3902SOL    HW112044   4.669   3.768   0.684
 3902SOL    HW212045   4.717   3.694   0.822
 3903SOL     OW12046   4.251   3.980   0.328
 3903SOL    HW112047   4.278   3.921   0.253
 3903SOL    HW212048   4.251   4.075   0.297
 3904SOL     OW12049   4.639   3.813   1.402
 3904SOL    HW112050   4.664   3.793   1.307
 3904SOL    HW212051   4.711   3.869   1.444
 3905SOL     OW12052   4.704   4.840   1.719
 3905SOL    HW112053   4.605   4.846   1.729
 3905SOL    HW212054   4.727   4.760   1.663
 3906SOL     OW12055   4.429   4.774   0.368
 3906SOL    HW112056   4.415   4.781   0.467
 3906SOL    HW212057   4.513   4.723   0.350
 3907SOL     OW12058   4.998   4.110   1.262
 3907SOL    HW112059   5.019   4.184   1.326
 3907SOL    HW212060   4.909   4.127   1.219
 3908SOL     OW12061   4.091   4.824   0.501
 3908SOL    HW112062   4.084   4.907   0.445
 3908SOL    HW212063   4.095   4.744   0.441
 3909SOL     OW12064   4.290   4.261   0.865
 3909SOL    HW112065   4.302   4.327   0.791
 3909SOL    HW212066   4.336   4.295   0.948
 3910SOL     OW12067   4.976   5.072   0.388
 3910SOL    HW112068   5.026   5.149   0.428
 3910SOL    HW212069   4.881   5.074   0.420
 3911SOL     OW12070   4.126   4.475   1.598
 3911SOL    HW112071   4.194   4.530   1.551
 3911SOL    HW212072   4.166   4.387   1.625
 3912SOL     OW12073   4.737   3.829   1.770
 3912SOL    HW112074   4.743   3.914   1.718
 3912SOL    HW212075   4.769   3.753   1.713
 3913SOL     OW12076   4.228   3.774   1.740
 3913SOL    HW112077   4.186   3.717   1.670
 3913SOL    HW212078   4.162   3.843   1.772
 3914SOL     OW12079   4.297   4.594   1.029
 3914SOL    HW112080   4.341   4.683   1.020
 3914SOL    HW212081   4.234   4.594   1.106
 3915SOL     OW12082   5.084   4.586   1.045
 3915SOL    HW112083   5.009   4.586   0.979
 3915SOL    HW212084   5.121   4.494   1.054
 3916SOL     OW12085   4.933   4.249   0.275
 3916SOL    HW112086   4.946   4.165   0.329
 3916SOL    HW212087   4.904   4.323   0.335
 3917SOL     OW12088   4.456   4.358   1.064
 3917SOL    HW112089   4.515   4.332   0.988
 3917SOL    HW212090   4.428   4.454   1.053
 3918SOL     OW12091   4.031   3.787   0.618
 3918SOL    HW112092   4.020   3.881   0.651
 3918SOL    HW212093   4.026   3.724   0.695
 3919SOL     OW12094   5.346   4.091   0.374
 3919SOL    HW112095   5.348   4.015   0.438
 3919SOL    HW212096   5.298   4.168   0.414
 3920SOL     OW12097   4.747   4.490   0.966
 3920SOL    HW112098   4.762   4.511   1.062
 3920SOL    HW212099   4.717   4.395   0.957
 3921SOL     OW12100   4.074   4.622   1.804
 3921SOL    HW112101   4.150   4.666   1.852
 3921SOL    HW212102   4.109   4.575   1.722
 3922SOL     OW12103   5.027   4.562   0.042
 3922SOL    HW112104   5.061   4.469   0.057
 3922SOL    HW212105   5.045   4.589  -0.053
 3923SOL     OW12106   4.043   4.534   0.949
 3923SOL    HW112107   4.136   4.570   0.954
 3923SOL    HW212108   4.037   4.449   1.001
 3924SOL     OW12109   4.862   4.104   1.678
 3924SOL    HW112110   4.817   4.167   1.742
 3924SOL    HW212111   4.955   4.135   1.661
 3925SOL     OW12112   4.884   3.931   1.477
 3925SOL    HW112113   4.884   3.995   1.554
 3925SOL    HW212114   4.912   3.979   1.394
 3926SOL     OW12115   4.726   4.520   1.238
 3926SOL    HW112116   4.767   4.488   1.324
 3926SOL    HW212117   4.630   4.493   1.235
 3927SOL     OW12118   3.913   4.244   1.722
 3927SOL    HW112119   3.972   4.204   1.652
 3927SOL    HW212120   3.855   4.315   1.681
 3928SOL     OW12121   4.539   4.296   0.325
 3928SOL    HW112122   4.546   4.207   0.279
 3928SOL    HW212123   4.445   4.330   0.317
 3929SOL     OW12124   4.395   4.188   1.269
 3929SOL    HW112125   4.361   4.099   1.239
 3929SOL    HW212126   4.421   4.242   1.189
 3930SOL     OW12127   4.197   4.224   0.191
 3930SOL    HW112128   4.258   4.304   0.195
 3930SOL    HW212129   4.102   4.255   0.198
 3931SOL     OW12130   3.883   4.861   1.466
 3931SOL    HW112131   3.905   4.800   1.542
 3931SOL    HW212132   3.893   4.812   1.380
 3932SOL     OW12133   5.071   4.783   1.234
 3932SOL    HW112134   5.095   4.720   1.160
 3932SOL    HW212135   4.981   4.823   1.216
 3933SOL     OW12136   3.807   4.982   1.022
 3933SOL    HW112137   3.802   4.981   1.122
 3933SOL    HW212138   3.724   4.941   0.984
 3934SOL     OW12139   4.627   3.810   0.133
 3934SOL    HW112140   4.678   3.811   0.047
 3934SOL    HW212141   4.683   3.768   0.204
 3935SOL     OW12142   5.004   4.651   0.672
 3935SOL    HW112143   5.064   4.570   0.674
 3935SOL    HW212144   5.044   4.720   0.612
 3936SOL     OW12145   4.554   4.997   1.422
 3936SOL    HW112146   4.549   5.030   1.517
 3936SOL    HW212147   4.468   5.016   1.376
 3937SOL     OW12148   4.546   4.726   1.372
 3937SOL    HW112149   4.586   4.725   1.280
 3937SOL    HW212150   4.556   4.818   1.412
 3938SOL     OW12151   4.640   4.634   0.291
 3938SOL    HW112152   4.703   4.672   0.223
 3938SOL    HW212153   4.680   4.551   0.330
 3939SOL     OW12154   4.096   5.012   1.490
 3939SOL    HW112155   4.083   5.105   1.456
 3939SOL    HW212156   4.012   4.960   1.477
 3940SOL     OW12157   4.763   4.822   0.696
 3940SOL    HW112158   4.693   4.775   0.750
 3940SOL    HW212159   4.822   4.754   0.653
 3941SOL     OW12160   4.738   3.960   0.971
 3941SOL    HW112161   4.730   3.924   0.878
 3941SOL    HW212162   4.736   3.884   1.036
 3942SOL     OW12163   3.829   4.737   1.726
 3942SOL    HW112164   3.752   4.704   1.780
 3942SOL    HW212165   3.914   4.707   1.768
 3943SOL     OW12166   4.396   3.927   1.489
 3943SOL    HW112167   4.486   3.911   1.449
 3943SOL    HW212168   4.404   3.932   1.588
 3944SOL     OW12169   5.164   4.580   1.398
 3944SOL    HW112170   5.107   4.632   1.335
 3944SOL    HW212171   5.260   4.592   1.374
 3945SOL     OW12172   3.796   3.890   0.318
 3945SOL    HW112173   3.779   3.973   0.264
 3945SOL    HW212174   3.886   3.853   0.296
 3946SOL     OW12175   4.337   4.566   1.431
 3946SOL    HW112176   4.393   4.647   1.414
 3946SOL    HW212177   4.396   4.486   1.434
 3947SOL     OW12178   4.440   4.289   1.708
 3947SOL    HW112179   4.459   4.354   1.782
 3947SOL    HW212180   4.500   4.209   1.717
 3948SOL     OW12181   5.174   4.944   1.633
 3948SOL    HW112182   5.165   4.934   1.732
 3948SOL    HW212183   5.270   4.937   1.607
 3949SOL     OW12184   4.949   4.049   0.449
 3949SOL    HW112185   5.014   3.975   0.438
 3949SOL    HW212186   4.969   4.099   0.533
 3950SOL     OW12187   4.318   4.469   0.652
 3950SOL    HW112188   4.368   4.554   0.633
 3950SOL    HW212189   4.230   4.471   0.604
 3951SOL     OW12190   4.583   4.680   0.861
 3951SOL    HW112191   4.637   4.611   0.909
 3951SOL    HW212192   4.551   4.749   0.927
 3952SOL     OW12193   4.807   4.708   0.087
 3952SOL    HW112194   4.784   4.761   0.005
 3952SOL    HW212195   4.888   4.652   0.068
 3953SOL     OW12196   3.803   4.964   0.653
 3953SOL    HW112197   3.802   4.917   0.741
 3953SOL    HW212198   3.885   4.936   0.602
 3954SOL     OW12199   4.152   4.148   0.520
 3954SOL    HW112200   4.182   4.076   0.458
 3954SOL    HW212201   4.113   4.108   0.603
 3955SOL     OW12202   4.725   3.758   1.154
 3955SOL    HW112203   4.662   3.686   1.123
 3955SOL    HW212204   4.818   3.722   1.154
 3956SOL     OW12205   4.494   5.054   0.301
 3956SOL    HW112206   4.448   4.967   0.318
 3956SOL    HW212207   4.585   5.051   0.342
 3957SOL     OW12208   3.763   4.801   0.300
 3957SOL    HW112209   3.862   4.790   0.291
 3957SOL    HW212210   3.723   4.715   0.332
 3958SOL     OW12211   3.954   4.352   1.975
 3958SOL    HW112212   3.861   4.350   2.012
 3958SOL    HW212213   3.955   4.313   1.883
 3959SOL     OW12214   3.949   3.999   2.858
 3959SOL    HW112215   3.984   3.982   2.950
 3959SOL    HW212216   3.861   3.954   2.846
 3960SOL     OW12217   3.743   4.092   2.509
 3960SOL    HW112218   3.661   4.135   2.548
 3960SOL    HW212219   3.715   4.019   2.446
 3961SOL     OW12220   4.293   4.999   3.027
 3961SOL    HW112221   4.200   4.992   2.990
 3961SOL    HW212222   4.304   5.088   3.071
 3962SOL     OW12223   4.859   4.427   2.579
 3962SOL    HW112224   4.916   4.505   2.554
 3962SOL    HW212225   4.799   4.453   2.655
 3963SOL     OW12226   4.492   4.868   2.885
 3963SOL    HW112227   4.414   4.885   2.945
 3963SOL    HW212228   4.526   4.955   2.849
 3964SOL     OW12229   4.409   4.736   2.527
 3964SOL    HW112230   4.478   4.720   2.597
 3964SOL    HW212231   4.336   4.793   2.565
 3965SOL     OW12232   4.410   4.885   3.665
 3965SOL    HW112233   4.470   4.964   3.679
 3965SOL    HW212234   4.324   4.916   3.624
 3966SOL     OW12235   4.059   5.159   2.923
 3966SOL    HW112236   3.981   5.128   2.870
 3966SOL    HW212237   4.117   5.217   2.866
 3967SOL     OW12238   4.162   4.116   3.361
 3967SOL    HW112239   4.244   4.060   3.370
 3967SOL    HW212240   4.081   4.058   3.365
 3968SOL     OW12241   3.964   4.815   2.748
 3968SOL    HW112242   3.978   4.731   2.800
 3968SOL    HW212243   3.909   4.879   2.803
 3969SOL     OW12244   4.330   4.688   1.985
 3969SOL    HW112245   4.337   4.772   1.931
 3969SOL    HW212246   4.376   4.701   2.073
 3970SOL     OW12247   3.846   4.367   2.425
 3970SOL    HW112248   3.801   4.279   2.442
 3970SOL    HW212249   3.845   4.421   2.509
 3971SOL     OW12250   5.017   4.952   3.285
 3971SOL    HW112251   5.054   4.879   3.227
 3971SOL    HW212252   5.069   4.957   3.370
 3972SOL     OW12253   4.533   3.728   2.364
 3972SOL    HW112254   4.573   3.819   2.355
 3972SOL    HW212255   4.433   3.736   2.370
 3973SOL     OW12256   3.921   4.700   3.126
 3973SOL    HW112257   4.010   4.655   3.112
 3973SOL    HW212258   3.848   4.635   3.107
 3974SOL     OW12259   4.041   3.975   3.663
 3974SOL    HW112260   4.112   4.046   3.669
 3974SOL    HW212261   3.953   4.014   3.691
 3975SOL     OW12262   4.322   4.453   2.132
 3975SOL    HW112263   4.346   4.522   2.064
 3975SOL    HW212264   4.244   4.486   2.186
 3976SOL     OW12265   5.005   4.069   2.806
 3976SOL    HW112266   4.919   4.019   2.793
 3976SOL    HW212267   5.067   4.015   2.862
 3977SOL     OW12268   4.531   4.329   3.327
 3977SOL    HW112269   4.484   4.326   3.416
 3977SOL    HW212270   4.480   4.274   3.261
 3978SOL     OW12271   4.715   4.134   3.104
 3978SOL    HW112272   4.638   4.168   3.158
 3978SOL    HW212273   4.681   4.083   3.025
 3979SOL     OW12274   4.765   4.425   2.291
 3979SOL    HW112275   4.791   4.421   2.387
 3979SOL    HW212276   4.680   4.374   2.277
 3980SOL     OW12277   3.800   4.535   2.651
 3980SOL    HW112278   3.899   4.523   2.660
 3980SOL    HW212279   3.776   4.630   2.672
 3981SOL     OW12280   4.589   4.072   2.057
 3981SOL    HW112281   4.648   4.135   2.008
 3981SOL    HW212282   4.608   3.978   2.028
 3982SOL     OW12283   4.274   3.920   2.747
 3982SOL    HW112284   4.269   3.915   2.847
 3982SOL    HW212285   4.276   4.016   2.718
 3983SOL     OW12286   4.045   4.667   2.104
 3983SOL    HW112287   4.127   4.706   2.062
 3983SOL    HW212288   4.018   4.585   2.055
 3984SOL     OW12289   3.926   4.009   3.360
 3984SOL    HW112290   3.846   4.069   3.347
 3984SOL    HW212291   3.916   3.960   3.446
 3985SOL     OW12292   4.106   4.424   2.342
 3985SOL    HW112293   4.151   4.334   2.339
 3985SOL    HW212294   4.012   4.413   2.375
 3986SOL     OW12295   4.338   3.846   1.979
 3986SOL    HW112296   4.436   3.824   1.986
 3986SOL    HW212297   4.307   3.829   1.886
 3987SOL     OW12298   4.527   5.126   2.786
 3987SOL    HW112299   4.617   5.140   2.744
 3987SOL    HW212300   4.456   5.128   2.715
 3988SOL     OW12301   4.646   4.227   2.761
 3988SOL    HW112302   4.621   4.218   2.665
 3988SOL    HW212303   4.694   4.145   2.792
 3989SOL     OW12304   4.263   3.788   2.374
 3989SOL    HW112305   4.182   3.789   2.432
 3989SOL    HW212306   4.266   3.871   2.319
 3990SOL     OW12307   5.158   4.912   1.903
 3990SOL    HW112308   5.190   4.836   1.960
 3990SOL    HW212309   5.066   4.939   1.933
 3991SOL     OW12310   4.021   3.759   2.033
 3991SOL    HW112311   4.070   3.843   2.012
 3991SOL    HW212312   4.083   3.694   2.078
 3992SOL     OW12313   4.659   3.960   2.342
 3992SOL    HW112314   4.611   4.001   2.264
 3992SOL    HW212315   4.758   3.958   2.323
 3993SOL     OW12316   4.800   4.407   3.326
 3993SOL    HW112317   4.720   4.346   3.329
 3993SOL    HW212318   4.881   4.354   3.302
 3994SOL     OW12319   4.951   5.294   2.655
 3994SOL    HW112320   4.972   5.368   2.590
 3994SOL    HW212321   5.019   5.294   2.728
 3995SOL     OW12322   4.183   4.876   2.603
 3995SOL    HW112323   4.112   4.849   2.668
 3995SOL    HW212324   4.157   4.848   2.510
 3996SOL     OW12325   4.756   4.273   1.878
 3996SOL    HW112326   4.715   4.355   1.839
 3996SOL    HW212327   4.820   4.299   1.951
 3997SOL     OW12328   3.802   4.280   3.248
 3997SOL    HW112329   3.894   4.279   3.207
 3997SOL    HW212330   3.796   4.354   3.315
 3998SOL     OW12331   4.285   3.946   3.009
 3998SOL    HW112332   4.323   3.862   3.046
 3998SOL    HW212333   4.197   3.965   3.053
 3999SOL     OW12334   4.590   4.178   2.504
 3999SOL    HW112335   4.558   4.250   2.442
 3999SOL    HW212336   4.614   4.097   2.451
 4000SOL     OW12337   4.741   3.763   2.615
 4000SOL    HW112338   4.669   3.768   2.546
 4000SOL    HW212339   4.717   3.694   2.684
 4001SOL     OW12340   4.251   3.980   2.190
 4001SOL    HW112341   4.278   3.921   2.115
 4001SOL    HW212342   4.251   4.075   2.159
 4002SOL     OW12343   4.639   3.813   3.264
 4002SOL    HW112344   4.664   3.793   3.169
 4002SOL    HW212345   4.711   3.869   3.306
 4003SOL     OW12346   4.704   4.840   3.581
 4003SOL    HW112347   4.605   4.846   3.591
 4003SOL    HW212348   4.727   4.760   3.525
 4004SOL     OW12349   4.429   4.774   2.230
 4004SOL    HW112350   4.415   4.781   2.329
 4004SOL    HW212351   4.513   4.723   2.212
 4005SOL     OW12352   4.998   4.110   3.124
 4005SOL    HW112353   5.019   4.184   3.188
 4005SOL    HW212354   4.909   4.127   3.081
 4006SOL     OW12355   4.091   4.824   2.363
 4006SOL    HW112356   4.084   4.907   2.307
 4006SOL    HW212357   4.095   4.744   2.303
 4007SOL     OW12358   4.290   4.261   2.727
 4007SOL    HW112359   4.302   4.327   2.653
 4007SOL    HW212360   4.336   4.295   2.810
 4008SOL     OW12361   4.976   5.072   2.250
 4008SOL    HW112362   5.026   5.149   2.290
 4008SOL    HW212363   4.881   5.074   2.282
 4009SOL     OW12364   4.228   3.774   3.602
 4009SOL    HW112365   4.186   3.717   3.532
 4009SOL    HW212366   4.162   3.843   3.634
 4010SOL     OW12367   5.084   4.586   2.907
 4010SOL    HW112368   5.009   4.586   2.841
 4010SOL    HW212369   5.121   4.494   2.916
 4011SOL     OW12370   4.933   4.249   2.137
 4011SOL    HW112371   4.946   4.165   2.191
 4011SOL    HW212372   4.904   4.323   2.197
 4012SOL     OW12373   4.031   3.937   3.093
 4012SOL    HW112374   4.008   3.974   3.183
 4012SOL    HW212375   4.001   3.842   3.087
 4013SOL     OW12376   4.031   3.787   2.480
 4013SOL    HW112377   4.020   3.881   2.513
 4013SOL    HW212378   4.026   3.724   2.557
 4014SOL     OW12379   5.346   4.091   2.236
 4014SOL    HW112380   5.348   4.015   2.300
 4014SOL    HW212381   5.298   4.168   2.276
 4015SOL     OW12382   4.747   4.490   2.828
 4015SOL    HW112383   4.762   4.511   2.924
 4015SOL    HW212384   4.717   4.395   2.819
 4016SOL     OW12385   5.027   4.562   1.904
 4016SOL    HW112386   5.061   4.469   1.919
 4016SOL    HW212387   5.045   4.589   1.809
 4017SOL     OW12388   4.043   4.534   2.811
 4017SOL    HW112389   4.136   4.570   2.816
 4017SOL    HW212390   4.037   4.449   2.863
 4018SOL     OW12391   4.063   4.233   2.868
 4018SOL    HW112392   4.011   4.150   2.851
 4018SOL    HW212393   4.140   4.238   2.804
 4019SOL     OW12394   3.732   5.050   2.062
 4019SOL    HW112395   3.639   5.071   2.031
 4019SOL    HW212396   3.742   4.951   2.075
 4020SOL     OW12397   3.764   4.268   2.976
 4020SOL    HW112398   3.849   4.235   2.935
 4020SOL    HW212399   3.777   4.283   3.074
 4021SOL     OW12400   3.913   4.244   3.584
 4021SOL    HW112401   3.972   4.204   3.514
 4021SOL    HW212402   3.855   4.315   3.543
 4022SOL     OW12403   4.539   4.296   2.187
 4022SOL    HW112404   4.546   4.207   2.141
 4022SOL    HW212405   4.445   4.330   2.179
 4023SOL     OW12406   4.395   4.188   3.131
 4023SOL    HW112407   4.361   4.099   3.101
 4023SOL    HW212408   4.421   4.242   3.051
 4024SOL     OW12409   4.197   4.224   2.053
 4024SOL    HW112410   4.258   4.304   2.057
 4024SOL    HW212411   4.102   4.255   2.060
 4025SOL     OW12412   3.883   4.861   3.328
 4025SOL    HW112413   3.905   4.800   3.404
 4025SOL    HW212414   3.893   4.812   3.242
 4026SOL     OW12415   5.071   4.783   3.096
 4026SOL    HW112416   5.095   4.720   3.022
 4026SOL    HW212417   4.981   4.823   3.078
 4027SOL     OW12418   3.807   4.982   2.884
 4027SOL    HW112419   3.802   4.981   2.984
 4027SOL    HW212420   3.724   4.941   2.846
 4028SOL     OW12421   5.004   4.651   2.534
 4028SOL    HW112422   5.064   4.570   2.536
 4028SOL    HW212423   5.044   4.720   2.474
 4029SOL     OW12424   4.554   4.997   3.284
 4029SOL    HW112425   4.549   5.030   3.379
 4029SOL    HW212426   4.468   5.016   3.238
 4030SOL     OW12427   3.987   4.050   2.582
 4030SOL    HW112428   3.908   4.101   2.548
 4030SOL    HW212429   3.978   4.035   2.680
 4031SOL     OW12430   4.918   5.336   1.893
 4031SOL    HW112431   4.924   5.243   1.930
 4031SOL    HW212432   4.859   5.336   1.813
 4032SOL     OW12433   4.546   4.726   3.234
 4032SOL    HW112434   4.586   4.725   3.142
 4032SOL    HW212435   4.556   4.818   3.274
 4033SOL     OW12436   4.640   4.634   2.153
 4033SOL    HW112437   4.703   4.672   2.085
 4033SOL    HW212438   4.680   4.551   2.192
 4034SOL     OW12439   4.096   5.012   3.352
 4034SOL    HW112440   4.083   5.105   3.318
 4034SOL    HW212441   4.012   4.960   3.339
 4035SOL     OW12442   4.763   4.822   2.558
 4035SOL    HW112443   4.693   4.775   2.612
 4035SOL    HW212444   4.822   4.754   2.515
 4036SOL     OW12445   4.738   3.960   2.833
 4036SOL    HW112446   4.730   3.924   2.740
 4036SOL    HW212447   4.736   3.884   2.898
 4037SOL     OW12448   3.829   4.737   3.588
 4037SOL    HW112449   3.752   4.704   3.642
 4037SOL    HW212450   3.914   4.707   3.630
 4038SOL     OW12451   3.799   4.069   1.895
 4038SOL    HW112452   3.707   4.041   1.866
 4038SOL    HW212453   3.830   4.146   1.839
 4039SOL     OW12454   5.164   4.580   3.260
 4039SOL    HW112455   5.107   4.632   3.197
 4039SOL    HW212456   5.260   4.592   3.236
 4040SOL     OW12457   3.796   3.890   2.180
 4040SOL    HW112458   3.779   3.973   2.126
 4040SOL    HW212459   3.886   3.853   2.158
 4041SOL     OW12460   5.174   4.944   3.495
 4041SOL    HW112461   5.165   4.934   3.594
 4041SOL    HW212462   5.270   4.937   3.469
 4042SOL     OW12463   4.949   4.049   2.311
 4042SOL    HW112464   5.014   3.975   2.300
 4042SOL    HW212465   4.969   4.099   2.395
 4043SOL     OW12466   4.318   4.469   2.514
 4043SOL    HW112467   4.368   4.554   2.495
 4043SOL    HW212468   4.230   4.471   2.466
 4044SOL     OW12469   4.807   4.708   1.949
 4044SOL    HW112470   4.784   4.761   1.867
 4044SOL    HW212471   4.888   4.652   1.930
 4045SOL     OW12472   3.803   4.964   2.515
 4045SOL    HW112473   3.802   4.917   2.603
 4045SOL    HW212474   3.885   4.936   2.464
 4046SOL     OW12475   4.152   4.148   2.382
 4046SOL    HW112476   4.182   4.076   2.320
 4046SOL    HW212477   4.113   4.108   2.465
 4047SOL     OW12478   4.725   3.758   3.016
 4047SOL    HW112479   4.662   3.686   2.985
 4047SOL    HW212480   4.818   3.722   3.016
 4048SOL     OW12481   4.494   5.054   2.163
 4048SOL    HW112482   4.448   4.967   2.180
 4048SOL    HW212483   4.585   5.051   2.204
 4049SOL     OW12484   5.076   3.776   2.030
 4049SOL    HW112485   5.111   3.735   1.946
 4049SOL    HW212486   4.986   3.738   2.050
 4050SOL     OW12487   3.763   4.801   2.162
 4050SOL    HW112488   3.862   4.790   2.153
 4050SOL    HW212489   3.723   4.715   2.194
 4051SOL     OW12490   3.954   4.352   3.837
 4051SOL    HW112491   3.861   4.350   3.874
 4051SOL    HW212492   3.955   4.313   3.745
 4052SOL     OW12493   3.949   3.999   4.720
 4052SOL    HW112494   3.984   3.982   4.812
 4052SOL    HW212495   3.861   3.954   4.708
 4053SOL     OW12496   3.743   4.092   4.371
 4053SOL    HW112497   3.661   4.135   4.410
 4053SOL    HW212498   3.715   4.019   4.308
 4054SOL     OW12499   4.859   4.427   4.441
 4054SOL    HW112500   4.916   4.505   4.416
 4054SOL    HW212501   4.799   4.453   4.517
 4055SOL     OW12502   4.492   4.868   4.747
 4055SOL    HW112503   4.414   4.885   4.807
 4055SOL    HW212504   4.526   4.955   4.711
 4056SOL     OW12505   4.409   4.736   4.389
 4056SOL    HW112506   4.478   4.720   4.459
 4056SOL    HW212507   4.336   4.793   4.427
 4057SOL     OW12508   4.330   4.688   3.847
 4057SOL    HW112509   4.337   4.772   3.793
 4057SOL    HW212510   4.376   4.701   3.935
 4058SOL     OW12511   3.846   4.367   4.287
 4058SOL    HW112512   3.801   4.279   4.304
 4058SOL    HW212513   3.845   4.421   4.371
 4059SOL     OW12514   4.533   3.728   4.226
 4059SOL    HW112515   4.573   3.819   4.217
 4059SOL    HW212516   4.433   3.736   4.232
 4060SOL     OW12517   3.921   4.700   4.988
 4060SOL    HW112518   4.010   4.655   4.974
 4060SOL    HW212519   3.848   4.635   4.969
 4061SOL     OW12520   5.005   4.069   4.668
 4061SOL    HW112521   4.919   4.019   4.655
 4061SOL    HW212522   5.067   4.015   4.724
 4062SOL     OW12523   4.715   4.134   4.966
 4062SOL    HW112524   4.638   4.168   5.020
 4062SOL    HW212525   4.681   4.083   4.887
 4063SOL     OW12526   4.765   4.425   4.153
 4063SOL    HW112527   4.791   4.421   4.249
 4063SOL    HW212528   4.680   4.374   4.139
 4064SOL     OW12529   3.800   4.535   4.513
 4064SOL    HW112530   3.899   4.523   4.522
 4064SOL    HW212531   3.776   4.630   4.534
 4065SOL     OW12532   4.274   3.920   4.609
 4065SOL    HW112533   4.269   3.915   4.709
 4065SOL    HW212534   4.276   4.016   4.580
 4066SOL     OW12535   4.045   4.667   3.966
 4066SOL    HW112536   4.127   4.706   3.924
 4066SOL    HW212537   4.018   4.585   3.917
 4067SOL     OW12538   4.106   4.424   4.204
 4067SOL    HW112539   4.151   4.334   4.201
 4067SOL    HW212540   4.012   4.413   4.237
 4068SOL     OW12541   4.338   3.846   3.841
 4068SOL    HW112542   4.436   3.824   3.848
 4068SOL    HW212543   4.307   3.829   3.748
 4069SOL     OW12544   4.646   4.227   4.623
 4069SOL    HW112545   4.621   4.218   4.527
 4069SOL    HW212546   4.694   4.145   4.654
 4070SOL     OW12547   4.263   3.788   4.236
 4070SOL    HW112548   4.182   3.789   4.294
 4070SOL    HW212549   4.266   3.871   4.181
 4071SOL     OW12550   5.158   4.912   3.765
 4071SOL    HW112551   5.190   4.836   3.822
 4071SOL    HW212552   5.066   4.939   3.795
 4072SOL     OW12553   4.021   3.759   3.895
 4072SOL    HW112554   4.070   3.843   3.874
 4072SOL    HW212555   4.083   3.694   3.940
 4073SOL     OW12556   4.659   3.960   4.204
 4073SOL    HW112557   4.611   4.001   4.126
 4073SOL    HW212558   4.758   3.958   4.185
 4074SOL     OW12559   4.951   5.294   4.517
 4074SOL    HW112560   4.972   5.368   4.452
 4074SOL    HW212561   5.019   5.294   4.590
 4075SOL     OW12562   4.183   4.876   4.465
 4075SOL    HW112563   4.112   4.849   4.530
 4075SOL    HW212564   4.157   4.848   4.372
 4076SOL     OW12565   4.285   3.946   4.871
 4076SOL    HW112566   4.323   3.862   4.908
 4076SOL    HW212567   4.197   3.965   4.915
 4077SOL     OW12568   4.590   4.178   4.366
 4077SOL    HW112569   4.558   4.250   4.304
 4077SOL    HW212570   4.614   4.097   4.313
 4078SOL     OW12571   4.741   3.763   4.477
 4078SOL    HW112572   4.669   3.768   4.408
 4078SOL    HW212573   4.717   3.694   4.546
 4079SOL     OW12574   4.251   3.980   4.052
 4079SOL    HW112575   4.278   3.921   3.977
 4079SOL    HW212576   4.251   4.075   4.021
 4080SOL     OW12577   4.429   4.774   4.092
 4080SOL    HW112578   4.415   4.781   4.191
 4080SOL    HW212579   4.513   4.723   4.074
 4081SOL     OW12580   4.134   4.537   4.975
 4081SOL    HW112581   4.220   4.549   5.025
 4081SOL    HW212582   4.092   4.450   5.002
 4082SOL     OW12583   4.091   4.824   4.225
 4082SOL    HW112584   4.084   4.907   4.169
 4082SOL    HW212585   4.095   4.744   4.165
 4083SOL     OW12586   4.290   4.261   4.589
 4083SOL    HW112587   4.302   4.327   4.515
 4083SOL    HW212588   4.336   4.295   4.672
 4084SOL     OW12589   4.976   5.072   4.112
 4084SOL    HW112590   5.026   5.149   4.152
 4084SOL    HW212591   4.881   5.074   4.144
 4085SOL     OW12592   4.297   4.594   4.753
 4085SOL    HW112593   4.341   4.683   4.744
 4085SOL    HW212594   4.234   4.594   4.830
 4086SOL     OW12595   5.084   4.586   4.769
 4086SOL    HW112596   5.009   4.586   4.703
 4086SOL    HW212597   5.121   4.494   4.778
 4087SOL     OW12598   4.933   4.249   3.999
 4087SOL    HW112599   4.946   4.165   4.053
 4087SOL    HW212600   4.904   4.323   4.059
 4088SOL     OW12601   4.031   3.937   4.955
 4088SOL    HW112602   4.008   3.974   5.045
 4088SOL    HW212603   4.001   3.842   4.949
 4089SOL     OW12604   4.456   4.358   4.788
 4089SOL    HW112605   4.515   4.332   4.712
 4089SOL    HW212606   4.428   4.454   4.777
 4090SOL     OW12607   4.031   3.787   4.342
 4090SOL    HW112608   4.020   3.881   4.375
 4090SOL    HW212609   4.026   3.724   4.419
 4091SOL     OW12610   4.747   4.490   4.690
 4091SOL    HW112611   4.762   4.511   4.786
 4091SOL    HW212612   4.717   4.395   4.681
 4092SOL     OW12613   5.027   4.562   3.766
 4092SOL    HW112614   5.061   4.469   3.781
 4092SOL    HW212615   5.045   4.589   3.671
 4093SOL     OW12616   4.043   4.534   4.673
 4093SOL    HW112617   4.136   4.570   4.678
 4093SOL    HW212618   4.037   4.449   4.725
 4094SOL     OW12619   4.063   4.233   4.730
 4094SOL    HW112620   4.011   4.150   4.713
 4094SOL    HW212621   4.140   4.238   4.666
 4095SOL     OW12622   4.884   3.931   5.201
 4095SOL    HW112623   4.884   3.995   5.278
 4095SOL    HW212624   4.912   3.979   5.118
 4096SOL     OW12625   3.732   5.050   3.924
 4096SOL    HW112626   3.639   5.071   3.893
 4096SOL    HW212627   3.742   4.951   3.937
 4097SOL     OW12628   4.726   4.520   4.962
 4097SOL    HW112629   4.767   4.488   5.048
 4097SOL    HW212630   4.630   4.493   4.959
 4098SOL     OW12631   3.764   4.268   4.838
 4098SOL    HW112632   3.849   4.235   4.797
 4098SOL    HW212633   3.777   4.283   4.936
 4099SOL     OW12634   4.539   4.296   4.049
 4099SOL    HW112635   4.546   4.207   4.003
 4099SOL    HW212636   4.445   4.330   4.041
 4100SOL     OW12637   4.395   4.188   4.993
 4100SOL    HW112638   4.361   4.099   4.963
 4100SOL    HW212639   4.421   4.242   4.913
 4101SOL     OW12640   4.197   4.224   3.915
 4101SOL    HW112641   4.258   4.304   3.919
 4101SOL    HW212642   4.102   4.255   3.922
 4102SOL     OW12643   5.071   4.783   4.958
 4102SOL    HW112644   5.095   4.720   4.884
 4102SOL    HW212645   4.981   4.823   4.940
 4103SOL     OW12646   5.004   4.651   4.396
 4103SOL    HW112647   5.064   4.570   4.398
 4103SOL    HW212648   5.044   4.720   4.336
 4104SOL     OW12649   3.987   4.050   4.444
 4104SOL    HW112650   3.908   4.101   4.410
 4104SOL    HW212651   3.978   4.035   4.542
 4105SOL     OW12652   4.918   5.336   3.755
 4105SOL    HW112653   4.924   5.243   3.792
 4105SOL    HW212654   4.859   5.336   3.675
 4106SOL     OW12655   4.546   4.726   5.096
 4106SOL    HW112656   4.586   4.725   5.004
 4106SOL    HW212657   4.556   4.818   5.136
 4107SOL     OW12658   4.640   4.634   4.015
 4107SOL    HW112659   4.703   4.672   3.947
 4107SOL    HW212660   4.680   4.551   4.054
 4108SOL     OW12661   4.763   4.822   4.420
 4108SOL    HW112662   4.693   4.775   4.474
 4108SOL    HW212663   4.822   4.754   4.377
 4109SOL     OW12664   4.738   3.960   4.695
 4109SOL    HW112665   4.730   3.924   4.602
 4109SOL    HW212666   4.736   3.884   4.760
 4110SOL     OW12667   3.799   4.069   3.757
 4110SOL    HW112668   3.707   4.041   3.728
 4110SOL    HW212669   3.830   4.146   3.701
 4111SOL     OW12670   3.796   3.890   4.042
 4111SOL    HW112671   3.779   3.973   3.988
 4111SOL    HW212672   3.886   3.853   4.020
 4112SOL     OW12673   4.949   4.049   4.173
 4112SOL    HW112674   5.014   3.975   4.162
 4112SOL    HW212675   4.969   4.099   4.257
 4113SOL     OW12676   4.318   4.469   4.376
 4113SOL    HW112677   4.368   4.554   4.357
 4113SOL    HW212678   4.230   4.471   4.328
 4114SOL     OW12679   4.583   4.680   4.585
 4114SOL    HW112680   4.637   4.611   4.633
 4114SOL    HW212681   4.551   4.749   4.651
 4115SOL     OW12682   4.807   4.708   3.811
 4115SOL    HW112683   4.784   4.761   3.729
 4115SOL    HW212684   4.888   4.652   3.792
 4116SOL     OW12685   3.803   4.964   4.377
 4116SOL    HW112686   3.802   4.917   4.465
 4116SOL    HW212687   3.885   4.936   4.326
 4117SOL     OW12688   4.152   4.148   4.244
 4117SOL    HW112689   4.182   4.076   4.182
 4117SOL    HW212690   4.113   4.108   4.327
 4118SOL     OW12691   4.725   3.758   4.878
 4118SOL    HW112692   4.662   3.686   4.847
 4118SOL    HW212693   4.818   3.722   4.878
 4119SOL     OW12694   4.494   5.054   4.025
 4119SOL    HW112695   4.448   4.967   4.042
 4119SOL    HW212696   4.585   5.051   4.066
 4120SOL     OW12697   3.763   4.801   4.024
 4120SOL    HW112698   3.862   4.790   4.015
 4120SOL    HW212699   3.723   4.715   4.056
   5.08970   5.08970   5.08970
