UNITED ATOM STRUCTURE FOR MOLECULE UNK
12270
    0X2IT   H18    1   3.092   2.352   2.583
    0X2IT    N4    2   3.026   2.419   2.548
    0X2IT   H17    3   3.059   2.484   2.478
    0X2IT   C14    4   2.895   2.380   2.546
    0X2IT    O5    5   2.849   2.285   2.607
    0X2IT    O4    6   2.822   2.466   2.469
    0X2IT   C13    7   2.680   2.441   2.463
    0X2IT   C10    8   2.607   2.502   2.584
    0X2IT    C9    9   2.457   2.484   2.578
    0X2IT    C4   10   2.394   2.607   2.582
    0X2IT    C5   11   2.245   2.625   2.577
    0X2IT    O1   12   2.197   2.739   2.585
    0X2IT    C6   13   2.166   2.505   2.564
    0X2IT   C12   14   2.015   2.516   2.558
    0X2IT    C7   15   2.229   2.382   2.561
    0X2IT    C8   16   2.381   2.365   2.567
    0X2IT    O2   17   2.427   2.250   2.559
    0X2IT    N3   18   2.164   2.265   2.551
    0X2IT   H15   19   2.064   2.258   2.544
    0X2IT   H16   20   2.221   2.180   2.548
    0X2IT    N2   21   2.482   2.709   2.599
    0X2IT    C3   22   2.473   2.846   2.546
    0X2IT    C2   23   2.599   2.856   2.461
    0X2IT    H2   24   2.639   2.954   2.435
    0X2IT    N1   25   2.611   2.744   2.365
    0X2IT   H14   26   2.674   2.771   2.289
    0X2IT    C1   27   2.688   2.741   2.491
    0X2IT    H1   28   2.796   2.748   2.490
    0X2IT   C11   29   2.622   2.658   2.600
    0X2IT    O3   30   2.691   2.695   2.718
    0X2IT   C15   31   2.628   2.664   2.843
    1X2IT   H18   32  -0.323   1.864   3.339
    1X2IT    N4   33  -0.228   1.835   3.344
    1X2IT   H17   34  -0.160   1.888   3.291
    1X2IT   C14   35  -0.189   1.777   3.462
    1X2IT    O5   36  -0.264   1.733   3.547
    1X2IT    O4   37  -0.052   1.771   3.468
    1X2IT   C13   38   0.003   1.706   3.584
    1X2IT   C10   39   0.006   1.553   3.567
    1X2IT    C9   40   0.070   1.481   3.683
    1X2IT    C4   41   0.178   1.406   3.640
    1X2IT    C5   42   0.264   1.323   3.731
    1X2IT    O1   43   0.356   1.255   3.683
    1X2IT    C6   44   0.232   1.326   3.871
    1X2IT   C12   45   0.315   1.245   3.969
    1X2IT    C7   46   0.124   1.401   3.914
    1X2IT    C8   47   0.036   1.485   3.821
    1X2IT    O2   48  -0.056   1.551   3.871
    1X2IT    N3   49   0.085   1.409   4.043
    1X2IT   H15   50   0.133   1.362   4.118
    1X2IT   H16   51   0.004   1.469   4.064
    1X2IT    N2   52   0.191   1.409   3.505
    1X2IT    C3   53   0.316   1.403   3.426
    1X2IT    C2   54   0.312   1.535   3.351
    1X2IT    H2   55   0.372   1.548   3.260
    1X2IT    N1   56   0.290   1.651   3.440
    1X2IT   H14   57   0.323   1.737   3.394
    1X2IT    C1   58   0.177   1.596   3.364
    1X2IT    H1   59   0.130   1.654   3.285
    1X2IT   C11   60   0.090   1.500   3.444
    1X2IT    O3   61   0.011   1.435   3.347
    1X2IT   C15   62  -0.052   1.313   3.386
    2X2IT   H18   63   0.481   5.063   4.237
    2X2IT    N4   64   0.502   4.981   4.291
    2X2IT   H17   65   0.556   4.909   4.246
    2X2IT   C14   66   0.513   4.999   4.426
    2X2IT    O5   67   0.474   5.096   4.488
    2X2IT    O4   68   0.571   4.889   4.483
    2X2IT   C13   69   0.584   4.891   4.626
    2X2IT   C10   70   0.454   4.845   4.695
    2X2IT    C9   71   0.465   4.839   4.846
    2X2IT    C4   72   0.436   4.711   4.890
    2X2IT    C5   73   0.438   4.671   5.035
    2X2IT    O1   74   0.407   4.555   5.066
    2X2IT    C6   75   0.477   4.772   5.130
    2X2IT   C12   76   0.482   4.738   5.277
    2X2IT    C7   77   0.505   4.900   5.085
    2X2IT    C8   78   0.501   4.940   4.937
    2X2IT    O2   79   0.533   5.057   4.908
    2X2IT    N3   80   0.540   5.001   5.166
    2X2IT   H15   81   0.549   4.992   5.265
    2X2IT   H16   82   0.560   5.091   5.122
    2X2IT    N2   83   0.397   4.630   4.789
    2X2IT    C3   84   0.420   4.485   4.776
    2X2IT    C2   85   0.500   4.477   4.646
    2X2IT    H2   86   0.504   4.383   4.592
    2X2IT    N1   87   0.617   4.567   4.647
    2X2IT   H14   88   0.685   4.535   4.577
    2X2IT    C1   89   0.494   4.607   4.576
    2X2IT    H1   90   0.492   4.617   4.469
    2X2IT   C11   91   0.405   4.700   4.658
    2X2IT    O3   92   0.281   4.699   4.589
    2X2IT   C15   93   0.166   4.745   4.661
    3X2IT   H18   94   0.351   1.904   1.600
    3X2IT    N4   95   0.434   1.873   1.554
    3X2IT   H17   96   0.480   1.791   1.591
    3X2IT   C14   97   0.443   1.898   1.420
    3X2IT    O5   98   0.373   1.977   1.359
    3X2IT    O4   99   0.544   1.824   1.365
    3X2IT   C13  100   0.569   1.846   1.224
    3X2IT   C10  101   0.658   1.969   1.201
    3X2IT    C9  102   0.693   1.991   1.056
    3X2IT    C4  103   0.830   1.990   1.038
    3X2IT    C5  104   0.897   2.008   0.906
    3X2IT    O1  105   1.021   2.010   0.900
    3X2IT    C6  106   0.811   2.024   0.791
    3X2IT   C12  107   0.873   2.042   0.654
    3X2IT    C7  108   0.674   2.025   0.808
    3X2IT    C8  109   0.606   2.008   0.944
    3X2IT    O2  110   0.482   2.006   0.948
    3X2IT    N3  111   0.586   2.041   0.708
    3X2IT   H15  112   0.614   2.052   0.612
    3X2IT   H16  113   0.487   2.039   0.733
    3X2IT    N2  114   0.896   1.979   1.156
    3X2IT    C3  115   1.024   1.911   1.182
    3X2IT    C2  116   0.985   1.806   1.284
    3X2IT    H2  117   1.062   1.761   1.348
    3X2IT    N1  118   0.870   1.724   1.240
    3X2IT   H14  119   0.869   1.635   1.291
    3X2IT    C1  120   0.849   1.834   1.335
    3X2IT    H1  121   0.818   1.814   1.437
    3X2IT   C11  122   0.800   1.962   1.269
    3X2IT    O3  123   0.818   2.061   1.369
    3X2IT   C15  124   0.819   2.198   1.326
    4X2IT   H18  125   4.439   2.049   1.071
    4X2IT    N4  126   4.468   2.062   0.976
    4X2IT   H17  127   4.547   2.124   0.960
    4X2IT   C14  128   4.448   1.957   0.891
    4X2IT    O5  129   4.375   1.862   0.913
    4X2IT    O4  130   4.519   1.975   0.776
    4X2IT   C13  131   4.503   1.874   0.674
    4X2IT   C10  132   4.376   1.900   0.590
    4X2IT    C9  133   4.359   1.800   0.477
    4X2IT    C4  134   4.354   1.866   0.356
    4X2IT    C5  135   4.338   1.797   0.224
    4X2IT    O1  136   4.331   1.864   0.120
    4X2IT    C6  137   4.331   1.652   0.227
    4X2IT   C12  138   4.315   1.576   0.097
    4X2IT    C7  139   4.335   1.587   0.349
    4X2IT    C8  140   4.350   1.659   0.483
    4X2IT    O2  141   4.357   1.590   0.586
    4X2IT    N3  142   4.327   1.454   0.362
    4X2IT   H15  143   4.319   1.391   0.284
    4X2IT   H16  144   4.333   1.416   0.457
    4X2IT    N2  145   4.357   2.001   0.370
    4X2IT    C3  146   4.417   2.100   0.280
    4X2IT    C2  147   4.521   2.167   0.370
    4X2IT    H2  148   4.559   2.266   0.344
    4X2IT    N1  149   4.609   2.069   0.436
    4X2IT   H14  150   4.696   2.116   0.466
    4X2IT    C1  151   4.496   2.127   0.511
    4X2IT    H1  152   4.514   2.194   0.595
    4X2IT   C11  153   4.373   2.038   0.514
    4X2IT    O3  154   4.270   2.123   0.559
    4X2IT   C15  155   4.135   2.080   0.535
    5X2IT   H18  156   2.668   3.202   4.198
    5X2IT    N4  157   2.573   3.184   4.173
    5X2IT   H17  158   2.511   3.264   4.164
    5X2IT   C14  159   2.550   3.073   4.096
    5X2IT    O5  160   2.629   2.982   4.078
    5X2IT    O4  161   2.423   3.078   4.045
    5X2IT   C13  162   2.383   2.964   3.966
    5X2IT   C10  163   2.333   2.849   4.055
    5X2IT    C9  164   2.283   2.730   3.976
    5X2IT    C4  165   2.151   2.703   4.009
    5X2IT    C5  166   2.071   2.592   3.948
    5X2IT    O1  167   1.954   2.572   3.986
    5X2IT    C6  168   2.137   2.512   3.848
    5X2IT   C12  169   2.062   2.398   3.782
    5X2IT    C7  170   2.269   2.538   3.816
    5X2IT    C8  171   2.350   2.652   3.879
    5X2IT    O2  172   2.466   2.669   3.840
    5X2IT    N3  173   2.339   2.469   3.725
    5X2IT   H15  174   2.301   2.392   3.673
    5X2IT   H16  175   2.436   2.498   3.708
    5X2IT    N2  176   2.105   2.784   4.108
    5X2IT    C3  177   1.969   2.835   4.127
    5X2IT    C2  178   1.990   2.986   4.122
    5X2IT    H2  179   1.916   3.053   4.165
    5X2IT    N1  180   2.065   3.028   4.001
    5X2IT   H14  181   2.048   3.127   3.983
    5X2IT    C1  182   2.136   3.015   4.130
    5X2IT    H1  183   2.175   3.103   4.180
    5X2IT   C11  184   2.209   2.883   4.147
    5X2IT    O3  185   2.240   2.878   4.285
    5X2IT   C15  186   2.274   2.749   4.339
    6X2IT   H18  187  -0.048   2.314   3.656
    6X2IT    N4  188  -0.023   2.267   3.741
    6X2IT   H17  189  -0.079   2.286   3.822
    6X2IT   C14  190   0.034   2.143   3.726
    6X2IT    O5  191   0.082   2.099   3.623
    6X2IT    O4  192   0.034   2.078   3.846
    6X2IT   C13  193   0.097   1.948   3.848
    6X2IT   C10  194   0.250   1.961   3.865
    6X2IT    C9  195   0.319   1.827   3.875
    6X2IT    C4  196   0.389   1.817   3.994
    6X2IT    C5  197   0.469   1.697   4.035
    6X2IT    O1  198   0.531   1.699   4.142
    6X2IT    C6  199   0.468   1.585   3.944
    6X2IT   C12  200   0.546   1.460   3.980
    6X2IT    C7  201   0.399   1.594   3.825
    6X2IT    C8  202   0.318   1.718   3.783
    6X2IT    O2  203   0.257   1.714   3.676
    6X2IT    N3  204   0.393   1.496   3.733
    6X2IT   H15  205   0.438   1.407   3.745
    6X2IT   H16  206   0.338   1.514   3.649
    6X2IT    N2  207   0.384   1.933   4.065
    6X2IT    C3  208   0.383   1.948   4.211
    6X2IT    C2  209   0.251   2.020   4.235
    6X2IT    H2  210   0.235   2.075   4.328
    6X2IT    N1  211   0.137   1.950   4.171
    6X2IT   H14  212   0.050   1.979   4.217
    6X2IT    C1  213   0.197   2.068   4.106
    6X2IT    H1  214   0.141   2.161   4.096
    6X2IT   C11  215   0.297   2.033   3.997
    6X2IT    O3  216   0.366   2.154   3.972
    6X2IT   C15  217   0.491   2.145   3.903
    7X2IT   H18  218   3.649   1.358   2.869
    7X2IT    N4  219   3.612   1.292   2.935
    7X2IT   H17  220   3.677   1.249   2.999
    7X2IT   C14  221   3.482   1.310   2.974
    7X2IT    O5  222   3.401   1.381   2.917
    7X2IT    O4  223   3.455   1.234   3.084
    7X2IT   C13  224   3.319   1.238   3.132
    7X2IT   C10  225   3.228   1.141   3.054
    7X2IT    C9  226   3.087   1.138   3.107
    7X2IT    C4  227   3.053   1.009   3.144
    7X2IT    C5  228   2.919   0.971   3.201
    7X2IT    O1  229   2.897   0.852   3.228
    7X2IT    C6  230   2.824   1.077   3.220
    7X2IT   C12  231   2.688   1.046   3.278
    7X2IT    C7  232   2.858   1.206   3.182
    7X2IT    C8  233   2.994   1.244   3.123
    7X2IT    O2  234   3.015   1.363   3.096
    7X2IT    N3  235   2.775   1.311   3.194
    7X2IT   H15  236   2.683   1.305   3.232
    7X2IT   H16  237   2.811   1.402   3.164
    7X2IT    N2  238   3.151   0.920   3.116
    7X2IT    C3  239   3.188   0.798   3.190
    7X2IT    C2  240   3.332   0.826   3.229
    7X2IT    H2  241   3.398   0.744   3.256
    7X2IT    N1  242   3.348   0.957   3.296
    7X2IT   H14  243   3.435   0.958   3.350
    7X2IT    C1  244   3.382   0.944   3.153
    7X2IT    H1  245   3.484   0.953   3.119
    7X2IT   C11  246   3.271   0.990   3.060
    7X2IT    O3  247   3.308   0.938   2.933
    7X2IT   C15  248   3.205   0.931   2.833
    8X2IT   H18  249   3.777   5.638   0.451
    8X2IT    N4  250   3.814   5.573   0.384
    8X2IT   H17  251   3.877   5.609   0.313
    8X2IT   C14  252   3.832   5.444   0.428
    8X2IT    O5  253   3.781   5.397   0.528
    8X2IT    O4  254   3.910   5.375   0.340
    8X2IT   C13  255   3.931   5.236   0.370
    8X2IT   C10  256   3.814   5.149   0.320
    8X2IT    C9  257   3.836   5.001   0.343
    8X2IT    C4  258   3.831   4.933   0.223
    8X2IT    C5  259   3.849   4.784   0.210
    8X2IT    O1  260   3.839   4.731   0.099
    8X2IT    C6  261   3.877   4.712   0.332
    8X2IT   C12  262   3.897   4.562   0.327
    8X2IT    C7  263   3.882   4.781   0.452
    8X2IT    C8  264   3.862   4.932   0.464
    8X2IT    O2  265   3.873   4.984   0.576
    8X2IT    N3  266   3.905   4.722   0.571
    8X2IT   H15  267   3.923   4.624   0.581
    8X2IT   H16  268   3.908   4.783   0.653
    8X2IT    N2  269   3.799   5.014   0.119
    8X2IT    C3  270   3.844   5.004  -0.021
    8X2IT    C2  271   3.915   5.137  -0.041
    8X2IT    H2  272   3.931   5.175  -0.142
    8X2IT    N1  273   4.016   5.163   0.064
    8X2IT   H14  274   4.084   5.232   0.029
    8X2IT    C1  275   3.884   5.228   0.072
    8X2IT    H1  276   3.874   5.335   0.061
    8X2IT   C11  277   3.787   5.155   0.165
    8X2IT    O3  278   3.661   5.211   0.133
    8X2IT   C15  279   3.545   5.138   0.175
    9X2IT   H18  280   3.545   1.591   0.555
    9X2IT    N4  281   3.469   1.528   0.573
    9X2IT   H17  282   3.380   1.570   0.596
    9X2IT   C14  283   3.471   1.408   0.508
    9X2IT    O5  284   3.569   1.360   0.452
    9X2IT    O4  285   3.349   1.348   0.517
    9X2IT   C13  286   3.338   1.217   0.457
    9X2IT   C10  287   3.389   1.108   0.553
    9X2IT    C9  288   3.373   0.968   0.497
    9X2IT    C4  289   3.295   0.891   0.582
    9X2IT    C5  290   3.259   0.748   0.555
    9X2IT    O1  291   3.192   0.686   0.639
    9X2IT    C6  292   3.307   0.691   0.432
    9X2IT   C12  293   3.274   0.547   0.399
    9X2IT    C7  294   3.386   0.768   0.348
    9X2IT    C8  295   3.422   0.913   0.376
    9X2IT    O2  296   3.490   0.974   0.291
    9X2IT    N3  297   3.436   0.723   0.232
    9X2IT   H15  298   3.420   0.630   0.197
    9X2IT   H16  299   3.492   0.789   0.176
    9X2IT    N2  300   3.262   0.958   0.695
    9X2IT    C3  301   3.139   0.946   0.774
    9X2IT    C2  302   3.083   1.088   0.769
    9X2IT    H2  303   3.011   1.121   0.844
    9X2IT    N1  304   3.073   1.139   0.630
    9X2IT   H14  305   3.006   1.216   0.627
    9X2IT    C1  306   3.187   1.180   0.715
    9X2IT    H1  307   3.198   1.282   0.748
    9X2IT   C11  308   3.313   1.098   0.690
    9X2IT    O3  309   3.396   1.128   0.801
    9X2IT   C15  310   3.505   1.039   0.828
   10X2IT   H18  311   4.555   1.679   3.407
   10X2IT    N4  312   4.515   1.724   3.326
   10X2IT   H17  313   4.580   1.764   3.260
   10X2IT   C14  314   4.395   1.677   3.282
   10X2IT    O5  315   4.320   1.605   3.346
   10X2IT    O4  316   4.369   1.725   3.157
   10X2IT   C13  317   4.242   1.688   3.100
   10X2IT   C10  318   4.129   1.781   3.149
   10X2IT    C9  319   3.995   1.750   3.087
   10X2IT    C4  320   3.946   1.861   3.021
   10X2IT    C5  321   3.816   1.865   2.947
   10X2IT    O1  322   3.778   1.970   2.894
   10X2IT    C6  323   3.740   1.742   2.944
   10X2IT   C12  324   3.608   1.738   2.870
   10X2IT    C7  325   3.789   1.630   3.010
   10X2IT    C8  326   3.922   1.629   3.086
   10X2IT    O2  327   3.958   1.522   3.138
   10X2IT    N3  328   3.725   1.512   3.014
   10X2IT   H15  329   3.638   1.495   2.968
   10X2IT   H16  330   3.771   1.436   3.065
   10X2IT    N2  331   4.026   1.970   3.038
   10X2IT    C3  332   4.052   2.079   2.943
   10X2IT    C2  333   4.202   2.070   2.922
   10X2IT    H2  334   4.257   2.156   2.884
   10X2IT    N1  335   4.245   1.933   2.885
   10X2IT   H14  336   4.336   1.937   2.839
   10X2IT    C1  337   4.260   1.979   3.024
   10X2IT    H1  338   4.359   1.994   3.067
   10X2IT   C11  339   4.148   1.934   3.116
   10X2IT    O3  340   4.163   2.014   3.232
   10X2IT   C15  341   4.050   2.023   3.320
   11X2IT   H18  342   1.089   4.507   1.374
   11X2IT    N4  343   1.069   4.606   1.366
   11X2IT   H17  344   1.133   4.661   1.311
   11X2IT   C14  345   0.937   4.642   1.371
   11X2IT    O5  346   0.847   4.571   1.412
   11X2IT    O4  347   0.922   4.771   1.329
   11X2IT   C13  348   0.789   4.825   1.336
   11X2IT   C10  349   0.757   4.877   1.477
   11X2IT    C9  350   0.620   4.941   1.486
   11X2IT    C4  351   0.631   5.072   1.529
   11X2IT    C5  352   0.515   5.164   1.549
   11X2IT    O1  353   0.534   5.279   1.591
   11X2IT    C6  354   0.384   5.111   1.517
   11X2IT   C12  355   0.262   5.199   1.534
   11X2IT    C7  356   0.373   4.980   1.475
   11X2IT    C8  357   0.493   4.887   1.456
   11X2IT    O2  358   0.471   4.772   1.413
   11X2IT    N3  359   0.256   4.921   1.444
   11X2IT   H15  360   0.168   4.969   1.449
   11X2IT   H16  361   0.260   4.824   1.412
   11X2IT    N2  362   0.760   5.105   1.560
   11X2IT    C3  363   0.826   5.236   1.544
   11X2IT    C2  364   0.940   5.203   1.449
   11X2IT    H2  365   1.026   5.270   1.443
   11X2IT    N1  366   0.893   5.133   1.327
   11X2IT   H14  367   0.962   5.145   1.252
   11X2IT    C1  368   0.954   5.056   1.437
   11X2IT    H1  369   1.049   5.007   1.423
   11X2IT   C11  370   0.852   4.992   1.529
   11X2IT    O3  371   0.927   4.953   1.642
   11X2IT   C15  372   0.855   4.924   1.763
   12X2IT   H18  373   2.484   0.129   1.387
   12X2IT    N4  374   2.397   0.092   1.421
   12X2IT   H17  375   2.376  -0.004   1.399
   12X2IT   C14  376   2.350   0.146   1.538
   12X2IT    O5  377   2.389   0.250   1.588
   12X2IT    O4  378   2.250   0.067   1.588
   12X2IT   C13  379   2.186   0.115   1.708
   12X2IT   C10  380   2.077   0.219   1.676
   12X2IT    C9  381   2.003   0.266   1.799
   12X2IT    C4  382   1.867   0.241   1.786
   12X2IT    C5  383   1.765   0.274   1.891
   12X2IT    O1  384   1.645   0.252   1.869
   12X2IT    C6  385   1.815   0.334   2.012
   12X2IT   C12  386   1.717   0.370   2.122
   12X2IT    C7  387   1.950   0.360   2.025
   12X2IT    C8  388   2.053   0.326   1.917
   12X2IT    O2  389   2.172   0.350   1.941
   12X2IT    N3  390   2.005   0.417   2.133
   12X2IT   H15  391   1.952   0.444   2.214
   12X2IT   H16  392   2.106   0.430   2.133
   12X2IT    N2  393   1.837   0.189   1.664
   12X2IT    C3  394   1.731   0.092   1.631
   12X2IT    C2  395   1.811  -0.024   1.573
   12X2IT    H2  396   1.761  -0.097   1.509
   12X2IT    N1  397   1.920  -0.067   1.663
   12X2IT   H14  398   1.948  -0.163   1.639
   12X2IT    C1  399   1.950   0.020   1.547
   12X2IT    H1  400   2.009  -0.017   1.464
   12X2IT   C11  401   1.960   0.167   1.584
   12X2IT    O3  402   1.955   0.234   1.459
   12X2IT   C15  403   1.923   0.374   1.462
   13X2IT   H18  404   4.834   4.151   1.082
   13X2IT    N4  405   4.741   4.116   1.097
   13X2IT   H17  406   4.665   4.166   1.053
   13X2IT   C14  407   4.729   3.981   1.116
   13X2IT    O5  408   4.821   3.906   1.143
   13X2IT    O4  409   4.599   3.943   1.103
   13X2IT   C13  410   4.570   3.804   1.127
   13X2IT   C10  411   4.555   3.775   1.278
   13X2IT    C9  412   4.519   3.631   1.307
   13X2IT    C4  413   4.400   3.625   1.378
   13X2IT    C5  414   4.335   3.497   1.422
   13X2IT    O1  415   4.230   3.502   1.488
   13X2IT    C6  416   4.401   3.375   1.384
   13X2IT   C12  417   4.340   3.242   1.425
   13X2IT    C7  418   4.520   3.381   1.314
   13X2IT    C8  419   4.586   3.512   1.270
   13X2IT    O2  420   4.690   3.505   1.204
   13X2IT    N3  421   4.589   3.272   1.276
   13X2IT   H15  422   4.559   3.178   1.295
   13X2IT   H16  423   4.676   3.288   1.223
   13X2IT    N2  424   4.353   3.749   1.409
   13X2IT    C3  425   4.213   3.792   1.421
   13X2IT    C2  426   4.205   3.903   1.316
   13X2IT    H2  427   4.125   3.977   1.322
   13X2IT    N1  428   4.254   3.858   1.184
   13X2IT   H14  429   4.216   3.919   1.111
   13X2IT    C1  430   4.342   3.938   1.271
   13X2IT    H1  431   4.371   4.039   1.243
   13X2IT   C11  432   4.441   3.854   1.351
   13X2IT    O3  433   4.489   3.943   1.449
   13X2IT   C15  434   4.555   3.885   1.563
   14X2IT   H18  435   2.860   0.486   5.013
   14X2IT    N4  436   2.824   0.422   4.944
   14X2IT   H17  437   2.793   0.332   4.977
   14X2IT   C14  438   2.763   0.478   4.835
   14X2IT    O5  439   2.773   0.595   4.801
   14X2IT    O4  440   2.692   0.383   4.768
   14X2IT   C13  441   2.628   0.426   4.646
   14X2IT   C10  442   2.725   0.425   4.527
   14X2IT    C9  443   2.659   0.464   4.396
   14X2IT    C4  444   2.675   0.362   4.304
   14X2IT    C5  445   2.621   0.367   4.164
   14X2IT    O1  446   2.642   0.273   4.086
   14X2IT    C6  447   2.546   0.486   4.128
   14X2IT   C12  448   2.488   0.497   3.989
   14X2IT    C7  449   2.531   0.588   4.220
   14X2IT    C8  450   2.588   0.581   4.363
   14X2IT    O2  451   2.565   0.677   4.438
   14X2IT    N3  452   2.465   0.702   4.196
   14X2IT   H15  453   2.420   0.722   4.108
   14X2IT   H16  454   2.460   0.770   4.272
   14X2IT    N2  455   2.751   0.261   4.351
   14X2IT    C3  456   2.740   0.117   4.321
   14X2IT    C2  457   2.714   0.057   4.459
   14X2IT    H2  458   2.733  -0.049   4.476
   14X2IT    N1  459   2.601   0.123   4.529
   14X2IT   H14  460   2.565   0.061   4.601
   14X2IT    C1  461   2.741   0.159   4.563
   14X2IT    H1  462   2.781   0.135   4.660
   14X2IT   C11  463   2.789   0.285   4.493
   14X2IT    O3  464   2.929   0.283   4.512
   14X2IT   C15  465   3.008   0.367   4.426
   15X2IT   H18  466   2.282   4.187   5.124
   15X2IT    N4  467   2.244   4.098   5.098
   15X2IT   H17  468   2.144   4.088   5.099
   15X2IT   C14  469   2.317   4.025   5.009
   15X2IT    O5  470   2.434   4.045   4.980
   15X2IT    O4  471   2.242   3.922   4.960
   15X2IT   C13  472   2.308   3.832   4.869
   15X2IT   C10  473   2.388   3.724   4.944
   15X2IT    C9  474   2.454   3.624   4.853
   15X2IT    C4  475   2.410   3.496   4.883
   15X2IT    C5  476   2.456   3.373   4.810
   15X2IT    O1  477   2.414   3.262   4.847
   15X2IT    C6  478   2.547   3.392   4.701
   15X2IT   C12  479   2.596   3.272   4.623
   15X2IT    C7  480   2.591   3.520   4.671
   15X2IT    C8  481   2.545   3.645   4.746
   15X2IT    O2  482   2.588   3.755   4.708
   15X2IT    N3  483   2.677   3.548   4.572
   15X2IT   H15  484   2.716   3.478   4.511
   15X2IT   H16  485   2.702   3.646   4.558
   15X2IT    N2  486   2.329   3.494   4.992
   15X2IT    C3  487   2.215   3.404   5.018
   15X2IT    C2  488   2.099   3.502   5.030
   15X2IT    H2  489   2.008   3.471   5.081
   15X2IT    N1  490   2.090   3.594   4.914
   15X2IT   H14  491   1.996   3.632   4.908
   15X2IT    C1  492   2.151   3.640   5.041
   15X2IT    H1  493   2.104   3.717   5.100
   15X2IT   C11  494   2.303   3.633   5.040
   15X2IT    O3  495   2.339   3.648   5.177
   15X2IT   C15  496   2.471   3.607   5.215
   16X2IT   H18  497   1.685   3.246   1.687
   16X2IT    N4  498   1.727   3.297   1.611
   16X2IT   H17  499   1.782   3.378   1.635
   16X2IT   C14  500   1.760   3.224   1.500
   16X2IT    O5  501   1.720   3.112   1.475
   16X2IT    O4  502   1.842   3.298   1.420
   16X2IT   C13  503   1.881   3.237   1.295
   16X2IT   C10  504   1.773   3.256   1.187
   16X2IT    C9  505   1.812   3.200   1.053
   16X2IT    C4  506   1.810   3.299   0.956
   16X2IT    C5  507   1.844   3.276   0.812
   16X2IT    O1  508   1.835   3.370   0.732
   16X2IT    C6  509   1.885   3.143   0.776
   16X2IT   C12  510   1.922   3.113   0.632
   16X2IT    C7  511   1.887   3.043   0.872
   16X2IT    C8  512   1.850   3.068   1.018
   16X2IT    O2  513   1.860   2.972   1.097
   16X2IT    N3  514   1.922   2.916   0.847
   16X2IT   H15  515   1.950   2.883   0.757
   16X2IT   H16  516   1.921   2.851   0.926
   16X2IT    N2  517   1.764   3.417   1.006
   16X2IT    C3  518   1.805   3.553   0.966
   16X2IT    C2  519   1.860   3.609   1.096
   16X2IT    H2  520   1.867   3.717   1.109
   16X2IT    N1  521   1.961   3.521   1.157
   16X2IT   H14  522   2.019   3.576   1.222
   16X2IT    C1  523   1.823   3.520   1.208
   16X2IT    H1  524   1.800   3.556   1.308
   16X2IT   C11  525   1.739   3.406   1.152
   16X2IT    O3  526   1.606   3.442   1.185
   16X2IT   C15  527   1.501   3.376   1.113
   17X2IT   H18  528   0.468   4.133   2.856
   17X2IT    N4  529   0.434   4.120   2.949
   17X2IT   H17  530   0.409   4.203   3.001
   17X2IT   C14  531   0.366   4.004   2.974
   17X2IT    O5  532   0.368   3.905   2.902
   17X2IT    O4  533   0.299   4.013   3.092
   17X2IT   C13  534   0.228   3.895   3.135
   17X2IT   C10  535   0.322   3.795   3.206
   17X2IT    C9  536   0.250   3.673   3.258
   17X2IT    C4  537   0.269   3.662   3.395
   17X2IT    C5  538   0.210   3.551   3.478
   17X2IT    O1  539   0.235   3.547   3.600
   17X2IT    C6  540   0.128   3.455   3.409
   17X2IT   C12  541   0.065   3.342   3.488
   17X2IT    C7  542   0.110   3.466   3.273
   17X2IT    C8  543   0.171   3.579   3.189
   17X2IT    O2  544   0.145   3.581   3.067
   17X2IT    N3  545   0.037   3.381   3.200
   17X2IT   H15  546  -0.012   3.302   3.239
   17X2IT   H16  547   0.029   3.400   3.099
   17X2IT    N2  548   0.353   3.757   3.443
   17X2IT    C3  549   0.349   3.822   3.575
   17X2IT    C2  550   0.331   3.969   3.538
   17X2IT    H2  551   0.357   4.046   3.610
   17X2IT    N1  552   0.217   3.990   3.446
   17X2IT   H14  553   0.186   4.087   3.452
   17X2IT    C1  554   0.354   3.986   3.393
   17X2IT    H1  555   0.400   4.075   3.351
   17X2IT   C11  556   0.393   3.851   3.335
   17X2IT    O3  557   0.534   3.858   3.322
   17X2IT   C15  558   0.605   3.735   3.306
   18X2IT   H18  559   3.539   2.366   2.223
   18X2IT    N4  560   3.508   2.322   2.308
   18X2IT   H17  561   3.563   2.339   2.391
   18X2IT   C14  562   3.374   2.299   2.319
   18X2IT    O5  563   3.294   2.301   2.228
   18X2IT    O4  564   3.343   2.268   2.449
   18X2IT   C13  565   3.206   2.235   2.475
   18X2IT   C10  566   3.176   2.087   2.443
   18X2IT    C9  567   3.034   2.046   2.476
   18X2IT    C4  568   3.034   1.941   2.566
   18X2IT    C5  569   2.910   1.877   2.620
   18X2IT    O1  570   2.920   1.781   2.697
   18X2IT    C6  571   2.784   1.933   2.576
   18X2IT   C12  572   2.655   1.874   2.627
   18X2IT    C7  573   2.784   2.038   2.485
   18X2IT    C8  574   2.912   2.102   2.430
   18X2IT    O2  575   2.900   2.198   2.353
   18X2IT    N3  576   2.673   2.095   2.437
   18X2IT   H15  577   2.580   2.066   2.465
   18X2IT   H16  578   2.685   2.173   2.372
   18X2IT    N2  579   3.160   1.898   2.593
   18X2IT    C3  580   3.211   1.842   2.720
   18X2IT    C2  581   3.322   1.940   2.755
   18X2IT    H2  582   3.400   1.910   2.825
   18X2IT    N1  583   3.276   2.081   2.754
   18X2IT   H14  584   3.339   2.138   2.810
   18X2IT    C1  585   3.351   2.027   2.638
   18X2IT    H1  586   3.450   2.064   2.615
   18X2IT   C11  587   3.261   1.982   2.524
   18X2IT    O3  588   3.347   1.905   2.441
   18X2IT   C15  589   3.285   1.818   2.346
   19X2IT   H18  590   3.157   4.694   0.477
   19X2IT    N4  591   3.170   4.667   0.572
   19X2IT   H17  592   3.164   4.568   0.593
   19X2IT   C14  593   3.251   4.746   0.648
   19X2IT    O5  594   3.286   4.859   0.619
   19X2IT    O4  595   3.283   4.682   0.765
   19X2IT   C13  596   3.364   4.757   0.858
   19X2IT   C10  597   3.277   4.851   0.944
   19X2IT    C9  598   3.357   4.926   1.048
   19X2IT    C4  599   3.308   4.899   1.175
   19X2IT    C5  600   3.365   4.957   1.301
   19X2IT    O1  601   3.312   4.930   1.410
   19X2IT    C6  602   3.480   5.043   1.286
   19X2IT   C12  603   3.542   5.105   1.409
   19X2IT    C7  604   3.528   5.071   1.159
   19X2IT    C8  605   3.468   5.012   1.032
   19X2IT    O2  606   3.522   5.041   0.924
   19X2IT    N3  607   3.632   5.152   1.135
   19X2IT   H15  608   3.685   5.197   1.208
   19X2IT   H16  609   3.661   5.164   1.038
   19X2IT    N2  610   3.197   4.820   1.171
   19X2IT    C3  611   3.155   4.719   1.269
   19X2IT    C2  612   3.152   4.592   1.185
   19X2IT    H2  613   3.094   4.506   1.218
   19X2IT    N1  614   3.279   4.570   1.111
   19X2IT   H14  615   3.287   4.472   1.085
   19X2IT    C1  616   3.162   4.628   1.041
   19X2IT    H1  617   3.112   4.572   0.963
   19X2IT   C11  618   3.167   4.779   1.031
   19X2IT    O3  619   3.035   4.815   0.993
   19X2IT   C15  620   2.996   4.952   1.013
   20X2IT   H18  621   1.427   0.208   5.197
   20X2IT    N4  622   1.404   0.224   5.100
   20X2IT   H17  623   1.460   0.291   5.050
   20X2IT   C14  624   1.350   0.118   5.032
   20X2IT    O5  625   1.303   0.018   5.083
   20X2IT    O4  626   1.353   0.143   4.898
   20X2IT   C13  627   1.293   0.043   4.813
   20X2IT   C10  628   1.141   0.061   4.804
   20X2IT    C9  629   1.075  -0.039   4.711
   20X2IT    C4  630   1.006   0.028   4.611
   20X2IT    C5  631   0.930  -0.041   4.501
   20X2IT    O1  632   0.868   0.027   4.418
   20X2IT    C6  633   0.934  -0.185   4.501
   20X2IT   C12  634   0.859  -0.261   4.393
   20X2IT    C7  635   1.002  -0.251   4.601
   20X2IT    C8  636   1.078  -0.180   4.713
   20X2IT    O2  637   1.139  -0.250   4.795
   20X2IT    N3  638   1.009  -0.385   4.610
   20X2IT   H15  639   0.966  -0.447   4.544
   20X2IT   H16  640   1.063  -0.424   4.688
   20X2IT    N2  641   1.009   0.163   4.629
   20X2IT    C3  642   1.010   0.267   4.525
   20X2IT    C2  643   1.141   0.340   4.555
   20X2IT    H2  644   1.155   0.442   4.518
   20X2IT    N1  645   1.256   0.248   4.563
   20X2IT   H14  646   1.342   0.300   4.548
   20X2IT    C1  647   1.192   0.297   4.687
   20X2IT    H1  648   1.246   0.363   4.754
   20X2IT   C11  649   1.092   0.199   4.746
   20X2IT    O3  650   1.021   0.276   4.841
   20X2IT   C15  651   0.895   0.224   4.886
   21X2IT   H18  652   3.073   3.458   4.560
   21X2IT    N4  653   3.114   3.419   4.477
   21X2IT   H17  654   3.085   3.458   4.388
   21X2IT   C14  655   3.242   3.371   4.489
   21X2IT    O5  656   3.297   3.345   4.595
   21X2IT    O4  657   3.296   3.351   4.365
   21X2IT   C13  658   3.429   3.294   4.363
   21X2IT   C10  659   3.424   3.141   4.375
   21X2IT    C9  660   3.560   3.076   4.366
   21X2IT    C4  661   3.563   2.986   4.261
   21X2IT    C5  662   3.684   2.905   4.224
   21X2IT    O1  663   3.676   2.823   4.131
   21X2IT    C6  664   3.803   2.927   4.301
   21X2IT   C12  665   3.929   2.849   4.269
   21X2IT    C7  666   3.800   3.017   4.406
   21X2IT    C8  667   3.676   3.098   4.444
   21X2IT    O2  668   3.686   3.180   4.537
   21X2IT    N3  669   3.905   3.044   4.485
   21X2IT   H15  670   3.995   3.001   4.473
   21X2IT   H16  671   3.892   3.113   4.559
   21X2IT    N2  672   3.442   2.972   4.201
   21X2IT    C3  673   3.413   2.945   4.060
   21X2IT    C2  674   3.332   3.068   4.019
   21X2IT    H2  675   3.268   3.063   3.931
   21X2IT    N1  676   3.400   3.194   4.054
   21X2IT   H14  677   3.363   3.270   3.996
   21X2IT    C1  678   3.292   3.143   4.140
   21X2IT    H1  679   3.198   3.196   4.149
   21X2IT   C11  680   3.343   3.067   4.262
   21X2IT    O3  681   3.229   2.999   4.310
   21X2IT   C15  682   3.251   2.889   4.400
   22X2IT   H18  683   4.840   1.516   0.709
   22X2IT    N4  684   4.779   1.476   0.778
   22X2IT   H17  685   4.721   1.399   0.750
   22X2IT   C14  686   4.822   1.482   0.908
   22X2IT    O5  687   4.912   1.554   0.949
   22X2IT    O4  688   4.748   1.399   0.986
   22X2IT   C13  689   4.778   1.400   1.127
   22X2IT   C10  690   4.707   1.516   1.199
   22X2IT    C9  691   4.730   1.517   1.348
   22X2IT    C4  692   4.610   1.510   1.416
   22X2IT    C5  693   4.597   1.508   1.565
   22X2IT    O1  694   4.485   1.505   1.617
   22X2IT    C6  695   4.720   1.510   1.640
   22X2IT   C12  696   4.715   1.507   1.792
   22X2IT    C7  697   4.841   1.518   1.573
   22X2IT    C8  698   4.852   1.521   1.420
   22X2IT    O2  699   4.966   1.523   1.370
   22X2IT    N3  700   4.960   1.522   1.634
   22X2IT   H15  701   4.971   1.519   1.734
   22X2IT   H16  702   5.043   1.526   1.574
   22X2IT    N2  703   4.503   1.513   1.331
   22X2IT    C3  704   4.373   1.446   1.346
   22X2IT    C2  705   4.368   1.357   1.223
   22X2IT    H2  706   4.272   1.319   1.187
   22X2IT    N1  707   4.489   1.273   1.210
   22X2IT   H14  708   4.469   1.192   1.150
   22X2IT    C1  709   4.476   1.396   1.129
   22X2IT    H1  710   4.466   1.391   1.022
   22X2IT   C11  711   4.549   1.515   1.189
   22X2IT    O3  712   4.498   1.626   1.118
   22X2IT   C15  713   4.517   1.756   1.177
   23X2IT   H18  714   2.132   3.504   4.655
   23X2IT    N4  715   2.136   3.567   4.577
   23X2IT   H17  716   2.166   3.662   4.596
   23X2IT   C14  717   2.163   3.512   4.455
   23X2IT    O5  718   2.155   3.393   4.428
   23X2IT    O4  719   2.195   3.610   4.366
   23X2IT   C13  720   2.220   3.567   4.230
   23X2IT   C10  721   2.089   3.551   4.151
   23X2IT    C9  722   2.111   3.513   4.007
   23X2IT    C4  723   2.054   3.607   3.923
   23X2IT    C5  724   2.059   3.599   3.773
   23X2IT    O1  725   2.002   3.687   3.706
   23X2IT    C6  726   2.130   3.488   3.716
   23X2IT   C12  727   2.139   3.474   3.566
   23X2IT    C7  728   2.186   3.393   3.800
   23X2IT    C8  729   2.180   3.401   3.953
   23X2IT    O2  730   2.238   3.313   4.018
   23X2IT    N3  731   2.253   3.285   3.756
   23X2IT   H15  732   2.268   3.265   3.659
   23X2IT   H16  733   2.292   3.222   3.827
   23X2IT    N2  734   1.987   3.703   3.992
   23X2IT    C3  735   1.972   3.845   3.957
   23X2IT    C2  736   2.035   3.914   4.077
   23X2IT    H2  737   2.011   4.018   4.098
   23X2IT    N1  738   2.171   3.864   4.106
   23X2IT   H14  739   2.222   3.933   4.161
   23X2IT    C1  740   2.057   3.816   4.186
   23X2IT    H1  741   2.048   3.841   4.291
   23X2IT   C11  742   2.002   3.682   4.139
   23X2IT    O3  743   1.877   3.671   4.203
   23X2IT   C15  744   1.784   3.575   4.151
   24X2IT   H18  745   2.743   4.413   4.138
   24X2IT    N4  746   2.670   4.465   4.094
   24X2IT   H17  747   2.698   4.541   4.033
   24X2IT   C14  748   2.554   4.397   4.066
   24X2IT    O5  749   2.523   4.290   4.115
   24X2IT    O4  750   2.477   4.469   3.980
   24X2IT   C13  751   2.349   4.413   3.947
   24X2IT   C10  752   2.243   4.446   4.054
   24X2IT    C9  753   2.106   4.394   4.019
   24X2IT    C4  754   2.015   4.499   4.015
   24X2IT    C5  755   1.869   4.482   3.983
   24X2IT    O1  756   1.795   4.581   3.986
   24X2IT    C6  757   1.825   4.348   3.952
   24X2IT   C12  758   1.679   4.324   3.919
   24X2IT    C7  759   1.915   4.244   3.957
   24X2IT    C8  760   2.064   4.262   3.991
   24X2IT    O2  761   2.137   4.162   3.988
   24X2IT    N3  762   1.883   4.116   3.932
   24X2IT   H15  763   1.791   4.086   3.906
   24X2IT   H16  764   1.959   4.047   3.937
   24X2IT    N2  765   2.071   4.617   4.052
   24X2IT    C3  766   2.039   4.751   4.002
   24X2IT    C2  767   2.172   4.796   3.942
   24X2IT    H2  768   2.191   4.903   3.927
   24X2IT    N1  769   2.227   4.698   3.847
   24X2IT   H14  770   2.294   4.744   3.785
   24X2IT    C1  771   2.279   4.703   3.985
   24X2IT    H1  772   2.381   4.735   4.004
   24X2IT   C11  773   2.217   4.599   4.077
   24X2IT    O3  774   2.254   4.643   4.207
   24X2IT   C15  775   2.179   4.589   4.317
   25X2IT   H18  776   3.847   4.191   1.485
   25X2IT    N4  777   3.874   4.152   1.397
   25X2IT   H17  778   3.897   4.053   1.395
   25X2IT   C14  779   3.818   4.208   1.285
   25X2IT    O5  780   3.762   4.316   1.282
   25X2IT    O4  781   3.838   4.127   1.177
   25X2IT   C13  782   3.790   4.177   1.051
   25X2IT   C10  783   3.891   4.273   0.986
   25X2IT    C9  784   3.848   4.322   0.850
   25X2IT    C4  785   3.943   4.289   0.754
   25X2IT    C5  786   3.930   4.322   0.609
   25X2IT    O1  787   4.022   4.292   0.531
   25X2IT    C6  788   3.809   4.391   0.568
   25X2IT   C12  789   3.790   4.427   0.422
   25X2IT    C7  790   3.715   4.425   0.664
   25X2IT    C8  791   3.730   4.391   0.812
   25X2IT    O2  792   3.637   4.422   0.888
   25X2IT    N3  793   3.601   4.490   0.636
   25X2IT   H15  794   3.575   4.518   0.543
   25X2IT   H16  795   3.538   4.508   0.714
   25X2IT    N2  796   4.052   4.229   0.809
   25X2IT    C3  797   4.137   4.126   0.750
   25X2IT    C2  798   4.123   4.011   0.850
   25X2IT    H2  799   4.198   3.933   0.853
   25X2IT    N1  800   3.981   3.978   0.877
   25X2IT   H14  801   3.975   3.883   0.914
   25X2IT    C1  802   4.057   4.061   0.973
   25X2IT    H1  803   4.081   4.024   1.072
   25X2IT   C11  804   4.033   4.210   0.956
   25X2IT    O3  805   4.137   4.271   1.031
   25X2IT   C15  806   4.165   4.409   1.004
   26X2IT   H18  807   2.743   1.386   1.910
   26X2IT    N4  808   2.762   1.438   1.994
   26X2IT   H17  809   2.753   1.539   1.989
   26X2IT   C14  810   2.737   1.375   2.112
   26X2IT    O5  811   2.720   1.255   2.125
   26X2IT    O4  812   2.738   1.465   2.214
   26X2IT   C13  813   2.719   1.412   2.347
   26X2IT   C10  814   2.851   1.358   2.405
   26X2IT    C9  815   2.837   1.307   2.547
   26X2IT    C4  816   2.922   1.375   2.631
   26X2IT    C5  817   2.933   1.350   2.779
   26X2IT    O1  818   3.016   1.413   2.846
   26X2IT    C6  819   2.845   1.250   2.833
   26X2IT   C12  820   2.850   1.219   2.982
   26X2IT    C7  821   2.760   1.181   2.749
   26X2IT    C8  822   2.750   1.207   2.598
   26X2IT    O2  823   2.667   1.142   2.533
   26X2IT    N3  824   2.675   1.085   2.790
   26X2IT   H15  825   2.667   1.056   2.886
   26X2IT   H16  826   2.615   1.042   2.719
   26X2IT    N2  827   3.002   1.462   2.563
   26X2IT    C3  828   3.054   1.592   2.610
   26X2IT    C2  829   2.995   1.689   2.508
   26X2IT    H2  830   3.040   1.787   2.494
   26X2IT    N1  831   2.849   1.673   2.493
   26X2IT   H14  832   2.809   1.758   2.453
   26X2IT    C1  833   2.939   1.612   2.393
   26X2IT    H1  834   2.942   1.648   2.291
   26X2IT   C11  835   2.966   1.464   2.419
   26X2IT    O3  836   3.078   1.435   2.337
   26X2IT   C15  837   3.152   1.316   2.366
   27X2IT   H18  838   4.581   2.080   4.945
   27X2IT    N4  839   4.628   2.092   4.857
   27X2IT   H17  840   4.717   2.046   4.846
   27X2IT   C14  841   4.549   2.111   4.748
   27X2IT    O5  842   4.431   2.143   4.751
   27X2IT    O4  843   4.623   2.095   4.634
   27X2IT   C13  844   4.553   2.119   4.509
   27X2IT   C10  845   4.550   2.269   4.475
   27X2IT    C9  846   4.484   2.297   4.342
   27X2IT    C4  847   4.572   2.364   4.258
   27X2IT    C5  848   4.539   2.407   4.118
   27X2IT    O1  849   4.623   2.469   4.052
   27X2IT    C6  850   4.408   2.372   4.070
   27X2IT   C12  851   4.368   2.411   3.929
   27X2IT    C7  852   4.320   2.306   4.153
   27X2IT    C8  853   4.354   2.264   4.296
   27X2IT    O2  854   4.269   2.201   4.361
   27X2IT    N3  855   4.195   2.271   4.118
   27X2IT   H15  856   4.156   2.289   4.027
   27X2IT   H16  857   4.139   2.221   4.187
   27X2IT    N2  858   4.689   2.393   4.320
   27X2IT    C3  859   4.824   2.400   4.261
   27X2IT    C2  860   4.899   2.294   4.341
   27X2IT    H2  861   5.008   2.297   4.345
   27X2IT    N1  862   4.829   2.164   4.342
   27X2IT   H14  863   4.896   2.089   4.364
   27X2IT    C1  864   4.818   2.253   4.458
   27X2IT    H1  865   4.862   2.226   4.554
   27X2IT   C11  866   4.691   2.337   4.458
   27X2IT    O3  867   4.716   2.437   4.556
   27X2IT   C15  868   4.632   2.553   4.553
   28X2IT   H18  869   4.632   1.145  -0.092
   28X2IT    N4  870   4.683   1.141  -0.006
   28X2IT   H17  871   4.763   1.201   0.004
   28X2IT   C14  872   4.610   1.108   0.105
   28X2IT    O5  873   4.499   1.058   0.104
   28X2IT    O4  874   4.682   1.136   0.218
   28X2IT   C13  875   4.621   1.100   0.343
   28X2IT   C10  876   4.643   0.952   0.377
   28X2IT    C9  877   4.586   0.912   0.511
   28X2IT    C4  878   4.685   0.861   0.592
   28X2IT    C5  879   4.663   0.812   0.733
   28X2IT    O1  880   4.757   0.764   0.797
   28X2IT    C6  881   4.528   0.825   0.784
   28X2IT   C12  882   4.498   0.778   0.925
   28X2IT    C7  883   4.429   0.875   0.703
   28X2IT    C8  884   4.453   0.923   0.559
   28X2IT    O2  885   4.357   0.971   0.497
   28X2IT    N3  886   4.301   0.889   0.741
   28X2IT   H15  887   4.268   0.864   0.832
   28X2IT   H16  888   4.236   0.929   0.673
   28X2IT    N2  889   4.804   0.851   0.527
   28X2IT    C3  890   4.939   0.867   0.584
   28X2IT    C2  891   4.994   0.984   0.503
   28X2IT    H2  892   5.102   1.000   0.497
   28X2IT    N1  893   4.903   1.101   0.505
   28X2IT   H14  894   4.956   1.186   0.482
   28X2IT    C1  895   4.905   1.011   0.388
   28X2IT    H1  896   4.941   1.046   0.292
   28X2IT   C11  897   4.794   0.908   0.390
   28X2IT    O3  898   4.832   0.814   0.291
   28X2IT   C15  899   4.769   0.685   0.295
   29X2IT   H18  900   3.239   3.844   1.955
   29X2IT    N4  901   3.230   3.852   2.055
   29X2IT   H17  902   3.315   3.846   2.109
   29X2IT   C14  903   3.127   3.929   2.102
   29X2IT    O5  904   3.031   3.964   2.036
   29X2IT    O4  905   3.145   3.956   2.234
   29X2IT   C13  906   3.040   4.031   2.299
   29X2IT   C10  907   2.924   3.939   2.343
   29X2IT    C9  908   2.815   4.013   2.417
   29X2IT    C4  909   2.798   3.958   2.543
   29X2IT    C5  910   2.697   4.009   2.642
   29X2IT    O1  911   2.686   3.951   2.752
   29X2IT    C6  912   2.619   4.123   2.603
   29X2IT   C12  913   2.516   4.179   2.699
   29X2IT    C7  914   2.636   4.177   2.477
   29X2IT    C8  915   2.738   4.124   2.376
   29X2IT    O2  916   2.748   4.183   2.267
   29X2IT    N3  917   2.566   4.282   2.431
   29X2IT   H15  918   2.497   4.330   2.485
   29X2IT   H16  919   2.588   4.315   2.336
   29X2IT    N2  920   2.876   3.849   2.562
   29X2IT    C3  921   2.937   3.803   2.688
   29X2IT    C2  922   3.086   3.805   2.653
   29X2IT    H2  923   3.156   3.746   2.712
   29X2IT    N1  924   3.128   3.935   2.597
   29X2IT   H14  925   3.230   3.945   2.608
   29X2IT    C1  926   3.102   3.822   2.507
   29X2IT    H1  927   3.183   3.776   2.451
   29X2IT   C11  928   2.964   3.825   2.444
   29X2IT    O3  929   2.947   3.695   2.391
   29X2IT   C15  930   2.813   3.655   2.359
   30X2IT   H18  931   3.611   1.025   4.654
   30X2IT    N4  932   3.606   0.938   4.605
   30X2IT   H17  933   3.562   0.860   4.653
   30X2IT   C14  934   3.597   0.945   4.469
   30X2IT    O5  935   3.623   1.043   4.402
   30X2IT    O4  936   3.559   0.823   4.418
   30X2IT   C13  937   3.553   0.814   4.275
   30X2IT   C10  938   3.691   0.786   4.213
   30X2IT    C9  939   3.687   0.768   4.063
   30X2IT    C4  940   3.737   0.644   4.028
   30X2IT    C5  941   3.747   0.595   3.887
   30X2IT    O1  942   3.797   0.484   3.865
   30X2IT    C6  943   3.697   0.682   3.784
   30X2IT   C12  944   3.703   0.638   3.639
   30X2IT    C7  945   3.647   0.807   3.819
   30X2IT    C8  946   3.639   0.857   3.964
   30X2IT    O2  947   3.588   0.968   3.984
   30X2IT    N3  948   3.600   0.896   3.731
   30X2IT   H15  949   3.597   0.879   3.632
   30X2IT   H16  950   3.564   0.984   3.768
   30X2IT    N2  951   3.785   0.576   4.136
   30X2IT    C3  952   3.784   0.431   4.158
   30X2IT    C2  953   3.701   0.418   4.286
   30X2IT    H2  954   3.709   0.328   4.347
   30X2IT    N1  955   3.571   0.489   4.276
   30X2IT   H14  956   3.507   0.450   4.345
   30X2IT    C1  957   3.684   0.552   4.347
   30X2IT    H1  958   3.680   0.569   4.454
   30X2IT   C11  959   3.760   0.653   4.261
   30X2IT    O3  960   3.880   0.676   4.334
   30X2IT   C15  961   3.989   0.735   4.262
   31X2IT   H18  962   0.599   3.835   0.605
   31X2IT    N4  963   0.537   3.777   0.552
   31X2IT   H17  964   0.453   3.744   0.599
   31X2IT   C14  965   0.533   3.798   0.417
   31X2IT    O5  966   0.616   3.860   0.354
   31X2IT    O4  967   0.425   3.735   0.363
   31X2IT   C13  968   0.412   3.743   0.220
   31X2IT   C10  969   0.497   3.636   0.150
   31X2IT    C9  970   0.481   3.637  -0.001
   31X2IT    C4  971   0.438   3.513  -0.045
   31X2IT    C5  972   0.411   3.480  -0.188
   31X2IT    O1  973   0.376   3.365  -0.219
   31X2IT    C6  974   0.429   3.586  -0.284
   31X2IT   C12  975   0.403   3.560  -0.431
   31X2IT    C7  976   0.474   3.710  -0.240
   31X2IT    C8  977   0.501   3.742  -0.093
   31X2IT    O2  978   0.537   3.858  -0.065
   31X2IT    N3  979   0.495   3.814  -0.321
   31X2IT   H15  980   0.480   3.811  -0.421
   31X2IT   H16  981   0.527   3.901  -0.278
   31X2IT    N2  982   0.430   3.423   0.057
   31X2IT    C3  983   0.334   3.312   0.072
   31X2IT    C2  984   0.265   3.347   0.203
   31X2IT    H2  985   0.213   3.269   0.259
   31X2IT    N1  986   0.213   3.485   0.204
   31X2IT   H14  987   0.140   3.494   0.275
   31X2IT    C1  988   0.341   3.455   0.271
   31X2IT    H1  989   0.349   3.462   0.379
   31X2IT   C11  990   0.463   3.487   0.187
   31X2IT    O3  991   0.569   3.421   0.253
   31X2IT   C15  992   0.690   3.400   0.179
   32X2IT   H18  993   1.879   4.495   0.794
   32X2IT    N4  994   1.950   4.517   0.861
   32X2IT   H17  995   2.017   4.589   0.836
   32X2IT   C14  996   1.917   4.501   0.993
   32X2IT    O5  997   1.821   4.437   1.033
   32X2IT    O4  998   2.009   4.562   1.072
   32X2IT   C13  999   1.990   4.547   1.215
   32X2IT   C10 1000   2.048   4.414   1.266
   32X2IT    C9 1001   2.036   4.398   1.416
   32X2IT    C4 1002   2.162   4.380   1.472
   32X2IT    C5 1003   2.186   4.361   1.619
   32X2IT    O1 1004   2.301   4.342   1.660
   32X2IT    C6 1005   2.070   4.367   1.704
   32X2IT   C12 1006   2.087   4.349   1.854
   32X2IT    C7 1007   1.944   4.384   1.648
   32X2IT    C8 1008   1.921   4.402   1.498
   32X2IT    O2 1009   1.805   4.421   1.459
   32X2IT    N3 1010   1.831   4.388   1.719
   32X2IT   H15 1011   1.828   4.380   1.819
   32X2IT   H16 1012   1.744   4.403   1.667
   32X2IT    N2 1013   2.259   4.373   1.377
   32X2IT    C3 1014   2.399   4.418   1.388
   32X2IT    C2 1015   2.407   4.521   1.276
   32X2IT    H2 1016   2.505   4.549   1.236
   32X2IT    N1 1017   2.299   4.622   1.284
   32X2IT   H14 1018   2.327   4.706   1.232
   32X2IT    C1 1019   2.288   4.510   1.189
   32X2IT    H1 1020   2.291   4.527   1.082
   32X2IT   C11 1021   2.203   4.395   1.241
   32X2IT    O3 1022   2.232   4.288   1.154
   32X2IT   C15 1023   2.198   4.156   1.198
   33X2IT   H18 1024   1.617   0.308   3.845
   33X2IT    N4 1025   1.638   0.338   3.938
   33X2IT   H17 1026   1.692   0.275   3.996
   33X2IT   C14 1027   1.649   0.473   3.958
   33X2IT    O5 1028   1.610   0.559   3.880
   33X2IT    O4 1029   1.708   0.497   4.079
   33X2IT   C13 1030   1.720   0.636   4.116
   33X2IT   C10 1031   1.590   0.690   4.178
   33X2IT    C9 1032   1.602   0.833   4.224
   33X2IT    C4 1033   1.573   0.842   4.359
   33X2IT    C5 1034   1.576   0.970   4.438
   33X2IT    O1 1035   1.545   0.969   4.558
   33X2IT    C6 1036   1.615   1.089   4.365
   33X2IT   C12 1037   1.620   1.222   4.438
   33X2IT    C7 1038   1.643   1.080   4.230
   33X2IT    C8 1039   1.638   0.949   4.152
   33X2IT    O2 1040   1.670   0.953   4.032
   33X2IT    N3 1041   1.678   1.185   4.155
   33X2IT   H15 1042   1.687   1.279   4.191
   33X2IT   H16 1043   1.698   1.167   4.056
   33X2IT    N2 1044   1.534   0.723   4.411
   33X2IT    C3 1045   1.557   0.671   4.547
   33X2IT    C2 1046   1.636   0.544   4.520
   33X2IT    H2 1047   1.641   0.466   4.596
   33X2IT    N1 1048   1.754   0.569   4.433
   33X2IT   H14 1049   1.821   0.493   4.445
   33X2IT    C1 1050   1.630   0.512   4.375
   33X2IT    H1 1051   1.628   0.410   4.337
   33X2IT   C11 1052   1.542   0.616   4.308
   33X2IT    O3 1053   1.418   0.549   4.291
   33X2IT   C15 1054   1.303   0.631   4.266
   34X2IT   H18 1055  -0.280   3.898   4.507
   34X2IT    N4 1056  -0.188   3.930   4.529
   34X2IT   H17 1057  -0.164   3.938   4.627
   34X2IT   C14 1058  -0.089   3.901   4.439
   34X2IT    O5 1059  -0.107   3.864   4.324
   34X2IT    O4 1060   0.034   3.922   4.496
   34X2IT   C13 1061   0.148   3.901   4.410
   34X2IT   C10 1062   0.176   4.025   4.323
   34X2IT    C9 1063   0.299   4.009   4.237
   34X2IT    C4 1064   0.390   4.109   4.265
   34X2IT    C5 1065   0.524   4.123   4.197
   34X2IT    O1 1066   0.598   4.218   4.226
   34X2IT    C6 1067   0.557   4.022   4.100
   34X2IT   C12 1068   0.690   4.029   4.028
   34X2IT    C7 1069   0.466   3.922   4.071
   34X2IT    C8 1070   0.330   3.910   4.140
   34X2IT    O2 1071   0.257   3.814   4.109
   34X2IT    N3 1072   0.487   3.825   3.981
   34X2IT   H15 1073   0.572   3.817   3.927
   34X2IT   H16 1074   0.413   3.756   3.968
   34X2IT    N2 1075   0.342   4.198   4.355
   34X2IT    C3 1076   0.417   4.273   4.457
   34X2IT    C2 1077   0.351   4.226   4.586
   34X2IT    H2 1078   0.360   4.287   4.677
   34X2IT    N1 1079   0.346   4.079   4.597
   34X2IT   H14 1080   0.335   4.052   4.695
   34X2IT    C1 1081   0.226   4.153   4.554
   34X2IT    H1 1082   0.138   4.156   4.617
   34X2IT   C11 1083   0.207   4.157   4.403
   34X2IT    O3 1084   0.110   4.258   4.383
   34X2IT   C15 1085   0.099   4.312   4.250
   35X2IT   H18 1086   4.173   2.983  -0.524
   35X2IT    N4 1087   4.205   3.052  -0.458
   35X2IT   H17 1088   4.217   3.146  -0.492
   35X2IT   C14 1089   4.169   3.032  -0.327
   35X2IT    O5 1090   4.127   2.927  -0.281
   35X2IT    O4 1091   4.192   3.146  -0.255
   35X2IT   C13 1092   4.165   3.137  -0.114
   35X2IT   C10 1093   4.284   3.076  -0.037
   35X2IT    C9 1094   4.263   3.072   0.112
   35X2IT    C4 1095   4.363   3.142   0.177
   35X2IT    C5 1096   4.372   3.158   0.326
   35X2IT    O1 1097   4.468   3.219   0.375
   35X2IT    C6 1098   4.265   3.099   0.403
   35X2IT   C12 1099   4.267   3.112   0.554
   35X2IT    C7 1100   4.165   3.029   0.339
   35X2IT    C8 1101   4.158   3.012   0.187
   35X2IT    O2 1102   4.061   2.951   0.139
   35X2IT    N3 1103   4.063   2.969   0.402
   35X2IT   H15 1104   4.051   2.971   0.502
   35X2IT   H16 1105   3.994   2.921   0.344
   35X2IT    N2 1106   4.458   3.187   0.090
   35X2IT    C3 1107   4.538   3.310   0.100
   35X2IT    C2 1108   4.499   3.383  -0.028
   35X2IT    H2 1109   4.564   3.461  -0.068
   35X2IT    N1 1110   4.352   3.395  -0.044
   35X2IT   H14 1111   4.331   3.472  -0.108
   35X2IT    C1 1112   4.425   3.290  -0.118
   35X2IT    H1 1113   4.432   3.294  -0.226
   35X2IT   C11 1114   4.420   3.154  -0.050
   35X2IT    O3 1115   4.521   3.080  -0.116
   35X2IT   C15 1116   4.568   2.961  -0.051
   36X2IT   H18 1117   1.184   1.923   1.018
   36X2IT    N4 1118   1.240   2.003   0.994
   36X2IT   H17 1119   1.321   1.986   0.934
   36X2IT   C14 1120   1.175   2.123   0.986
   36X2IT    O5 1121   1.065   2.146   1.032
   36X2IT    O4 1122   1.254   2.215   0.923
   36X2IT   C13 1123   1.201   2.348   0.914
   36X2IT   C10 1124   1.226   2.428   1.043
   36X2IT    C9 1125   1.178   2.571   1.035
   36X2IT    C4 1126   1.283   2.658   1.058
   36X2IT    C5 1127   1.270   2.808   1.056
   36X2IT    O1 1128   1.368   2.878   1.082
   36X2IT    C6 1129   1.139   2.861   1.025
   36X2IT   C12 1130   1.118   3.011   1.021
   36X2IT    C7 1131   1.034   2.773   1.003
   36X2IT    C8 1132   1.049   2.621   1.006
   36X2IT    O2 1133   0.949   2.552   0.980
   36X2IT    N3 1134   0.909   2.813   0.975
   36X2IT   H15 1135   0.882   2.909   0.967
   36X2IT   H16 1136   0.839   2.739   0.959
   36X2IT    N2 1137   1.398   2.593   1.090
   36X2IT    C3 1138   1.536   2.632   1.059
   36X2IT    C2 1139   1.585   2.514   0.976
   36X2IT    H2 1140   1.692   2.497   0.966
   36X2IT    N1 1141   1.494   2.483   0.864
   36X2IT   H14 1142   1.545   2.429   0.793
   36X2IT    C1 1143   1.488   2.402   0.988
   36X2IT    H1 1144   1.518   2.298   0.988
   36X2IT   C11 1145   1.378   2.446   1.083
   36X2IT    O3 1146   1.410   2.382   1.205
   36X2IT   C15 1147   1.348   2.432   1.324
   37X2IT   H18 1148   3.992   5.575   4.424
   37X2IT    N4 1149   3.984   5.500   4.357
   37X2IT   H17 1150   4.034   5.512   4.269
   37X2IT   C14 1151   3.968   5.374   4.407
   37X2IT    O5 1152   3.934   5.348   4.522
   37X2IT    O4 1153   3.991   5.282   4.310
   37X2IT   C13 1154   3.971   5.144   4.347
   37X2IT   C10 1155   3.823   5.104   4.337
   37X2IT    C9 1156   3.798   4.958   4.369
   37X2IT    C4 1157   3.737   4.896   4.261
   37X2IT    C5 1158   3.700   4.750   4.259
   37X2IT    O1 1159   3.642   4.704   4.160
   37X2IT    C6 1160   3.734   4.673   4.376
   37X2IT   C12 1161   3.699   4.526   4.381
   37X2IT    C7 1162   3.794   4.736   4.484
   37X2IT    C8 1163   3.831   4.885   4.485
   37X2IT    O2 1164   3.888   4.929   4.585
   37X2IT    N3 1165   3.827   4.673   4.598
   37X2IT   H15 1166   3.812   4.575   4.613
   37X2IT   H16 1167   3.873   4.729   4.670
   37X2IT    N2 1168   3.708   4.983   4.161
   37X2IT    C3 1169   3.707   4.957   4.016
   37X2IT    C2 1170   3.811   5.056   3.965
   37X2IT    H2 1171   3.811   5.085   3.861
   37X2IT    N1 1172   3.940   5.045   4.038
   37X2IT   H14 1173   4.014   5.085   3.981
   37X2IT    C1 1174   3.845   5.152   4.073
   37X2IT    H1 1175   3.869   5.256   4.055
   37X2IT   C11 1176   3.758   5.119   4.194
   37X2IT    O3 1177   3.655   5.216   4.190
   37X2IT   C15 1178   3.537   5.189   4.267
   38X2IT   H18 1179   1.452   0.875   3.356
   38X2IT    N4 1180   1.378   0.897   3.292
   38X2IT   H17 1181   1.302   0.831   3.285
   38X2IT   C14 1182   1.352   1.030   3.272
   38X2IT    O5 1183   1.426   1.121   3.302
   38X2IT    O4 1184   1.231   1.045   3.210
   38X2IT   C13 1185   1.193   1.180   3.176
   38X2IT   C10 1186   1.257   1.225   3.043
   38X2IT    C9 1187   1.214   1.364   3.001
   38X2IT    C4 1188   1.155   1.359   2.876
   38X2IT    C5 1189   1.101   1.480   2.805
   38X2IT    O1 1190   1.053   1.467   2.691
   38X2IT    C6 1191   1.109   1.605   2.875
   38X2IT   C12 1192   1.056   1.731   2.809
   38X2IT    C7 1193   1.169   1.610   3.000
   38X2IT    C8 1194   1.225   1.486   3.071
   38X2IT    O2 1195   1.273   1.501   3.184
   38X2IT    N3 1196   1.184   1.722   3.072
   38X2IT   H15 1197   1.151   1.812   3.041
   38X2IT   H16 1198   1.228   1.713   3.163
   38X2IT    N2 1199   1.159   1.235   2.822
   38X2IT    C3 1200   1.060   1.171   2.733
   38X2IT    C2 1201   1.018   1.049   2.814
   38X2IT    H2 1202   0.972   0.965   2.764
   38X2IT    N1 1203   0.977   1.084   2.952
   38X2IT   H14 1204   0.919   1.010   2.990
   38X2IT    C1 1205   1.112   1.030   2.927
   38X2IT    H1 1206   1.141   0.933   2.965
   38X2IT   C11 1207   1.220   1.138   2.918
   38X2IT    O3 1208   1.331   1.070   2.862
   38X2IT   C15 1209   1.434   1.152   2.805
   39X2IT   H18 1210   4.962   0.224   3.399
   39X2IT    N4 1211   4.877   0.268   3.431
   39X2IT   H17 1212   4.801   0.274   3.364
   39X2IT   C14 1213   4.848   0.256   3.564
   39X2IT    O5 1214   4.927   0.223   3.650
   39X2IT    O4 1215   4.718   0.291   3.586
   39X2IT   C13 1216   4.675   0.290   3.724
   39X2IT   C10 1217   4.713   0.421   3.796
   39X2IT    C9 1218   4.664   0.427   3.939
   39X2IT    C4 1219   4.582   0.537   3.956
   39X2IT    C5 1220   4.516   0.572   4.086
   39X2IT    O1 1221   4.448   0.675   4.094
   39X2IT    C6 1222   4.537   0.481   4.196
   39X2IT   C12 1223   4.473   0.510   4.330
   39X2IT    C7 1224   4.619   0.371   4.179
   39X2IT    C8 1225   4.687   0.337   4.046
   39X2IT    O2 1226   4.755   0.234   4.040
   39X2IT    N3 1227   4.647   0.282   4.275
   39X2IT   H15 1228   4.609   0.289   4.368
   39X2IT   H16 1229   4.708   0.204   4.251
   39X2IT    N2 1230   4.576   0.615   3.845
   39X2IT    C3 1231   4.462   0.694   3.797
   39X2IT    C2 1232   4.436   0.633   3.660
   39X2IT    H2 1233   4.380   0.690   3.585
   39X2IT    N1 1234   4.421   0.486   3.666
   39X2IT   H14 1235   4.370   0.453   3.583
   39X2IT    C1 1236   4.549   0.545   3.622
   39X2IT    H1 1237   4.584   0.533   3.521
   39X2IT   C11 1238   4.653   0.552   3.733
   39X2IT    O3 1239   4.752   0.640   3.682
   39X2IT   C15 1240   4.843   0.697   3.776
   40X2IT   H18 1241   1.062   1.381   3.590
   40X2IT    N4 1242   1.137   1.428   3.543
   40X2IT   H17 1243   1.198   1.372   3.485
   40X2IT   C14 1244   1.115   1.559   3.510
   40X2IT    O5 1245   1.026   1.629   3.554
   40X2IT    O4 1246   1.210   1.601   3.421
   40X2IT   C13 1247   1.203   1.739   3.382
   40X2IT   C10 1248   1.271   1.831   3.485
   40X2IT    C9 1249   1.272   1.976   3.443
   40X2IT    C4 1250   1.402   2.024   3.438
   40X2IT    C5 1251   1.439   2.164   3.399
   40X2IT    O1 1252   1.558   2.199   3.400
   40X2IT    C6 1253   1.330   2.251   3.363
   40X2IT   C12 1254   1.359   2.394   3.323
   40X2IT    C7 1255   1.200   2.205   3.370
   40X2IT    C8 1256   1.164   2.061   3.410
   40X2IT    O2 1257   1.044   2.029   3.409
   40X2IT    N3 1258   1.092   2.279   3.341
   40X2IT   H15 1259   1.098   2.375   3.311
   40X2IT   H16 1260   1.000   2.233   3.348
   40X2IT    N2 1261   1.492   1.931   3.478
   40X2IT    C3 1262   1.630   1.910   3.430
   40X2IT    C2 1263   1.625   1.768   3.377
   40X2IT    H2 1264   1.717   1.711   3.365
   40X2IT    N1 1265   1.513   1.747   3.282
   40X2IT   H14 1266   1.533   1.665   3.224
   40X2IT    C1 1267   1.499   1.703   3.422
   40X2IT    H1 1268   1.493   1.597   3.447
   40X2IT   C11 1269   1.424   1.802   3.510
   40X2IT    O3 1270   1.451   1.758   3.642
   40X2IT   C15 1271   1.427   1.852   3.748
   41X2IT   H18 1272   3.285   2.815   4.153
   41X2IT    N4 1273   3.210   2.808   4.086
   41X2IT   H17 1274   3.118   2.837   4.117
   41X2IT   C14 1275   3.245   2.825   3.955
   41X2IT    O5 1276   3.359   2.819   3.911
   41X2IT    O4 1277   3.133   2.845   3.879
   41X2IT   C13 1278   3.154   2.858   3.737
   41X2IT   C10 1279   3.164   2.720   3.669
   41X2IT    C9 1280   3.179   2.729   3.519
   41X2IT    C4 1281   3.076   2.660   3.457
   41X2IT    C5 1282   3.060   2.650   3.308
   41X2IT    O1 1283   2.967   2.583   3.261
   41X2IT    C6 1284   3.158   2.719   3.228
   41X2IT   C12 1285   3.148   2.713   3.077
   41X2IT    C7 1286   3.262   2.787   3.290
   41X2IT    C8 1287   3.277   2.796   3.442
   41X2IT    O2 1288   3.371   2.863   3.487
   41X2IT    N3 1289   3.359   2.852   3.224
   41X2IT   H15 1290   3.363   2.858   3.124
   41X2IT   H16 1291   3.429   2.900   3.281
   41X2IT    N2 1292   2.995   2.597   3.546
   41X2IT    C3 1293   2.851   2.573   3.536
   41X2IT    C2 1294   2.797   2.646   3.658
   41X2IT    H2 1295   2.699   2.620   3.697
   41X2IT    N1 1296   2.844   2.786   3.666
   41X2IT   H14 1297   2.781   2.840   3.726
   41X2IT    C1 1298   2.910   2.681   3.748
   41X2IT    H1 1299   2.901   2.683   3.856
   41X2IT   C11 1300   3.038   2.627   3.686
   41X2IT    O3 1301   3.064   2.510   3.760
   41X2IT   C15 1302   3.156   2.415   3.701
   42X2IT   H18 1303   4.654   0.151   2.459
   42X2IT    N4 1304   4.669   0.245   2.427
   42X2IT   H17 1305   4.725   0.305   2.486
   42X2IT   C14 1306   4.671   0.264   2.292
   42X2IT    O5 1307   4.630   0.185   2.209
   42X2IT    O4 1308   4.722   0.387   2.263
   42X2IT   C13 1309   4.725   0.424   2.124
   42X2IT   C10 1310   4.589   0.481   2.078
   42X2IT    C9 1311   4.589   0.527   1.934
   42X2IT    C4 1312   4.554   0.661   1.927
   42X2IT    C5 1313   4.545   0.738   1.799
   42X2IT    O1 1314   4.509   0.857   1.802
   42X2IT    C6 1315   4.579   0.667   1.678
   42X2IT   C12 1316   4.573   0.740   1.545
   42X2IT    C7 1317   4.613   0.533   1.685
   42X2IT    C8 1318   4.621   0.455   1.817
   42X2IT    O2 1319   4.657   0.337   1.812
   42X2IT    N3 1320   4.645   0.459   1.578
   42X2IT   H15 1321   4.647   0.495   1.485
   42X2IT   H16 1322   4.670   0.361   1.595
   42X2IT    N2 1323   4.521   0.711   2.049
   42X2IT    C3 1324   4.541   0.848   2.099
   42X2IT    C2 1325   4.630   0.825   2.220
   42X2IT    H2 1326   4.636   0.901   2.298
   42X2IT    N1 1327   4.749   0.743   2.188
   42X2IT   H14 1328   4.821   0.758   2.259
   42X2IT    C1 1329   4.632   0.680   2.253
   42X2IT    H1 1330   4.638   0.643   2.355
   42X2IT   C11 1331   4.540   0.609   2.155
   42X2IT    O3 1332   4.421   0.587   2.230
   42X2IT   C15 1333   4.302   0.557   2.155
   43X2IT   H18 1334   2.651   4.915  -0.283
   43X2IT    N4 1335   2.625   4.844  -0.217
   43X2IT   H17 1336   2.623   4.748  -0.251
   43X2IT   C14 1337   2.656   4.868  -0.086
   43X2IT    O5 1338   2.686   4.977  -0.040
   43X2IT    O4 1339   2.644   4.753  -0.014
   43X2IT   C13 1340   2.667   4.764   0.128
   43X2IT   C10 1341   2.541   4.813   0.202
   43X2IT    C9 1342   2.559   4.820   0.352
   43X2IT    C4 1343   2.466   4.741   0.415
   43X2IT    C5 1344   2.457   4.724   0.564
   43X2IT    O1 1345   2.367   4.654   0.612
   43X2IT    C6 1346   2.555   4.795   0.643
   43X2IT   C12 1347   2.552   4.782   0.794
   43X2IT    C7 1348   2.648   4.875   0.580
   43X2IT    C8 1349   2.656   4.891   0.428
   43X2IT    O2 1350   2.746   4.963   0.382
   43X2IT    N3 1351   2.742   4.946   0.645
   43X2IT   H15 1352   2.752   4.945   0.744
   43X2IT   H16 1353   2.807   5.000   0.587
   43X2IT    N2 1354   2.378   4.685   0.327
   43X2IT    C3 1355   2.312   4.554   0.336
   43X2IT    C2 1356   2.361   4.485   0.210
   43X2IT    H2 1357   2.305   4.400   0.170
   43X2IT    N1 1358   2.508   4.489   0.197
   43X2IT   H14 1359   2.539   4.414   0.133
   43X2IT    C1 1360   2.426   4.584   0.121
   43X2IT    H1 1361   2.420   4.579   0.013
   43X2IT   C11 1362   2.415   4.721   0.187
   43X2IT    O3 1363   2.308   4.784   0.119
   43X2IT   C15 1364   2.247   4.897   0.183
   44X2IT   H18 1365   1.096   0.161   0.934
   44X2IT    N4 1366   1.046   0.248   0.934
   44X2IT   H17 1367   1.069   0.315   0.863
   44X2IT   C14 1368   0.918   0.244   0.982
   44X2IT    O5 1369   0.870   0.153   1.048
   44X2IT    O4 1370   0.852   0.359   0.950
   44X2IT   C13 1371   0.717   0.372   1.000
   44X2IT   C10 1372   0.716   0.423   1.145
   44X2IT    C9 1373   0.576   0.444   1.199
   44X2IT    C4 1374   0.560   0.576   1.239
   44X2IT    C5 1375   0.433   0.631   1.297
   44X2IT    O1 1376   0.429   0.749   1.333
   44X2IT    C6 1377   0.322   0.539   1.306
   44X2IT   C12 1378   0.190   0.588   1.363
   44X2IT    C7 1379   0.338   0.408   1.267
   44X2IT    C8 1380   0.469   0.353   1.209
   44X2IT    O2 1381   0.471   0.234   1.173
   44X2IT    N3 1382   0.241   0.315   1.274
   44X2IT   H15 1383   0.149   0.335   1.308
   44X2IT   H16 1384   0.264   0.221   1.241
   44X2IT    N2 1385   0.675   0.647   1.228
   44X2IT    C3 1386   0.690   0.790   1.195
   44X2IT    C2 1387   0.773   0.785   1.068
   44X2IT    H2 1388   0.829   0.873   1.036
   44X2IT    N1 1389   0.715   0.696   0.966
   44X2IT   H14 1390   0.751   0.721   0.873
   44X2IT    C1 1391   0.827   0.648   1.049
   44X2IT    H1 1392   0.924   0.628   1.004
   44X2IT   C11 1393   0.783   0.564   1.167
   44X2IT    O3 1394   0.898   0.558   1.250
   44X2IT   C15 1395   0.879   0.519   1.386
   45X2IT   H18 1396  -0.399   1.985   2.751
   45X2IT    N4 1397  -0.360   2.070   2.786
   45X2IT   H17 1398  -0.417   2.125   2.849
   45X2IT   C14 1399  -0.224   2.073   2.801
   45X2IT    O5 1400  -0.146   1.994   2.750
   45X2IT    O4 1401  -0.187   2.180   2.877
   45X2IT   C13 1402  -0.046   2.199   2.896
   45X2IT   C10 1403   0.017   2.274   2.777
   45X2IT    C9 1404   0.164   2.303   2.796
   45X2IT    C4 1405   0.188   2.439   2.788
   45X2IT    C5 1406   0.324   2.501   2.804
   45X2IT    O1 1407   0.336   2.624   2.792
   45X2IT    C6 1408   0.433   2.411   2.831
   45X2IT   C12 1409   0.573   2.468   2.848
   45X2IT    C7 1410   0.410   2.275   2.838
   45X2IT    C8 1411   0.271   2.213   2.821
   45X2IT    O2 1412   0.261   2.090   2.833
   45X2IT    N3 1413   0.505   2.184   2.861
   45X2IT   H15 1414   0.602   2.208   2.876
   45X2IT   H16 1415   0.476   2.086   2.865
   45X2IT    N2 1416   0.076   2.509   2.758
   45X2IT    C3 1417   0.038   2.644   2.802
   45X2IT    C2 1418  -0.092   2.619   2.876
   45X2IT    H2 1419  -0.162   2.701   2.892
   45X2IT    N1 1420  -0.080   2.513   2.978
   45X2IT   H14 1421  -0.155   2.523   3.047
   45X2IT    C1 1422  -0.140   2.481   2.847
   45X2IT    H1 1423  -0.245   2.455   2.839
   45X2IT   C11 1424  -0.042   2.418   2.749
   45X2IT    O3 1425  -0.108   2.427   2.624
   45X2IT   C15 1426  -0.027   2.411   2.507
   46X2IT   H18 1427   0.766   0.725   4.066
   46X2IT    N4 1428   0.771   0.818   4.104
   46X2IT   H17 1429   0.818   0.888   4.048
   46X2IT   C14 1430   0.669   0.855   4.186
   46X2IT    O5 1431   0.589   0.780   4.239
   46X2IT    O4 1432   0.672   0.991   4.205
   46X2IT   C13 1433   0.573   1.044   4.296
   46X2IT   C10 1434   0.619   1.033   4.442
   46X2IT    C9 1435   0.522   1.094   4.540
   46X2IT    C4 1436   0.584   1.192   4.614
   46X2IT    C5 1437   0.515   1.274   4.720
   46X2IT    O1 1438   0.580   1.358   4.784
   46X2IT    C6 1439   0.375   1.248   4.740
   46X2IT   C12 1440   0.299   1.327   4.845
   46X2IT    C7 1441   0.313   1.149   4.667
   46X2IT    C8 1442   0.384   1.066   4.560
   46X2IT    O2 1443   0.317   0.983   4.496
   46X2IT    N3 1444   0.183   1.116   4.680
   46X2IT   H15 1445   0.121   1.162   4.744
   46X2IT   H16 1446   0.147   1.042   4.619
   46X2IT    N2 1447   0.717   1.201   4.586
   46X2IT    C3 1448   0.802   1.321   4.587
   46X2IT    C2 1449   0.851   1.327   4.443
   46X2IT    H2 1450   0.941   1.384   4.419
   46X2IT    N1 1451   0.741   1.320   4.345
   46X2IT   H14 1452   0.772   1.358   4.256
   46X2IT    C1 1453   0.820   1.199   4.375
   46X2IT    H1 1454   0.884   1.154   4.300
   46X2IT   C11 1455   0.754   1.107   4.477
   46X2IT    O3 1456   0.857   1.018   4.516
   46X2IT   C15 1457   0.838   0.945   4.638
   47X2IT   H18 1458   2.190   5.182   2.401
   47X2IT    N4 1459   2.272   5.126   2.389
   47X2IT   H17 1460   2.273   5.035   2.433
   47X2IT   C14 1461   2.342   5.144   2.272
   47X2IT    O5 1462   2.330   5.239   2.197
   47X2IT    O4 1463   2.431   5.042   2.255
   47X2IT   C13 1464   2.517   5.051   2.140
   47X2IT   C10 1465   2.639   5.140   2.167
   47X2IT    C9 1466   2.735   5.147   2.050
   47X2IT    C4 1467   2.860   5.104   2.089
   47X2IT    C5 1468   2.979   5.098   1.997
   47X2IT    O1 1469   3.089   5.062   2.042
   47X2IT    C6 1470   2.956   5.135   1.860
   47X2IT   C12 1471   3.071   5.131   1.762
   47X2IT    C7 1472   2.831   5.179   1.821
   47X2IT    C8 1473   2.711   5.186   1.916
   47X2IT    O2 1474   2.602   5.223   1.870
   47X2IT    N3 1475   2.800   5.218   1.696
   47X2IT   H15 1476   2.867   5.218   1.621
   47X2IT   H16 1477   2.704   5.247   1.679
   47X2IT    N2 1478   2.866   5.077   2.222
   47X2IT    C3 1479   2.947   4.974   2.290
   47X2IT    C2 1480   2.841   4.888   2.357
   47X2IT    H2 1481   2.868   4.824   2.441
   47X2IT    N1 1482   2.736   4.844   2.262
   47X2IT   H14 1483   2.689   4.761   2.299
   47X2IT    C1 1484   2.710   4.958   2.351
   47X2IT    H1 1485   2.636   4.951   2.430
   47X2IT   C11 1486   2.732   5.093   2.285
   47X2IT    O3 1487   2.735   5.185   2.393
   47X2IT   C15 1488   2.792   5.314   2.368
   48X2IT   H18 1489   0.094   2.805   3.640
   48X2IT    N4 1490   0.176   2.821   3.695
   48X2IT   H17 1491   0.256   2.860   3.648
   48X2IT   C14 1492   0.156   2.849   3.827
   48X2IT    O5 1493   0.052   2.830   3.888
   48X2IT    O4 1494   0.270   2.898   3.882
   48X2IT   C13 1495   0.266   2.927   4.024
   48X2IT   C10 1496   0.291   2.800   4.107
   48X2IT    C9 1497   0.294   2.826   4.256
   48X2IT    C4 1498   0.415   2.786   4.309
   48X2IT    C5 1499   0.451   2.799   4.455
   48X2IT    O1 1500   0.561   2.757   4.494
   48X2IT    C6 1501   0.353   2.861   4.540
   48X2IT   C12 1502   0.383   2.878   4.688
   48X2IT    C7 1503   0.231   2.900   4.487
   48X2IT    C8 1504   0.195   2.886   4.339
   48X2IT    O2 1505   0.085   2.929   4.301
   48X2IT    N3 1506   0.133   2.957   4.559
   48X2IT   H15 1507   0.141   2.976   4.657
   48X2IT   H16 1508   0.048   2.984   4.509
   48X2IT    N2 1509   0.494   2.726   4.217
   48X2IT    C3 1510   0.641   2.729   4.208
   48X2IT    C2 1511   0.664   2.792   4.071
   48X2IT    H2 1512   0.759   2.778   4.021
   48X2IT    N1 1513   0.590   2.919   4.055
   48X2IT   H14 1514   0.633   2.974   3.981
   48X2IT    C1 1515   0.536   2.795   3.996
   48X2IT    H1 1516   0.530   2.783   3.889
   48X2IT   C11 1517   0.429   2.729   4.083
   48X2IT    O3 1518   0.416   2.599   4.027
   48X2IT   C15 1519   0.353   2.500   4.109
   49X2IT   H18 1520  -0.222   2.981   2.042
   49X2IT    N4 1521  -0.156   2.969   1.967
   49X2IT   H17 1522  -0.153   3.041   1.897
   49X2IT   C14 1523  -0.043   2.899   1.997
   49X2IT    O5 1524  -0.027   2.828   2.095
   49X2IT    O4 1525   0.050   2.916   1.897
   49X2IT   C13 1526   0.173   2.843   1.912
   49X2IT   C10 1527   0.158   2.698   1.860
   49X2IT    C9 1528   0.287   2.620   1.867
   49X2IT    C4 1529   0.322   2.574   1.742
   49X2IT    C5 1530   0.445   2.493   1.713
   49X2IT    O1 1531   0.466   2.452   1.598
   49X2IT    C6 1532   0.532   2.466   1.825
   49X2IT   C12 1533   0.658   2.385   1.803
   49X2IT    C7 1534   0.497   2.511   1.951
   49X2IT    C8 1535   0.371   2.593   1.979
   49X2IT    O2 1536   0.351   2.632   2.095
   49X2IT    N3 1537   0.570   2.490   2.061
   49X2IT   H15 1538   0.657   2.439   2.060
   49X2IT   H16 1539   0.536   2.529   2.149
   49X2IT    N2 1540   0.227   2.603   1.649
   49X2IT    C3 1541   0.247   2.634   1.506
   49X2IT    C2 1542   0.190   2.774   1.495
   49X2IT    H2 1543   0.159   2.813   1.397
   49X2IT    N1 1544   0.247   2.867   1.595
   49X2IT   H14 1545   0.234   2.963   1.564
   49X2IT    C1 1546   0.114   2.807   1.618
   49X2IT    H1 1547   0.025   2.868   1.619
   49X2IT   C11 1548   0.118   2.684   1.709
   49X2IT    O3 1549  -0.009   2.624   1.691
   49X2IT   C15 1550  -0.022   2.487   1.732
   50X2IT   H18 1551   4.085   2.563   2.887
   50X2IT    N4 1552   4.100   2.619   2.968
   50X2IT   H17 1553   4.025   2.622   3.037
   50X2IT   C14 1554   4.229   2.632   3.010
   50X2IT    O5 1555   4.328   2.605   2.944
   50X2IT    O4 1556   4.232   2.684   3.137
   50X2IT   C13 1557   4.363   2.709   3.192
   50X2IT   C10 1558   4.418   2.845   3.145
   50X2IT    C9 1559   4.552   2.879   3.207
   50X2IT    C4 1560   4.545   2.998   3.275
   50X2IT    C5 1561   4.660   3.060   3.349
   50X2IT    O1 1562   4.645   3.170   3.405
   50X2IT    C6 1563   4.784   2.987   3.348
   50X2IT   C12 1564   4.904   3.043   3.421
   50X2IT    C7 1565   4.792   2.867   3.278
   50X2IT    C8 1566   4.674   2.806   3.203
   50X2IT    O2 1567   4.691   2.696   3.148
   50X2IT    N3 1568   4.903   2.793   3.271
   50X2IT   H15 1569   4.989   2.818   3.316
   50X2IT   H16 1570   4.897   2.705   3.217
   50X2IT    N2 1571   4.423   3.057   3.262
   50X2IT    C3 1572   4.351   3.140   3.361
   50X2IT    C2 1573   4.223   3.060   3.382
   50X2IT    H2 1574   4.135   3.110   3.423
   50X2IT    N1 1575   4.250   2.918   3.415
   50X2IT   H14 1576   4.168   2.878   3.461
   50X2IT    C1 1577   4.212   2.956   3.277
   50X2IT    H1 1578   4.117   2.924   3.235
   50X2IT   C11 1579   4.331   2.970   3.184
   50X2IT    O3 1580   4.278   3.038   3.071
   50X2IT   C15 1581   4.372   3.100   2.982
   51X2IT   H18 1582   2.359   1.714   0.547
   51X2IT    N4 1583   2.296   1.714   0.625
   51X2IT   H17 1584   2.256   1.625   0.652
   51X2IT   C14 1585   2.318   1.809   0.721
   51X2IT    O5 1586   2.388   1.908   0.707
   51X2IT    O4 1587   2.247   1.778   0.834
   51X2IT   C13 1588   2.255   1.874   0.942
   51X2IT   C10 1589   2.156   1.990   0.922
   51X2IT    C9 1590   2.157   2.089   1.036
   51X2IT    C4 1591   2.031   2.100   1.091
   51X2IT    C5 1592   1.997   2.189   1.207
   51X2IT    O1 1593   1.880   2.194   1.247
   51X2IT    C6 1594   2.106   2.264   1.265
   51X2IT   C12 1595   2.079   2.355   1.382
   51X2IT    C7 1596   2.232   2.254   1.209
   51X2IT    C8 1597   2.265   2.164   1.090
   51X2IT    O2 1598   2.383   2.159   1.051
   51X2IT    N3 1599   2.339   2.321   1.254
   51X2IT   H15 1600   2.335   2.384   1.333
   51X2IT   H16 1601   2.428   2.305   1.207
   51X2IT    N2 1602   1.939   2.026   1.023
   51X2IT    C3 1603   1.820   1.957   1.076
   51X2IT    C2 1604   1.848   1.812   1.039
   51X2IT    H2 1605   1.766   1.741   1.034
   51X2IT    N1 1606   1.982   1.767   1.084
   51X2IT   H14 1607   1.983   1.665   1.089
   51X2IT    C1 1608   1.961   1.807   0.943
   51X2IT    H1 1609   1.968   1.733   0.863
   51X2IT   C11 1610   2.005   1.949   0.913
   51X2IT    O3 1611   1.947   1.977   0.787
   51X2IT   C15 1612   1.937   2.115   0.749
   52X2IT   H18 1613   2.378   2.054   2.577
   52X2IT    N4 1614   2.297   2.027   2.524
   52X2IT   H17 1615   2.291   2.061   2.429
   52X2IT   C14 1616   2.242   1.906   2.556
   52X2IT    O5 1617   2.264   1.843   2.658
   52X2IT    O4 1618   2.154   1.868   2.458
   52X2IT   C13 1619   2.083   1.745   2.481
   52X2IT   C10 1620   1.959   1.768   2.569
   52X2IT    C9 1621   1.878   1.642   2.590
   52X2IT    C4 1622   1.748   1.662   2.546
   52X2IT    C5 1623   1.641   1.557   2.552
   52X2IT    O1 1624   1.526   1.584   2.514
   52X2IT    C6 1625   1.680   1.428   2.604
   52X2IT   C12 1626   1.577   1.317   2.612
   52X2IT    C7 1627   1.809   1.408   2.649
   52X2IT    C8 1628   1.917   1.517   2.643
   52X2IT    O2 1629   2.031   1.487   2.682
   52X2IT    N3 1630   1.854   1.293   2.700
   52X2IT   H15 1631   1.797   1.211   2.709
   52X2IT   H16 1632   1.952   1.289   2.728
   52X2IT    N2 1633   1.727   1.789   2.505
   52X2IT    C3 1634   1.637   1.836   2.398
   52X2IT    C2 1635   1.734   1.905   2.303
   52X2IT    H2 1636   1.697   1.978   2.231
   52X2IT    N1 1637   1.849   1.818   2.267
   52X2IT   H14 1638   1.890   1.852   2.180
   52X2IT    C1 1639   1.865   1.922   2.370
   52X2IT    H1 1640   1.930   2.007   2.353
   52X2IT   C11 1641   1.853   1.868   2.512
   52X2IT    O3 1642   1.838   1.985   2.592
   52X2IT   C15 1643   1.786   1.967   2.724
   53X2IT   H18 1644   1.728   4.792   3.125
   53X2IT    N4 1645   1.639   4.755   3.101
   53X2IT   H17 1646   1.558   4.796   3.145
   53X2IT   C14 1647   1.626   4.703   2.975
   53X2IT    O5 1648   1.719   4.673   2.902
   53X2IT    O4 1649   1.494   4.684   2.945
   53X2IT   C13 1650   1.466   4.623   2.818
   53X2IT   C10 1651   1.477   4.470   2.825
   53X2IT    C9 1652   1.441   4.402   2.695
   53X2IT    C4 1653   1.336   4.313   2.714
   53X2IT    C5 1654   1.276   4.230   2.605
   53X2IT    O1 1655   1.185   4.150   2.632
   53X2IT    C6 1656   1.330   4.248   2.472
   53X2IT   C12 1657   1.273   4.167   2.358
   53X2IT    C7 1658   1.435   4.336   2.453
   53X2IT    C8 1659   1.497   4.419   2.566
   53X2IT    O2 1660   1.588   4.498   2.536
   53X2IT    N3 1661   1.493   4.358   2.334
   53X2IT   H15 1662   1.464   4.312   2.250
   53X2IT   H16 1663   1.569   4.426   2.331
   53X2IT    N2 1664   1.300   4.305   2.845
   53X2IT    C3 1665   1.166   4.281   2.900
   53X2IT    C2 1666   1.143   4.406   2.984
   53X2IT    H2 1667   1.068   4.406   3.063
   53X2IT    N1 1668   1.166   4.530   2.906
   53X2IT   H14 1669   1.118   4.608   2.952
   53X2IT    C1 1670   1.271   4.480   2.998
   53X2IT    H1 1671   1.298   4.536   3.087
   53X2IT   C11 1672   1.379   4.400   2.927
   53X2IT    O3 1673   1.448   4.335   3.033
   53X2IT   C15 1674   1.530   4.223   2.998
   54X2IT   H18 1675   3.676   3.549   2.680
   54X2IT    N4 1676   3.637   3.558   2.588
   54X2IT   H17 1677   3.537   3.572   2.582
   54X2IT   C14 1678   3.718   3.612   2.492
   54X2IT    O5 1679   3.839   3.624   2.501
   54X2IT    O4 1680   3.644   3.647   2.383
   54X2IT   C13 1681   3.717   3.700   2.270
   54X2IT   C10 1682   3.776   3.587   2.183
   54X2IT    C9 1683   3.848   3.638   2.061
   54X2IT    C4 1684   3.791   3.586   1.946
   54X2IT    C5 1685   3.838   3.617   1.807
   54X2IT    O1 1686   3.783   3.562   1.711
   54X2IT    C6 1687   3.947   3.710   1.796
   54X2IT   C12 1688   3.999   3.746   1.658
   54X2IT    C7 1689   4.005   3.762   1.910
   54X2IT    C8 1690   3.956   3.729   2.051
   54X2IT    O2 1691   4.012   3.785   2.147
   54X2IT    N3 1692   4.108   3.848   1.909
   54X2IT   H15 1693   4.151   3.882   1.825
   54X2IT   H16 1694   4.141   3.881   2.000
   54X2IT    N2 1695   3.692   3.496   1.975
   54X2IT    C3 1696   3.570   3.469   1.898
   54X2IT    C2 1697   3.460   3.502   1.999
   54X2IT    H2 1698   3.360   3.462   1.985
   54X2IT    N1 1699   3.478   3.636   2.059
   54X2IT   H14 1700   3.389   3.669   2.097
   54X2IT    C1 1701   3.521   3.517   2.134
   54X2IT    H1 1702   3.470   3.487   2.225
   54X2IT   C11 1703   3.670   3.488   2.122
   54X2IT    O3 1704   3.683   3.356   2.170
   54X2IT   C15 1705   3.804   3.286   2.137
   55X2IT   H18 1706  -0.152   4.501   0.341
   55X2IT    N4 1707  -0.114   4.412   0.314
   55X2IT   H17 1708  -0.078   4.404   0.220
   55X2IT   C14 1709  -0.056   4.337   0.413
   55X2IT    O5 1710  -0.072   4.356   0.533
   55X2IT    O4 1711   0.018   4.237   0.358
   55X2IT   C13 1712   0.079   4.145   0.452
   55X2IT   C10 1713  -0.019   4.036   0.497
   55X2IT    C9 1714   0.043   3.934   0.589
   55X2IT    C4 1715   0.032   3.807   0.535
   55X2IT    C5 1716   0.084   3.683   0.601
   55X2IT    O1 1717   0.066   3.573   0.548
   55X2IT    C6 1718   0.153   3.701   0.727
   55X2IT   C12 1719   0.209   3.580   0.799
   55X2IT    C7 1720   0.164   3.828   0.781
   55X2IT    C8 1721   0.109   3.954   0.713
   55X2IT    O2 1722   0.128   4.063   0.769
   55X2IT    N3 1723   0.224   3.854   0.898
   55X2IT   H15 1724   0.267   3.783   0.955
   55X2IT   H16 1725   0.228   3.952   0.928
   55X2IT    N2 1726  -0.040   3.807   0.420
   55X2IT    C3 1727  -0.022   3.719   0.303
   55X2IT    C2 1728   0.008   3.819   0.192
   55X2IT    H2 1729  -0.007   3.791   0.088
   55X2IT    N1 1730   0.118   3.912   0.228
   55X2IT   H14 1731   0.158   3.952   0.142
   55X2IT    C1 1732  -0.022   3.957   0.240
   55X2IT    H1 1733  -0.061   4.035   0.175
   55X2IT   C11 1734  -0.077   3.946   0.381
   55X2IT    O3 1735  -0.217   3.960   0.365
   55X2IT   C15 1736  -0.300   3.917   0.473
   56X2IT   H18 1737   3.295   3.797   3.218
   56X2IT    N4 1738   3.265   3.876   3.273
   56X2IT   H17 1739   3.337   3.928   3.321
   56X2IT   C14 1740   3.153   3.941   3.230
   56X2IT    O5 1741   3.072   3.898   3.150
   56X2IT    O4 1742   3.142   4.062   3.294
   56X2IT   C13 1743   3.024   4.139   3.263
   56X2IT   C10 1744   2.904   4.094   3.348
   56X2IT    C9 1745   2.780   4.178   3.324
   56X2IT    C4 1746   2.737   4.235   3.442
   56X2IT    C5 1747   2.617   4.324   3.453
   56X2IT    O1 1748   2.584   4.368   3.565
   56X2IT    C6 1749   2.547   4.353   3.331
   56X2IT   C12 1750   2.425   4.443   3.335
   56X2IT    C7 1751   2.589   4.295   3.213
   56X2IT    C8 1752   2.711   4.204   3.203
   56X2IT    O2 1753   2.743   4.161   3.091
   56X2IT    N3 1754   2.529   4.315   3.094
   56X2IT   H15 1755   2.449   4.374   3.083
   56X2IT   H16 1756   2.570   4.268   3.013
   56X2IT    N2 1757   2.812   4.194   3.548
   56X2IT    C3 1758   2.846   4.270   3.669
   56X2IT    C2 1759   2.998   4.272   3.664
   56X2IT    H2 1760   3.055   4.291   3.755
   56X2IT    N1 1761   3.049   4.319   3.534
   56X2IT   H14 1762   3.146   4.352   3.545
   56X2IT    C1 1763   3.045   4.175   3.562
   56X2IT    H1 1764   3.137   4.118   3.572
   56X2IT   C11 1765   2.923   4.105   3.504
   56X2IT    O3 1766   2.920   3.980   3.569
   56X2IT   C15 1767   2.797   3.907   3.565
   57X2IT   H18 1768   4.730   3.491   5.205
   57X2IT    N4 1769   4.649   3.534   5.165
   57X2IT   H17 1770   4.570   3.549   5.227
   57X2IT   C14 1771   4.670   3.621   5.062
   57X2IT    O5 1772   4.773   3.630   4.997
   57X2IT    O4 1773   4.557   3.694   5.039
   57X2IT   C13 1774   4.562   3.786   4.928
   57X2IT   C10 1775   4.532   3.715   4.795
   57X2IT    C9 1776   4.530   3.810   4.676
   57X2IT    C4 1777   4.408   3.804   4.613
   57X2IT    C5 1778   4.372   3.885   4.492
   57X2IT    O1 1779   4.261   3.871   4.439
   57X2IT    C6 1780   4.472   3.977   4.444
   57X2IT   C12 1781   4.443   4.063   4.323
   57X2IT    C7 1782   4.595   3.982   4.507
   57X2IT    C8 1783   4.631   3.898   4.630
   57X2IT    O2 1784   4.743   3.914   4.681
   57X2IT    N3 1785   4.695   4.063   4.469
   57X2IT   H15 1786   4.688   4.127   4.391
   57X2IT   H16 1787   4.782   4.060   4.524
   57X2IT    N2 1788   4.326   3.709   4.667
   57X2IT    C3 1789   4.180   3.712   4.679
   57X2IT    C2 1790   4.159   3.704   4.830
   57X2IT    H2 1791   4.063   3.671   4.870
   57X2IT    N1 1792   4.238   3.806   4.903
   57X2IT   H14 1793   4.197   3.820   4.996
   57X2IT    C1 1794   4.288   3.667   4.895
   57X2IT    H1 1795   4.293   3.605   4.983
   57X2IT   C11 1796   4.391   3.646   4.785
   57X2IT    O3 1797   4.400   3.505   4.772
   57X2IT   C15 1798   4.459   3.455   4.652
   58X2IT   H18 1799   0.744   3.712   2.375
   58X2IT    N4 1800   0.756   3.615   2.350
   58X2IT   H17 1801   0.842   3.591   2.303
   58X2IT   C14 1802   0.696   3.523   2.431
   58X2IT    O5 1803   0.608   3.547   2.512
   58X2IT    O4 1804   0.746   3.399   2.405
   58X2IT   C13 1805   0.687   3.290   2.479
   58X2IT   C10 1806   0.557   3.241   2.413
   58X2IT    C9 1807   0.495   3.122   2.483
   58X2IT    C4 1808   0.483   3.016   2.396
   58X2IT    C5 1809   0.426   2.882   2.434
   58X2IT    O1 1810   0.415   2.794   2.348
   58X2IT    C6 1811   0.386   2.866   2.571
   58X2IT   C12 1812   0.329   2.733   2.617
   58X2IT    C7 1813   0.398   2.973   2.659
   58X2IT    C8 1814   0.455   3.109   2.618
   58X2IT    O2 1815   0.466   3.196   2.706
   58X2IT    N3 1816   0.362   2.968   2.788
   58X2IT   H15 1817   0.325   2.885   2.832
   58X2IT   H16 1818   0.377   3.052   2.844
   58X2IT    N2 1819   0.520   3.049   2.269
   58X2IT    C3 1820   0.584   2.963   2.168
   58X2IT    C2 1821   0.715   3.036   2.142
   58X2IT    H2 1822   0.769   3.017   2.049
   58X2IT    N1 1823   0.789   3.064   2.266
   58X2IT   H14 1824   0.888   3.080   2.244
   58X2IT    C1 1825   0.709   3.171   2.202
   58X2IT    H1 1826   0.757   3.258   2.159
   58X2IT   C11 1827   0.572   3.189   2.265
   58X2IT    O3 1828   0.501   3.268   2.171
   58X2IT   C15 1829   0.358   3.271   2.181
   59X2IT   H18 1830   1.793   3.575   3.172
   59X2IT    N4 1831   1.747   3.546   3.088
   59X2IT   H17 1832   1.783   3.583   3.001
   59X2IT   C14 1833   1.692   3.421   3.089
   59X2IT    O5 1834   1.669   3.355   3.189
   59X2IT    O4 1835   1.661   3.382   2.961
   59X2IT   C13 1836   1.596   3.254   2.948
   59X2IT   C10 1837   1.444   3.266   2.970
   59X2IT    C9 1838   1.370   3.136   2.950
   59X2IT    C4 1839   1.274   3.150   2.852
   59X2IT    C5 1840   1.183   3.039   2.806
   59X2IT    O1 1841   1.097   3.062   2.720
   59X2IT    C6 1842   1.203   2.911   2.869
   59X2IT   C12 1843   1.115   2.794   2.827
   59X2IT    C7 1844   1.299   2.897   2.967
   59X2IT    C8 1845   1.390   3.011   3.013
   59X2IT    O2 1846   1.475   2.986   3.100
   59X2IT    N3 1847   1.323   2.782   3.032
   59X2IT   H15 1848   1.274   2.696   3.013
   59X2IT   H16 1849   1.397   2.782   3.102
   59X2IT    N2 1850   1.265   3.278   2.807
   59X2IT    C3 1851   1.231   3.324   2.671
   59X2IT    C2 1852   1.356   3.402   2.632
   59X2IT    H2 1853   1.351   3.476   2.552
   59X2IT    N1 1854   1.480   3.324   2.651
   59X2IT   H14 1855   1.555   3.363   2.593
   59X2IT    C1 1856   1.441   3.424   2.752
   59X2IT    H1 1857   1.500   3.513   2.768
   59X2IT   C11 1858   1.369   3.364   2.872
   59X2IT    O3 1859   1.311   3.475   2.937
   59X2IT   C15 1860   1.206   3.449   3.031
   60SOL     OW 1861   0.230   0.628   0.113
   60SOL    HW1 1862   0.137   0.626   0.150
   60SOL    HW2 1863   0.231   0.589   0.021
   61SOL     OW 1864   0.225   0.275   0.996
   61SOL    HW1 1865   0.260   0.258   1.088
   61SOL    HW2 1866   0.137   0.230   0.984
   62SOL     OW 1867   0.019   0.368   0.647
   62SOL    HW1 1868  -0.063   0.411   0.686
   62SOL    HW2 1869  -0.009   0.295   0.584
   63SOL     OW 1870   0.569   1.275   1.165
   63SOL    HW1 1871   0.476   1.268   1.128
   63SOL    HW2 1872   0.580   1.364   1.209
   64SOL     OW 1873   1.555   1.511   0.703
   64SOL    HW1 1874   1.498   1.495   0.784
   64SOL    HW2 1875   1.496   1.521   0.623
   65SOL     OW 1876   1.135   0.703   0.717
   65SOL    HW1 1877   1.192   0.781   0.692
   65SOL    HW2 1878   1.075   0.729   0.793
   66SOL     OW 1879   1.755   0.607   0.231
   66SOL    HW1 1880   1.743   0.594   0.132
   66SOL    HW2 1881   1.725   0.526   0.280
   67SOL     OW 1882   0.768   1.144   1.023
   67SOL    HW1 1883   0.690   1.161   1.083
   67SOL    HW2 1884   0.802   1.231   0.987
   68SOL     OW 1885   0.850   0.798   1.823
   68SOL    HW1 1886   0.846   0.874   1.888
   68SOL    HW2 1887   0.872   0.834   1.732
   69SOL     OW 1888   0.685   1.012   0.665
   69SOL    HW1 1889   0.754   0.996   0.735
   69SOL    HW2 1890   0.612   1.069   0.703
   70SOL     OW 1891   0.686   1.161   1.803
   70SOL    HW1 1892   0.746   1.240   1.817
   70SOL    HW2 1893   0.600   1.192   1.762
   71SOL     OW 1894   0.335   1.435   1.061
   71SOL    HW1 1895   0.257   1.404   1.008
   71SOL    HW2 1896   0.393   1.493   1.004
   72SOL     OW 1897   1.460   1.505   1.339
   72SOL    HW1 1898   1.484   1.599   1.365
   72SOL    HW2 1899   1.444   1.451   1.421
   73SOL     OW 1900   0.438   0.392   1.499
   73SOL    HW1 1901   0.520   0.336   1.508
   73SOL    HW2 1902   0.357   0.334   1.503
   74SOL     OW 1903   1.603   0.447   0.737
   74SOL    HW1 1904   1.529   0.493   0.687
   74SOL    HW2 1905   1.654   0.515   0.790
   75SOL     OW 1906   0.231   1.713   0.483
   75SOL    HW1 1907   0.265   1.790   0.537
   75SOL    HW2 1908   0.275   1.713   0.393
   76SOL     OW 1909   1.127   1.341   1.690
   76SOL    HW1 1910   1.174   1.341   1.778
   76SOL    HW2 1911   1.079   1.254   1.679
   77SOL     OW 1912   0.230   1.434   0.538
   77SOL    HW1 1913   0.204   1.530   0.538
   77SOL    HW2 1914   0.159   1.380   0.583
   78SOL     OW 1915   0.240   1.091   0.886
   78SOL    HW1 1916   0.254   1.007   0.938
   78SOL    HW2 1917   0.185   1.155   0.941
   79SOL     OW 1918   0.606   0.964   0.123
   79SOL    HW1 1919   0.613   1.048   0.069
   79SOL    HW2 1920   0.652   0.977   0.211
   80SOL     OW 1921   1.594   0.114   1.480
   80SOL    HW1 1922   1.576   0.181   1.408
   80SOL    HW2 1923   1.591   0.160   1.569
   81SOL     OW 1924   0.122   0.643   0.563
   81SOL    HW1 1925   0.077   0.555   0.580
   81SOL    HW2 1926   0.121   0.697   0.647
   82SOL     OW 1927   1.842   1.767   0.359
   82SOL    HW1 1928   1.896   1.738   0.439
   82SOL    HW2 1929   1.872   1.857   0.330
   83SOL     OW 1930   0.027   1.596   0.117
   83SOL    HW1 1931   0.008   1.500   0.138
   83SOL    HW2 1932  -0.006   1.654   0.192
   84SOL     OW 1933   1.689   0.922   0.612
   84SOL    HW1 1934   1.784   0.893   0.620
   84SOL    HW2 1935   1.681   0.987   0.537
   85SOL     OW 1936   1.641   1.108   0.432
   85SOL    HW1 1937   1.727   1.110   0.380
   85SOL    HW2 1938   1.655   1.155   0.520
   86SOL     OW 1939   0.113   0.737   1.597
   86SOL    HW1 1940   0.201   0.724   1.642
   86SOL    HW2 1941   0.100   0.834   1.575
   87SOL     OW 1942   0.613   1.365   0.726
   87SOL    HW1 1943   0.564   1.278   0.735
   87SOL    HW2 1944   0.590   1.408   0.639
   88SOL     OW 1945   1.293   1.228   1.423
   88SOL    HW1 1946   1.330   1.155   1.365
   88SOL    HW2 1947   1.345   1.233   1.508
   89SOL     OW 1948   0.809   0.004   0.502
   89SOL    HW1 1949   0.849   0.095   0.493
   89SOL    HW2 1950   0.709   0.012   0.508
   90SOL     OW 1951   0.197   0.976   1.264
   90SOL    HW1 1952   0.286   0.931   1.250
   90SOL    HW2 1953   0.124   0.911   1.245
   91SOL     OW 1954   1.525   0.999   0.190
   91SOL    HW1 1955   1.462   0.923   0.203
   91SOL    HW2 1956   1.573   1.017   0.276
   92SOL     OW 1957   1.187   1.792   1.616
   92SOL    HW1 1958   1.211   1.852   1.540
   92SOL    HW2 1959   1.194   1.697   1.586
   93SOL     OW 1960   0.317   0.251   1.801
   93SOL    HW1 1961   0.388   0.322   1.807
   93SOL    HW2 1962   0.229   0.290   1.829
   94SOL     OW 1963   1.466   1.417   0.953
   94SOL    HW1 1964   1.407   1.423   1.033
   94SOL    HW2 1965   1.451   1.329   0.907
   95SOL     OW 1966   1.667   1.714   0.572
   95SOL    HW1 1967   1.626   1.691   0.484
   95SOL    HW2 1968   1.649   1.640   0.637
   96SOL     OW 1969   0.598   0.729   0.270
   96SOL    HW1 1970   0.622   0.798   0.202
   96SOL    HW2 1971   0.520   0.762   0.324
   97SOL     OW 1972   1.576   1.662   0.307
   97SOL    HW1 1973   1.665   1.708   0.310
   97SOL    HW2 1974   1.555   1.638   0.212
   98SOL     OW 1975   1.394   0.469   1.674
   98SOL    HW1 1976   1.374   0.512   1.762
   98SOL    HW2 1977   1.472   0.407   1.683
   99SOL     OW 1978   0.973   0.890   1.572
   99SOL    HW1 1979   1.019   0.806   1.543
   99SOL    HW2 1980   0.917   0.924   1.497
  100SOL     OW 1981   1.041   0.701   0.429
  100SOL    HW1 1982   1.067   0.697   0.525
  100SOL    HW2 1983   0.956   0.650   0.415
  101SOL     OW 1984   0.076   0.811   0.789
  101SOL    HW1 1985   0.175   0.799   0.798
  101SOL    HW2 1986   0.052   0.906   0.810
  102SOL     OW 1987   0.130   1.821   1.571
  102SOL    HW1 1988   0.120   1.806   1.670
  102SOL    HW2 1989   0.044   1.857   1.535
  103SOL     OW 1990   0.865   0.348   0.195
  103SOL    HW1 1991   0.924   0.411   0.146
  103SOL    HW2 1992   0.884   0.254   0.166
  104SOL     OW 1993   1.719   0.585   1.831
  104SOL    HW1 1994   1.693   0.674   1.795
  104SOL    HW2 1995   1.717   0.517   1.758
  105SOL     OW 1996   1.362   1.144   0.545
  105SOL    HW1 1997   1.445   1.115   0.497
  105SOL    HW2 1998   1.313   1.211   0.489
  106SOL     OW 1999   0.550   0.196   0.885
  106SOL    HW1 2000   0.545   0.191   0.985
  106SOL    HW2 2001   0.552   0.292   0.856
  107SOL     OW 2002   1.008   1.456   0.477
  107SOL    HW1 2003   0.962   1.528   0.425
  107SOL    HW2 2004   1.004   1.476   0.575
  108SOL     OW 2005   0.351   1.801   0.853
  108SOL    HW1 2006   0.401   1.715   0.859
  108SOL    HW2 2007   0.416   1.878   0.850
  109SOL     OW 2008   1.795   1.066   0.873
  109SOL    HW1 2009   1.733   1.051   0.797
  109SOL    HW2 2010   1.743   1.077   0.958
  110SOL     OW 2011   1.227   1.550   1.506
  110SOL    HW1 2012   1.233   1.473   1.570
  110SOL    HW2 2013   1.175   1.524   1.426
  111SOL     OW 2014   0.321   0.943   0.242
  111SOL    HW1 2015   0.403   0.982   0.200
  111SOL    HW2 2016   0.294   0.861   0.193
  112SOL     OW 2017   1.458   0.735   0.728
  112SOL    HW1 2018   1.453   0.670   0.803
  112SOL    HW2 2019   1.538   0.794   0.741
  113SOL     OW 2020   0.461   1.266   1.727
  113SOL    HW1 2021   0.411   1.267   1.641
  113SOL    HW2 2022   0.398   1.248   1.803
  114SOL     OW 2023   1.111   1.776   0.237
  114SOL    HW1 2024   1.051   1.714   0.287
  114SOL    HW2 2025   1.142   1.732   0.152
  115SOL     OW 2026   1.632   1.377   0.081
  115SOL    HW1 2027   1.600   1.471   0.071
  115SOL    HW2 2028   1.556   1.314   0.069
  116SOL     OW 2029   0.464   1.743   0.323
  116SOL    HW1 2030   0.497   1.782   0.409
  116SOL    HW2 2031   0.540   1.736   0.258
  117SOL     OW 2032   1.400   0.107   0.426
  117SOL    HW1 2033   1.376   0.070   0.336
  117SOL    HW2 2034   1.499   0.123   0.430
  118SOL     OW 2035   0.249   1.785   1.241
  118SOL    HW1 2036   0.306   1.720   1.291
  118SOL    HW2 2037   0.233   1.752   1.148
  119SOL     OW 2038   0.940   1.698   0.904
  119SOL    HW1 2039   1.020   1.641   0.925
  119SOL    HW2 2040   0.891   1.658   0.827
  120SOL     OW 2041   0.382   0.700   0.480
  120SOL    HW1 2042   0.427   0.610   0.477
  120SOL    HW2 2043   0.288   0.689   0.513
  121SOL     OW 2044   0.781   0.264   1.749
  121SOL    HW1 2045   0.848   0.203   1.792
  121SOL    HW2 2046   0.708   0.283   1.814
  122SOL     OW 2047   0.888   1.514   1.195
  122SOL    HW1 2048   0.865   1.489   1.101
  122SOL    HW2 2049   0.949   1.445   1.234
  123SOL     OW 2050   1.351   0.590   1.433
  123SOL    HW1 2051   1.379   0.547   1.518
  123SOL    HW2 2052   1.376   0.686   1.434
  124SOL     OW 2053   0.803   1.402   0.924
  124SOL    HW1 2054   0.893   1.416   0.882
  124SOL    HW2 2055   0.732   1.404   0.853
  125SOL     OW 2056   0.539   0.064   0.512
  125SOL    HW1 2057   0.458   0.065   0.570
  125SOL    HW2 2058   0.542   0.147   0.457
  126SOL     OW 2059   1.434   1.188   0.041
  126SOL    HW1 2060   1.466   1.112   0.098
  126SOL    HW2 2061   1.342   1.215   0.071
  127SOL     OW 2062   0.297   0.035   0.171
  127SOL    HW1 2063   0.346   0.119   0.150
  127SOL    HW2 2064   0.359  -0.030   0.216
  128SOL     OW 2065   0.935   0.236   0.480
  128SOL    HW1 2066   0.887   0.277   0.402
  128SOL    HW2 2067   1.034   0.234   0.461
  129SOL     OW 2068   1.076   0.683   1.464
  129SOL    HW1 2069   0.996   0.622   1.467
  129SOL    HW2 2070   1.157   0.630   1.440
  130SOL     OW 2071   1.227   1.570   0.793
  130SOL    HW1 2072   1.248   1.644   0.728
  130SOL    HW2 2073   1.295   1.570   0.866
  131SOL     OW 2074   0.459   1.152   0.741
  131SOL    HW1 2075   0.388   1.125   0.806
  131SOL    HW2 2076   0.433   1.124   0.648
  132SOL     OW 2077   1.271   1.797   0.591
  132SOL    HW1 2078   1.315   1.861   0.527
  132SOL    HW2 2079   1.221   1.849   0.661
  133SOL     OW 2080   1.032   0.549   0.016
  133SOL    HW1 2081   0.991   0.631  -0.023
  133SOL    HW2 2082   1.096   0.575   0.089
  134SOL     OW 2083   0.866   0.454   0.642
  134SOL    HW1 2084   0.834   0.526   0.580
  134SOL    HW2 2085   0.890   0.373   0.589
  135SOL     OW 2086   1.017   0.039   0.753
  135SOL    HW1 2087   0.945   0.044   0.684
  135SOL    HW2 2088   0.993  -0.030   0.822
  136SOL     OW 2089   1.429   1.173   0.867
  136SOL    HW1 2090   1.374   1.089   0.860
  136SOL    HW2 2091   1.455   1.202   0.775
  137SOL     OW 2092   1.466   0.590   0.992
  137SOL    HW1 2093   1.436   0.495   0.999
  137SOL    HW2 2094   1.539   0.606   1.058
  138SOL     OW 2095   1.857   0.833   0.377
  138SOL    HW1 2096   1.899   0.769   0.441
  138SOL    HW2 2097   1.819   0.782   0.299
  139SOL     OW 2098   0.488   1.385   0.174
  139SOL    HW1 2099   0.401   1.370   0.221
  139SOL    HW2 2100   0.471   1.411   0.079
  140SOL     OW 2101   1.664   1.280   0.657
  140SOL    HW1 2102   1.763   1.288   0.671
  140SOL    HW2 2103   1.619   1.364   0.688
  141SOL     OW 2104   1.390   0.575   0.078
  141SOL    HW1 2105   1.336   0.554   0.159
  141SOL    HW2 2106   1.481   0.534   0.087
  142SOL     OW 2107   0.527   0.256   0.328
  142SOL    HW1 2108   0.554   0.197   0.253
  142SOL    HW2 2109   0.527   0.351   0.297
  143SOL     OW 2110   1.754   1.223   1.588
  143SOL    HW1 2111   1.845   1.184   1.575
  143SOL    HW2 2112   1.762   1.319   1.612
  144SOL     OW 2113   1.064   1.347   1.340
  144SOL    HW1 2114   0.984   1.324   1.395
  144SOL    HW2 2115   1.147   1.321   1.389
  145SOL     OW 2116   1.592   1.629   1.625
  145SOL    HW1 2117   1.619   1.663   1.535
  145SOL    HW2 2118   1.671   1.591   1.671
  146SOL     OW 2119   1.111   1.195   1.100
  146SOL    HW1 2120   1.071   1.239   1.181
  146SOL    HW2 2121   1.070   1.232   1.017
  147SOL     OW 2122   1.638   1.099   1.079
  147SOL    HW1 2123   1.643   1.180   1.138
  147SOL    HW2 2124   1.552   1.101   1.028
  148SOL     OW 2125   0.980   1.116   1.719
  148SOL    HW1 2126   0.881   1.122   1.729
  148SOL    HW2 2127   1.003   1.036   1.663
  149SOL     OW 2128   0.705   1.050   0.368
  149SOL    HW1 2129   0.691   1.057   0.467
  149SOL    HW2 2130   0.789   0.999   0.350
  150SOL     OW 2131   1.274   0.386   1.262
  150SOL    HW1 2132   1.295   0.460   1.326
  150SOL    HW2 2133   1.185   0.403   1.219
  151SOL     OW 2134   0.064   1.564   1.331
  151SOL    HW1 2135   0.018   1.646   1.297
  151SOL    HW2 2136   0.162   1.583   1.340
  152SOL     OW 2137   0.367   1.100   0.501
  152SOL    HW1 2138   0.360   1.183   0.445
  152SOL    HW2 2139   0.371   1.020   0.441
  153SOL     OW 2140   0.566   0.537   0.865
  153SOL    HW1 2141   0.578   0.603   0.791
  153SOL    HW2 2142   0.612   0.571   0.948
  154SOL     OW 2143   1.252   1.348   0.388
  154SOL    HW1 2144   1.302   1.425   0.428
  154SOL    HW2 2145   1.157   1.350   0.420
  155SOL     OW 2146   1.272   1.445   1.142
  155SOL    HW1 2147   1.319   1.458   1.229
  155SOL    HW2 2148   1.206   1.371   1.151
  156SOL     OW 2149   1.582   0.639   0.472
  156SOL    HW1 2150   1.551   0.700   0.545
  156SOL    HW2 2151   1.632   0.691   0.403
  157SOL     OW 2152   0.354   1.510   1.329
  157SOL    HW1 2153   0.333   1.466   1.242
  157SOL    HW2 2154   0.451   1.536   1.332
  158SOL     OW 2155   0.402   0.751   1.598
  158SOL    HW1 2156   0.470   0.806   1.551
  158SOL    HW2 2157   0.442   0.663   1.625
  159SOL     OW 2158   1.587   0.779   1.670
  159SOL    HW1 2159   1.495   0.817   1.665
  159SOL    HW2 2160   1.647   0.826   1.605
  160SOL     OW 2161   1.013   0.105   1.770
  160SOL    HW1 2162   1.019   0.190   1.718
  160SOL    HW2 2163   1.045   0.029   1.713
  161SOL     OW 2164   0.573   0.870   1.029
  161SOL    HW1 2165   0.617   0.959   1.020
  161SOL    HW2 2166   0.510   0.870   1.106
  162SOL     OW 2167   1.360   0.862   1.045
  162SOL    HW1 2168   1.285   0.862   0.979
  162SOL    HW2 2169   1.397   0.770   1.054
  163SOL     OW 2170   1.209   0.525   0.275
  163SOL    HW1 2171   1.222   0.441   0.329
  163SOL    HW2 2172   1.180   0.599   0.335
  164SOL     OW 2173   0.037   1.310   1.282
  164SOL    HW1 2174   0.090   1.261   1.350
  164SOL    HW2 2175   0.059   1.408   1.287
  165SOL     OW 2176   1.728   0.935   1.854
  165SOL    HW1 2177   1.682   0.928   1.765
  165SOL    HW2 2178   1.666   0.979   1.920
  166SOL     OW 2179   0.307   0.063   0.618
  166SOL    HW1 2180   0.296   0.157   0.651
  166SOL    HW2 2181   0.302   0.000   0.695
  167SOL     OW 2182   1.622   0.367   0.374
  167SOL    HW1 2183   1.624   0.291   0.438
  167SOL    HW2 2184   1.574   0.444   0.414
  168SOL     OW 2185   0.980   1.573   1.700
  168SOL    HW1 2186   0.960   1.617   1.612
  168SOL    HW2 2187   1.019   1.482   1.684
  169SOL     OW 2188   1.859   1.518   1.605
  169SOL    HW1 2189   1.873   1.545   1.510
  169SOL    HW2 2190   1.942   1.540   1.658
  170SOL     OW 2191   0.350   0.898   1.804
  170SOL    HW1 2192   0.426   0.942   1.852
  170SOL    HW2 2193   0.385   0.851   1.722
  171SOL     OW 2194   1.303   0.838   0.042
  171SOL    HW1 2195   1.337   0.745   0.057
  171SOL    HW2 2196   1.321   0.865  -0.053
  172SOL     OW 2197   1.068   1.333   0.849
  172SOL    HW1 2198   1.075   1.249   0.794
  172SOL    HW2 2199   1.130   1.402   0.813
  173SOL     OW 2200   0.319   0.810   0.949
  173SOL    HW1 2201   0.412   0.846   0.954
  173SOL    HW2 2202   0.313   0.725   1.001
  174SOL     OW 2203   0.339   0.509   1.006
  174SOL    HW1 2204   0.287   0.426   0.989
  174SOL    HW2 2205   0.416   0.514   0.942
  175SOL     OW 2206   1.138   0.380   1.678
  175SOL    HW1 2207   1.093   0.443   1.742
  175SOL    HW2 2208   1.231   0.411   1.661
  176SOL     OW 2209   0.008   1.326   0.200
  176SOL    HW1 2210  -0.085   1.347   0.169
  176SOL    HW2 2211   0.018   1.227   0.213
  177SOL     OW 2212   0.088   1.801   0.927
  177SOL    HW1 2213   0.046   1.715   0.900
  177SOL    HW2 2214   0.182   1.804   0.893
  178SOL     OW 2215   0.504   1.568   0.910
  178SOL    HW1 2216   0.570   1.642   0.919
  178SOL    HW2 2217   0.548   1.489   0.868
  179SOL     OW 2218   1.002   0.796   1.238
  179SOL    HW1 2219   1.043   0.764   1.324
  179SOL    HW2 2220   0.906   0.769   1.235
  180SOL     OW 2221   0.040   0.544   1.114
  180SOL    HW1 2222   0.125   0.511   1.073
  180SOL    HW2 2223   0.053   0.559   1.212
  181SOL     OW 2224   0.189   0.520   1.722
  181SOL    HW1 2225   0.248   0.480   1.652
  181SOL    HW2 2226   0.131   0.591   1.681
  182SOL     OW 2227   1.369   0.950   1.660
  182SOL    HW1 2228   1.408   1.039   1.680
  182SOL    HW2 2229   1.379   0.930   1.563
  183SOL     OW 2230   0.815   0.572   0.325
  183SOL    HW1 2231   0.822   0.483   0.279
  183SOL    HW2 2232   0.721   0.606   0.317
  184SOL     OW 2233   1.657   0.604   1.206
  184SOL    HW1 2234   1.619   0.535   1.268
  184SOL    HW2 2235   1.739   0.568   1.162
  185SOL     OW 2236   0.252   1.564   1.744
  185SOL    HW1 2237   0.222   1.621   1.820
  185SOL    HW2 2238   0.245   1.467   1.770
  186SOL     OW 2239   0.473   0.500   0.191
  186SOL    HW1 2240   0.534   0.580   0.195
  186SOL    HW2 2241   0.378   0.531   0.198
  187SOL     OW 2242   0.159   1.137   1.466
  187SOL    HW1 2243   0.181   1.076   1.542
  187SOL    HW2 2244   0.169   1.088   1.380
  188SOL     OW 2245   1.347   1.059   1.234
  188SOL    HW1 2246   1.371   0.996   1.160
  188SOL    HW2 2247   1.257   1.099   1.216
  189SOL     OW 2248   1.302   0.855   0.309
  189SOL    HW1 2249   1.216   0.824   0.351
  189SOL    HW2 2250   1.298   0.841   0.210
  190SOL     OW 2251   1.252   1.731   1.128
  190SOL    HW1 2252   1.336   1.736   1.074
  190SOL    HW2 2253   1.229   1.635   1.146
  191SOL     OW 2254   0.083   1.258   1.022
  191SOL    HW1 2255   0.078   1.257   1.122
  191SOL    HW2 2256   0.000   1.217   0.984
  192SOL     OW 2257   0.688   1.662   1.716
  192SOL    HW1 2258   0.632   1.743   1.725
  192SOL    HW2 2259   0.740   1.666   1.630
  193SOL     OW 2260   0.903   0.086   0.133
  193SOL    HW1 2261   0.954   0.087   0.047
  193SOL    HW2 2262   0.959   0.044   0.204
  194SOL     OW 2263   1.726   0.135   0.523
  194SOL    HW1 2264   1.799   0.118   0.456
  194SOL    HW2 2265   1.695   0.048   0.561
  195SOL     OW 2266   1.388   1.573   0.477
  195SOL    HW1 2267   1.455   1.585   0.403
  195SOL    HW2 2268   1.348   1.662   0.500
  196SOL     OW 2269   0.130   1.794   1.851
  196SOL    HW1 2270   0.089   1.720   1.904
  196SOL    HW2 2271   0.194   1.845   1.909
  197SOL     OW 2272   1.280   0.927   0.672
  197SOL    HW1 2273   1.340   0.846   0.674
  197SOL    HW2 2274   1.320   0.996   0.612
  198SOL     OW 2275   0.830   1.273   1.422
  198SOL    HW1 2276   0.825   1.306   1.517
  198SOL    HW2 2277   0.744   1.292   1.376
  199SOL     OW 2278   0.672   1.616   0.154
  199SOL    HW1 2279   0.681   1.626   0.055
  199SOL    HW2 2280   0.632   1.527   0.175
  200SOL     OW 2281   1.650   1.720   1.394
  200SOL    HW1 2282   1.703   1.730   1.310
  200SOL    HW2 2283   1.623   1.810   1.428
  201SOL     OW 2284   1.841   0.175   0.963
  201SOL    HW1 2285   1.880   0.090   0.927
  201SOL    HW2 2286   1.743   0.177   0.944
  202SOL     OW 2287   0.263   0.326   0.720
  202SOL    HW1 2288   0.184   0.377   0.686
  202SOL    HW2 2289   0.254   0.311   0.818
  203SOL     OW 2290   1.194   1.612   0.031
  203SOL    HW1 2291   1.200   1.519   0.068
  203SOL    HW2 2292   1.135   1.612  -0.049
  204SOL     OW 2293   0.822   1.002   1.372
  204SOL    HW1 2294   0.862   1.001   1.280
  204SOL    HW2 2295   0.832   1.094   1.412
  205SOL     OW 2296   0.916   0.910   0.291
  205SOL    HW1 2297   0.979   0.948   0.223
  205SOL    HW2 2298   0.956   0.827   0.330
  206SOL     OW 2299   1.504   1.607   0.044
  206SOL    HW1 2300   1.412   1.644   0.051
  206SOL    HW2 2301   1.542   1.627  -0.046
  207SOL     OW 2302   0.372   1.288   1.490
  207SOL    HW1 2303   0.359   1.381   1.456
  207SOL    HW2 2304   0.288   1.236   1.477
  208SOL     OW 2305   1.614   1.292   1.289
  208SOL    HW1 2306   1.674   1.295   1.369
  208SOL    HW2 2307   1.539   1.356   1.302
  209SOL     OW 2308   1.039   1.098   0.696
  209SOL    HW1 2309   0.969   1.051   0.750
  209SOL    HW2 2310   1.098   1.030   0.653
  210SOL     OW 2311   0.590   1.487   0.491
  210SOL    HW1 2312   0.632   1.429   0.421
  210SOL    HW2 2313   0.546   1.566   0.447
  211SOL     OW 2314   1.709   0.385   1.381
  211SOL    HW1 2315   1.782   0.454   1.385
  211SOL    HW2 2316   1.737   0.310   1.322
  212SOL     OW 2317   0.255   1.348   0.290
  212SOL    HW1 2318   0.159   1.349   0.263
  212SOL    HW2 2319   0.267   1.401   0.374
  213SOL     OW 2320   0.105   1.013   1.726
  213SOL    HW1 2321   0.028   0.980   1.780
  213SOL    HW2 2322   0.190   0.983   1.768
  214SOL     OW 2323   0.075   0.345   0.033
  214SOL    HW1 2324  -0.017   0.317   0.004
  214SOL    HW2 2325   0.106   0.422  -0.023
  215SOL     OW 2326   1.440   0.856   1.398
  215SOL    HW1 2327   1.383   0.908   1.335
  215SOL    HW2 2328   1.536   0.868   1.374
  216SOL     OW 2329   0.072   0.166   0.318
  216SOL    HW1 2330   0.055   0.249   0.264
  216SOL    HW2 2331   0.162   0.129   0.296
  217SOL     OW 2332   1.183   1.335   0.119
  217SOL    HW1 2333   1.084   1.324   0.121
  217SOL    HW2 2334   1.217   1.350   0.212
  218SOL     OW 2335   0.613   0.842   1.431
  218SOL    HW1 2336   0.669   0.923   1.414
  218SOL    HW2 2337   0.672   0.762   1.434
  219SOL     OW 2338   1.493   1.767   0.959
  219SOL    HW1 2339   1.526   1.831   0.890
  219SOL    HW2 2340   1.559   1.761   1.034
  220SOL     OW 2341   0.716   0.565   1.708
  220SOL    HW1 2342   0.735   0.630   1.782
  220SOL    HW2 2343   0.776   0.485   1.717
  221SOL     OW 2344   1.450   1.220   1.633
  221SOL    HW1 2345   1.441   1.210   1.732
  221SOL    HW2 2346   1.546   1.213   1.607
  222SOL     OW 2347   1.674   0.883   1.254
  222SOL    HW1 2348   1.647   0.794   1.217
  222SOL    HW2 2349   1.675   0.951   1.181
  223SOL     OW 2350   1.225   0.325   0.449
  223SOL    HW1 2351   1.290   0.251   0.438
  223SOL    HW2 2352   1.245   0.375   0.533
  224SOL     OW 2353   0.594   0.745   0.652
  224SOL    HW1 2354   0.644   0.830   0.633
  224SOL    HW2 2355   0.506   0.747   0.604
  225SOL     OW 2356   1.730   0.934   1.517
  225SOL    HW1 2357   1.768   1.025   1.532
  225SOL    HW2 2358   1.722   0.917   1.418
  226SOL     OW 2359   0.859   1.374   0.016
  226SOL    HW1 2360   0.813   1.389   0.104
  226SOL    HW2 2361   0.903   1.459  -0.014
  227SOL     OW 2362   0.859   0.956   0.861
  227SOL    HW1 2363   0.913   0.887   0.909
  227SOL    HW2 2364   0.827   1.025   0.927
  228SOL     OW 2365   1.083   0.984   0.087
  228SOL    HW1 2366   1.060   1.037   0.005
  228SOL    HW2 2367   1.164   0.928   0.068
  229SOL     OW 2368   1.861   1.569   0.851
  229SOL    HW1 2369   1.790   1.557   0.781
  229SOL    HW2 2370   1.862   1.490   0.911
  230SOL     OW 2371   0.221   1.314   1.844
  230SOL    HW1 2372   0.156   1.241   1.823
  230SOL    HW2 2373   0.225   1.328   1.942
  231SOL     OW 2374   0.079   1.240   0.653
  231SOL    HW1 2375   0.078   1.193   0.741
  231SOL    HW2 2376   0.161   1.212   0.602
  232SOL     OW 2377   0.672   1.391   1.624
  232SOL    HW1 2378   0.594   1.341   1.662
  232SOL    HW2 2379   0.669   1.486   1.655
  233SOL     OW 2380   1.824   0.192   1.227
  233SOL    HW1 2381   1.820   0.102   1.271
  233SOL    HW2 2382   1.827   0.181   1.128
  234SOL     OW 2383   0.428   0.424   0.520
  234SOL    HW1 2384   0.458   0.352   0.458
  234SOL    HW2 2385   0.389   0.384   0.603
  235SOL     OW 2386   1.705   1.487   1.104
  235SOL    HW1 2387   1.612   1.462   1.077
  235SOL    HW2 2388   1.731   1.437   1.186
  236SOL     OW 2389   0.812   1.586   0.687
  236SOL    HW1 2390   0.844   1.596   0.593
  236SOL    HW2 2391   0.733   1.524   0.689
  237SOL     OW 2392   1.424   0.214   1.112
  237SOL    HW1 2393   1.476   0.149   1.167
  237SOL    HW2 2394   1.375   0.277   1.173
  238SOL     OW 2395   0.770   1.330   0.301
  238SOL    HW1 2396   0.724   1.243   0.318
  238SOL    HW2 2397   0.861   1.327   0.342
  239SOL     OW 2398   0.618   1.567   1.284
  239SOL    HW1 2399   0.613   1.649   1.341
  239SOL    HW2 2400   0.707   1.564   1.239
  240SOL     OW 2401   1.300   0.453   0.691
  240SOL    HW1 2402   1.241   0.533   0.695
  240SOL    HW2 2403   1.315   0.418   0.784
  241SOL     OW 2404   1.593   0.221   0.882
  241SOL    HW1 2405   1.509   0.220   0.936
  241SOL    HW2 2406   1.595   0.304   0.826
  242SOL     OW 2407   0.039   1.077   0.300
  242SOL    HW1 2408   0.138   1.066   0.291
  242SOL    HW2 2409  -0.001   0.991   0.332
  243SOL     OW 2410   0.875   1.646   0.337
  243SOL    HW1 2411   0.798   1.611   0.283
  243SOL    HW2 2412   0.843   1.717   0.399
  244SOL     OW 2413   0.230   0.628   1.975
  244SOL    HW1 2414   0.137   0.626   2.012
  244SOL    HW2 2415   0.231   0.589   1.883
  245SOL     OW 2416   0.225   0.275   2.858
  245SOL    HW1 2417   0.260   0.258   2.950
  245SOL    HW2 2418   0.137   0.230   2.846
  246SOL     OW 2419   0.019   0.368   2.509
  246SOL    HW1 2420  -0.063   0.411   2.548
  246SOL    HW2 2421  -0.009   0.295   2.446
  247SOL     OW 2422   0.569   1.275   3.027
  247SOL    HW1 2423   0.476   1.268   2.990
  247SOL    HW2 2424   0.580   1.364   3.071
  248SOL     OW 2425   1.135   0.703   2.579
  248SOL    HW1 2426   1.192   0.781   2.554
  248SOL    HW2 2427   1.075   0.729   2.655
  249SOL     OW 2428   0.768   1.144   2.885
  249SOL    HW1 2429   0.690   1.161   2.945
  249SOL    HW2 2430   0.802   1.231   2.849
  250SOL     OW 2431   0.850   0.798   3.685
  250SOL    HW1 2432   0.846   0.874   3.750
  250SOL    HW2 2433   0.872   0.834   3.594
  251SOL     OW 2434   0.685   1.012   2.527
  251SOL    HW1 2435   0.754   0.996   2.597
  251SOL    HW2 2436   0.612   1.069   2.565
  252SOL     OW 2437   0.686   1.161   3.665
  252SOL    HW1 2438   0.746   1.240   3.679
  252SOL    HW2 2439   0.600   1.192   3.624
  253SOL     OW 2440   0.335   1.435   2.923
  253SOL    HW1 2441   0.257   1.404   2.870
  253SOL    HW2 2442   0.393   1.493   2.866
  254SOL     OW 2443   0.438   0.392   3.361
  254SOL    HW1 2444   0.520   0.336   3.370
  254SOL    HW2 2445   0.357   0.334   3.365
  255SOL     OW 2446   1.603   0.447   2.599
  255SOL    HW1 2447   1.529   0.493   2.549
  255SOL    HW2 2448   1.654   0.515   2.652
  256SOL     OW 2449   0.231   1.713   2.345
  256SOL    HW1 2450   0.265   1.790   2.399
  256SOL    HW2 2451   0.275   1.713   2.255
  257SOL     OW 2452   0.230   1.434   2.400
  257SOL    HW1 2453   0.204   1.530   2.400
  257SOL    HW2 2454   0.159   1.380   2.445
  258SOL     OW 2455   0.240   1.091   2.748
  258SOL    HW1 2456   0.254   1.007   2.800
  258SOL    HW2 2457   0.185   1.155   2.803
  259SOL     OW 2458   0.620   1.786   3.301
  259SOL    HW1 2459   0.528   1.769   3.336
  259SOL    HW2 2460   0.648   1.878   3.327
  260SOL     OW 2461   0.606   0.964   1.985
  260SOL    HW1 2462   0.613   1.048   1.931
  260SOL    HW2 2463   0.652   0.977   2.073
  261SOL     OW 2464   1.594   0.114   3.342
  261SOL    HW1 2465   1.576   0.181   3.270
  261SOL    HW2 2466   1.591   0.160   3.431
  262SOL     OW 2467   0.122   0.643   2.425
  262SOL    HW1 2468   0.077   0.555   2.442
  262SOL    HW2 2469   0.121   0.697   2.509
  263SOL     OW 2470   0.027   1.596   1.979
  263SOL    HW1 2471   0.008   1.500   2.000
  263SOL    HW2 2472  -0.006   1.654   2.054
  264SOL     OW 2473   1.689   0.922   2.474
  264SOL    HW1 2474   1.784   0.893   2.482
  264SOL    HW2 2475   1.681   0.987   2.399
  265SOL     OW 2476   1.641   1.108   2.294
  265SOL    HW1 2477   1.727   1.110   2.242
  265SOL    HW2 2478   1.655   1.155   2.382
  266SOL     OW 2479   0.113   0.737   3.459
  266SOL    HW1 2480   0.201   0.724   3.504
  266SOL    HW2 2481   0.100   0.834   3.437
  267SOL     OW 2482   0.613   1.365   2.588
  267SOL    HW1 2483   0.564   1.278   2.597
  267SOL    HW2 2484   0.590   1.408   2.501
  268SOL     OW 2485   0.809   0.004   2.364
  268SOL    HW1 2486   0.849   0.095   2.355
  268SOL    HW2 2487   0.709   0.012   2.370
  269SOL     OW 2488   0.197   0.976   3.126
  269SOL    HW1 2489   0.286   0.931   3.112
  269SOL    HW2 2490   0.124   0.911   3.107
  270SOL     OW 2491   1.525   0.999   2.052
  270SOL    HW1 2492   1.462   0.923   2.065
  270SOL    HW2 2493   1.573   1.017   2.138
  271SOL     OW 2494   0.317   0.251   3.663
  271SOL    HW1 2495   0.388   0.322   3.669
  271SOL    HW2 2496   0.229   0.290   3.691
  272SOL     OW 2497   1.466   1.417   2.815
  272SOL    HW1 2498   1.407   1.423   2.895
  272SOL    HW2 2499   1.451   1.329   2.769
  273SOL     OW 2500   0.598   0.729   2.132
  273SOL    HW1 2501   0.622   0.798   2.064
  273SOL    HW2 2502   0.520   0.762   2.186
  274SOL     OW 2503   1.281   0.345   2.806
  274SOL    HW1 2504   1.195   0.295   2.793
  274SOL    HW2 2505   1.343   0.291   2.862
  275SOL     OW 2506   1.576   1.662   2.169
  275SOL    HW1 2507   1.665   1.708   2.172
  275SOL    HW2 2508   1.555   1.638   2.074
  276SOL     OW 2509   0.807   0.605   3.327
  276SOL    HW1 2510   0.760   0.602   3.416
  276SOL    HW2 2511   0.756   0.550   3.261
  277SOL     OW 2512   1.394   0.469   3.536
  277SOL    HW1 2513   1.374   0.512   3.624
  277SOL    HW2 2514   1.472   0.407   3.545
  278SOL     OW 2515   0.973   0.890   3.434
  278SOL    HW1 2516   1.019   0.806   3.405
  278SOL    HW2 2517   0.917   0.924   3.359
  279SOL     OW 2518   0.991   0.410   3.104
  279SOL    HW1 2519   0.914   0.444   3.158
  279SOL    HW2 2520   0.957   0.359   3.025
  280SOL     OW 2521   1.041   0.701   2.291
  280SOL    HW1 2522   1.067   0.697   2.387
  280SOL    HW2 2523   0.956   0.650   2.277
  281SOL     OW 2524   0.076   0.811   2.651
  281SOL    HW1 2525   0.175   0.799   2.660
  281SOL    HW2 2526   0.052   0.906   2.672
  282SOL     OW 2527   0.865   0.348   2.057
  282SOL    HW1 2528   0.924   0.411   2.008
  282SOL    HW2 2529   0.884   0.254   2.028
  283SOL     OW 2530   1.719   0.585   3.693
  283SOL    HW1 2531   1.693   0.674   3.657
  283SOL    HW2 2532   1.717   0.517   3.620
  284SOL     OW 2533   1.362   1.144   2.407
  284SOL    HW1 2534   1.445   1.115   2.359
  284SOL    HW2 2535   1.313   1.211   2.351
  285SOL     OW 2536   0.550   0.196   2.747
  285SOL    HW1 2537   0.545   0.191   2.847
  285SOL    HW2 2538   0.552   0.292   2.718
  286SOL     OW 2539   1.008   1.456   2.339
  286SOL    HW1 2540   0.962   1.528   2.287
  286SOL    HW2 2541   1.004   1.476   2.437
  287SOL     OW 2542   0.351   1.801   2.715
  287SOL    HW1 2543   0.401   1.715   2.721
  287SOL    HW2 2544   0.416   1.878   2.712
  288SOL     OW 2545   0.321   0.943   2.104
  288SOL    HW1 2546   0.403   0.982   2.062
  288SOL    HW2 2547   0.294   0.861   2.055
  289SOL     OW 2548   1.458   0.735   2.590
  289SOL    HW1 2549   1.453   0.670   2.665
  289SOL    HW2 2550   1.538   0.794   2.603
  290SOL     OW 2551   1.111   1.776   2.099
  290SOL    HW1 2552   1.051   1.714   2.149
  290SOL    HW2 2553   1.142   1.732   2.014
  291SOL     OW 2554   0.202   0.285   3.360
  291SOL    HW1 2555   0.122   0.345   3.347
  291SOL    HW2 2556   0.192   0.236   3.446
  292SOL     OW 2557   1.632   1.377   1.943
  292SOL    HW1 2558   1.600   1.471   1.933
  292SOL    HW2 2559   1.556   1.314   1.931
  293SOL     OW 2560   0.464   1.743   2.185
  293SOL    HW1 2561   0.497   1.782   2.271
  293SOL    HW2 2562   0.540   1.736   2.120
  294SOL     OW 2563   1.400   0.107   2.288
  294SOL    HW1 2564   1.376   0.070   2.198
  294SOL    HW2 2565   1.499   0.123   2.292
  295SOL     OW 2566   0.249   1.785   3.103
  295SOL    HW1 2567   0.306   1.720   3.153
  295SOL    HW2 2568   0.233   1.752   3.010
  296SOL     OW 2569   0.382   0.700   2.342
  296SOL    HW1 2570   0.427   0.610   2.339
  296SOL    HW2 2571   0.288   0.689   2.375
  297SOL     OW 2572   1.547   0.222   3.591
  297SOL    HW1 2573   1.542   0.259   3.683
  297SOL    HW2 2574   1.475   0.153   3.579
  298SOL     OW 2575   0.614   0.122   1.979
  298SOL    HW1 2576   0.712   0.100   1.986
  298SOL    HW2 2577   0.583   0.105   1.886
  299SOL     OW 2578   0.781   0.264   3.611
  299SOL    HW1 2579   0.848   0.203   3.654
  299SOL    HW2 2580   0.708   0.283   3.676
  300SOL     OW 2581   0.888   1.514   3.057
  300SOL    HW1 2582   0.865   1.489   2.963
  300SOL    HW2 2583   0.949   1.445   3.096
  301SOL     OW 2584   1.351   0.590   3.295
  301SOL    HW1 2585   1.379   0.547   3.380
  301SOL    HW2 2586   1.376   0.686   3.296
  302SOL     OW 2587   0.803   1.402   2.786
  302SOL    HW1 2588   0.893   1.416   2.744
  302SOL    HW2 2589   0.732   1.404   2.715
  303SOL     OW 2590   0.922   0.503   2.761
  303SOL    HW1 2591   0.897   0.494   2.665
  303SOL    HW2 2592   0.970   0.421   2.792
  304SOL     OW 2593   0.539   0.064   2.374
  304SOL    HW1 2594   0.458   0.065   2.432
  304SOL    HW2 2595   0.542   0.147   2.319
  305SOL     OW 2596   1.434   1.188   1.903
  305SOL    HW1 2597   1.466   1.112   1.960
  305SOL    HW2 2598   1.342   1.215   1.933
  306SOL     OW 2599   0.297   0.035   2.033
  306SOL    HW1 2600   0.346   0.119   2.012
  306SOL    HW2 2601   0.359  -0.030   2.078
  307SOL     OW 2602   0.935   0.236   2.342
  307SOL    HW1 2603   0.887   0.277   2.264
  307SOL    HW2 2604   1.034   0.234   2.323
  308SOL     OW 2605   1.076   0.683   3.326
  308SOL    HW1 2606   0.996   0.622   3.329
  308SOL    HW2 2607   1.157   0.630   3.302
  309SOL     OW 2608   1.227   1.570   2.655
  309SOL    HW1 2609   1.248   1.644   2.590
  309SOL    HW2 2610   1.295   1.570   2.728
  310SOL     OW 2611   0.459   1.152   2.603
  310SOL    HW1 2612   0.388   1.125   2.668
  310SOL    HW2 2613   0.433   1.124   2.510
  311SOL     OW 2614   1.271   1.797   2.453
  311SOL    HW1 2615   1.315   1.861   2.389
  311SOL    HW2 2616   1.221   1.849   2.523
  312SOL     OW 2617   1.032   0.549   1.878
  312SOL    HW1 2618   0.991   0.631   1.839
  312SOL    HW2 2619   1.096   0.575   1.951
  313SOL     OW 2620   0.078   0.556   3.248
  313SOL    HW1 2621   0.170   0.555   3.207
  313SOL    HW2 2622   0.072   0.630   3.315
  314SOL     OW 2623   0.561   0.222   3.009
  314SOL    HW1 2624   0.599   0.138   3.046
  314SOL    HW2 2625   0.473   0.241   3.053
  315SOL     OW 2626   0.866   0.454   2.504
  315SOL    HW1 2627   0.834   0.526   2.442
  315SOL    HW2 2628   0.890   0.373   2.451
  316SOL     OW 2629   1.017   0.039   2.615
  316SOL    HW1 2630   0.945   0.044   2.546
  316SOL    HW2 2631   0.993  -0.030   2.684
  317SOL     OW 2632   1.466   0.590   2.854
  317SOL    HW1 2633   1.436   0.495   2.861
  317SOL    HW2 2634   1.539   0.606   2.920
  318SOL     OW 2635   1.857   0.833   2.239
  318SOL    HW1 2636   1.899   0.769   2.303
  318SOL    HW2 2637   1.819   0.782   2.161
  319SOL     OW 2638   0.488   1.385   2.036
  319SOL    HW1 2639   0.401   1.370   2.083
  319SOL    HW2 2640   0.471   1.411   1.941
  320SOL     OW 2641   1.390   0.575   1.940
  320SOL    HW1 2642   1.336   0.554   2.021
  320SOL    HW2 2643   1.481   0.534   1.949
  321SOL     OW 2644   0.527   0.256   2.190
  321SOL    HW1 2645   0.554   0.197   2.115
  321SOL    HW2 2646   0.527   0.351   2.159
  322SOL     OW 2647   1.754   1.223   3.450
  322SOL    HW1 2648   1.845   1.184   3.437
  322SOL    HW2 2649   1.762   1.319   3.474
  323SOL     OW 2650   1.064   1.347   3.202
  323SOL    HW1 2651   0.984   1.324   3.257
  323SOL    HW2 2652   1.147   1.321   3.251
  324SOL     OW 2653   0.915   0.089   3.264
  324SOL    HW1 2654   0.940   0.069   3.169
  324SOL    HW2 2655   0.987   0.145   3.306
  325SOL     OW 2656   0.980   1.116   3.581
  325SOL    HW1 2657   0.881   1.122   3.591
  325SOL    HW2 2658   1.003   1.036   3.525
  326SOL     OW 2659   0.705   1.050   2.230
  326SOL    HW1 2660   0.691   1.057   2.329
  326SOL    HW2 2661   0.789   0.999   2.212
  327SOL     OW 2662   0.410   0.813   3.113
  327SOL    HW1 2663   0.496   0.825   3.163
  327SOL    HW2 2664   0.368   0.726   3.140
  328SOL     OW 2665   1.274   0.386   3.124
  328SOL    HW1 2666   1.295   0.460   3.188
  328SOL    HW2 2667   1.185   0.403   3.081
  329SOL     OW 2668   0.367   1.100   2.363
  329SOL    HW1 2669   0.360   1.183   2.307
  329SOL    HW2 2670   0.371   1.020   2.303
  330SOL     OW 2671   0.566   0.537   2.727
  330SOL    HW1 2672   0.578   0.603   2.653
  330SOL    HW2 2673   0.612   0.571   2.810
  331SOL     OW 2674   1.252   1.348   2.250
  331SOL    HW1 2675   1.302   1.425   2.290
  331SOL    HW2 2676   1.157   1.350   2.282
  332SOL     OW 2677   1.582   0.639   2.334
  332SOL    HW1 2678   1.551   0.700   2.407
  332SOL    HW2 2679   1.632   0.691   2.265
  333SOL     OW 2680   0.402   0.751   3.460
  333SOL    HW1 2681   0.470   0.806   3.413
  333SOL    HW2 2682   0.442   0.663   3.487
  334SOL     OW 2683   1.587   0.779   3.532
  334SOL    HW1 2684   1.495   0.817   3.527
  334SOL    HW2 2685   1.647   0.826   3.467
  335SOL     OW 2686   1.013   0.105   3.632
  335SOL    HW1 2687   1.019   0.190   3.580
  335SOL    HW2 2688   1.045   0.029   3.575
  336SOL     OW 2689   0.504   0.050   3.602
  336SOL    HW1 2690   0.462  -0.007   3.532
  336SOL    HW2 2691   0.438   0.119   3.634
  337SOL     OW 2692   0.573   0.870   2.891
  337SOL    HW1 2693   0.617   0.959   2.882
  337SOL    HW2 2694   0.510   0.870   2.968
  338SOL     OW 2695   1.360   0.862   2.907
  338SOL    HW1 2696   1.285   0.862   2.841
  338SOL    HW2 2697   1.397   0.770   2.916
  339SOL     OW 2698   1.209   0.525   2.137
  339SOL    HW1 2699   1.222   0.441   2.191
  339SOL    HW2 2700   1.180   0.599   2.197
  340SOL     OW 2701   0.307   0.213   3.093
  340SOL    HW1 2702   0.284   0.250   3.183
  340SOL    HW2 2703   0.277   0.118   3.087
  341SOL     OW 2704   0.037   1.310   3.144
  341SOL    HW1 2705   0.090   1.261   3.212
  341SOL    HW2 2706   0.059   1.408   3.149
  342SOL     OW 2707   0.732   0.634   2.926
  342SOL    HW1 2708   0.791   0.608   2.850
  342SOL    HW2 2709   0.704   0.730   2.915
  343SOL     OW 2710   1.728   0.935   3.716
  343SOL    HW1 2711   1.682   0.928   3.627
  343SOL    HW2 2712   1.666   0.979   3.782
  344SOL     OW 2713   0.307   0.063   2.480
  344SOL    HW1 2714   0.296   0.157   2.513
  344SOL    HW2 2715   0.302   0.000   2.557
  345SOL     OW 2716   1.023   0.766   2.828
  345SOL    HW1 2717   1.038   0.787   2.924
  345SOL    HW2 2718   0.993   0.671   2.819
  346SOL     OW 2719   1.859   1.518   3.467
  346SOL    HW1 2720   1.873   1.545   3.372
  346SOL    HW2 2721   1.942   1.540   3.520
  347SOL     OW 2722   0.350   0.898   3.666
  347SOL    HW1 2723   0.426   0.942   3.714
  347SOL    HW2 2724   0.385   0.851   3.584
  348SOL     OW 2725   1.303   0.838   1.904
  348SOL    HW1 2726   1.337   0.745   1.919
  348SOL    HW2 2727   1.321   0.865   1.809
  349SOL     OW 2728   0.319   0.810   2.811
  349SOL    HW1 2729   0.412   0.846   2.816
  349SOL    HW2 2730   0.313   0.725   2.863
  350SOL     OW 2731   0.339   0.509   2.868
  350SOL    HW1 2732   0.287   0.426   2.851
  350SOL    HW2 2733   0.416   0.514   2.804
  351SOL     OW 2734   1.138   0.380   3.540
  351SOL    HW1 2735   1.093   0.443   3.604
  351SOL    HW2 2736   1.231   0.411   3.523
  352SOL     OW 2737   1.160   0.207   3.339
  352SOL    HW1 2738   1.160   0.271   3.416
  352SOL    HW2 2739   1.188   0.255   3.256
  353SOL     OW 2740   0.008   1.326   2.062
  353SOL    HW1 2741  -0.085   1.347   2.031
  353SOL    HW2 2742   0.018   1.227   2.075
  354SOL     OW 2743   0.088   1.801   2.789
  354SOL    HW1 2744   0.046   1.715   2.762
  354SOL    HW2 2745   0.182   1.804   2.755
  355SOL     OW 2746   0.504   1.568   2.772
  355SOL    HW1 2747   0.570   1.642   2.781
  355SOL    HW2 2748   0.548   1.489   2.730
  356SOL     OW 2749   1.002   0.796   3.100
  356SOL    HW1 2750   1.043   0.764   3.186
  356SOL    HW2 2751   0.906   0.769   3.097
  357SOL     OW 2752   0.040   0.544   2.976
  357SOL    HW1 2753   0.125   0.511   2.935
  357SOL    HW2 2754   0.053   0.559   3.074
  358SOL     OW 2755   0.189   0.520   3.584
  358SOL    HW1 2756   0.248   0.480   3.514
  358SOL    HW2 2757   0.131   0.591   3.543
  359SOL     OW 2758   0.815   0.572   2.187
  359SOL    HW1 2759   0.822   0.483   2.141
  359SOL    HW2 2760   0.721   0.606   2.179
  360SOL     OW 2761   1.657   0.604   3.068
  360SOL    HW1 2762   1.619   0.535   3.130
  360SOL    HW2 2763   1.739   0.568   3.024
  361SOL     OW 2764   0.671   0.464   3.131
  361SOL    HW1 2765   0.637   0.375   3.101
  361SOL    HW2 2766   0.697   0.518   3.051
  362SOL     OW 2767   0.930   1.678   3.327
  362SOL    HW1 2768   0.906   1.660   3.232
  362SOL    HW2 2769   0.960   1.772   3.337
  363SOL     OW 2770   0.473   0.500   2.053
  363SOL    HW1 2771   0.534   0.580   2.057
  363SOL    HW2 2772   0.378   0.531   2.060
  364SOL     OW 2773   0.159   1.137   3.328
  364SOL    HW1 2774   0.181   1.076   3.404
  364SOL    HW2 2775   0.169   1.088   3.242
  365SOL     OW 2776   1.302   0.855   2.171
  365SOL    HW1 2777   1.216   0.824   2.213
  365SOL    HW2 2778   1.298   0.841   2.072
  366SOL     OW 2779   1.759   1.747   3.016
  366SOL    HW1 2780   1.820   1.777   2.943
  366SOL    HW2 2781   1.721   1.658   2.994
  367SOL     OW 2782   0.083   1.258   2.884
  367SOL    HW1 2783   0.078   1.257   2.984
  367SOL    HW2 2784   0.000   1.217   2.846
  368SOL     OW 2785   0.688   1.662   3.578
  368SOL    HW1 2786   0.632   1.743   3.587
  368SOL    HW2 2787   0.740   1.666   3.492
  369SOL     OW 2788   1.726   0.135   2.385
  369SOL    HW1 2789   1.799   0.118   2.318
  369SOL    HW2 2790   1.695   0.048   2.423
  370SOL     OW 2791   1.388   1.573   2.339
  370SOL    HW1 2792   1.455   1.585   2.265
  370SOL    HW2 2793   1.348   1.662   2.362
  371SOL     OW 2794   1.280   0.927   2.534
  371SOL    HW1 2795   1.340   0.846   2.536
  371SOL    HW2 2796   1.320   0.996   2.474
  372SOL     OW 2797   0.830   1.273   3.284
  372SOL    HW1 2798   0.825   1.306   3.379
  372SOL    HW2 2799   0.744   1.292   3.238
  373SOL     OW 2800   0.672   1.616   2.016
  373SOL    HW1 2801   0.681   1.626   1.917
  373SOL    HW2 2802   0.632   1.527   2.037
  374SOL     OW 2803   1.841   0.175   2.825
  374SOL    HW1 2804   1.880   0.090   2.789
  374SOL    HW2 2805   1.743   0.177   2.806
  375SOL     OW 2806   0.263   0.326   2.582
  375SOL    HW1 2807   0.184   0.377   2.548
  375SOL    HW2 2808   0.254   0.311   2.680
  376SOL     OW 2809   1.194   1.612   1.893
  376SOL    HW1 2810   1.200   1.519   1.930
  376SOL    HW2 2811   1.135   1.612   1.813
  377SOL     OW 2812   0.822   1.002   3.234
  377SOL    HW1 2813   0.862   1.001   3.142
  377SOL    HW2 2814   0.832   1.094   3.274
  378SOL     OW 2815   0.916   0.910   2.153
  378SOL    HW1 2816   0.979   0.948   2.085
  378SOL    HW2 2817   0.956   0.827   2.192
  379SOL     OW 2818   1.504   1.607   1.906
  379SOL    HW1 2819   1.412   1.644   1.913
  379SOL    HW2 2820   1.542   1.627   1.816
  380SOL     OW 2821   1.614   1.292   3.151
  380SOL    HW1 2822   1.674   1.295   3.231
  380SOL    HW2 2823   1.539   1.356   3.164
  381SOL     OW 2824   1.039   1.098   2.558
  381SOL    HW1 2825   0.969   1.051   2.612
  381SOL    HW2 2826   1.098   1.030   2.515
  382SOL     OW 2827   1.014   0.236   2.833
  382SOL    HW1 2828   1.006   0.200   2.740
  382SOL    HW2 2829   1.012   0.160   2.898
  383SOL     OW 2830   0.590   1.487   2.353
  383SOL    HW1 2831   0.632   1.429   2.283
  383SOL    HW2 2832   0.546   1.566   2.309
  384SOL     OW 2833   1.709   0.385   3.243
  384SOL    HW1 2834   1.782   0.454   3.247
  384SOL    HW2 2835   1.737   0.310   3.184
  385SOL     OW 2836   0.255   1.348   2.152
  385SOL    HW1 2837   0.159   1.349   2.125
  385SOL    HW2 2838   0.267   1.401   2.236
  386SOL     OW 2839   0.105   1.013   3.588
  386SOL    HW1 2840   0.028   0.980   3.642
  386SOL    HW2 2841   0.190   0.983   3.630
  387SOL     OW 2842   0.672   0.203   3.351
  387SOL    HW1 2843   0.762   0.187   3.311
  387SOL    HW2 2844   0.680   0.208   3.450
  388SOL     OW 2845   0.075   0.345   1.895
  388SOL    HW1 2846  -0.017   0.317   1.866
  388SOL    HW2 2847   0.106   0.422   1.839
  389SOL     OW 2848   0.072   0.166   2.180
  389SOL    HW1 2849   0.055   0.249   2.126
  389SOL    HW2 2850   0.162   0.129   2.158
  390SOL     OW 2851   1.183   1.335   1.981
  390SOL    HW1 2852   1.084   1.324   1.983
  390SOL    HW2 2853   1.217   1.350   2.074
  391SOL     OW 2854   0.613   0.842   3.293
  391SOL    HW1 2855   0.669   0.923   3.276
  391SOL    HW2 2856   0.672   0.762   3.296
  392SOL     OW 2857   1.493   1.767   2.821
  392SOL    HW1 2858   1.526   1.831   2.752
  392SOL    HW2 2859   1.559   1.761   2.896
  393SOL     OW 2860   0.716   0.565   3.570
  393SOL    HW1 2861   0.735   0.630   3.644
  393SOL    HW2 2862   0.776   0.485   3.579
  394SOL     OW 2863   1.450   1.220   3.495
  394SOL    HW1 2864   1.441   1.210   3.594
  394SOL    HW2 2865   1.546   1.213   3.469
  395SOL     OW 2866   1.674   0.883   3.116
  395SOL    HW1 2867   1.647   0.794   3.079
  395SOL    HW2 2868   1.675   0.951   3.043
  396SOL     OW 2869   1.225   0.325   2.311
  396SOL    HW1 2870   1.290   0.251   2.300
  396SOL    HW2 2871   1.245   0.375   2.395
  397SOL     OW 2872   0.594   0.745   2.514
  397SOL    HW1 2873   0.644   0.830   2.495
  397SOL    HW2 2874   0.506   0.747   2.466
  398SOL     OW 2875   1.777   0.342   3.504
  398SOL    HW1 2876   1.760   0.373   3.410
  398SOL    HW2 2877   1.693   0.305   3.542
  399SOL     OW 2878   1.730   0.934   3.379
  399SOL    HW1 2879   1.768   1.025   3.394
  399SOL    HW2 2880   1.722   0.917   3.280
  400SOL     OW 2881   0.859   1.374   1.878
  400SOL    HW1 2882   0.813   1.389   1.966
  400SOL    HW2 2883   0.903   1.459   1.848
  401SOL     OW 2884   0.661   1.790   2.815
  401SOL    HW1 2885   0.615   1.878   2.802
  401SOL    HW2 2886   0.760   1.802   2.808
  402SOL     OW 2887   1.083   0.984   1.949
  402SOL    HW1 2888   1.060   1.037   1.867
  402SOL    HW2 2889   1.164   0.928   1.930
  403SOL     OW 2890   0.079   1.240   2.515
  403SOL    HW1 2891   0.078   1.193   2.603
  403SOL    HW2 2892   0.161   1.212   2.464
  404SOL     OW 2893   0.672   1.391   3.486
  404SOL    HW1 2894   0.594   1.341   3.524
  404SOL    HW2 2895   0.669   1.486   3.517
  405SOL     OW 2896   1.824   0.192   3.089
  405SOL    HW1 2897   1.820   0.102   3.133
  405SOL    HW2 2898   1.827   0.181   2.990
  406SOL     OW 2899   0.428   0.424   2.382
  406SOL    HW1 2900   0.458   0.352   2.320
  406SOL    HW2 2901   0.389   0.384   2.465
  407SOL     OW 2902   1.705   1.487   2.966
  407SOL    HW1 2903   1.612   1.462   2.939
  407SOL    HW2 2904   1.731   1.437   3.048
  408SOL     OW 2905   0.317   0.547   3.142
  408SOL    HW1 2906   0.355   0.488   3.214
  408SOL    HW2 2907   0.357   0.521   3.054
  409SOL     OW 2908   0.812   1.586   2.549
  409SOL    HW1 2909   0.844   1.596   2.455
  409SOL    HW2 2910   0.733   1.524   2.551
  410SOL     OW 2911   1.424   0.214   2.974
  410SOL    HW1 2912   1.476   0.149   3.029
  410SOL    HW2 2913   1.375   0.277   3.035
  411SOL     OW 2914   1.001   0.034   3.016
  411SOL    HW1 2915   0.938  -0.038   2.985
  411SOL    HW2 2916   1.094  -0.002   3.016
  412SOL     OW 2917   0.770   1.330   2.163
  412SOL    HW1 2918   0.724   1.243   2.180
  412SOL    HW2 2919   0.861   1.327   2.204
  413SOL     OW 2920   0.618   1.567   3.146
  413SOL    HW1 2921   0.613   1.649   3.203
  413SOL    HW2 2922   0.707   1.564   3.101
  414SOL     OW 2923   1.352   0.052   2.030
  414SOL    HW1 2924   1.387   0.011   1.946
  414SOL    HW2 2925   1.262   0.014   2.050
  415SOL     OW 2926   1.300   0.453   2.553
  415SOL    HW1 2927   1.241   0.533   2.557
  415SOL    HW2 2928   1.315   0.418   2.646
  416SOL     OW 2929   1.593   0.221   2.744
  416SOL    HW1 2930   1.509   0.220   2.798
  416SOL    HW2 2931   1.595   0.304   2.688
  417SOL     OW 2932   0.039   1.077   2.162
  417SOL    HW1 2933   0.138   1.066   2.153
  417SOL    HW2 2934  -0.001   0.991   2.194
  418SOL     OW 2935   0.875   1.646   2.199
  418SOL    HW1 2936   0.798   1.611   2.145
  418SOL    HW2 2937   0.843   1.717   2.261
  419SOL     OW 2938   0.230   0.628   3.837
  419SOL    HW1 2939   0.137   0.626   3.874
  419SOL    HW2 2940   0.231   0.589   3.745
  420SOL     OW 2941   0.225   0.275   4.720
  420SOL    HW1 2942   0.260   0.258   4.812
  420SOL    HW2 2943   0.137   0.230   4.708
  421SOL     OW 2944   0.019   0.368   4.371
  421SOL    HW1 2945  -0.063   0.411   4.410
  421SOL    HW2 2946  -0.009   0.295   4.308
  422SOL     OW 2947   1.555   1.511   4.427
  422SOL    HW1 2948   1.498   1.495   4.508
  422SOL    HW2 2949   1.496   1.521   4.347
  423SOL     OW 2950   1.135   0.703   4.441
  423SOL    HW1 2951   1.192   0.781   4.416
  423SOL    HW2 2952   1.075   0.729   4.517
  424SOL     OW 2953   0.231   1.713   4.207
  424SOL    HW1 2954   0.265   1.790   4.261
  424SOL    HW2 2955   0.275   1.713   4.117
  425SOL     OW 2956   0.230   1.434   4.262
  425SOL    HW1 2957   0.204   1.530   4.262
  425SOL    HW2 2958   0.159   1.380   4.307
  426SOL     OW 2959   0.620   1.786   5.163
  426SOL    HW1 2960   0.528   1.769   5.198
  426SOL    HW2 2961   0.648   1.878   5.189
  427SOL     OW 2962   0.606   0.964   3.847
  427SOL    HW1 2963   0.613   1.048   3.793
  427SOL    HW2 2964   0.652   0.977   3.935
  428SOL     OW 2965   0.122   0.643   4.287
  428SOL    HW1 2966   0.077   0.555   4.304
  428SOL    HW2 2967   0.121   0.697   4.371
  429SOL     OW 2968   1.842   1.767   4.083
  429SOL    HW1 2969   1.896   1.738   4.163
  429SOL    HW2 2970   1.872   1.857   4.054
  430SOL     OW 2971   0.809   0.004   4.226
  430SOL    HW1 2972   0.849   0.095   4.217
  430SOL    HW2 2973   0.709   0.012   4.232
  431SOL     OW 2974   0.197   0.976   4.988
  431SOL    HW1 2975   0.286   0.931   4.974
  431SOL    HW2 2976   0.124   0.911   4.969
  432SOL     OW 2977   1.466   1.417   4.677
  432SOL    HW1 2978   1.407   1.423   4.757
  432SOL    HW2 2979   1.451   1.329   4.631
  433SOL     OW 2980   1.667   1.714   4.296
  433SOL    HW1 2981   1.626   1.691   4.208
  433SOL    HW2 2982   1.649   1.640   4.361
  434SOL     OW 2983   0.598   0.729   3.994
  434SOL    HW1 2984   0.622   0.798   3.926
  434SOL    HW2 2985   0.520   0.762   4.048
  435SOL     OW 2986   1.576   1.662   4.031
  435SOL    HW1 2987   1.665   1.708   4.034
  435SOL    HW2 2988   1.555   1.638   3.936
  436SOL     OW 2989   1.041   0.701   4.153
  436SOL    HW1 2990   1.067   0.697   4.249
  436SOL    HW2 2991   0.956   0.650   4.139
  437SOL     OW 2992   0.076   0.811   4.513
  437SOL    HW1 2993   0.175   0.799   4.522
  437SOL    HW2 2994   0.052   0.906   4.534
  438SOL     OW 2995   0.130   1.821   5.295
  438SOL    HW1 2996   0.120   1.806   5.394
  438SOL    HW2 2997   0.044   1.857   5.259
  439SOL     OW 2998   0.865   0.348   3.919
  439SOL    HW1 2999   0.924   0.411   3.870
  439SOL    HW2 3000   0.884   0.254   3.890
  440SOL     OW 3001   1.362   1.144   4.269
  440SOL    HW1 3002   1.445   1.115   4.221
  440SOL    HW2 3003   1.313   1.211   4.213
  441SOL     OW 3004   0.550   0.196   4.609
  441SOL    HW1 3005   0.545   0.191   4.709
  441SOL    HW2 3006   0.552   0.292   4.580
  442SOL     OW 3007   1.008   1.456   4.201
  442SOL    HW1 3008   0.962   1.528   4.149
  442SOL    HW2 3009   1.004   1.476   4.299
  443SOL     OW 3010   0.351   1.801   4.577
  443SOL    HW1 3011   0.401   1.715   4.583
  443SOL    HW2 3012   0.416   1.878   4.574
  444SOL     OW 3013   1.795   1.066   4.597
  444SOL    HW1 3014   1.733   1.051   4.521
  444SOL    HW2 3015   1.743   1.077   4.682
  445SOL     OW 3016   0.321   0.943   3.966
  445SOL    HW1 3017   0.403   0.982   3.924
  445SOL    HW2 3018   0.294   0.861   3.917
  446SOL     OW 3019   1.111   1.776   3.961
  446SOL    HW1 3020   1.051   1.714   4.011
  446SOL    HW2 3021   1.142   1.732   3.876
  447SOL     OW 3022   1.632   1.377   3.805
  447SOL    HW1 3023   1.600   1.471   3.795
  447SOL    HW2 3024   1.556   1.314   3.793
  448SOL     OW 3025   1.400   0.107   4.150
  448SOL    HW1 3026   1.376   0.070   4.060
  448SOL    HW2 3027   1.499   0.123   4.154
  449SOL     OW 3028   0.249   1.785   4.965
  449SOL    HW1 3029   0.306   1.720   5.015
  449SOL    HW2 3030   0.233   1.752   4.872
  450SOL     OW 3031   0.940   1.698   4.628
  450SOL    HW1 3032   1.020   1.641   4.649
  450SOL    HW2 3033   0.891   1.658   4.551
  451SOL     OW 3034   0.382   0.700   4.204
  451SOL    HW1 3035   0.427   0.610   4.201
  451SOL    HW2 3036   0.288   0.689   4.237
  452SOL     OW 3037   0.614   0.122   3.841
  452SOL    HW1 3038   0.712   0.100   3.848
  452SOL    HW2 3039   0.583   0.105   3.748
  453SOL     OW 3040   0.922   0.503   4.623
  453SOL    HW1 3041   0.897   0.494   4.527
  453SOL    HW2 3042   0.970   0.421   4.654
  454SOL     OW 3043   1.434   1.188   3.765
  454SOL    HW1 3044   1.466   1.112   3.822
  454SOL    HW2 3045   1.342   1.215   3.795
  455SOL     OW 3046   0.297   0.035   3.895
  455SOL    HW1 3047   0.346   0.119   3.874
  455SOL    HW2 3048   0.359  -0.030   3.940
  456SOL     OW 3049   0.935   0.236   4.204
  456SOL    HW1 3050   0.887   0.277   4.126
  456SOL    HW2 3051   1.034   0.234   4.185
  457SOL     OW 3052   1.227   1.570   4.517
  457SOL    HW1 3053   1.248   1.644   4.452
  457SOL    HW2 3054   1.295   1.570   4.590
  458SOL     OW 3055   1.271   1.797   4.315
  458SOL    HW1 3056   1.315   1.861   4.251
  458SOL    HW2 3057   1.221   1.849   4.385
  459SOL     OW 3058   1.032   0.549   3.740
  459SOL    HW1 3059   0.991   0.631   3.701
  459SOL    HW2 3060   1.096   0.575   3.813
  460SOL     OW 3061   0.561   0.222   4.871
  460SOL    HW1 3062   0.599   0.138   4.908
  460SOL    HW2 3063   0.473   0.241   4.915
  461SOL     OW 3064   0.866   0.454   4.366
  461SOL    HW1 3065   0.834   0.526   4.304
  461SOL    HW2 3066   0.890   0.373   4.313
  462SOL     OW 3067   1.429   1.173   4.591
  462SOL    HW1 3068   1.374   1.089   4.584
  462SOL    HW2 3069   1.455   1.202   4.499
  463SOL     OW 3070   1.466   0.590   4.716
  463SOL    HW1 3071   1.436   0.495   4.723
  463SOL    HW2 3072   1.539   0.606   4.782
  464SOL     OW 3073   1.857   0.833   4.101
  464SOL    HW1 3074   1.899   0.769   4.165
  464SOL    HW2 3075   1.819   0.782   4.023
  465SOL     OW 3076   0.527   0.256   4.052
  465SOL    HW1 3077   0.554   0.197   3.977
  465SOL    HW2 3078   0.527   0.351   4.021
  466SOL     OW 3079   1.111   1.195   4.824
  466SOL    HW1 3080   1.071   1.239   4.905
  466SOL    HW2 3081   1.070   1.232   4.741
  467SOL     OW 3082   1.638   1.099   4.803
  467SOL    HW1 3083   1.643   1.180   4.862
  467SOL    HW2 3084   1.552   1.101   4.752
  468SOL     OW 3085   0.410   0.813   4.975
  468SOL    HW1 3086   0.496   0.825   5.025
  468SOL    HW2 3087   0.368   0.726   5.002
  469SOL     OW 3088   1.274   0.386   4.986
  469SOL    HW1 3089   1.295   0.460   5.050
  469SOL    HW2 3090   1.185   0.403   4.943
  470SOL     OW 3091   0.367   1.100   4.225
  470SOL    HW1 3092   0.360   1.183   4.169
  470SOL    HW2 3093   0.371   1.020   4.165
  471SOL     OW 3094   0.566   0.537   4.589
  471SOL    HW1 3095   0.578   0.603   4.515
  471SOL    HW2 3096   0.612   0.571   4.672
  472SOL     OW 3097   1.252   1.348   4.112
  472SOL    HW1 3098   1.302   1.425   4.152
  472SOL    HW2 3099   1.157   1.350   4.144
  473SOL     OW 3100   1.272   1.445   4.866
  473SOL    HW1 3101   1.319   1.458   4.953
  473SOL    HW2 3102   1.206   1.371   4.875
  474SOL     OW 3103   0.354   1.510   5.053
  474SOL    HW1 3104   0.333   1.466   4.966
  474SOL    HW2 3105   0.451   1.536   5.056
  475SOL     OW 3106   0.573   0.870   4.753
  475SOL    HW1 3107   0.617   0.959   4.744
  475SOL    HW2 3108   0.510   0.870   4.830
  476SOL     OW 3109   1.360   0.862   4.769
  476SOL    HW1 3110   1.285   0.862   4.703
  476SOL    HW2 3111   1.397   0.770   4.778
  477SOL     OW 3112   1.209   0.525   3.999
  477SOL    HW1 3113   1.222   0.441   4.053
  477SOL    HW2 3114   1.180   0.599   4.059
  478SOL     OW 3115   0.307   0.213   4.955
  478SOL    HW1 3116   0.284   0.250   5.045
  478SOL    HW2 3117   0.277   0.118   4.949
  479SOL     OW 3118   0.037   1.310   5.006
  479SOL    HW1 3119   0.090   1.261   5.074
  479SOL    HW2 3120   0.059   1.408   5.011
  480SOL     OW 3121   0.732   0.634   4.788
  480SOL    HW1 3122   0.791   0.608   4.712
  480SOL    HW2 3123   0.704   0.730   4.777
  481SOL     OW 3124   0.307   0.063   4.342
  481SOL    HW1 3125   0.296   0.157   4.375
  481SOL    HW2 3126   0.302   0.000   4.419
  482SOL     OW 3127   1.023   0.766   4.690
  482SOL    HW1 3128   1.038   0.787   4.786
  482SOL    HW2 3129   0.993   0.671   4.681
  483SOL     OW 3130   1.303   0.838   3.766
  483SOL    HW1 3131   1.337   0.745   3.781
  483SOL    HW2 3132   1.321   0.865   3.671
  484SOL     OW 3133   1.068   1.333   4.573
  484SOL    HW1 3134   1.075   1.249   4.518
  484SOL    HW2 3135   1.130   1.402   4.537
  485SOL     OW 3136   0.319   0.810   4.673
  485SOL    HW1 3137   0.412   0.846   4.678
  485SOL    HW2 3138   0.313   0.725   4.725
  486SOL     OW 3139   0.339   0.509   4.730
  486SOL    HW1 3140   0.287   0.426   4.713
  486SOL    HW2 3141   0.416   0.514   4.666
  487SOL     OW 3142   1.160   0.207   5.201
  487SOL    HW1 3143   1.160   0.271   5.278
  487SOL    HW2 3144   1.188   0.255   5.118
  488SOL     OW 3145   0.088   1.801   4.651
  488SOL    HW1 3146   0.046   1.715   4.624
  488SOL    HW2 3147   0.182   1.804   4.617
  489SOL     OW 3148   0.504   1.568   4.634
  489SOL    HW1 3149   0.570   1.642   4.643
  489SOL    HW2 3150   0.548   1.489   4.592
  490SOL     OW 3151   1.002   0.796   4.962
  490SOL    HW1 3152   1.043   0.764   5.048
  490SOL    HW2 3153   0.906   0.769   4.959
  491SOL     OW 3154   0.040   0.544   4.838
  491SOL    HW1 3155   0.125   0.511   4.797
  491SOL    HW2 3156   0.053   0.559   4.936
  492SOL     OW 3157   1.657   0.604   4.930
  492SOL    HW1 3158   1.619   0.535   4.992
  492SOL    HW2 3159   1.739   0.568   4.886
  493SOL     OW 3160   0.671   0.464   4.993
  493SOL    HW1 3161   0.637   0.375   4.963
  493SOL    HW2 3162   0.697   0.518   4.913
  494SOL     OW 3163   0.930   1.678   5.189
  494SOL    HW1 3164   0.906   1.660   5.094
  494SOL    HW2 3165   0.960   1.772   5.199
  495SOL     OW 3166   0.473   0.500   3.915
  495SOL    HW1 3167   0.534   0.580   3.919
  495SOL    HW2 3168   0.378   0.531   3.922
  496SOL     OW 3169   1.347   1.059   4.958
  496SOL    HW1 3170   1.371   0.996   4.884
  496SOL    HW2 3171   1.257   1.099   4.940
  497SOL     OW 3172   1.302   0.855   4.033
  497SOL    HW1 3173   1.216   0.824   4.075
  497SOL    HW2 3174   1.298   0.841   3.934
  498SOL     OW 3175   1.759   1.747   4.878
  498SOL    HW1 3176   1.820   1.777   4.805
  498SOL    HW2 3177   1.721   1.658   4.856
  499SOL     OW 3178   1.252   1.731   4.852
  499SOL    HW1 3179   1.336   1.736   4.798
  499SOL    HW2 3180   1.229   1.635   4.870
  500SOL     OW 3181   1.726   0.135   4.247
  500SOL    HW1 3182   1.799   0.118   4.180
  500SOL    HW2 3183   1.695   0.048   4.285
  501SOL     OW 3184   1.388   1.573   4.201
  501SOL    HW1 3185   1.455   1.585   4.127
  501SOL    HW2 3186   1.348   1.662   4.224
  502SOL     OW 3187   1.280   0.927   4.396
  502SOL    HW1 3188   1.340   0.846   4.398
  502SOL    HW2 3189   1.320   0.996   4.336
  503SOL     OW 3190   1.650   1.720   5.118
  503SOL    HW1 3191   1.703   1.730   5.034
  503SOL    HW2 3192   1.623   1.810   5.152
  504SOL     OW 3193   1.841   0.175   4.687
  504SOL    HW1 3194   1.880   0.090   4.651
  504SOL    HW2 3195   1.743   0.177   4.668
  505SOL     OW 3196   0.263   0.326   4.444
  505SOL    HW1 3197   0.184   0.377   4.410
  505SOL    HW2 3198   0.254   0.311   4.542
  506SOL     OW 3199   1.194   1.612   3.755
  506SOL    HW1 3200   1.200   1.519   3.792
  506SOL    HW2 3201   1.135   1.612   3.675
  507SOL     OW 3202   0.822   1.002   5.096
  507SOL    HW1 3203   0.862   1.001   5.004
  507SOL    HW2 3204   0.832   1.094   5.136
  508SOL     OW 3205   1.504   1.607   3.768
  508SOL    HW1 3206   1.412   1.644   3.775
  508SOL    HW2 3207   1.542   1.627   3.678
  509SOL     OW 3208   1.709   0.385   5.105
  509SOL    HW1 3209   1.782   0.454   5.109
  509SOL    HW2 3210   1.737   0.310   5.046
  510SOL     OW 3211   0.075   0.345   3.757
  510SOL    HW1 3212  -0.017   0.317   3.728
  510SOL    HW2 3213   0.106   0.422   3.701
  511SOL     OW 3214   0.072   0.166   4.042
  511SOL    HW1 3215   0.055   0.249   3.988
  511SOL    HW2 3216   0.162   0.129   4.020
  512SOL     OW 3217   1.183   1.335   3.843
  512SOL    HW1 3218   1.084   1.324   3.845
  512SOL    HW2 3219   1.217   1.350   3.936
  513SOL     OW 3220   1.493   1.767   4.683
  513SOL    HW1 3221   1.526   1.831   4.614
  513SOL    HW2 3222   1.559   1.761   4.758
  514SOL     OW 3223   1.450   1.220   5.357
  514SOL    HW1 3224   1.441   1.210   5.456
  514SOL    HW2 3225   1.546   1.213   5.331
  515SOL     OW 3226   1.674   0.883   4.978
  515SOL    HW1 3227   1.647   0.794   4.941
  515SOL    HW2 3228   1.675   0.951   4.905
  516SOL     OW 3229   1.225   0.325   4.173
  516SOL    HW1 3230   1.290   0.251   4.162
  516SOL    HW2 3231   1.245   0.375   4.257
  517SOL     OW 3232   1.730   0.934   5.241
  517SOL    HW1 3233   1.768   1.025   5.256
  517SOL    HW2 3234   1.722   0.917   5.142
  518SOL     OW 3235   0.859   1.374   3.740
  518SOL    HW1 3236   0.813   1.389   3.828
  518SOL    HW2 3237   0.903   1.459   3.710
  519SOL     OW 3238   0.661   1.790   4.677
  519SOL    HW1 3239   0.615   1.878   4.664
  519SOL    HW2 3240   0.760   1.802   4.670
  520SOL     OW 3241   1.083   0.984   3.811
  520SOL    HW1 3242   1.060   1.037   3.729
  520SOL    HW2 3243   1.164   0.928   3.792
  521SOL     OW 3244   1.861   1.569   4.575
  521SOL    HW1 3245   1.790   1.557   4.505
  521SOL    HW2 3246   1.862   1.490   4.635
  522SOL     OW 3247   0.079   1.240   4.377
  522SOL    HW1 3248   0.078   1.193   4.465
  522SOL    HW2 3249   0.161   1.212   4.326
  523SOL     OW 3250   1.824   0.192   4.951
  523SOL    HW1 3251   1.820   0.102   4.995
  523SOL    HW2 3252   1.827   0.181   4.852
  524SOL     OW 3253   0.428   0.424   4.244
  524SOL    HW1 3254   0.458   0.352   4.182
  524SOL    HW2 3255   0.389   0.384   4.327
  525SOL     OW 3256   1.705   1.487   4.828
  525SOL    HW1 3257   1.612   1.462   4.801
  525SOL    HW2 3258   1.731   1.437   4.910
  526SOL     OW 3259   0.812   1.586   4.411
  526SOL    HW1 3260   0.844   1.596   4.317
  526SOL    HW2 3261   0.733   1.524   4.413
  527SOL     OW 3262   0.770   1.330   4.025
  527SOL    HW1 3263   0.724   1.243   4.042
  527SOL    HW2 3264   0.861   1.327   4.066
  528SOL     OW 3265   1.352   0.052   3.892
  528SOL    HW1 3266   1.387   0.011   3.808
  528SOL    HW2 3267   1.262   0.014   3.912
  529SOL     OW 3268   1.593   0.221   4.606
  529SOL    HW1 3269   1.509   0.220   4.660
  529SOL    HW2 3270   1.595   0.304   4.550
  530SOL     OW 3271   0.039   1.077   4.024
  530SOL    HW1 3272   0.138   1.066   4.015
  530SOL    HW2 3273  -0.001   0.991   4.056
  531SOL     OW 3274   0.875   1.646   4.061
  531SOL    HW1 3275   0.798   1.611   4.007
  531SOL    HW2 3276   0.843   1.717   4.123
  532SOL     OW 3277   0.230   2.490   0.113
  532SOL    HW1 3278   0.137   2.488   0.150
  532SOL    HW2 3279   0.231   2.451   0.021
  533SOL     OW 3280   0.225   2.137   0.996
  533SOL    HW1 3281   0.260   2.120   1.088
  533SOL    HW2 3282   0.137   2.092   0.984
  534SOL     OW 3283   0.019   2.230   0.647
  534SOL    HW1 3284  -0.063   2.273   0.686
  534SOL    HW2 3285  -0.009   2.157   0.584
  535SOL     OW 3286   0.569   3.137   1.165
  535SOL    HW1 3287   0.476   3.130   1.128
  535SOL    HW2 3288   0.580   3.226   1.209
  536SOL     OW 3289   1.555   3.373   0.703
  536SOL    HW1 3290   1.498   3.357   0.784
  536SOL    HW2 3291   1.496   3.383   0.623
  537SOL     OW 3292   1.135   2.565   0.717
  537SOL    HW1 3293   1.192   2.643   0.692
  537SOL    HW2 3294   1.075   2.591   0.793
  538SOL     OW 3295   1.755   2.469   0.231
  538SOL    HW1 3296   1.743   2.456   0.132
  538SOL    HW2 3297   1.725   2.388   0.280
  539SOL     OW 3298   0.768   3.006   1.023
  539SOL    HW1 3299   0.690   3.023   1.083
  539SOL    HW2 3300   0.802   3.093   0.987
  540SOL     OW 3301   0.850   2.660   1.823
  540SOL    HW1 3302   0.846   2.736   1.888
  540SOL    HW2 3303   0.872   2.696   1.732
  541SOL     OW 3304   0.685   2.874   0.665
  541SOL    HW1 3305   0.754   2.858   0.735
  541SOL    HW2 3306   0.612   2.931   0.703
  542SOL     OW 3307   0.686   3.023   1.803
  542SOL    HW1 3308   0.746   3.102   1.817
  542SOL    HW2 3309   0.600   3.054   1.762
  543SOL     OW 3310   0.335   3.297   1.061
  543SOL    HW1 3311   0.257   3.266   1.008
  543SOL    HW2 3312   0.393   3.355   1.004
  544SOL     OW 3313   1.460   3.367   1.339
  544SOL    HW1 3314   1.484   3.461   1.365
  544SOL    HW2 3315   1.444   3.313   1.421
  545SOL     OW 3316   0.438   2.254   1.499
  545SOL    HW1 3317   0.520   2.198   1.508
  545SOL    HW2 3318   0.357   2.196   1.503
  546SOL     OW 3319   1.127   3.203   1.690
  546SOL    HW1 3320   1.174   3.203   1.778
  546SOL    HW2 3321   1.079   3.116   1.679
  547SOL     OW 3322   0.230   3.296   0.538
  547SOL    HW1 3323   0.204   3.392   0.538
  547SOL    HW2 3324   0.159   3.242   0.583
  548SOL     OW 3325   0.240   2.953   0.886
  548SOL    HW1 3326   0.254   2.869   0.938
  548SOL    HW2 3327   0.185   3.017   0.941
  549SOL     OW 3328   0.620   3.648   1.439
  549SOL    HW1 3329   0.528   3.631   1.474
  549SOL    HW2 3330   0.648   3.740   1.465
  550SOL     OW 3331   0.606   2.826   0.123
  550SOL    HW1 3332   0.613   2.910   0.069
  550SOL    HW2 3333   0.652   2.839   0.211
  551SOL     OW 3334   1.594   1.976   1.480
  551SOL    HW1 3335   1.576   2.043   1.408
  551SOL    HW2 3336   1.591   2.022   1.569
  552SOL     OW 3337   0.122   2.505   0.563
  552SOL    HW1 3338   0.077   2.417   0.580
  552SOL    HW2 3339   0.121   2.559   0.647
  553SOL     OW 3340   1.842   3.629   0.359
  553SOL    HW1 3341   1.896   3.600   0.439
  553SOL    HW2 3342   1.872   3.719   0.330
  554SOL     OW 3343   0.027   3.458   0.117
  554SOL    HW1 3344   0.008   3.362   0.138
  554SOL    HW2 3345  -0.006   3.516   0.192
  555SOL     OW 3346   1.689   2.784   0.612
  555SOL    HW1 3347   1.784   2.755   0.620
  555SOL    HW2 3348   1.681   2.849   0.537
  556SOL     OW 3349   1.641   2.970   0.432
  556SOL    HW1 3350   1.727   2.972   0.380
  556SOL    HW2 3351   1.655   3.017   0.520
  557SOL     OW 3352   0.613   3.227   0.726
  557SOL    HW1 3353   0.564   3.140   0.735
  557SOL    HW2 3354   0.590   3.270   0.639
  558SOL     OW 3355   1.293   3.090   1.423
  558SOL    HW1 3356   1.330   3.017   1.365
  558SOL    HW2 3357   1.345   3.095   1.508
  559SOL     OW 3358   0.809   1.866   0.502
  559SOL    HW1 3359   0.849   1.957   0.493
  559SOL    HW2 3360   0.709   1.874   0.508
  560SOL     OW 3361   1.525   2.861   0.190
  560SOL    HW1 3362   1.462   2.785   0.203
  560SOL    HW2 3363   1.573   2.879   0.276
  561SOL     OW 3364   1.187   3.654   1.616
  561SOL    HW1 3365   1.211   3.714   1.540
  561SOL    HW2 3366   1.194   3.559   1.586
  562SOL     OW 3367   0.317   2.113   1.801
  562SOL    HW1 3368   0.388   2.184   1.807
  562SOL    HW2 3369   0.229   2.152   1.829
  563SOL     OW 3370   1.667   3.576   0.572
  563SOL    HW1 3371   1.626   3.553   0.484
  563SOL    HW2 3372   1.649   3.502   0.637
  564SOL     OW 3373   0.598   2.591   0.270
  564SOL    HW1 3374   0.622   2.660   0.202
  564SOL    HW2 3375   0.520   2.624   0.324
  565SOL     OW 3376   1.576   3.524   0.307
  565SOL    HW1 3377   1.665   3.570   0.310
  565SOL    HW2 3378   1.555   3.500   0.212
  566SOL     OW 3379   0.807   2.467   1.465
  566SOL    HW1 3380   0.760   2.464   1.554
  566SOL    HW2 3381   0.756   2.412   1.399
  567SOL     OW 3382   1.394   2.331   1.674
  567SOL    HW1 3383   1.374   2.374   1.762
  567SOL    HW2 3384   1.472   2.269   1.683
  568SOL     OW 3385   0.973   2.752   1.572
  568SOL    HW1 3386   1.019   2.668   1.543
  568SOL    HW2 3387   0.917   2.786   1.497
  569SOL     OW 3388   1.041   2.563   0.429
  569SOL    HW1 3389   1.067   2.559   0.525
  569SOL    HW2 3390   0.956   2.512   0.415
  570SOL     OW 3391   0.076   2.673   0.789
  570SOL    HW1 3392   0.175   2.661   0.798
  570SOL    HW2 3393   0.052   2.768   0.810
  571SOL     OW 3394   0.130   3.683   1.571
  571SOL    HW1 3395   0.120   3.668   1.670
  571SOL    HW2 3396   0.044   3.719   1.535
  572SOL     OW 3397   0.865   2.210   0.195
  572SOL    HW1 3398   0.924   2.273   0.146
  572SOL    HW2 3399   0.884   2.116   0.166
  573SOL     OW 3400   1.719   2.447   1.831
  573SOL    HW1 3401   1.693   2.536   1.795
  573SOL    HW2 3402   1.717   2.379   1.758
  574SOL     OW 3403   1.362   3.006   0.545
  574SOL    HW1 3404   1.445   2.977   0.497
  574SOL    HW2 3405   1.313   3.073   0.489
  575SOL     OW 3406   1.008   3.318   0.477
  575SOL    HW1 3407   0.962   3.390   0.425
  575SOL    HW2 3408   1.004   3.338   0.575
  576SOL     OW 3409   1.227   3.412   1.506
  576SOL    HW1 3410   1.233   3.335   1.570
  576SOL    HW2 3411   1.175   3.386   1.426
  577SOL     OW 3412   0.321   2.805   0.242
  577SOL    HW1 3413   0.403   2.844   0.200
  577SOL    HW2 3414   0.294   2.723   0.193
  578SOL     OW 3415   0.461   3.128   1.727
  578SOL    HW1 3416   0.411   3.129   1.641
  578SOL    HW2 3417   0.398   3.110   1.803
  579SOL     OW 3418   1.111   3.638   0.237
  579SOL    HW1 3419   1.051   3.576   0.287
  579SOL    HW2 3420   1.142   3.594   0.152
  580SOL     OW 3421   0.202   2.147   1.498
  580SOL    HW1 3422   0.122   2.207   1.485
  580SOL    HW2 3423   0.192   2.098   1.584
  581SOL     OW 3424   1.632   3.239   0.081
  581SOL    HW1 3425   1.600   3.333   0.071
  581SOL    HW2 3426   1.556   3.176   0.069
  582SOL     OW 3427   1.400   1.969   0.426
  582SOL    HW1 3428   1.376   1.932   0.336
  582SOL    HW2 3429   1.499   1.985   0.430
  583SOL     OW 3430   0.249   3.647   1.241
  583SOL    HW1 3431   0.306   3.582   1.291
  583SOL    HW2 3432   0.233   3.614   1.148
  584SOL     OW 3433   0.940   3.560   0.904
  584SOL    HW1 3434   1.020   3.503   0.925
  584SOL    HW2 3435   0.891   3.520   0.827
  585SOL     OW 3436   0.382   2.562   0.480
  585SOL    HW1 3437   0.427   2.472   0.477
  585SOL    HW2 3438   0.288   2.551   0.513
  586SOL     OW 3439   1.547   2.084   1.729
  586SOL    HW1 3440   1.542   2.121   1.821
  586SOL    HW2 3441   1.475   2.015   1.717
  587SOL     OW 3442   0.781   2.126   1.749
  587SOL    HW1 3443   0.848   2.065   1.792
  587SOL    HW2 3444   0.708   2.145   1.814
  588SOL     OW 3445   0.888   3.376   1.195
  588SOL    HW1 3446   0.865   3.351   1.101
  588SOL    HW2 3447   0.949   3.307   1.234
  589SOL     OW 3448   0.803   3.264   0.924
  589SOL    HW1 3449   0.893   3.278   0.882
  589SOL    HW2 3450   0.732   3.266   0.853
  590SOL     OW 3451   0.922   2.365   0.899
  590SOL    HW1 3452   0.897   2.356   0.803
  590SOL    HW2 3453   0.970   2.283   0.930
  591SOL     OW 3454   0.539   1.926   0.512
  591SOL    HW1 3455   0.458   1.927   0.570
  591SOL    HW2 3456   0.542   2.009   0.457
  592SOL     OW 3457   1.434   3.050   0.041
  592SOL    HW1 3458   1.466   2.974   0.098
  592SOL    HW2 3459   1.342   3.077   0.071
  593SOL     OW 3460   0.297   1.897   0.171
  593SOL    HW1 3461   0.346   1.981   0.150
  593SOL    HW2 3462   0.359   1.832   0.216
  594SOL     OW 3463   0.935   2.098   0.480
  594SOL    HW1 3464   0.887   2.139   0.402
  594SOL    HW2 3465   1.034   2.096   0.461
  595SOL     OW 3466   1.076   2.545   1.464
  595SOL    HW1 3467   0.996   2.484   1.467
  595SOL    HW2 3468   1.157   2.492   1.440
  596SOL     OW 3469   1.227   3.432   0.793
  596SOL    HW1 3470   1.248   3.506   0.728
  596SOL    HW2 3471   1.295   3.432   0.866
  597SOL     OW 3472   0.459   3.014   0.741
  597SOL    HW1 3473   0.388   2.987   0.806
  597SOL    HW2 3474   0.433   2.986   0.648
  598SOL     OW 3475   1.271   3.659   0.591
  598SOL    HW1 3476   1.315   3.723   0.527
  598SOL    HW2 3477   1.221   3.711   0.661
  599SOL     OW 3478   1.032   2.411   0.016
  599SOL    HW1 3479   0.991   2.493  -0.023
  599SOL    HW2 3480   1.096   2.437   0.089
  600SOL     OW 3481   0.078   2.418   1.386
  600SOL    HW1 3482   0.170   2.417   1.345
  600SOL    HW2 3483   0.072   2.492   1.453
  601SOL     OW 3484   0.866   2.316   0.642
  601SOL    HW1 3485   0.834   2.388   0.580
  601SOL    HW2 3486   0.890   2.235   0.589
  602SOL     OW 3487   1.429   3.035   0.867
  602SOL    HW1 3488   1.374   2.951   0.860
  602SOL    HW2 3489   1.455   3.064   0.775
  603SOL     OW 3490   1.857   2.695   0.377
  603SOL    HW1 3491   1.899   2.631   0.441
  603SOL    HW2 3492   1.819   2.644   0.299
  604SOL     OW 3493   1.390   2.437   0.078
  604SOL    HW1 3494   1.336   2.416   0.159
  604SOL    HW2 3495   1.481   2.396   0.087
  605SOL     OW 3496   0.527   2.118   0.328
  605SOL    HW1 3497   0.554   2.059   0.253
  605SOL    HW2 3498   0.527   2.213   0.297
  606SOL     OW 3499   1.064   3.209   1.340
  606SOL    HW1 3500   0.984   3.186   1.395
  606SOL    HW2 3501   1.147   3.183   1.389
  607SOL     OW 3502   1.592   3.491   1.625
  607SOL    HW1 3503   1.619   3.525   1.535
  607SOL    HW2 3504   1.671   3.453   1.671
  608SOL     OW 3505   1.638   2.961   1.079
  608SOL    HW1 3506   1.643   3.042   1.138
  608SOL    HW2 3507   1.552   2.963   1.028
  609SOL     OW 3508   0.980   2.978   1.719
  609SOL    HW1 3509   0.881   2.984   1.729
  609SOL    HW2 3510   1.003   2.898   1.663
  610SOL     OW 3511   0.705   2.912   0.368
  610SOL    HW1 3512   0.691   2.919   0.467
  610SOL    HW2 3513   0.789   2.861   0.350
  611SOL     OW 3514   0.410   2.675   1.251
  611SOL    HW1 3515   0.496   2.687   1.301
  611SOL    HW2 3516   0.368   2.588   1.278
  612SOL     OW 3517   0.064   3.426   1.331
  612SOL    HW1 3518   0.018   3.508   1.297
  612SOL    HW2 3519   0.162   3.445   1.340
  613SOL     OW 3520   0.367   2.962   0.501
  613SOL    HW1 3521   0.360   3.045   0.445
  613SOL    HW2 3522   0.371   2.882   0.441
  614SOL     OW 3523   0.566   2.399   0.865
  614SOL    HW1 3524   0.578   2.465   0.791
  614SOL    HW2 3525   0.612   2.433   0.948
  615SOL     OW 3526   1.252   3.210   0.388
  615SOL    HW1 3527   1.302   3.287   0.428
  615SOL    HW2 3528   1.157   3.212   0.420
  616SOL     OW 3529   1.272   3.307   1.142
  616SOL    HW1 3530   1.319   3.320   1.229
  616SOL    HW2 3531   1.206   3.233   1.151
  617SOL     OW 3532   1.582   2.501   0.472
  617SOL    HW1 3533   1.551   2.562   0.545
  617SOL    HW2 3534   1.632   2.553   0.403
  618SOL     OW 3535   0.354   3.372   1.329
  618SOL    HW1 3536   0.333   3.328   1.242
  618SOL    HW2 3537   0.451   3.398   1.332
  619SOL     OW 3538   1.587   2.641   1.670
  619SOL    HW1 3539   1.495   2.679   1.665
  619SOL    HW2 3540   1.647   2.688   1.605
  620SOL     OW 3541   1.013   1.967   1.770
  620SOL    HW1 3542   1.019   2.052   1.718
  620SOL    HW2 3543   1.045   1.891   1.713
  621SOL     OW 3544   0.573   2.732   1.029
  621SOL    HW1 3545   0.617   2.821   1.020
  621SOL    HW2 3546   0.510   2.732   1.106
  622SOL     OW 3547   1.209   2.387   0.275
  622SOL    HW1 3548   1.222   2.303   0.329
  622SOL    HW2 3549   1.180   2.461   0.335
  623SOL     OW 3550   0.307   2.075   1.231
  623SOL    HW1 3551   0.284   2.112   1.321
  623SOL    HW2 3552   0.277   1.980   1.225
  624SOL     OW 3553   0.037   3.172   1.282
  624SOL    HW1 3554   0.090   3.123   1.350
  624SOL    HW2 3555   0.059   3.270   1.287
  625SOL     OW 3556   0.732   2.496   1.064
  625SOL    HW1 3557   0.791   2.470   0.988
  625SOL    HW2 3558   0.704   2.592   1.053
  626SOL     OW 3559   1.728   2.797   1.854
  626SOL    HW1 3560   1.682   2.790   1.765
  626SOL    HW2 3561   1.666   2.841   1.920
  627SOL     OW 3562   0.307   1.925   0.618
  627SOL    HW1 3563   0.296   2.019   0.651
  627SOL    HW2 3564   0.302   1.862   0.695
  628SOL     OW 3565   1.622   2.229   0.374
  628SOL    HW1 3566   1.624   2.153   0.438
  628SOL    HW2 3567   1.574   2.306   0.414
  629SOL     OW 3568   0.980   3.435   1.700
  629SOL    HW1 3569   0.960   3.479   1.612
  629SOL    HW2 3570   1.019   3.344   1.684
  630SOL     OW 3571   1.540   2.136   0.125
  630SOL    HW1 3572   1.479   2.061   0.148
  630SOL    HW2 3573   1.562   2.188   0.208
  631SOL     OW 3574   1.303   2.700   0.042
  631SOL    HW1 3575   1.337   2.607   0.057
  631SOL    HW2 3576   1.321   2.727  -0.053
  632SOL     OW 3577   1.068   3.195   0.849
  632SOL    HW1 3578   1.075   3.111   0.794
  632SOL    HW2 3579   1.130   3.264   0.813
  633SOL     OW 3580   0.319   2.672   0.949
  633SOL    HW1 3581   0.412   2.708   0.954
  633SOL    HW2 3582   0.313   2.587   1.001
  634SOL     OW 3583   0.339   2.371   1.006
  634SOL    HW1 3584   0.287   2.288   0.989
  634SOL    HW2 3585   0.416   2.376   0.942
  635SOL     OW 3586   1.138   2.242   1.678
  635SOL    HW1 3587   1.093   2.305   1.742
  635SOL    HW2 3588   1.231   2.273   1.661
  636SOL     OW 3589   1.160   2.069   1.477
  636SOL    HW1 3590   1.160   2.133   1.554
  636SOL    HW2 3591   1.188   2.117   1.394
  637SOL     OW 3592   0.008   3.188   0.200
  637SOL    HW1 3593  -0.085   3.209   0.169
  637SOL    HW2 3594   0.018   3.089   0.213
  638SOL     OW 3595   0.504   3.430   0.910
  638SOL    HW1 3596   0.570   3.504   0.919
  638SOL    HW2 3597   0.548   3.351   0.868
  639SOL     OW 3598   1.002   2.658   1.238
  639SOL    HW1 3599   1.043   2.626   1.324
  639SOL    HW2 3600   0.906   2.631   1.235
  640SOL     OW 3601   0.040   2.406   1.114
  640SOL    HW1 3602   0.125   2.373   1.073
  640SOL    HW2 3603   0.053   2.421   1.212
  641SOL     OW 3604   1.369   2.812   1.660
  641SOL    HW1 3605   1.408   2.901   1.680
  641SOL    HW2 3606   1.379   2.792   1.563
  642SOL     OW 3607   0.815   2.434   0.325
  642SOL    HW1 3608   0.822   2.345   0.279
  642SOL    HW2 3609   0.721   2.468   0.317
  643SOL     OW 3610   1.657   2.466   1.206
  643SOL    HW1 3611   1.619   2.397   1.268
  643SOL    HW2 3612   1.739   2.430   1.162
  644SOL     OW 3613   0.252   3.426   1.744
  644SOL    HW1 3614   0.222   3.483   1.820
  644SOL    HW2 3615   0.245   3.329   1.770
  645SOL     OW 3616   0.671   2.326   1.269
  645SOL    HW1 3617   0.637   2.237   1.239
  645SOL    HW2 3618   0.697   2.380   1.189
  646SOL     OW 3619   0.930   3.540   1.465
  646SOL    HW1 3620   0.906   3.522   1.370
  646SOL    HW2 3621   0.960   3.634   1.475
  647SOL     OW 3622   0.473   2.362   0.191
  647SOL    HW1 3623   0.534   2.442   0.195
  647SOL    HW2 3624   0.378   2.393   0.198
  648SOL     OW 3625   1.302   2.717   0.309
  648SOL    HW1 3626   1.216   2.686   0.351
  648SOL    HW2 3627   1.298   2.703   0.210
  649SOL     OW 3628   1.252   3.593   1.128
  649SOL    HW1 3629   1.336   3.598   1.074
  649SOL    HW2 3630   1.229   3.497   1.146
  650SOL     OW 3631   0.083   3.120   1.022
  650SOL    HW1 3632   0.078   3.119   1.122
  650SOL    HW2 3633   0.000   3.079   0.984
  651SOL     OW 3634   0.688   3.524   1.716
  651SOL    HW1 3635   0.632   3.605   1.725
  651SOL    HW2 3636   0.740   3.528   1.630
  652SOL     OW 3637   0.903   1.948   0.133
  652SOL    HW1 3638   0.954   1.949   0.047
  652SOL    HW2 3639   0.959   1.906   0.204
  653SOL     OW 3640   1.726   1.997   0.523
  653SOL    HW1 3641   1.799   1.980   0.456
  653SOL    HW2 3642   1.695   1.910   0.561
  654SOL     OW 3643   1.388   3.435   0.477
  654SOL    HW1 3644   1.455   3.447   0.403
  654SOL    HW2 3645   1.348   3.524   0.500
  655SOL     OW 3646   0.130   3.656   1.851
  655SOL    HW1 3647   0.089   3.582   1.904
  655SOL    HW2 3648   0.194   3.707   1.909
  656SOL     OW 3649   1.280   2.789   0.672
  656SOL    HW1 3650   1.340   2.708   0.674
  656SOL    HW2 3651   1.320   2.858   0.612
  657SOL     OW 3652   0.830   3.135   1.422
  657SOL    HW1 3653   0.825   3.168   1.517
  657SOL    HW2 3654   0.744   3.154   1.376
  658SOL     OW 3655   0.263   2.188   0.720
  658SOL    HW1 3656   0.184   2.239   0.686
  658SOL    HW2 3657   0.254   2.173   0.818
  659SOL     OW 3658   1.194   3.474   0.031
  659SOL    HW1 3659   1.200   3.381   0.068
  659SOL    HW2 3660   1.135   3.474  -0.049
  660SOL     OW 3661   0.822   2.864   1.372
  660SOL    HW1 3662   0.862   2.863   1.280
  660SOL    HW2 3663   0.832   2.956   1.412
  661SOL     OW 3664   0.916   2.772   0.291
  661SOL    HW1 3665   0.979   2.810   0.223
  661SOL    HW2 3666   0.956   2.689   0.330
  662SOL     OW 3667   1.504   3.469   0.044
  662SOL    HW1 3668   1.412   3.506   0.051
  662SOL    HW2 3669   1.542   3.489  -0.046
  663SOL     OW 3670   0.372   3.150   1.490
  663SOL    HW1 3671   0.359   3.243   1.456
  663SOL    HW2 3672   0.288   3.098   1.477
  664SOL     OW 3673   1.039   2.960   0.696
  664SOL    HW1 3674   0.969   2.913   0.750
  664SOL    HW2 3675   1.098   2.892   0.653
  665SOL     OW 3676   0.590   3.349   0.491
  665SOL    HW1 3677   0.632   3.291   0.421
  665SOL    HW2 3678   0.546   3.428   0.447
  666SOL     OW 3679   1.709   2.247   1.381
  666SOL    HW1 3680   1.782   2.316   1.385
  666SOL    HW2 3681   1.737   2.172   1.322
  667SOL     OW 3682   0.075   2.207   0.033
  667SOL    HW1 3683  -0.017   2.179   0.004
  667SOL    HW2 3684   0.106   2.284  -0.023
  668SOL     OW 3685   1.440   2.718   1.398
  668SOL    HW1 3686   1.383   2.770   1.335
  668SOL    HW2 3687   1.536   2.730   1.374
  669SOL     OW 3688   0.072   2.028   0.318
  669SOL    HW1 3689   0.055   2.111   0.264
  669SOL    HW2 3690   0.162   1.991   0.296
  670SOL     OW 3691   1.183   3.197   0.119
  670SOL    HW1 3692   1.084   3.186   0.121
  670SOL    HW2 3693   1.217   3.212   0.212
  671SOL     OW 3694   0.613   2.704   1.431
  671SOL    HW1 3695   0.669   2.785   1.414
  671SOL    HW2 3696   0.672   2.624   1.434
  672SOL     OW 3697   1.493   3.629   0.959
  672SOL    HW1 3698   1.526   3.693   0.890
  672SOL    HW2 3699   1.559   3.623   1.034
  673SOL     OW 3700   1.450   3.082   1.633
  673SOL    HW1 3701   1.441   3.072   1.732
  673SOL    HW2 3702   1.546   3.075   1.607
  674SOL     OW 3703   0.390   3.603   1.560
  674SOL    HW1 3704   0.299   3.644   1.558
  674SOL    HW2 3705   0.383   3.509   1.592
  675SOL     OW 3706   1.674   2.745   1.254
  675SOL    HW1 3707   1.647   2.656   1.217
  675SOL    HW2 3708   1.675   2.813   1.181
  676SOL     OW 3709   1.225   2.187   0.449
  676SOL    HW1 3710   1.290   2.113   0.438
  676SOL    HW2 3711   1.245   2.237   0.533
  677SOL     OW 3712   0.594   2.607   0.652
  677SOL    HW1 3713   0.644   2.692   0.633
  677SOL    HW2 3714   0.506   2.609   0.604
  678SOL     OW 3715   1.777   2.204   1.642
  678SOL    HW1 3716   1.760   2.235   1.548
  678SOL    HW2 3717   1.693   2.167   1.680
  679SOL     OW 3718   1.730   2.796   1.517
  679SOL    HW1 3719   1.768   2.887   1.532
  679SOL    HW2 3720   1.722   2.779   1.418
  680SOL     OW 3721   0.859   3.236   0.016
  680SOL    HW1 3722   0.813   3.251   0.104
  680SOL    HW2 3723   0.903   3.321  -0.014
  681SOL     OW 3724   0.661   3.652   0.953
  681SOL    HW1 3725   0.615   3.740   0.940
  681SOL    HW2 3726   0.760   3.664   0.946
  682SOL     OW 3727   1.083   2.846   0.087
  682SOL    HW1 3728   1.060   2.899   0.005
  682SOL    HW2 3729   1.164   2.790   0.068
  683SOL     OW 3730   0.221   3.176   1.844
  683SOL    HW1 3731   0.156   3.103   1.823
  683SOL    HW2 3732   0.225   3.190   1.942
  684SOL     OW 3733   0.079   3.102   0.653
  684SOL    HW1 3734   0.078   3.055   0.741
  684SOL    HW2 3735   0.161   3.074   0.602
  685SOL     OW 3736   0.672   3.253   1.624
  685SOL    HW1 3737   0.594   3.203   1.662
  685SOL    HW2 3738   0.669   3.348   1.655
  686SOL     OW 3739   0.428   2.286   0.520
  686SOL    HW1 3740   0.458   2.214   0.458
  686SOL    HW2 3741   0.389   2.246   0.603
  687SOL     OW 3742   0.317   2.409   1.280
  687SOL    HW1 3743   0.355   2.350   1.352
  687SOL    HW2 3744   0.357   2.383   1.192
  688SOL     OW 3745   0.812   3.448   0.687
  688SOL    HW1 3746   0.844   3.458   0.593
  688SOL    HW2 3747   0.733   3.386   0.689
  689SOL     OW 3748   1.424   2.076   1.112
  689SOL    HW1 3749   1.476   2.011   1.167
  689SOL    HW2 3750   1.375   2.139   1.173
  690SOL     OW 3751   0.770   3.192   0.301
  690SOL    HW1 3752   0.724   3.105   0.318
  690SOL    HW2 3753   0.861   3.189   0.342
  691SOL     OW 3754   0.618   3.429   1.284
  691SOL    HW1 3755   0.613   3.511   1.341
  691SOL    HW2 3756   0.707   3.426   1.239
  692SOL     OW 3757   1.352   1.914   0.168
  692SOL    HW1 3758   1.387   1.873   0.084
  692SOL    HW2 3759   1.262   1.876   0.188
  693SOL     OW 3760   1.300   2.315   0.691
  693SOL    HW1 3761   1.241   2.395   0.695
  693SOL    HW2 3762   1.315   2.280   0.784
  694SOL     OW 3763   1.593   2.083   0.882
  694SOL    HW1 3764   1.509   2.082   0.936
  694SOL    HW2 3765   1.595   2.166   0.826
  695SOL     OW 3766   0.039   2.939   0.300
  695SOL    HW1 3767   0.138   2.928   0.291
  695SOL    HW2 3768  -0.001   2.853   0.332
  696SOL     OW 3769   0.875   3.508   0.337
  696SOL    HW1 3770   0.798   3.473   0.283
  696SOL    HW2 3771   0.843   3.579   0.399
  697SOL     OW 3772   0.569   3.137   3.027
  697SOL    HW1 3773   0.476   3.130   2.990
  697SOL    HW2 3774   0.580   3.226   3.071
  698SOL     OW 3775   1.135   2.565   2.579
  698SOL    HW1 3776   1.192   2.643   2.554
  698SOL    HW2 3777   1.075   2.591   2.655
  699SOL     OW 3778   1.755   2.469   2.093
  699SOL    HW1 3779   1.743   2.456   1.994
  699SOL    HW2 3780   1.725   2.388   2.142
  700SOL     OW 3781   0.768   3.006   2.885
  700SOL    HW1 3782   0.690   3.023   2.945
  700SOL    HW2 3783   0.802   3.093   2.849
  701SOL     OW 3784   0.850   2.660   3.685
  701SOL    HW1 3785   0.846   2.736   3.750
  701SOL    HW2 3786   0.872   2.696   3.594
  702SOL     OW 3787   0.685   2.874   2.527
  702SOL    HW1 3788   0.754   2.858   2.597
  702SOL    HW2 3789   0.612   2.931   2.565
  703SOL     OW 3790   0.686   3.023   3.665
  703SOL    HW1 3791   0.746   3.102   3.679
  703SOL    HW2 3792   0.600   3.054   3.624
  704SOL     OW 3793   0.335   3.297   2.923
  704SOL    HW1 3794   0.257   3.266   2.870
  704SOL    HW2 3795   0.393   3.355   2.866
  705SOL     OW 3796   1.460   3.367   3.201
  705SOL    HW1 3797   1.484   3.461   3.227
  705SOL    HW2 3798   1.444   3.313   3.283
  706SOL     OW 3799   0.438   2.254   3.361
  706SOL    HW1 3800   0.520   2.198   3.370
  706SOL    HW2 3801   0.357   2.196   3.365
  707SOL     OW 3802   1.603   2.309   2.599
  707SOL    HW1 3803   1.529   2.355   2.549
  707SOL    HW2 3804   1.654   2.377   2.652
  708SOL     OW 3805   0.231   3.575   2.345
  708SOL    HW1 3806   0.265   3.652   2.399
  708SOL    HW2 3807   0.275   3.575   2.255
  709SOL     OW 3808   1.127   3.203   3.552
  709SOL    HW1 3809   1.174   3.203   3.640
  709SOL    HW2 3810   1.079   3.116   3.541
  710SOL     OW 3811   0.230   3.296   2.400
  710SOL    HW1 3812   0.204   3.392   2.400
  710SOL    HW2 3813   0.159   3.242   2.445
  711SOL     OW 3814   0.606   2.826   1.985
  711SOL    HW1 3815   0.613   2.910   1.931
  711SOL    HW2 3816   0.652   2.839   2.073
  712SOL     OW 3817   1.842   3.629   2.221
  712SOL    HW1 3818   1.896   3.600   2.301
  712SOL    HW2 3819   1.872   3.719   2.192
  713SOL     OW 3820   0.027   3.458   1.979
  713SOL    HW1 3821   0.008   3.362   2.000
  713SOL    HW2 3822  -0.006   3.516   2.054
  714SOL     OW 3823   1.689   2.784   2.474
  714SOL    HW1 3824   1.784   2.755   2.482
  714SOL    HW2 3825   1.681   2.849   2.399
  715SOL     OW 3826   1.641   2.970   2.294
  715SOL    HW1 3827   1.727   2.972   2.242
  715SOL    HW2 3828   1.655   3.017   2.382
  716SOL     OW 3829   0.113   2.599   3.459
  716SOL    HW1 3830   0.201   2.586   3.504
  716SOL    HW2 3831   0.100   2.696   3.437
  717SOL     OW 3832   1.293   3.090   3.285
  717SOL    HW1 3833   1.330   3.017   3.227
  717SOL    HW2 3834   1.345   3.095   3.370
  718SOL     OW 3835   0.809   1.866   2.364
  718SOL    HW1 3836   0.849   1.957   2.355
  718SOL    HW2 3837   0.709   1.874   2.370
  719SOL     OW 3838   0.197   2.838   3.126
  719SOL    HW1 3839   0.286   2.793   3.112
  719SOL    HW2 3840   0.124   2.773   3.107
  720SOL     OW 3841   1.525   2.861   2.052
  720SOL    HW1 3842   1.462   2.785   2.065
  720SOL    HW2 3843   1.573   2.879   2.138
  721SOL     OW 3844   1.187   3.654   3.478
  721SOL    HW1 3845   1.211   3.714   3.402
  721SOL    HW2 3846   1.194   3.559   3.448
  722SOL     OW 3847   0.317   2.113   3.663
  722SOL    HW1 3848   0.388   2.184   3.669
  722SOL    HW2 3849   0.229   2.152   3.691
  723SOL     OW 3850   1.667   3.576   2.434
  723SOL    HW1 3851   1.626   3.553   2.346
  723SOL    HW2 3852   1.649   3.502   2.499
  724SOL     OW 3853   1.281   2.207   2.806
  724SOL    HW1 3854   1.195   2.157   2.793
  724SOL    HW2 3855   1.343   2.153   2.862
  725SOL     OW 3856   1.576   3.524   2.169
  725SOL    HW1 3857   1.665   3.570   2.172
  725SOL    HW2 3858   1.555   3.500   2.074
  726SOL     OW 3859   0.807   2.467   3.327
  726SOL    HW1 3860   0.760   2.464   3.416
  726SOL    HW2 3861   0.756   2.412   3.261
  727SOL     OW 3862   1.394   2.331   3.536
  727SOL    HW1 3863   1.374   2.374   3.624
  727SOL    HW2 3864   1.472   2.269   3.545
  728SOL     OW 3865   0.973   2.752   3.434
  728SOL    HW1 3866   1.019   2.668   3.405
  728SOL    HW2 3867   0.917   2.786   3.359
  729SOL     OW 3868   0.991   2.272   3.104
  729SOL    HW1 3869   0.914   2.306   3.158
  729SOL    HW2 3870   0.957   2.221   3.025
  730SOL     OW 3871   1.041   2.563   2.291
  730SOL    HW1 3872   1.067   2.559   2.387
  730SOL    HW2 3873   0.956   2.512   2.277
  731SOL     OW 3874   0.865   2.210   2.057
  731SOL    HW1 3875   0.924   2.273   2.008
  731SOL    HW2 3876   0.884   2.116   2.028
  732SOL     OW 3877   1.719   2.447   3.693
  732SOL    HW1 3878   1.693   2.536   3.657
  732SOL    HW2 3879   1.717   2.379   3.620
  733SOL     OW 3880   1.362   3.006   2.407
  733SOL    HW1 3881   1.445   2.977   2.359
  733SOL    HW2 3882   1.313   3.073   2.351
  734SOL     OW 3883   1.008   3.318   2.339
  734SOL    HW1 3884   0.962   3.390   2.287
  734SOL    HW2 3885   1.004   3.338   2.437
  735SOL     OW 3886   0.351   3.663   2.715
  735SOL    HW1 3887   0.401   3.577   2.721
  735SOL    HW2 3888   0.416   3.740   2.712
  736SOL     OW 3889   1.795   2.928   2.735
  736SOL    HW1 3890   1.733   2.913   2.659
  736SOL    HW2 3891   1.743   2.939   2.820
  737SOL     OW 3892   1.227   3.412   3.368
  737SOL    HW1 3893   1.233   3.335   3.432
  737SOL    HW2 3894   1.175   3.386   3.288
  738SOL     OW 3895   1.458   2.597   2.590
  738SOL    HW1 3896   1.453   2.532   2.665
  738SOL    HW2 3897   1.538   2.656   2.603
  739SOL     OW 3898   0.461   3.128   3.589
  739SOL    HW1 3899   0.411   3.129   3.503
  739SOL    HW2 3900   0.398   3.110   3.665
  740SOL     OW 3901   1.111   3.638   2.099
  740SOL    HW1 3902   1.051   3.576   2.149
  740SOL    HW2 3903   1.142   3.594   2.014
  741SOL     OW 3904   0.202   2.147   3.360
  741SOL    HW1 3905   0.122   2.207   3.347
  741SOL    HW2 3906   0.192   2.098   3.446
  742SOL     OW 3907   1.632   3.239   1.943
  742SOL    HW1 3908   1.600   3.333   1.933
  742SOL    HW2 3909   1.556   3.176   1.931
  743SOL     OW 3910   0.464   3.605   2.185
  743SOL    HW1 3911   0.497   3.644   2.271
  743SOL    HW2 3912   0.540   3.598   2.120
  744SOL     OW 3913   1.400   1.969   2.288
  744SOL    HW1 3914   1.376   1.932   2.198
  744SOL    HW2 3915   1.499   1.985   2.292
  745SOL     OW 3916   0.940   3.560   2.766
  745SOL    HW1 3917   1.020   3.503   2.787
  745SOL    HW2 3918   0.891   3.520   2.689
  746SOL     OW 3919   0.382   2.562   2.342
  746SOL    HW1 3920   0.427   2.472   2.339
  746SOL    HW2 3921   0.288   2.551   2.375
  747SOL     OW 3922   0.614   1.984   1.979
  747SOL    HW1 3923   0.712   1.962   1.986
  747SOL    HW2 3924   0.583   1.967   1.886
  748SOL     OW 3925   0.781   2.126   3.611
  748SOL    HW1 3926   0.848   2.065   3.654
  748SOL    HW2 3927   0.708   2.145   3.676
  749SOL     OW 3928   0.888   3.376   3.057
  749SOL    HW1 3929   0.865   3.351   2.963
  749SOL    HW2 3930   0.949   3.307   3.096
  750SOL     OW 3931   0.803   3.264   2.786
  750SOL    HW1 3932   0.893   3.278   2.744
  750SOL    HW2 3933   0.732   3.266   2.715
  751SOL     OW 3934   0.922   2.365   2.761
  751SOL    HW1 3935   0.897   2.356   2.665
  751SOL    HW2 3936   0.970   2.283   2.792
  752SOL     OW 3937   0.539   1.926   2.374
  752SOL    HW1 3938   0.458   1.927   2.432
  752SOL    HW2 3939   0.542   2.009   2.319
  753SOL     OW 3940   1.434   3.050   1.903
  753SOL    HW1 3941   1.466   2.974   1.960
  753SOL    HW2 3942   1.342   3.077   1.933
  754SOL     OW 3943   0.297   1.897   2.033
  754SOL    HW1 3944   0.346   1.981   2.012
  754SOL    HW2 3945   0.359   1.832   2.078
  755SOL     OW 3946   0.935   2.098   2.342
  755SOL    HW1 3947   0.887   2.139   2.264
  755SOL    HW2 3948   1.034   2.096   2.323
  756SOL     OW 3949   1.271   3.659   2.453
  756SOL    HW1 3950   1.315   3.723   2.389
  756SOL    HW2 3951   1.221   3.711   2.523
  757SOL     OW 3952   1.032   2.411   1.878
  757SOL    HW1 3953   0.991   2.493   1.839
  757SOL    HW2 3954   1.096   2.437   1.951
  758SOL     OW 3955   0.078   2.418   3.248
  758SOL    HW1 3956   0.170   2.417   3.207
  758SOL    HW2 3957   0.072   2.492   3.315
  759SOL     OW 3958   0.561   2.084   3.009
  759SOL    HW1 3959   0.599   2.000   3.046
  759SOL    HW2 3960   0.473   2.103   3.053
  760SOL     OW 3961   0.866   2.316   2.504
  760SOL    HW1 3962   0.834   2.388   2.442
  760SOL    HW2 3963   0.890   2.235   2.451
  761SOL     OW 3964   1.017   1.901   2.615
  761SOL    HW1 3965   0.945   1.906   2.546
  761SOL    HW2 3966   0.993   1.832   2.684
  762SOL     OW 3967   1.429   3.035   2.729
  762SOL    HW1 3968   1.374   2.951   2.722
  762SOL    HW2 3969   1.455   3.064   2.637
  763SOL     OW 3970   1.466   2.452   2.854
  763SOL    HW1 3971   1.436   2.357   2.861
  763SOL    HW2 3972   1.539   2.468   2.920
  764SOL     OW 3973   1.857   2.695   2.239
  764SOL    HW1 3974   1.899   2.631   2.303
  764SOL    HW2 3975   1.819   2.644   2.161
  765SOL     OW 3976   1.664   3.142   2.519
  765SOL    HW1 3977   1.763   3.150   2.533
  765SOL    HW2 3978   1.619   3.226   2.550
  766SOL     OW 3979   1.390   2.437   1.940
  766SOL    HW1 3980   1.336   2.416   2.021
  766SOL    HW2 3981   1.481   2.396   1.949
  767SOL     OW 3982   0.527   2.118   2.190
  767SOL    HW1 3983   0.554   2.059   2.115
  767SOL    HW2 3984   0.527   2.213   2.159
  768SOL     OW 3985   1.754   3.085   3.450
  768SOL    HW1 3986   1.845   3.046   3.437
  768SOL    HW2 3987   1.762   3.181   3.474
  769SOL     OW 3988   1.064   3.209   3.202
  769SOL    HW1 3989   0.984   3.186   3.257
  769SOL    HW2 3990   1.147   3.183   3.251
  770SOL     OW 3991   1.592   3.491   3.487
  770SOL    HW1 3992   1.619   3.525   3.397
  770SOL    HW2 3993   1.671   3.453   3.533
  771SOL     OW 3994   1.638   2.961   2.941
  771SOL    HW1 3995   1.643   3.042   3.000
  771SOL    HW2 3996   1.552   2.963   2.890
  772SOL     OW 3997   0.980   2.978   3.581
  772SOL    HW1 3998   0.881   2.984   3.591
  772SOL    HW2 3999   1.003   2.898   3.525
  773SOL     OW 4000   0.410   2.675   3.113
  773SOL    HW1 4001   0.496   2.687   3.163
  773SOL    HW2 4002   0.368   2.588   3.140
  774SOL     OW 4003   1.274   2.248   3.124
  774SOL    HW1 4004   1.295   2.322   3.188
  774SOL    HW2 4005   1.185   2.265   3.081
  775SOL     OW 4006   1.252   3.210   2.250
  775SOL    HW1 4007   1.302   3.287   2.290
  775SOL    HW2 4008   1.157   3.212   2.282
  776SOL     OW 4009   1.582   2.501   2.334
  776SOL    HW1 4010   1.551   2.562   2.407
  776SOL    HW2 4011   1.632   2.553   2.265
  777SOL     OW 4012   0.354   3.372   3.191
  777SOL    HW1 4013   0.333   3.328   3.104
  777SOL    HW2 4014   0.451   3.398   3.194
  778SOL     OW 4015   0.402   2.613   3.460
  778SOL    HW1 4016   0.470   2.668   3.413
  778SOL    HW2 4017   0.442   2.525   3.487
  779SOL     OW 4018   1.587   2.641   3.532
  779SOL    HW1 4019   1.495   2.679   3.527
  779SOL    HW2 4020   1.647   2.688   3.467
  780SOL     OW 4021   1.013   1.967   3.632
  780SOL    HW1 4022   1.019   2.052   3.580
  780SOL    HW2 4023   1.045   1.891   3.575
  781SOL     OW 4024   0.504   1.912   3.602
  781SOL    HW1 4025   0.462   1.855   3.532
  781SOL    HW2 4026   0.438   1.981   3.634
  782SOL     OW 4027   0.573   2.732   2.891
  782SOL    HW1 4028   0.617   2.821   2.882
  782SOL    HW2 4029   0.510   2.732   2.968
  783SOL     OW 4030   1.209   2.387   2.137
  783SOL    HW1 4031   1.222   2.303   2.191
  783SOL    HW2 4032   1.180   2.461   2.197
  784SOL     OW 4033   0.307   2.075   3.093
  784SOL    HW1 4034   0.284   2.112   3.183
  784SOL    HW2 4035   0.277   1.980   3.087
  785SOL     OW 4036   1.728   2.797   3.716
  785SOL    HW1 4037   1.682   2.790   3.627
  785SOL    HW2 4038   1.666   2.841   3.782
  786SOL     OW 4039   0.307   1.925   2.480
  786SOL    HW1 4040   0.296   2.019   2.513
  786SOL    HW2 4041   0.302   1.862   2.557
  787SOL     OW 4042   1.622   2.229   2.236
  787SOL    HW1 4043   1.624   2.153   2.300
  787SOL    HW2 4044   1.574   2.306   2.276
  788SOL     OW 4045   1.023   2.628   2.828
  788SOL    HW1 4046   1.038   2.649   2.924
  788SOL    HW2 4047   0.993   2.533   2.819
  789SOL     OW 4048   0.980   3.435   3.562
  789SOL    HW1 4049   0.960   3.479   3.474
  789SOL    HW2 4050   1.019   3.344   3.546
  790SOL     OW 4051   1.859   3.380   3.467
  790SOL    HW1 4052   1.873   3.407   3.372
  790SOL    HW2 4053   1.942   3.402   3.520
  791SOL     OW 4054   1.540   2.136   1.987
  791SOL    HW1 4055   1.479   2.061   2.010
  791SOL    HW2 4056   1.562   2.188   2.070
  792SOL     OW 4057   1.303   2.700   1.904
  792SOL    HW1 4058   1.337   2.607   1.919
  792SOL    HW2 4059   1.321   2.727   1.809
  793SOL     OW 4060   1.138   2.242   3.540
  793SOL    HW1 4061   1.093   2.305   3.604
  793SOL    HW2 4062   1.231   2.273   3.523
  794SOL     OW 4063   0.008   3.188   2.062
  794SOL    HW1 4064  -0.085   3.209   2.031
  794SOL    HW2 4065   0.018   3.089   2.075
  795SOL     OW 4066   0.088   3.663   2.789
  795SOL    HW1 4067   0.046   3.577   2.762
  795SOL    HW2 4068   0.182   3.666   2.755
  796SOL     OW 4069   0.504   3.430   2.772
  796SOL    HW1 4070   0.570   3.504   2.781
  796SOL    HW2 4071   0.548   3.351   2.730
  797SOL     OW 4072   1.002   2.658   3.100
  797SOL    HW1 4073   1.043   2.626   3.186
  797SOL    HW2 4074   0.906   2.631   3.097
  798SOL     OW 4075   0.189   2.382   3.584
  798SOL    HW1 4076   0.248   2.342   3.514
  798SOL    HW2 4077   0.131   2.453   3.543
  799SOL     OW 4078   1.369   2.812   3.522
  799SOL    HW1 4079   1.408   2.901   3.542
  799SOL    HW2 4080   1.379   2.792   3.425
  800SOL     OW 4081   0.815   2.434   2.187
  800SOL    HW1 4082   0.822   2.345   2.141
  800SOL    HW2 4083   0.721   2.468   2.179
  801SOL     OW 4084   1.657   2.466   3.068
  801SOL    HW1 4085   1.619   2.397   3.130
  801SOL    HW2 4086   1.739   2.430   3.024
  802SOL     OW 4087   0.671   2.326   3.131
  802SOL    HW1 4088   0.637   2.237   3.101
  802SOL    HW2 4089   0.697   2.380   3.051
  803SOL     OW 4090   0.930   3.540   3.327
  803SOL    HW1 4091   0.906   3.522   3.232
  803SOL    HW2 4092   0.960   3.634   3.337
  804SOL     OW 4093   0.159   2.999   3.328
  804SOL    HW1 4094   0.181   2.938   3.404
  804SOL    HW2 4095   0.169   2.950   3.242
  805SOL     OW 4096   1.302   2.717   2.171
  805SOL    HW1 4097   1.216   2.686   2.213
  805SOL    HW2 4098   1.298   2.703   2.072
  806SOL     OW 4099   0.083   3.120   2.884
  806SOL    HW1 4100   0.078   3.119   2.984
  806SOL    HW2 4101   0.000   3.079   2.846
  807SOL     OW 4102   0.688   3.524   3.578
  807SOL    HW1 4103   0.632   3.605   3.587
  807SOL    HW2 4104   0.740   3.528   3.492
  808SOL     OW 4105   1.388   3.435   2.339
  808SOL    HW1 4106   1.455   3.447   2.265
  808SOL    HW2 4107   1.348   3.524   2.362
  809SOL     OW 4108   0.130   3.656   3.713
  809SOL    HW1 4109   0.089   3.582   3.766
  809SOL    HW2 4110   0.194   3.707   3.771
  810SOL     OW 4111   1.280   2.789   2.534
  810SOL    HW1 4112   1.340   2.708   2.536
  810SOL    HW2 4113   1.320   2.858   2.474
  811SOL     OW 4114   0.830   3.135   3.284
  811SOL    HW1 4115   0.825   3.168   3.379
  811SOL    HW2 4116   0.744   3.154   3.238
  812SOL     OW 4117   0.672   3.478   2.016
  812SOL    HW1 4118   0.681   3.488   1.917
  812SOL    HW2 4119   0.632   3.389   2.037
  813SOL     OW 4120   1.194   3.474   1.893
  813SOL    HW1 4121   1.200   3.381   1.930
  813SOL    HW2 4122   1.135   3.474   1.813
  814SOL     OW 4123   0.822   2.864   3.234
  814SOL    HW1 4124   0.862   2.863   3.142
  814SOL    HW2 4125   0.832   2.956   3.274
  815SOL     OW 4126   0.916   2.772   2.153
  815SOL    HW1 4127   0.979   2.810   2.085
  815SOL    HW2 4128   0.956   2.689   2.192
  816SOL     OW 4129   1.504   3.469   1.906
  816SOL    HW1 4130   1.412   3.506   1.913
  816SOL    HW2 4131   1.542   3.489   1.816
  817SOL     OW 4132   0.372   3.150   3.352
  817SOL    HW1 4133   0.359   3.243   3.318
  817SOL    HW2 4134   0.288   3.098   3.339
  818SOL     OW 4135   1.614   3.154   3.151
  818SOL    HW1 4136   1.674   3.157   3.231
  818SOL    HW2 4137   1.539   3.218   3.164
  819SOL     OW 4138   1.039   2.960   2.558
  819SOL    HW1 4139   0.969   2.913   2.612
  819SOL    HW2 4140   1.098   2.892   2.515
  820SOL     OW 4141   1.014   2.098   2.833
  820SOL    HW1 4142   1.006   2.062   2.740
  820SOL    HW2 4143   1.012   2.022   2.898
  821SOL     OW 4144   1.709   2.247   3.243
  821SOL    HW1 4145   1.782   2.316   3.247
  821SOL    HW2 4146   1.737   2.172   3.184
  822SOL     OW 4147   0.672   2.065   3.351
  822SOL    HW1 4148   0.762   2.049   3.311
  822SOL    HW2 4149   0.680   2.070   3.450
  823SOL     OW 4150   0.075   2.207   1.895
  823SOL    HW1 4151  -0.017   2.179   1.866
  823SOL    HW2 4152   0.106   2.284   1.839
  824SOL     OW 4153   0.072   2.028   2.180
  824SOL    HW1 4154   0.055   2.111   2.126
  824SOL    HW2 4155   0.162   1.991   2.158
  825SOL     OW 4156   1.183   3.197   1.981
  825SOL    HW1 4157   1.084   3.186   1.983
  825SOL    HW2 4158   1.217   3.212   2.074
  826SOL     OW 4159   0.613   2.704   3.293
  826SOL    HW1 4160   0.669   2.785   3.276
  826SOL    HW2 4161   0.672   2.624   3.296
  827SOL     OW 4162   0.716   2.427   3.570
  827SOL    HW1 4163   0.735   2.492   3.644
  827SOL    HW2 4164   0.776   2.347   3.579
  828SOL     OW 4165   1.450   3.082   3.495
  828SOL    HW1 4166   1.441   3.072   3.594
  828SOL    HW2 4167   1.546   3.075   3.469
  829SOL     OW 4168   1.674   2.745   3.116
  829SOL    HW1 4169   1.647   2.656   3.079
  829SOL    HW2 4170   1.675   2.813   3.043
  830SOL     OW 4171   1.225   2.187   2.311
  830SOL    HW1 4172   1.290   2.113   2.300
  830SOL    HW2 4173   1.245   2.237   2.395
  831SOL     OW 4174   0.594   2.607   2.514
  831SOL    HW1 4175   0.644   2.692   2.495
  831SOL    HW2 4176   0.506   2.609   2.466
  832SOL     OW 4177   1.777   2.204   3.504
  832SOL    HW1 4178   1.760   2.235   3.410
  832SOL    HW2 4179   1.693   2.167   3.542
  833SOL     OW 4180   1.730   2.796   3.379
  833SOL    HW1 4181   1.768   2.887   3.394
  833SOL    HW2 4182   1.722   2.779   3.280
  834SOL     OW 4183   0.859   3.236   1.878
  834SOL    HW1 4184   0.813   3.251   1.966
  834SOL    HW2 4185   0.903   3.321   1.848
  835SOL     OW 4186   0.661   3.652   2.815
  835SOL    HW1 4187   0.615   3.740   2.802
  835SOL    HW2 4188   0.760   3.664   2.808
  836SOL     OW 4189   0.859   2.818   2.723
  836SOL    HW1 4190   0.913   2.749   2.771
  836SOL    HW2 4191   0.827   2.887   2.789
  837SOL     OW 4192   1.083   2.846   1.949
  837SOL    HW1 4193   1.060   2.899   1.867
  837SOL    HW2 4194   1.164   2.790   1.930
  838SOL     OW 4195   1.861   3.431   2.713
  838SOL    HW1 4196   1.790   3.419   2.643
  838SOL    HW2 4197   1.862   3.352   2.773
  839SOL     OW 4198   0.221   3.176   3.706
  839SOL    HW1 4199   0.156   3.103   3.685
  839SOL    HW2 4200   0.225   3.190   3.804
  840SOL     OW 4201   0.079   3.102   2.515
  840SOL    HW1 4202   0.078   3.055   2.603
  840SOL    HW2 4203   0.161   3.074   2.464
  841SOL     OW 4204   0.672   3.253   3.486
  841SOL    HW1 4205   0.594   3.203   3.524
  841SOL    HW2 4206   0.669   3.348   3.517
  842SOL     OW 4207   1.824   2.054   3.089
  842SOL    HW1 4208   1.820   1.964   3.133
  842SOL    HW2 4209   1.827   2.043   2.990
  843SOL     OW 4210   0.428   2.286   2.382
  843SOL    HW1 4211   0.458   2.214   2.320
  843SOL    HW2 4212   0.389   2.246   2.465
  844SOL     OW 4213   0.317   2.409   3.142
  844SOL    HW1 4214   0.355   2.350   3.214
  844SOL    HW2 4215   0.357   2.383   3.054
  845SOL     OW 4216   1.424   2.076   2.974
  845SOL    HW1 4217   1.476   2.011   3.029
  845SOL    HW2 4218   1.375   2.139   3.035
  846SOL     OW 4219   0.618   3.429   3.146
  846SOL    HW1 4220   0.613   3.511   3.203
  846SOL    HW2 4221   0.707   3.426   3.101
  847SOL     OW 4222   1.352   1.914   2.030
  847SOL    HW1 4223   1.387   1.873   1.946
  847SOL    HW2 4224   1.262   1.876   2.050
  848SOL     OW 4225   1.300   2.315   2.553
  848SOL    HW1 4226   1.241   2.395   2.557
  848SOL    HW2 4227   1.315   2.280   2.646
  849SOL     OW 4228   1.593   2.083   2.744
  849SOL    HW1 4229   1.509   2.082   2.798
  849SOL    HW2 4230   1.595   2.166   2.688
  850SOL     OW 4231   0.230   2.490   3.837
  850SOL    HW1 4232   0.137   2.488   3.874
  850SOL    HW2 4233   0.231   2.451   3.745
  851SOL     OW 4234   0.225   2.137   4.720
  851SOL    HW1 4235   0.260   2.120   4.812
  851SOL    HW2 4236   0.137   2.092   4.708
  852SOL     OW 4237   0.569   3.137   4.889
  852SOL    HW1 4238   0.476   3.130   4.852
  852SOL    HW2 4239   0.580   3.226   4.933
  853SOL     OW 4240   1.555   3.373   4.427
  853SOL    HW1 4241   1.498   3.357   4.508
  853SOL    HW2 4242   1.496   3.383   4.347
  854SOL     OW 4243   1.135   2.565   4.441
  854SOL    HW1 4244   1.192   2.643   4.416
  854SOL    HW2 4245   1.075   2.591   4.517
  855SOL     OW 4246   1.755   2.469   3.955
  855SOL    HW1 4247   1.743   2.456   3.856
  855SOL    HW2 4248   1.725   2.388   4.004
  856SOL     OW 4249   0.768   3.006   4.747
  856SOL    HW1 4250   0.690   3.023   4.807
  856SOL    HW2 4251   0.802   3.093   4.711
  857SOL     OW 4252   0.685   2.874   4.389
  857SOL    HW1 4253   0.754   2.858   4.459
  857SOL    HW2 4254   0.612   2.931   4.427
  858SOL     OW 4255   1.603   2.309   4.461
  858SOL    HW1 4256   1.529   2.355   4.411
  858SOL    HW2 4257   1.654   2.377   4.514
  859SOL     OW 4258   0.231   3.575   4.207
  859SOL    HW1 4259   0.265   3.652   4.261
  859SOL    HW2 4260   0.275   3.575   4.117
  860SOL     OW 4261   0.230   3.296   4.262
  860SOL    HW1 4262   0.204   3.392   4.262
  860SOL    HW2 4263   0.159   3.242   4.307
  861SOL     OW 4264   0.122   2.505   4.287
  861SOL    HW1 4265   0.077   2.417   4.304
  861SOL    HW2 4266   0.121   2.559   4.371
  862SOL     OW 4267   0.027   3.458   3.841
  862SOL    HW1 4268   0.008   3.362   3.862
  862SOL    HW2 4269  -0.006   3.516   3.916
  863SOL     OW 4270   1.689   2.784   4.336
  863SOL    HW1 4271   1.784   2.755   4.344
  863SOL    HW2 4272   1.681   2.849   4.261
  864SOL     OW 4273   1.641   2.970   4.156
  864SOL    HW1 4274   1.727   2.972   4.104
  864SOL    HW2 4275   1.655   3.017   4.244
  865SOL     OW 4276   0.613   3.227   4.450
  865SOL    HW1 4277   0.564   3.140   4.459
  865SOL    HW2 4278   0.590   3.270   4.363
  866SOL     OW 4279   0.809   1.866   4.226
  866SOL    HW1 4280   0.849   1.957   4.217
  866SOL    HW2 4281   0.709   1.874   4.232
  867SOL     OW 4282   0.197   2.838   4.988
  867SOL    HW1 4283   0.286   2.793   4.974
  867SOL    HW2 4284   0.124   2.773   4.969
  868SOL     OW 4285   1.525   2.861   3.914
  868SOL    HW1 4286   1.462   2.785   3.927
  868SOL    HW2 4287   1.573   2.879   4.000
  869SOL     OW 4288   1.466   3.279   4.677
  869SOL    HW1 4289   1.407   3.285   4.757
  869SOL    HW2 4290   1.451   3.191   4.631
  870SOL     OW 4291   1.667   3.576   4.296
  870SOL    HW1 4292   1.626   3.553   4.208
  870SOL    HW2 4293   1.649   3.502   4.361
  871SOL     OW 4294   1.281   2.207   4.668
  871SOL    HW1 4295   1.195   2.157   4.655
  871SOL    HW2 4296   1.343   2.153   4.724
  872SOL     OW 4297   1.576   3.524   4.031
  872SOL    HW1 4298   1.665   3.570   4.034
  872SOL    HW2 4299   1.555   3.500   3.936
  873SOL     OW 4300   0.991   2.272   4.966
  873SOL    HW1 4301   0.914   2.306   5.020
  873SOL    HW2 4302   0.957   2.221   4.887
  874SOL     OW 4303   1.041   2.563   4.153
  874SOL    HW1 4304   1.067   2.559   4.249
  874SOL    HW2 4305   0.956   2.512   4.139
  875SOL     OW 4306   0.076   2.673   4.513
  875SOL    HW1 4307   0.175   2.661   4.522
  875SOL    HW2 4308   0.052   2.768   4.534
  876SOL     OW 4309   0.865   2.210   3.919
  876SOL    HW1 4310   0.924   2.273   3.870
  876SOL    HW2 4311   0.884   2.116   3.890
  877SOL     OW 4312   1.362   3.006   4.269
  877SOL    HW1 4313   1.445   2.977   4.221
  877SOL    HW2 4314   1.313   3.073   4.213
  878SOL     OW 4315   0.550   2.058   4.609
  878SOL    HW1 4316   0.545   2.053   4.709
  878SOL    HW2 4317   0.552   2.154   4.580
  879SOL     OW 4318   1.008   3.318   4.201
  879SOL    HW1 4319   0.962   3.390   4.149
  879SOL    HW2 4320   1.004   3.338   4.299
  880SOL     OW 4321   1.795   2.928   4.597
  880SOL    HW1 4322   1.733   2.913   4.521
  880SOL    HW2 4323   1.743   2.939   4.682
  881SOL     OW 4324   1.458   2.597   4.452
  881SOL    HW1 4325   1.453   2.532   4.527
  881SOL    HW2 4326   1.538   2.656   4.465
  882SOL     OW 4327   1.111   3.638   3.961
  882SOL    HW1 4328   1.051   3.576   4.011
  882SOL    HW2 4329   1.142   3.594   3.876
  883SOL     OW 4330   1.632   3.239   3.805
  883SOL    HW1 4331   1.600   3.333   3.795
  883SOL    HW2 4332   1.556   3.176   3.793
  884SOL     OW 4333   0.464   3.605   4.047
  884SOL    HW1 4334   0.497   3.644   4.133
  884SOL    HW2 4335   0.540   3.598   3.982
  885SOL     OW 4336   1.400   1.969   4.150
  885SOL    HW1 4337   1.376   1.932   4.060
  885SOL    HW2 4338   1.499   1.985   4.154
  886SOL     OW 4339   0.940   3.560   4.628
  886SOL    HW1 4340   1.020   3.503   4.649
  886SOL    HW2 4341   0.891   3.520   4.551
  887SOL     OW 4342   0.614   1.984   3.841
  887SOL    HW1 4343   0.712   1.962   3.848
  887SOL    HW2 4344   0.583   1.967   3.748
  888SOL     OW 4345   0.803   3.264   4.648
  888SOL    HW1 4346   0.893   3.278   4.606
  888SOL    HW2 4347   0.732   3.266   4.577
  889SOL     OW 4348   0.922   2.365   4.623
  889SOL    HW1 4349   0.897   2.356   4.527
  889SOL    HW2 4350   0.970   2.283   4.654
  890SOL     OW 4351   1.434   3.050   3.765
  890SOL    HW1 4352   1.466   2.974   3.822
  890SOL    HW2 4353   1.342   3.077   3.795
  891SOL     OW 4354   0.935   2.098   4.204
  891SOL    HW1 4355   0.887   2.139   4.126
  891SOL    HW2 4356   1.034   2.096   4.185
  892SOL     OW 4357   1.227   3.432   4.517
  892SOL    HW1 4358   1.248   3.506   4.452
  892SOL    HW2 4359   1.295   3.432   4.590
  893SOL     OW 4360   1.271   3.659   4.315
  893SOL    HW1 4361   1.315   3.723   4.251
  893SOL    HW2 4362   1.221   3.711   4.385
  894SOL     OW 4363   1.032   2.411   3.740
  894SOL    HW1 4364   0.991   2.493   3.701
  894SOL    HW2 4365   1.096   2.437   3.813
  895SOL     OW 4366   0.561   2.084   4.871
  895SOL    HW1 4367   0.599   2.000   4.908
  895SOL    HW2 4368   0.473   2.103   4.915
  896SOL     OW 4369   0.866   2.316   4.366
  896SOL    HW1 4370   0.834   2.388   4.304
  896SOL    HW2 4371   0.890   2.235   4.313
  897SOL     OW 4372   1.017   1.901   4.477
  897SOL    HW1 4373   0.945   1.906   4.408
  897SOL    HW2 4374   0.993   1.832   4.546
  898SOL     OW 4375   1.429   3.035   4.591
  898SOL    HW1 4376   1.374   2.951   4.584
  898SOL    HW2 4377   1.455   3.064   4.499
  899SOL     OW 4378   1.466   2.452   4.716
  899SOL    HW1 4379   1.436   2.357   4.723
  899SOL    HW2 4380   1.539   2.468   4.782
  900SOL     OW 4381   0.488   3.247   3.898
  900SOL    HW1 4382   0.401   3.232   3.945
  900SOL    HW2 4383   0.471   3.273   3.803
  901SOL     OW 4384   1.664   3.142   4.381
  901SOL    HW1 4385   1.763   3.150   4.395
  901SOL    HW2 4386   1.619   3.226   4.412
  902SOL     OW 4387   1.390   2.437   3.802
  902SOL    HW1 4388   1.336   2.416   3.883
  902SOL    HW2 4389   1.481   2.396   3.811
  903SOL     OW 4390   1.111   3.057   4.824
  903SOL    HW1 4391   1.071   3.101   4.905
  903SOL    HW2 4392   1.070   3.094   4.741
  904SOL     OW 4393   1.638   2.961   4.803
  904SOL    HW1 4394   1.643   3.042   4.862
  904SOL    HW2 4395   1.552   2.963   4.752
  905SOL     OW 4396   0.410   2.675   4.975
  905SOL    HW1 4397   0.496   2.687   5.025
  905SOL    HW2 4398   0.368   2.588   5.002
  906SOL     OW 4399   1.274   2.248   4.986
  906SOL    HW1 4400   1.295   2.322   5.050
  906SOL    HW2 4401   1.185   2.265   4.943
  907SOL     OW 4402   0.566   2.399   4.589
  907SOL    HW1 4403   0.578   2.465   4.515
  907SOL    HW2 4404   0.612   2.433   4.672
  908SOL     OW 4405   1.252   3.210   4.112
  908SOL    HW1 4406   1.302   3.287   4.152
  908SOL    HW2 4407   1.157   3.212   4.144
  909SOL     OW 4408   1.272   3.307   4.866
  909SOL    HW1 4409   1.319   3.320   4.953
  909SOL    HW2 4410   1.206   3.233   4.875
  910SOL     OW 4411   1.582   2.501   4.196
  910SOL    HW1 4412   1.551   2.562   4.269
  910SOL    HW2 4413   1.632   2.553   4.127
  911SOL     OW 4414   0.573   2.732   4.753
  911SOL    HW1 4415   0.617   2.821   4.744
  911SOL    HW2 4416   0.510   2.732   4.830
  912SOL     OW 4417   1.360   2.724   4.769
  912SOL    HW1 4418   1.285   2.724   4.703
  912SOL    HW2 4419   1.397   2.632   4.778
  913SOL     OW 4420   1.209   2.387   3.999
  913SOL    HW1 4421   1.222   2.303   4.053
  913SOL    HW2 4422   1.180   2.461   4.059
  914SOL     OW 4423   0.307   2.075   4.955
  914SOL    HW1 4424   0.284   2.112   5.045
  914SOL    HW2 4425   0.277   1.980   4.949
  915SOL     OW 4426   0.037   3.172   5.006
  915SOL    HW1 4427   0.090   3.123   5.074
  915SOL    HW2 4428   0.059   3.270   5.011
  916SOL     OW 4429   0.732   2.496   4.788
  916SOL    HW1 4430   0.791   2.470   4.712
  916SOL    HW2 4431   0.704   2.592   4.777
  917SOL     OW 4432   1.622   2.229   4.098
  917SOL    HW1 4433   1.624   2.153   4.162
  917SOL    HW2 4434   1.574   2.306   4.138
  918SOL     OW 4435   1.023   2.628   4.690
  918SOL    HW1 4436   1.038   2.649   4.786
  918SOL    HW2 4437   0.993   2.533   4.681
  919SOL     OW 4438   1.540   2.136   3.849
  919SOL    HW1 4439   1.479   2.061   3.872
  919SOL    HW2 4440   1.562   2.188   3.932
  920SOL     OW 4441   1.303   2.700   3.766
  920SOL    HW1 4442   1.337   2.607   3.781
  920SOL    HW2 4443   1.321   2.727   3.671
  921SOL     OW 4444   1.068   3.195   4.573
  921SOL    HW1 4445   1.075   3.111   4.518
  921SOL    HW2 4446   1.130   3.264   4.537
  922SOL     OW 4447   0.319   2.672   4.673
  922SOL    HW1 4448   0.412   2.708   4.678
  922SOL    HW2 4449   0.313   2.587   4.725
  923SOL     OW 4450   0.339   2.371   4.730
  923SOL    HW1 4451   0.287   2.288   4.713
  923SOL    HW2 4452   0.416   2.376   4.666
  924SOL     OW 4453   1.160   2.069   5.201
  924SOL    HW1 4454   1.160   2.133   5.278
  924SOL    HW2 4455   1.188   2.117   5.118
  925SOL     OW 4456   0.008   3.188   3.924
  925SOL    HW1 4457  -0.085   3.209   3.893
  925SOL    HW2 4458   0.018   3.089   3.937
  926SOL     OW 4459   0.088   3.663   4.651
  926SOL    HW1 4460   0.046   3.577   4.624
  926SOL    HW2 4461   0.182   3.666   4.617
  927SOL     OW 4462   1.002   2.658   4.962
  927SOL    HW1 4463   1.043   2.626   5.048
  927SOL    HW2 4464   0.906   2.631   4.959
  928SOL     OW 4465   0.040   2.406   4.838
  928SOL    HW1 4466   0.125   2.373   4.797
  928SOL    HW2 4467   0.053   2.421   4.936
  929SOL     OW 4468   0.815   2.434   4.049
  929SOL    HW1 4469   0.822   2.345   4.003
  929SOL    HW2 4470   0.721   2.468   4.041
  930SOL     OW 4471   1.657   2.466   4.930
  930SOL    HW1 4472   1.619   2.397   4.992
  930SOL    HW2 4473   1.739   2.430   4.886
  931SOL     OW 4474   0.671   2.326   4.993
  931SOL    HW1 4475   0.637   2.237   4.963
  931SOL    HW2 4476   0.697   2.380   4.913
  932SOL     OW 4477   0.930   3.540   5.189
  932SOL    HW1 4478   0.906   3.522   5.094
  932SOL    HW2 4479   0.960   3.634   5.199
  933SOL     OW 4480   0.473   2.362   3.915
  933SOL    HW1 4481   0.534   2.442   3.919
  933SOL    HW2 4482   0.378   2.393   3.922
  934SOL     OW 4483   1.347   2.921   4.958
  934SOL    HW1 4484   1.371   2.858   4.884
  934SOL    HW2 4485   1.257   2.961   4.940
  935SOL     OW 4486   1.302   2.717   4.033
  935SOL    HW1 4487   1.216   2.686   4.075
  935SOL    HW2 4488   1.298   2.703   3.934
  936SOL     OW 4489   1.759   3.609   4.878
  936SOL    HW1 4490   1.820   3.639   4.805
  936SOL    HW2 4491   1.721   3.520   4.856
  937SOL     OW 4492   1.252   3.593   4.852
  937SOL    HW1 4493   1.336   3.598   4.798
  937SOL    HW2 4494   1.229   3.497   4.870
  938SOL     OW 4495   0.083   3.120   4.746
  938SOL    HW1 4496   0.078   3.119   4.846
  938SOL    HW2 4497   0.000   3.079   4.708
  939SOL     OW 4498   1.726   1.997   4.247
  939SOL    HW1 4499   1.799   1.980   4.180
  939SOL    HW2 4500   1.695   1.910   4.285
  940SOL     OW 4501   1.388   3.435   4.201
  940SOL    HW1 4502   1.455   3.447   4.127
  940SOL    HW2 4503   1.348   3.524   4.224
  941SOL     OW 4504   1.280   2.789   4.396
  941SOL    HW1 4505   1.340   2.708   4.398
  941SOL    HW2 4506   1.320   2.858   4.336
  942SOL     OW 4507   0.672   3.478   3.878
  942SOL    HW1 4508   0.681   3.488   3.779
  942SOL    HW2 4509   0.632   3.389   3.899
  943SOL     OW 4510   1.650   3.582   5.118
  943SOL    HW1 4511   1.703   3.592   5.034
  943SOL    HW2 4512   1.623   3.672   5.152
  944SOL     OW 4513   1.841   2.037   4.687
  944SOL    HW1 4514   1.880   1.952   4.651
  944SOL    HW2 4515   1.743   2.039   4.668
  945SOL     OW 4516   0.263   2.188   4.444
  945SOL    HW1 4517   0.184   2.239   4.410
  945SOL    HW2 4518   0.254   2.173   4.542
  946SOL     OW 4519   1.194   3.474   3.755
  946SOL    HW1 4520   1.200   3.381   3.792
  946SOL    HW2 4521   1.135   3.474   3.675
  947SOL     OW 4522   0.822   2.864   5.096
  947SOL    HW1 4523   0.862   2.863   5.004
  947SOL    HW2 4524   0.832   2.956   5.136
  948SOL     OW 4525   0.916   2.772   4.015
  948SOL    HW1 4526   0.979   2.810   3.947
  948SOL    HW2 4527   0.956   2.689   4.054
  949SOL     OW 4528   1.504   3.469   3.768
  949SOL    HW1 4529   1.412   3.506   3.775
  949SOL    HW2 4530   1.542   3.489   3.678
  950SOL     OW 4531   1.039   2.960   4.420
  950SOL    HW1 4532   0.969   2.913   4.474
  950SOL    HW2 4533   1.098   2.892   4.377
  951SOL     OW 4534   1.014   2.098   4.695
  951SOL    HW1 4535   1.006   2.062   4.602
  951SOL    HW2 4536   1.012   2.022   4.760
  952SOL     OW 4537   0.590   3.349   4.215
  952SOL    HW1 4538   0.632   3.291   4.145
  952SOL    HW2 4539   0.546   3.428   4.171
  953SOL     OW 4540   1.709   2.247   5.105
  953SOL    HW1 4541   1.782   2.316   5.109
  953SOL    HW2 4542   1.737   2.172   5.046
  954SOL     OW 4543   0.255   3.210   4.014
  954SOL    HW1 4544   0.159   3.211   3.987
  954SOL    HW2 4545   0.267   3.263   4.098
  955SOL     OW 4546   1.183   3.197   3.843
  955SOL    HW1 4547   1.084   3.186   3.845
  955SOL    HW2 4548   1.217   3.212   3.936
  956SOL     OW 4549   1.493   3.629   4.683
  956SOL    HW1 4550   1.526   3.693   4.614
  956SOL    HW2 4551   1.559   3.623   4.758
  957SOL     OW 4552   1.450   3.082   5.357
  957SOL    HW1 4553   1.441   3.072   5.456
  957SOL    HW2 4554   1.546   3.075   5.331
  958SOL     OW 4555   1.674   2.745   4.978
  958SOL    HW1 4556   1.647   2.656   4.941
  958SOL    HW2 4557   1.675   2.813   4.905
  959SOL     OW 4558   1.225   2.187   4.173
  959SOL    HW1 4559   1.290   2.113   4.162
  959SOL    HW2 4560   1.245   2.237   4.257
  960SOL     OW 4561   1.730   2.796   5.241
  960SOL    HW1 4562   1.768   2.887   5.256
  960SOL    HW2 4563   1.722   2.779   5.142
  961SOL     OW 4564   0.859   3.236   3.740
  961SOL    HW1 4565   0.813   3.251   3.828
  961SOL    HW2 4566   0.903   3.321   3.710
  962SOL     OW 4567   0.661   3.652   4.677
  962SOL    HW1 4568   0.615   3.740   4.664
  962SOL    HW2 4569   0.760   3.664   4.670
  963SOL     OW 4570   0.859   2.818   4.585
  963SOL    HW1 4571   0.913   2.749   4.633
  963SOL    HW2 4572   0.827   2.887   4.651
  964SOL     OW 4573   1.083   2.846   3.811
  964SOL    HW1 4574   1.060   2.899   3.729
  964SOL    HW2 4575   1.164   2.790   3.792
  965SOL     OW 4576   1.861   3.431   4.575
  965SOL    HW1 4577   1.790   3.419   4.505
  965SOL    HW2 4578   1.862   3.352   4.635
  966SOL     OW 4579   1.824   2.054   4.951
  966SOL    HW1 4580   1.820   1.964   4.995
  966SOL    HW2 4581   1.827   2.043   4.852
  967SOL     OW 4582   0.428   2.286   4.244
  967SOL    HW1 4583   0.458   2.214   4.182
  967SOL    HW2 4584   0.389   2.246   4.327
  968SOL     OW 4585   1.705   3.349   4.828
  968SOL    HW1 4586   1.612   3.324   4.801
  968SOL    HW2 4587   1.731   3.299   4.910
  969SOL     OW 4588   0.812   3.448   4.411
  969SOL    HW1 4589   0.844   3.458   4.317
  969SOL    HW2 4590   0.733   3.386   4.413
  970SOL     OW 4591   1.424   2.076   4.836
  970SOL    HW1 4592   1.476   2.011   4.891
  970SOL    HW2 4593   1.375   2.139   4.897
  971SOL     OW 4594   1.001   1.896   4.878
  971SOL    HW1 4595   0.938   1.824   4.847
  971SOL    HW2 4596   1.094   1.860   4.878
  972SOL     OW 4597   0.770   3.192   4.025
  972SOL    HW1 4598   0.724   3.105   4.042
  972SOL    HW2 4599   0.861   3.189   4.066
  973SOL     OW 4600   1.300   2.315   4.415
  973SOL    HW1 4601   1.241   2.395   4.419
  973SOL    HW2 4602   1.315   2.280   4.508
  974SOL     OW 4603   1.593   2.083   4.606
  974SOL    HW1 4604   1.509   2.082   4.660
  974SOL    HW2 4605   1.595   2.166   4.550
  975SOL     OW 4606   0.875   3.508   4.061
  975SOL    HW1 4607   0.798   3.473   4.007
  975SOL    HW2 4608   0.843   3.579   4.123
  976SOL     OW 4609   0.230   4.352   0.113
  976SOL    HW1 4610   0.137   4.350   0.150
  976SOL    HW2 4611   0.231   4.313   0.021
  977SOL     OW 4612   0.569   4.999   1.165
  977SOL    HW1 4613   0.476   4.992   1.128
  977SOL    HW2 4614   0.580   5.088   1.209
  978SOL     OW 4615   1.555   5.235   0.703
  978SOL    HW1 4616   1.498   5.219   0.784
  978SOL    HW2 4617   1.496   5.245   0.623
  979SOL     OW 4618   1.135   4.427   0.717
  979SOL    HW1 4619   1.192   4.505   0.692
  979SOL    HW2 4620   1.075   4.453   0.793
  980SOL     OW 4621   1.755   4.331   0.231
  980SOL    HW1 4622   1.743   4.318   0.132
  980SOL    HW2 4623   1.725   4.250   0.280
  981SOL     OW 4624   0.768   4.868   1.023
  981SOL    HW1 4625   0.690   4.885   1.083
  981SOL    HW2 4626   0.802   4.955   0.987
  982SOL     OW 4627   0.850   4.522   1.823
  982SOL    HW1 4628   0.846   4.598   1.888
  982SOL    HW2 4629   0.872   4.558   1.732
  983SOL     OW 4630   0.685   4.736   0.665
  983SOL    HW1 4631   0.754   4.720   0.735
  983SOL    HW2 4632   0.612   4.793   0.703
  984SOL     OW 4633   0.335   5.159   1.061
  984SOL    HW1 4634   0.257   5.128   1.008
  984SOL    HW2 4635   0.393   5.217   1.004
  985SOL     OW 4636   0.438   4.116   1.499
  985SOL    HW1 4637   0.520   4.060   1.508
  985SOL    HW2 4638   0.357   4.058   1.503
  986SOL     OW 4639   1.603   4.171   0.737
  986SOL    HW1 4640   1.529   4.217   0.687
  986SOL    HW2 4641   1.654   4.239   0.790
  987SOL     OW 4642   0.240   4.815   0.886
  987SOL    HW1 4643   0.254   4.731   0.938
  987SOL    HW2 4644   0.185   4.879   0.941
  988SOL     OW 4645   1.594   3.838   1.480
  988SOL    HW1 4646   1.576   3.905   1.408
  988SOL    HW2 4647   1.591   3.884   1.569
  989SOL     OW 4648   0.122   4.367   0.563
  989SOL    HW1 4649   0.077   4.279   0.580
  989SOL    HW2 4650   0.121   4.421   0.647
  990SOL     OW 4651   1.689   4.646   0.612
  990SOL    HW1 4652   1.784   4.617   0.620
  990SOL    HW2 4653   1.681   4.711   0.537
  991SOL     OW 4654   1.641   4.832   0.432
  991SOL    HW1 4655   1.727   4.834   0.380
  991SOL    HW2 4656   1.655   4.879   0.520
  992SOL     OW 4657   0.113   4.461   1.597
  992SOL    HW1 4658   0.201   4.448   1.642
  992SOL    HW2 4659   0.100   4.558   1.575
  993SOL     OW 4660   1.293   4.952   1.423
  993SOL    HW1 4661   1.330   4.879   1.365
  993SOL    HW2 4662   1.345   4.957   1.508
  994SOL     OW 4663   0.809   3.728   0.502
  994SOL    HW1 4664   0.849   3.819   0.493
  994SOL    HW2 4665   0.709   3.736   0.508
  995SOL     OW 4666   0.197   4.700   1.264
  995SOL    HW1 4667   0.286   4.655   1.250
  995SOL    HW2 4668   0.124   4.635   1.245
  996SOL     OW 4669   1.525   4.723   0.190
  996SOL    HW1 4670   1.462   4.647   0.203
  996SOL    HW2 4671   1.573   4.741   0.276
  997SOL     OW 4672   0.317   3.975   1.801
  997SOL    HW1 4673   0.388   4.046   1.807
  997SOL    HW2 4674   0.229   4.014   1.829
  998SOL     OW 4675   1.466   5.141   0.953
  998SOL    HW1 4676   1.407   5.147   1.033
  998SOL    HW2 4677   1.451   5.053   0.907
  999SOL     OW 4678   0.598   4.453   0.270
  999SOL    HW1 4679   0.622   4.522   0.202
  999SOL    HW2 4680   0.520   4.486   0.324
 1000SOL     OW 4681   1.281   4.069   0.944
 1000SOL    HW1 4682   1.195   4.019   0.931
 1000SOL    HW2 4683   1.343   4.015   1.000
 1001SOL     OW 4684   0.807   4.329   1.465
 1001SOL    HW1 4685   0.760   4.326   1.554
 1001SOL    HW2 4686   0.756   4.274   1.399
 1002SOL     OW 4687   1.394   4.193   1.674
 1002SOL    HW1 4688   1.374   4.236   1.762
 1002SOL    HW2 4689   1.472   4.131   1.683
 1003SOL     OW 4690   0.991   4.134   1.242
 1003SOL    HW1 4691   0.914   4.168   1.296
 1003SOL    HW2 4692   0.957   4.083   1.163
 1004SOL     OW 4693   1.041   4.425   0.429
 1004SOL    HW1 4694   1.067   4.421   0.525
 1004SOL    HW2 4695   0.956   4.374   0.415
 1005SOL     OW 4696   0.076   4.535   0.789
 1005SOL    HW1 4697   0.175   4.523   0.798
 1005SOL    HW2 4698   0.052   4.630   0.810
 1006SOL     OW 4699   0.865   4.072   0.195
 1006SOL    HW1 4700   0.924   4.135   0.146
 1006SOL    HW2 4701   0.884   3.978   0.166
 1007SOL     OW 4702   1.362   4.868   0.545
 1007SOL    HW1 4703   1.445   4.839   0.497
 1007SOL    HW2 4704   1.313   4.935   0.489
 1008SOL     OW 4705   0.550   3.920   0.885
 1008SOL    HW1 4706   0.545   3.915   0.985
 1008SOL    HW2 4707   0.552   4.016   0.856
 1009SOL     OW 4708   1.795   4.790   0.873
 1009SOL    HW1 4709   1.733   4.775   0.797
 1009SOL    HW2 4710   1.743   4.801   0.958
 1010SOL     OW 4711   1.458   4.459   0.728
 1010SOL    HW1 4712   1.453   4.394   0.803
 1010SOL    HW2 4713   1.538   4.518   0.741
 1011SOL     OW 4714   0.202   4.009   1.498
 1011SOL    HW1 4715   0.122   4.069   1.485
 1011SOL    HW2 4716   0.192   3.960   1.584
 1012SOL     OW 4717   1.632   5.101   0.081
 1012SOL    HW1 4718   1.600   5.195   0.071
 1012SOL    HW2 4719   1.556   5.038   0.069
 1013SOL     OW 4720   1.400   3.831   0.426
 1013SOL    HW1 4721   1.376   3.794   0.336
 1013SOL    HW2 4722   1.499   3.847   0.430
 1014SOL     OW 4723   0.382   4.424   0.480
 1014SOL    HW1 4724   0.427   4.334   0.477
 1014SOL    HW2 4725   0.288   4.413   0.513
 1015SOL     OW 4726   1.547   3.946   1.729
 1015SOL    HW1 4727   1.542   3.983   1.821
 1015SOL    HW2 4728   1.475   3.877   1.717
 1016SOL     OW 4729   0.781   3.988   1.749
 1016SOL    HW1 4730   0.848   3.927   1.792
 1016SOL    HW2 4731   0.708   4.007   1.814
 1017SOL     OW 4732   1.351   4.314   1.433
 1017SOL    HW1 4733   1.379   4.271   1.518
 1017SOL    HW2 4734   1.376   4.410   1.434
 1018SOL     OW 4735   0.803   5.126   0.924
 1018SOL    HW1 4736   0.893   5.140   0.882
 1018SOL    HW2 4737   0.732   5.128   0.853
 1019SOL     OW 4738   0.922   4.227   0.899
 1019SOL    HW1 4739   0.897   4.218   0.803
 1019SOL    HW2 4740   0.970   4.145   0.930
 1020SOL     OW 4741   1.434   4.912   0.041
 1020SOL    HW1 4742   1.466   4.836   0.098
 1020SOL    HW2 4743   1.342   4.939   0.071
 1021SOL     OW 4744   0.935   3.960   0.480
 1021SOL    HW1 4745   0.887   4.001   0.402
 1021SOL    HW2 4746   1.034   3.958   0.461
 1022SOL     OW 4747   1.227   5.294   0.793
 1022SOL    HW1 4748   1.248   5.368   0.728
 1022SOL    HW2 4749   1.295   5.294   0.866
 1023SOL     OW 4750   0.459   4.876   0.741
 1023SOL    HW1 4751   0.388   4.849   0.806
 1023SOL    HW2 4752   0.433   4.848   0.648
 1024SOL     OW 4753   1.032   4.273   0.016
 1024SOL    HW1 4754   0.991   4.355  -0.023
 1024SOL    HW2 4755   1.096   4.299   0.089
 1025SOL     OW 4756   0.078   4.280   1.386
 1025SOL    HW1 4757   0.170   4.279   1.345
 1025SOL    HW2 4758   0.072   4.354   1.453
 1026SOL     OW 4759   0.561   3.946   1.147
 1026SOL    HW1 4760   0.599   3.862   1.184
 1026SOL    HW2 4761   0.473   3.965   1.191
 1027SOL     OW 4762   0.866   4.178   0.642
 1027SOL    HW1 4763   0.834   4.250   0.580
 1027SOL    HW2 4764   0.890   4.097   0.589
 1028SOL     OW 4765   1.017   3.763   0.753
 1028SOL    HW1 4766   0.945   3.768   0.684
 1028SOL    HW2 4767   0.993   3.694   0.822
 1029SOL     OW 4768   1.429   4.897   0.867
 1029SOL    HW1 4769   1.374   4.813   0.860
 1029SOL    HW2 4770   1.455   4.926   0.775
 1030SOL     OW 4771   1.466   4.314   0.992
 1030SOL    HW1 4772   1.436   4.219   0.999
 1030SOL    HW2 4773   1.539   4.330   1.058
 1031SOL     OW 4774   1.857   4.557   0.377
 1031SOL    HW1 4775   1.899   4.493   0.441
 1031SOL    HW2 4776   1.819   4.506   0.299
 1032SOL     OW 4777   1.664   5.004   0.657
 1032SOL    HW1 4778   1.763   5.012   0.671
 1032SOL    HW2 4779   1.619   5.088   0.688
 1033SOL     OW 4780   1.390   4.299   0.078
 1033SOL    HW1 4781   1.336   4.278   0.159
 1033SOL    HW2 4782   1.481   4.258   0.087
 1034SOL     OW 4783   1.638   4.823   1.079
 1034SOL    HW1 4784   1.643   4.904   1.138
 1034SOL    HW2 4785   1.552   4.825   1.028
 1035SOL     OW 4786   0.915   3.813   1.402
 1035SOL    HW1 4787   0.940   3.793   1.307
 1035SOL    HW2 4788   0.987   3.869   1.444
 1036SOL     OW 4789   0.705   4.774   0.368
 1036SOL    HW1 4790   0.691   4.781   0.467
 1036SOL    HW2 4791   0.789   4.723   0.350
 1037SOL     OW 4792   0.410   4.537   1.251
 1037SOL    HW1 4793   0.496   4.549   1.301
 1037SOL    HW2 4794   0.368   4.450   1.278
 1038SOL     OW 4795   1.274   4.110   1.262
 1038SOL    HW1 4796   1.295   4.184   1.326
 1038SOL    HW2 4797   1.185   4.127   1.219
 1039SOL     OW 4798   0.367   4.824   0.501
 1039SOL    HW1 4799   0.360   4.907   0.445
 1039SOL    HW2 4800   0.371   4.744   0.441
 1040SOL     OW 4801   0.566   4.261   0.865
 1040SOL    HW1 4802   0.578   4.327   0.791
 1040SOL    HW2 4803   0.612   4.295   0.948
 1041SOL     OW 4804   1.582   4.363   0.472
 1041SOL    HW1 4805   1.551   4.424   0.545
 1041SOL    HW2 4806   1.632   4.415   0.403
 1042SOL     OW 4807   0.402   4.475   1.598
 1042SOL    HW1 4808   0.470   4.530   1.551
 1042SOL    HW2 4809   0.442   4.387   1.625
 1043SOL     OW 4810   1.587   4.503   1.670
 1043SOL    HW1 4811   1.495   4.541   1.665
 1043SOL    HW2 4812   1.647   4.550   1.605
 1044SOL     OW 4813   1.013   3.829   1.770
 1044SOL    HW1 4814   1.019   3.914   1.718
 1044SOL    HW2 4815   1.045   3.753   1.713
 1045SOL     OW 4816   0.504   3.774   1.740
 1045SOL    HW1 4817   0.462   3.717   1.670
 1045SOL    HW2 4818   0.438   3.843   1.772
 1046SOL     OW 4819   0.573   4.594   1.029
 1046SOL    HW1 4820   0.617   4.683   1.020
 1046SOL    HW2 4821   0.510   4.594   1.106
 1047SOL     OW 4822   1.360   4.586   1.045
 1047SOL    HW1 4823   1.285   4.586   0.979
 1047SOL    HW2 4824   1.397   4.494   1.054
 1048SOL     OW 4825   1.209   4.249   0.275
 1048SOL    HW1 4826   1.222   4.165   0.329
 1048SOL    HW2 4827   1.180   4.323   0.335
 1049SOL     OW 4828   0.307   3.937   1.231
 1049SOL    HW1 4829   0.284   3.974   1.321
 1049SOL    HW2 4830   0.277   3.842   1.225
 1050SOL     OW 4831   0.732   4.358   1.064
 1050SOL    HW1 4832   0.791   4.332   0.988
 1050SOL    HW2 4833   0.704   4.454   1.053
 1051SOL     OW 4834   1.728   4.659   1.854
 1051SOL    HW1 4835   1.682   4.652   1.765
 1051SOL    HW2 4836   1.666   4.703   1.920
 1052SOL     OW 4837   1.622   4.091   0.374
 1052SOL    HW1 4838   1.624   4.015   0.438
 1052SOL    HW2 4839   1.574   4.168   0.414
 1053SOL     OW 4840   1.023   4.490   0.966
 1053SOL    HW1 4841   1.038   4.511   1.062
 1053SOL    HW2 4842   0.993   4.395   0.957
 1054SOL     OW 4843   0.350   4.622   1.804
 1054SOL    HW1 4844   0.426   4.666   1.852
 1054SOL    HW2 4845   0.385   4.575   1.722
 1055SOL     OW 4846   1.540   3.998   0.125
 1055SOL    HW1 4847   1.479   3.923   0.148
 1055SOL    HW2 4848   1.562   4.050   0.208
 1056SOL     OW 4849   1.303   4.562   0.042
 1056SOL    HW1 4850   1.337   4.469   0.057
 1056SOL    HW2 4851   1.321   4.589  -0.053
 1057SOL     OW 4852   0.319   4.534   0.949
 1057SOL    HW1 4853   0.412   4.570   0.954
 1057SOL    HW2 4854   0.313   4.449   1.001
 1058SOL     OW 4855   0.339   4.233   1.006
 1058SOL    HW1 4856   0.287   4.150   0.989
 1058SOL    HW2 4857   0.416   4.238   0.942
 1059SOL     OW 4858   1.138   4.104   1.678
 1059SOL    HW1 4859   1.093   4.167   1.742
 1059SOL    HW2 4860   1.231   4.135   1.661
 1060SOL     OW 4861   1.160   3.931   1.477
 1060SOL    HW1 4862   1.160   3.995   1.554
 1060SOL    HW2 4863   1.188   3.979   1.394
 1061SOL     OW 4864   0.008   5.050   0.200
 1061SOL    HW1 4865  -0.085   5.071   0.169
 1061SOL    HW2 4866   0.018   4.951   0.213
 1062SOL     OW 4867   0.040   4.268   1.114
 1062SOL    HW1 4868   0.125   4.235   1.073
 1062SOL    HW2 4869   0.053   4.283   1.212
 1063SOL     OW 4870   0.189   4.244   1.722
 1063SOL    HW1 4871   0.248   4.204   1.652
 1063SOL    HW2 4872   0.131   4.315   1.681
 1064SOL     OW 4873   1.369   4.674   1.660
 1064SOL    HW1 4874   1.408   4.763   1.680
 1064SOL    HW2 4875   1.379   4.654   1.563
 1065SOL     OW 4876   0.815   4.296   0.325
 1065SOL    HW1 4877   0.822   4.207   0.279
 1065SOL    HW2 4878   0.721   4.330   0.317
 1066SOL     OW 4879   1.657   4.328   1.206
 1066SOL    HW1 4880   1.619   4.259   1.268
 1066SOL    HW2 4881   1.739   4.292   1.162
 1067SOL     OW 4882   0.671   4.188   1.269
 1067SOL    HW1 4883   0.637   4.099   1.239
 1067SOL    HW2 4884   0.697   4.242   1.189
 1068SOL     OW 4885   0.473   4.224   0.191
 1068SOL    HW1 4886   0.534   4.304   0.195
 1068SOL    HW2 4887   0.378   4.255   0.198
 1069SOL     OW 4888   1.347   4.783   1.234
 1069SOL    HW1 4889   1.371   4.720   1.160
 1069SOL    HW2 4890   1.257   4.823   1.216
 1070SOL     OW 4891   1.302   4.579   0.309
 1070SOL    HW1 4892   1.216   4.548   0.351
 1070SOL    HW2 4893   1.298   4.565   0.210
 1071SOL     OW 4894   0.083   4.982   1.022
 1071SOL    HW1 4895   0.078   4.981   1.122
 1071SOL    HW2 4896   0.000   4.941   0.984
 1072SOL     OW 4897   0.903   3.810   0.133
 1072SOL    HW1 4898   0.954   3.811   0.047
 1072SOL    HW2 4899   0.959   3.768   0.204
 1073SOL     OW 4900   1.726   3.859   0.523
 1073SOL    HW1 4901   1.799   3.842   0.456
 1073SOL    HW2 4902   1.695   3.772   0.561
 1074SOL     OW 4903   1.280   4.651   0.672
 1074SOL    HW1 4904   1.340   4.570   0.674
 1074SOL    HW2 4905   1.320   4.720   0.612
 1075SOL     OW 4906   1.841   3.899   0.963
 1075SOL    HW1 4907   1.880   3.814   0.927
 1075SOL    HW2 4908   1.743   3.901   0.944
 1076SOL     OW 4909   0.916   4.634   0.291
 1076SOL    HW1 4910   0.979   4.672   0.223
 1076SOL    HW2 4911   0.956   4.551   0.330
 1077SOL     OW 4912   1.614   5.016   1.289
 1077SOL    HW1 4913   1.674   5.019   1.369
 1077SOL    HW2 4914   1.539   5.080   1.302
 1078SOL     OW 4915   1.039   4.822   0.696
 1078SOL    HW1 4916   0.969   4.775   0.750
 1078SOL    HW2 4917   1.098   4.754   0.653
 1079SOL     OW 4918   1.014   3.960   0.971
 1079SOL    HW1 4919   1.006   3.924   0.878
 1079SOL    HW2 4920   1.012   3.884   1.036
 1080SOL     OW 4921   1.709   4.109   1.381
 1080SOL    HW1 4922   1.782   4.178   1.385
 1080SOL    HW2 4923   1.737   4.034   1.322
 1081SOL     OW 4924   0.105   4.737   1.726
 1081SOL    HW1 4925   0.028   4.704   1.780
 1081SOL    HW2 4926   0.190   4.707   1.768
 1082SOL     OW 4927   0.672   3.927   1.489
 1082SOL    HW1 4928   0.762   3.911   1.449
 1082SOL    HW2 4929   0.680   3.932   1.588
 1083SOL     OW 4930   0.075   4.069   0.033
 1083SOL    HW1 4931  -0.017   4.041   0.004
 1083SOL    HW2 4932   0.106   4.146  -0.023
 1084SOL     OW 4933   1.440   4.580   1.398
 1084SOL    HW1 4934   1.383   4.632   1.335
 1084SOL    HW2 4935   1.536   4.592   1.374
 1085SOL     OW 4936   0.613   4.566   1.431
 1085SOL    HW1 4937   0.669   4.647   1.414
 1085SOL    HW2 4938   0.672   4.486   1.434
 1086SOL     OW 4939   0.716   4.289   1.708
 1086SOL    HW1 4940   0.735   4.354   1.782
 1086SOL    HW2 4941   0.776   4.209   1.717
 1087SOL     OW 4942   1.450   4.944   1.633
 1087SOL    HW1 4943   1.441   4.934   1.732
 1087SOL    HW2 4944   1.546   4.937   1.607
 1088SOL     OW 4945   1.674   4.607   1.254
 1088SOL    HW1 4946   1.647   4.518   1.217
 1088SOL    HW2 4947   1.675   4.675   1.181
 1089SOL     OW 4948   1.225   4.049   0.449
 1089SOL    HW1 4949   1.290   3.975   0.438
 1089SOL    HW2 4950   1.245   4.099   0.533
 1090SOL     OW 4951   0.594   4.469   0.652
 1090SOL    HW1 4952   0.644   4.554   0.633
 1090SOL    HW2 4953   0.506   4.471   0.604
 1091SOL     OW 4954   1.777   4.066   1.642
 1091SOL    HW1 4955   1.760   4.097   1.548
 1091SOL    HW2 4956   1.693   4.029   1.680
 1092SOL     OW 4957   1.730   4.658   1.517
 1092SOL    HW1 4958   1.768   4.749   1.532
 1092SOL    HW2 4959   1.722   4.641   1.418
 1093SOL     OW 4960   0.859   4.680   0.861
 1093SOL    HW1 4961   0.913   4.611   0.909
 1093SOL    HW2 4962   0.827   4.749   0.927
 1094SOL     OW 4963   1.083   4.708   0.087
 1094SOL    HW1 4964   1.060   4.761   0.005
 1094SOL    HW2 4965   1.164   4.652   0.068
 1095SOL     OW 4966   0.079   4.964   0.653
 1095SOL    HW1 4967   0.078   4.917   0.741
 1095SOL    HW2 4968   0.161   4.936   0.602
 1096SOL     OW 4969   1.824   3.916   1.227
 1096SOL    HW1 4970   1.820   3.826   1.271
 1096SOL    HW2 4971   1.827   3.905   1.128
 1097SOL     OW 4972   0.428   4.148   0.520
 1097SOL    HW1 4973   0.458   4.076   0.458
 1097SOL    HW2 4974   0.389   4.108   0.603
 1098SOL     OW 4975   0.317   4.271   1.280
 1098SOL    HW1 4976   0.355   4.212   1.352
 1098SOL    HW2 4977   0.357   4.245   1.192
 1099SOL     OW 4978   1.424   3.938   1.112
 1099SOL    HW1 4979   1.476   3.873   1.167
 1099SOL    HW2 4980   1.375   4.001   1.173
 1100SOL     OW 4981   1.001   3.758   1.154
 1100SOL    HW1 4982   0.938   3.686   1.123
 1100SOL    HW2 4983   1.094   3.722   1.154
 1101SOL     OW 4984   0.770   5.054   0.301
 1101SOL    HW1 4985   0.724   4.967   0.318
 1101SOL    HW2 4986   0.861   5.051   0.342
 1102SOL     OW 4987   1.352   3.776   0.168
 1102SOL    HW1 4988   1.387   3.735   0.084
 1102SOL    HW2 4989   1.262   3.738   0.188
 1103SOL     OW 4990   1.300   4.177   0.691
 1103SOL    HW1 4991   1.241   4.257   0.695
 1103SOL    HW2 4992   1.315   4.142   0.784
 1104SOL     OW 4993   1.593   3.945   0.882
 1104SOL    HW1 4994   1.509   3.944   0.936
 1104SOL    HW2 4995   1.595   4.028   0.826
 1105SOL     OW 4996   0.039   4.801   0.300
 1105SOL    HW1 4997   0.138   4.790   0.291
 1105SOL    HW2 4998  -0.001   4.715   0.332
 1106SOL     OW 4999   0.230   4.352   1.975
 1106SOL    HW1 5000   0.137   4.350   2.012
 1106SOL    HW2 5001   0.231   4.313   1.883
 1107SOL     OW 5002   0.019   4.092   2.509
 1107SOL    HW1 5003  -0.063   4.135   2.548
 1107SOL    HW2 5004  -0.009   4.019   2.446
 1108SOL     OW 5005   0.569   4.999   3.027
 1108SOL    HW1 5006   0.476   4.992   2.990
 1108SOL    HW2 5007   0.580   5.088   3.071
 1109SOL     OW 5008   1.555   5.235   2.565
 1109SOL    HW1 5009   1.498   5.219   2.646
 1109SOL    HW2 5010   1.496   5.245   2.485
 1110SOL     OW 5011   1.135   4.427   2.579
 1110SOL    HW1 5012   1.192   4.505   2.554
 1110SOL    HW2 5013   1.075   4.453   2.655
 1111SOL     OW 5014   1.755   4.331   2.093
 1111SOL    HW1 5015   1.743   4.318   1.994
 1111SOL    HW2 5016   1.725   4.250   2.142
 1112SOL     OW 5017   0.768   4.868   2.885
 1112SOL    HW1 5018   0.690   4.885   2.945
 1112SOL    HW2 5019   0.802   4.955   2.849
 1113SOL     OW 5020   0.850   4.522   3.685
 1113SOL    HW1 5021   0.846   4.598   3.750
 1113SOL    HW2 5022   0.872   4.558   3.594
 1114SOL     OW 5023   0.685   4.736   2.527
 1114SOL    HW1 5024   0.754   4.720   2.597
 1114SOL    HW2 5025   0.612   4.793   2.565
 1115SOL     OW 5026   0.686   4.885   3.665
 1115SOL    HW1 5027   0.746   4.964   3.679
 1115SOL    HW2 5028   0.600   4.916   3.624
 1116SOL     OW 5029   0.335   5.159   2.923
 1116SOL    HW1 5030   0.257   5.128   2.870
 1116SOL    HW2 5031   0.393   5.217   2.866
 1117SOL     OW 5032   1.603   4.171   2.599
 1117SOL    HW1 5033   1.529   4.217   2.549
 1117SOL    HW2 5034   1.654   4.239   2.652
 1118SOL     OW 5035   0.240   4.815   2.748
 1118SOL    HW1 5036   0.254   4.731   2.800
 1118SOL    HW2 5037   0.185   4.879   2.803
 1119SOL     OW 5038   0.606   4.688   1.985
 1119SOL    HW1 5039   0.613   4.772   1.931
 1119SOL    HW2 5040   0.652   4.701   2.073
 1120SOL     OW 5041   1.594   3.838   3.342
 1120SOL    HW1 5042   1.576   3.905   3.270
 1120SOL    HW2 5043   1.591   3.884   3.431
 1121SOL     OW 5044   0.122   4.367   2.425
 1121SOL    HW1 5045   0.077   4.279   2.442
 1121SOL    HW2 5046   0.121   4.421   2.509
 1122SOL     OW 5047   1.689   4.646   2.474
 1122SOL    HW1 5048   1.784   4.617   2.482
 1122SOL    HW2 5049   1.681   4.711   2.399
 1123SOL     OW 5050   1.641   4.832   2.294
 1123SOL    HW1 5051   1.727   4.834   2.242
 1123SOL    HW2 5052   1.655   4.879   2.382
 1124SOL     OW 5053   0.113   4.461   3.459
 1124SOL    HW1 5054   0.201   4.448   3.504
 1124SOL    HW2 5055   0.100   4.558   3.437
 1125SOL     OW 5056   1.293   4.952   3.285
 1125SOL    HW1 5057   1.330   4.879   3.227
 1125SOL    HW2 5058   1.345   4.957   3.370
 1126SOL     OW 5059   0.197   4.700   3.126
 1126SOL    HW1 5060   0.286   4.655   3.112
 1126SOL    HW2 5061   0.124   4.635   3.107
 1127SOL     OW 5062   1.525   4.723   2.052
 1127SOL    HW1 5063   1.462   4.647   2.065
 1127SOL    HW2 5064   1.573   4.741   2.138
 1128SOL     OW 5065   1.466   5.141   2.815
 1128SOL    HW1 5066   1.407   5.147   2.895
 1128SOL    HW2 5067   1.451   5.053   2.769
 1129SOL     OW 5068   0.598   4.453   2.132
 1129SOL    HW1 5069   0.622   4.522   2.064
 1129SOL    HW2 5070   0.520   4.486   2.186
 1130SOL     OW 5071   1.281   4.069   2.806
 1130SOL    HW1 5072   1.195   4.019   2.793
 1130SOL    HW2 5073   1.343   4.015   2.862
 1131SOL     OW 5074   0.807   4.329   3.327
 1131SOL    HW1 5075   0.760   4.326   3.416
 1131SOL    HW2 5076   0.756   4.274   3.261
 1132SOL     OW 5077   1.394   4.193   3.536
 1132SOL    HW1 5078   1.374   4.236   3.624
 1132SOL    HW2 5079   1.472   4.131   3.545
 1133SOL     OW 5080   0.973   4.614   3.434
 1133SOL    HW1 5081   1.019   4.530   3.405
 1133SOL    HW2 5082   0.917   4.648   3.359
 1134SOL     OW 5083   0.991   4.134   3.104
 1134SOL    HW1 5084   0.914   4.168   3.158
 1134SOL    HW2 5085   0.957   4.083   3.025
 1135SOL     OW 5086   1.041   4.425   2.291
 1135SOL    HW1 5087   1.067   4.421   2.387
 1135SOL    HW2 5088   0.956   4.374   2.277
 1136SOL     OW 5089   0.076   4.535   2.651
 1136SOL    HW1 5090   0.175   4.523   2.660
 1136SOL    HW2 5091   0.052   4.630   2.672
 1137SOL     OW 5092   0.865   4.072   2.057
 1137SOL    HW1 5093   0.924   4.135   2.008
 1137SOL    HW2 5094   0.884   3.978   2.028
 1138SOL     OW 5095   1.719   4.309   3.693
 1138SOL    HW1 5096   1.693   4.398   3.657
 1138SOL    HW2 5097   1.717   4.241   3.620
 1139SOL     OW 5098   1.362   4.868   2.407
 1139SOL    HW1 5099   1.445   4.839   2.359
 1139SOL    HW2 5100   1.313   4.935   2.351
 1140SOL     OW 5101   0.550   3.920   2.747
 1140SOL    HW1 5102   0.545   3.915   2.847
 1140SOL    HW2 5103   0.552   4.016   2.718
 1141SOL     OW 5104   0.321   4.667   2.104
 1141SOL    HW1 5105   0.403   4.706   2.062
 1141SOL    HW2 5106   0.294   4.585   2.055
 1142SOL     OW 5107   1.632   5.101   1.943
 1142SOL    HW1 5108   1.600   5.195   1.933
 1142SOL    HW2 5109   1.556   5.038   1.931
 1143SOL     OW 5110   1.400   3.831   2.288
 1143SOL    HW1 5111   1.376   3.794   2.198
 1143SOL    HW2 5112   1.499   3.847   2.292
 1144SOL     OW 5113   0.382   4.424   2.342
 1144SOL    HW1 5114   0.427   4.334   2.339
 1144SOL    HW2 5115   0.288   4.413   2.375
 1145SOL     OW 5116   1.547   3.946   3.591
 1145SOL    HW1 5117   1.542   3.983   3.683
 1145SOL    HW2 5118   1.475   3.877   3.579
 1146SOL     OW 5119   0.614   3.846   1.979
 1146SOL    HW1 5120   0.712   3.824   1.986
 1146SOL    HW2 5121   0.583   3.829   1.886
 1147SOL     OW 5122   0.781   3.988   3.611
 1147SOL    HW1 5123   0.848   3.927   3.654
 1147SOL    HW2 5124   0.708   4.007   3.676
 1148SOL     OW 5125   1.351   4.314   3.295
 1148SOL    HW1 5126   1.379   4.271   3.380
 1148SOL    HW2 5127   1.376   4.410   3.296
 1149SOL     OW 5128   0.803   5.126   2.786
 1149SOL    HW1 5129   0.893   5.140   2.744
 1149SOL    HW2 5130   0.732   5.128   2.715
 1150SOL     OW 5131   0.922   4.227   2.761
 1150SOL    HW1 5132   0.897   4.218   2.665
 1150SOL    HW2 5133   0.970   4.145   2.792
 1151SOL     OW 5134   0.539   3.788   2.374
 1151SOL    HW1 5135   0.458   3.789   2.432
 1151SOL    HW2 5136   0.542   3.871   2.319
 1152SOL     OW 5137   1.434   4.912   1.903
 1152SOL    HW1 5138   1.466   4.836   1.960
 1152SOL    HW2 5139   1.342   4.939   1.933
 1153SOL     OW 5140   0.297   3.759   2.033
 1153SOL    HW1 5141   0.346   3.843   2.012
 1153SOL    HW2 5142   0.359   3.694   2.078
 1154SOL     OW 5143   0.935   3.960   2.342
 1154SOL    HW1 5144   0.887   4.001   2.264
 1154SOL    HW2 5145   1.034   3.958   2.323
 1155SOL     OW 5146   1.076   4.407   3.326
 1155SOL    HW1 5147   0.996   4.346   3.329
 1155SOL    HW2 5148   1.157   4.354   3.302
 1156SOL     OW 5149   1.227   5.294   2.655
 1156SOL    HW1 5150   1.248   5.368   2.590
 1156SOL    HW2 5151   1.295   5.294   2.728
 1157SOL     OW 5152   0.459   4.876   2.603
 1157SOL    HW1 5153   0.388   4.849   2.668
 1157SOL    HW2 5154   0.433   4.848   2.510
 1158SOL     OW 5155   1.032   4.273   1.878
 1158SOL    HW1 5156   0.991   4.355   1.839
 1158SOL    HW2 5157   1.096   4.299   1.951
 1159SOL     OW 5158   0.078   4.280   3.248
 1159SOL    HW1 5159   0.170   4.279   3.207
 1159SOL    HW2 5160   0.072   4.354   3.315
 1160SOL     OW 5161   0.866   4.178   2.504
 1160SOL    HW1 5162   0.834   4.250   2.442
 1160SOL    HW2 5163   0.890   4.097   2.451
 1161SOL     OW 5164   1.017   3.763   2.615
 1161SOL    HW1 5165   0.945   3.768   2.546
 1161SOL    HW2 5166   0.993   3.694   2.684
 1162SOL     OW 5167   1.429   4.897   2.729
 1162SOL    HW1 5168   1.374   4.813   2.722
 1162SOL    HW2 5169   1.455   4.926   2.637
 1163SOL     OW 5170   1.857   4.557   2.239
 1163SOL    HW1 5171   1.899   4.493   2.303
 1163SOL    HW2 5172   1.819   4.506   2.161
 1164SOL     OW 5173   1.664   5.004   2.519
 1164SOL    HW1 5174   1.763   5.012   2.533
 1164SOL    HW2 5175   1.619   5.088   2.550
 1165SOL     OW 5176   1.390   4.299   1.940
 1165SOL    HW1 5177   1.336   4.278   2.021
 1165SOL    HW2 5178   1.481   4.258   1.949
 1166SOL     OW 5179   0.527   3.980   2.190
 1166SOL    HW1 5180   0.554   3.921   2.115
 1166SOL    HW2 5181   0.527   4.075   2.159
 1167SOL     OW 5182   1.754   4.947   3.450
 1167SOL    HW1 5183   1.845   4.908   3.437
 1167SOL    HW2 5184   1.762   5.043   3.474
 1168SOL     OW 5185   0.915   3.813   3.264
 1168SOL    HW1 5186   0.940   3.793   3.169
 1168SOL    HW2 5187   0.987   3.869   3.306
 1169SOL     OW 5188   0.980   4.840   3.581
 1169SOL    HW1 5189   0.881   4.846   3.591
 1169SOL    HW2 5190   1.003   4.760   3.525
 1170SOL     OW 5191   0.705   4.774   2.230
 1170SOL    HW1 5192   0.691   4.781   2.329
 1170SOL    HW2 5193   0.789   4.723   2.212
 1171SOL     OW 5194   0.410   4.537   3.113
 1171SOL    HW1 5195   0.496   4.549   3.163
 1171SOL    HW2 5196   0.368   4.450   3.140
 1172SOL     OW 5197   1.274   4.110   3.124
 1172SOL    HW1 5198   1.295   4.184   3.188
 1172SOL    HW2 5199   1.185   4.127   3.081
 1173SOL     OW 5200   0.367   4.824   2.363
 1173SOL    HW1 5201   0.360   4.907   2.307
 1173SOL    HW2 5202   0.371   4.744   2.303
 1174SOL     OW 5203   0.566   4.261   2.727
 1174SOL    HW1 5204   0.578   4.327   2.653
 1174SOL    HW2 5205   0.612   4.295   2.810
 1175SOL     OW 5206   0.402   4.475   3.460
 1175SOL    HW1 5207   0.470   4.530   3.413
 1175SOL    HW2 5208   0.442   4.387   3.487
 1176SOL     OW 5209   1.587   4.503   3.532
 1176SOL    HW1 5210   1.495   4.541   3.527
 1176SOL    HW2 5211   1.647   4.550   3.467
 1177SOL     OW 5212   1.013   3.829   3.632
 1177SOL    HW1 5213   1.019   3.914   3.580
 1177SOL    HW2 5214   1.045   3.753   3.575
 1178SOL     OW 5215   0.573   4.594   2.891
 1178SOL    HW1 5216   0.617   4.683   2.882
 1178SOL    HW2 5217   0.510   4.594   2.968
 1179SOL     OW 5218   1.209   4.249   2.137
 1179SOL    HW1 5219   1.222   4.165   2.191
 1179SOL    HW2 5220   1.180   4.323   2.197
 1180SOL     OW 5221   0.037   5.034   3.144
 1180SOL    HW1 5222   0.090   4.985   3.212
 1180SOL    HW2 5223   0.059   5.132   3.149
 1181SOL     OW 5224   0.732   4.358   2.926
 1181SOL    HW1 5225   0.791   4.332   2.850
 1181SOL    HW2 5226   0.704   4.454   2.915
 1182SOL     OW 5227   1.728   4.659   3.716
 1182SOL    HW1 5228   1.682   4.652   3.627
 1182SOL    HW2 5229   1.666   4.703   3.782
 1183SOL     OW 5230   0.307   3.787   2.480
 1183SOL    HW1 5231   0.296   3.881   2.513
 1183SOL    HW2 5232   0.302   3.724   2.557
 1184SOL     OW 5233   1.622   4.091   2.236
 1184SOL    HW1 5234   1.624   4.015   2.300
 1184SOL    HW2 5235   1.574   4.168   2.276
 1185SOL     OW 5236   1.859   5.242   3.467
 1185SOL    HW1 5237   1.873   5.269   3.372
 1185SOL    HW2 5238   1.942   5.264   3.520
 1186SOL     OW 5239   0.350   4.622   3.666
 1186SOL    HW1 5240   0.426   4.666   3.714
 1186SOL    HW2 5241   0.385   4.575   3.584
 1187SOL     OW 5242   1.540   3.998   1.987
 1187SOL    HW1 5243   1.479   3.923   2.010
 1187SOL    HW2 5244   1.562   4.050   2.070
 1188SOL     OW 5245   1.303   4.562   1.904
 1188SOL    HW1 5246   1.337   4.469   1.919
 1188SOL    HW2 5247   1.321   4.589   1.809
 1189SOL     OW 5248   0.319   4.534   2.811
 1189SOL    HW1 5249   0.412   4.570   2.816
 1189SOL    HW2 5250   0.313   4.449   2.863
 1190SOL     OW 5251   1.138   4.104   3.540
 1190SOL    HW1 5252   1.093   4.167   3.604
 1190SOL    HW2 5253   1.231   4.135   3.523
 1191SOL     OW 5254   1.160   3.931   3.339
 1191SOL    HW1 5255   1.160   3.995   3.416
 1191SOL    HW2 5256   1.188   3.979   3.256
 1192SOL     OW 5257   0.008   5.050   2.062
 1192SOL    HW1 5258  -0.085   5.071   2.031
 1192SOL    HW2 5259   0.018   4.951   2.075
 1193SOL     OW 5260   0.040   4.268   2.976
 1193SOL    HW1 5261   0.125   4.235   2.935
 1193SOL    HW2 5262   0.053   4.283   3.074
 1194SOL     OW 5263   0.189   4.244   3.584
 1194SOL    HW1 5264   0.248   4.204   3.514
 1194SOL    HW2 5265   0.131   4.315   3.543
 1195SOL     OW 5266   1.369   4.674   3.522
 1195SOL    HW1 5267   1.408   4.763   3.542
 1195SOL    HW2 5268   1.379   4.654   3.425
 1196SOL     OW 5269   0.815   4.296   2.187
 1196SOL    HW1 5270   0.822   4.207   2.141
 1196SOL    HW2 5271   0.721   4.330   2.179
 1197SOL     OW 5272   0.671   4.188   3.131
 1197SOL    HW1 5273   0.637   4.099   3.101
 1197SOL    HW2 5274   0.697   4.242   3.051
 1198SOL     OW 5275   0.473   4.224   2.053
 1198SOL    HW1 5276   0.534   4.304   2.057
 1198SOL    HW2 5277   0.378   4.255   2.060
 1199SOL     OW 5278   0.159   4.861   3.328
 1199SOL    HW1 5279   0.181   4.800   3.404
 1199SOL    HW2 5280   0.169   4.812   3.242
 1200SOL     OW 5281   1.302   4.579   2.171
 1200SOL    HW1 5282   1.216   4.548   2.213
 1200SOL    HW2 5283   1.298   4.565   2.072
 1201SOL     OW 5284   0.083   4.982   2.884
 1201SOL    HW1 5285   0.078   4.981   2.984
 1201SOL    HW2 5286   0.000   4.941   2.846
 1202SOL     OW 5287   1.726   3.859   2.385
 1202SOL    HW1 5288   1.799   3.842   2.318
 1202SOL    HW2 5289   1.695   3.772   2.423
 1203SOL     OW 5290   1.280   4.651   2.534
 1203SOL    HW1 5291   1.340   4.570   2.536
 1203SOL    HW2 5292   1.320   4.720   2.474
 1204SOL     OW 5293   0.830   4.997   3.284
 1204SOL    HW1 5294   0.825   5.030   3.379
 1204SOL    HW2 5295   0.744   5.016   3.238
 1205SOL     OW 5296   1.841   3.899   2.825
 1205SOL    HW1 5297   1.880   3.814   2.789
 1205SOL    HW2 5298   1.743   3.901   2.806
 1206SOL     OW 5299   0.263   4.050   2.582
 1206SOL    HW1 5300   0.184   4.101   2.548
 1206SOL    HW2 5301   0.254   4.035   2.680
 1207SOL     OW 5302   1.194   5.336   1.893
 1207SOL    HW1 5303   1.200   5.243   1.930
 1207SOL    HW2 5304   1.135   5.336   1.813
 1208SOL     OW 5305   0.822   4.726   3.234
 1208SOL    HW1 5306   0.862   4.725   3.142
 1208SOL    HW2 5307   0.832   4.818   3.274
 1209SOL     OW 5308   0.916   4.634   2.153
 1209SOL    HW1 5309   0.979   4.672   2.085
 1209SOL    HW2 5310   0.956   4.551   2.192
 1210SOL     OW 5311   0.372   5.012   3.352
 1210SOL    HW1 5312   0.359   5.105   3.318
 1210SOL    HW2 5313   0.288   4.960   3.339
 1211SOL     OW 5314   1.614   5.016   3.151
 1211SOL    HW1 5315   1.674   5.019   3.231
 1211SOL    HW2 5316   1.539   5.080   3.164
 1212SOL     OW 5317   1.039   4.822   2.558
 1212SOL    HW1 5318   0.969   4.775   2.612
 1212SOL    HW2 5319   1.098   4.754   2.515
 1213SOL     OW 5320   1.014   3.960   2.833
 1213SOL    HW1 5321   1.006   3.924   2.740
 1213SOL    HW2 5322   1.012   3.884   2.898
 1214SOL     OW 5323   1.709   4.109   3.243
 1214SOL    HW1 5324   1.782   4.178   3.247
 1214SOL    HW2 5325   1.737   4.034   3.184
 1215SOL     OW 5326   0.105   4.737   3.588
 1215SOL    HW1 5327   0.028   4.704   3.642
 1215SOL    HW2 5328   0.190   4.707   3.630
 1216SOL     OW 5329   0.075   4.069   1.895
 1216SOL    HW1 5330  -0.017   4.041   1.866
 1216SOL    HW2 5331   0.106   4.146   1.839
 1217SOL     OW 5332   1.440   4.580   3.260
 1217SOL    HW1 5333   1.383   4.632   3.197
 1217SOL    HW2 5334   1.536   4.592   3.236
 1218SOL     OW 5335   0.072   3.890   2.180
 1218SOL    HW1 5336   0.055   3.973   2.126
 1218SOL    HW2 5337   0.162   3.853   2.158
 1219SOL     OW 5338   0.613   4.566   3.293
 1219SOL    HW1 5339   0.669   4.647   3.276
 1219SOL    HW2 5340   0.672   4.486   3.296
 1220SOL     OW 5341   0.716   4.289   3.570
 1220SOL    HW1 5342   0.735   4.354   3.644
 1220SOL    HW2 5343   0.776   4.209   3.579
 1221SOL     OW 5344   1.450   4.944   3.495
 1221SOL    HW1 5345   1.441   4.934   3.594
 1221SOL    HW2 5346   1.546   4.937   3.469
 1222SOL     OW 5347   0.594   4.469   2.514
 1222SOL    HW1 5348   0.644   4.554   2.495
 1222SOL    HW2 5349   0.506   4.471   2.466
 1223SOL     OW 5350   1.777   4.066   3.504
 1223SOL    HW1 5351   1.760   4.097   3.410
 1223SOL    HW2 5352   1.693   4.029   3.542
 1224SOL     OW 5353   1.730   4.658   3.379
 1224SOL    HW1 5354   1.768   4.749   3.394
 1224SOL    HW2 5355   1.722   4.641   3.280
 1225SOL     OW 5356   0.859   4.680   2.723
 1225SOL    HW1 5357   0.913   4.611   2.771
 1225SOL    HW2 5358   0.827   4.749   2.789
 1226SOL     OW 5359   1.083   4.708   1.949
 1226SOL    HW1 5360   1.060   4.761   1.867
 1226SOL    HW2 5361   1.164   4.652   1.930
 1227SOL     OW 5362   0.079   4.964   2.515
 1227SOL    HW1 5363   0.078   4.917   2.603
 1227SOL    HW2 5364   0.161   4.936   2.464
 1228SOL     OW 5365   1.824   3.916   3.089
 1228SOL    HW1 5366   1.820   3.826   3.133
 1228SOL    HW2 5367   1.827   3.905   2.990
 1229SOL     OW 5368   0.428   4.148   2.382
 1229SOL    HW1 5369   0.458   4.076   2.320
 1229SOL    HW2 5370   0.389   4.108   2.465
 1230SOL     OW 5371   1.424   3.938   2.974
 1230SOL    HW1 5372   1.476   3.873   3.029
 1230SOL    HW2 5373   1.375   4.001   3.035
 1231SOL     OW 5374   1.001   3.758   3.016
 1231SOL    HW1 5375   0.938   3.686   2.985
 1231SOL    HW2 5376   1.094   3.722   3.016
 1232SOL     OW 5377   0.770   5.054   2.163
 1232SOL    HW1 5378   0.724   4.967   2.180
 1232SOL    HW2 5379   0.861   5.051   2.204
 1233SOL     OW 5380   1.352   3.776   2.030
 1233SOL    HW1 5381   1.387   3.735   1.946
 1233SOL    HW2 5382   1.262   3.738   2.050
 1234SOL     OW 5383   1.593   3.945   2.744
 1234SOL    HW1 5384   1.509   3.944   2.798
 1234SOL    HW2 5385   1.595   4.028   2.688
 1235SOL     OW 5386   0.039   4.801   2.162
 1235SOL    HW1 5387   0.138   4.790   2.153
 1235SOL    HW2 5388  -0.001   4.715   2.194
 1236SOL     OW 5389   0.230   4.352   3.837
 1236SOL    HW1 5390   0.137   4.350   3.874
 1236SOL    HW2 5391   0.231   4.313   3.745
 1237SOL     OW 5392   1.555   5.235   4.427
 1237SOL    HW1 5393   1.498   5.219   4.508
 1237SOL    HW2 5394   1.496   5.245   4.347
 1238SOL     OW 5395   1.135   4.427   4.441
 1238SOL    HW1 5396   1.192   4.505   4.416
 1238SOL    HW2 5397   1.075   4.453   4.517
 1239SOL     OW 5398   0.768   4.868   4.747
 1239SOL    HW1 5399   0.690   4.885   4.807
 1239SOL    HW2 5400   0.802   4.955   4.711
 1240SOL     OW 5401   0.335   5.159   4.785
 1240SOL    HW1 5402   0.257   5.128   4.732
 1240SOL    HW2 5403   0.393   5.217   4.728
 1241SOL     OW 5404   1.603   4.171   4.461
 1241SOL    HW1 5405   1.529   4.217   4.411
 1241SOL    HW2 5406   1.654   4.239   4.514
 1242SOL     OW 5407   0.606   4.688   3.847
 1242SOL    HW1 5408   0.613   4.772   3.793
 1242SOL    HW2 5409   0.652   4.701   3.935
 1243SOL     OW 5410   1.689   4.646   4.336
 1243SOL    HW1 5411   1.784   4.617   4.344
 1243SOL    HW2 5412   1.681   4.711   4.261
 1244SOL     OW 5413   1.641   4.832   4.156
 1244SOL    HW1 5414   1.727   4.834   4.104
 1244SOL    HW2 5415   1.655   4.879   4.244
 1245SOL     OW 5416   0.809   3.728   4.226
 1245SOL    HW1 5417   0.849   3.819   4.217
 1245SOL    HW2 5418   0.709   3.736   4.232
 1246SOL     OW 5419   1.525   4.723   3.914
 1246SOL    HW1 5420   1.462   4.647   3.927
 1246SOL    HW2 5421   1.573   4.741   4.000
 1247SOL     OW 5422   0.598   4.453   3.994
 1247SOL    HW1 5423   0.622   4.522   3.926
 1247SOL    HW2 5424   0.520   4.486   4.048
 1248SOL     OW 5425   1.281   4.069   4.668
 1248SOL    HW1 5426   1.195   4.019   4.655
 1248SOL    HW2 5427   1.343   4.015   4.724
 1249SOL     OW 5428   0.991   4.134   4.966
 1249SOL    HW1 5429   0.914   4.168   5.020
 1249SOL    HW2 5430   0.957   4.083   4.887
 1250SOL     OW 5431   1.041   4.425   4.153
 1250SOL    HW1 5432   1.067   4.421   4.249
 1250SOL    HW2 5433   0.956   4.374   4.139
 1251SOL     OW 5434   0.076   4.535   4.513
 1251SOL    HW1 5435   0.175   4.523   4.522
 1251SOL    HW2 5436   0.052   4.630   4.534
 1252SOL     OW 5437   0.865   4.072   3.919
 1252SOL    HW1 5438   0.924   4.135   3.870
 1252SOL    HW2 5439   0.884   3.978   3.890
 1253SOL     OW 5440   1.362   4.868   4.269
 1253SOL    HW1 5441   1.445   4.839   4.221
 1253SOL    HW2 5442   1.313   4.935   4.213
 1254SOL     OW 5443   1.795   4.790   4.597
 1254SOL    HW1 5444   1.733   4.775   4.521
 1254SOL    HW2 5445   1.743   4.801   4.682
 1255SOL     OW 5446   0.321   4.667   3.966
 1255SOL    HW1 5447   0.403   4.706   3.924
 1255SOL    HW2 5448   0.294   4.585   3.917
 1256SOL     OW 5449   1.458   4.459   4.452
 1256SOL    HW1 5450   1.453   4.394   4.527
 1256SOL    HW2 5451   1.538   4.518   4.465
 1257SOL     OW 5452   1.632   5.101   3.805
 1257SOL    HW1 5453   1.600   5.195   3.795
 1257SOL    HW2 5454   1.556   5.038   3.793
 1258SOL     OW 5455   1.400   3.831   4.150
 1258SOL    HW1 5456   1.376   3.794   4.060
 1258SOL    HW2 5457   1.499   3.847   4.154
 1259SOL     OW 5458   0.382   4.424   4.204
 1259SOL    HW1 5459   0.427   4.334   4.201
 1259SOL    HW2 5460   0.288   4.413   4.237
 1260SOL     OW 5461   0.922   4.227   4.623
 1260SOL    HW1 5462   0.897   4.218   4.527
 1260SOL    HW2 5463   0.970   4.145   4.654
 1261SOL     OW 5464   1.434   4.912   3.765
 1261SOL    HW1 5465   1.466   4.836   3.822
 1261SOL    HW2 5466   1.342   4.939   3.795
 1262SOL     OW 5467   0.935   3.960   4.204
 1262SOL    HW1 5468   0.887   4.001   4.126
 1262SOL    HW2 5469   1.034   3.958   4.185
 1263SOL     OW 5470   1.032   4.273   3.740
 1263SOL    HW1 5471   0.991   4.355   3.701
 1263SOL    HW2 5472   1.096   4.299   3.813
 1264SOL     OW 5473   0.866   4.178   4.366
 1264SOL    HW1 5474   0.834   4.250   4.304
 1264SOL    HW2 5475   0.890   4.097   4.313
 1265SOL     OW 5476   1.017   3.763   4.477
 1265SOL    HW1 5477   0.945   3.768   4.408
 1265SOL    HW2 5478   0.993   3.694   4.546
 1266SOL     OW 5479   1.429   4.897   4.591
 1266SOL    HW1 5480   1.374   4.813   4.584
 1266SOL    HW2 5481   1.455   4.926   4.499
 1267SOL     OW 5482   1.466   4.314   4.716
 1267SOL    HW1 5483   1.436   4.219   4.723
 1267SOL    HW2 5484   1.539   4.330   4.782
 1268SOL     OW 5485   1.664   5.004   4.381
 1268SOL    HW1 5486   1.763   5.012   4.395
 1268SOL    HW2 5487   1.619   5.088   4.412
 1269SOL     OW 5488   1.390   4.299   3.802
 1269SOL    HW1 5489   1.336   4.278   3.883
 1269SOL    HW2 5490   1.481   4.258   3.811
 1270SOL     OW 5491   1.638   4.823   4.803
 1270SOL    HW1 5492   1.643   4.904   4.862
 1270SOL    HW2 5493   1.552   4.825   4.752
 1271SOL     OW 5494   0.705   4.774   4.092
 1271SOL    HW1 5495   0.691   4.781   4.191
 1271SOL    HW2 5496   0.789   4.723   4.074
 1272SOL     OW 5497   1.274   4.110   4.986
 1272SOL    HW1 5498   1.295   4.184   5.050
 1272SOL    HW2 5499   1.185   4.127   4.943
 1273SOL     OW 5500   0.367   4.824   4.225
 1273SOL    HW1 5501   0.360   4.907   4.169
 1273SOL    HW2 5502   0.371   4.744   4.165
 1274SOL     OW 5503   1.582   4.363   4.196
 1274SOL    HW1 5504   1.551   4.424   4.269
 1274SOL    HW2 5505   1.632   4.415   4.127
 1275SOL     OW 5506   1.360   4.586   4.769
 1275SOL    HW1 5507   1.285   4.586   4.703
 1275SOL    HW2 5508   1.397   4.494   4.778
 1276SOL     OW 5509   1.209   4.249   3.999
 1276SOL    HW1 5510   1.222   4.165   4.053
 1276SOL    HW2 5511   1.180   4.323   4.059
 1277SOL     OW 5512   0.307   3.937   4.955
 1277SOL    HW1 5513   0.284   3.974   5.045
 1277SOL    HW2 5514   0.277   3.842   4.949
 1278SOL     OW 5515   0.037   5.034   5.006
 1278SOL    HW1 5516   0.090   4.985   5.074
 1278SOL    HW2 5517   0.059   5.132   5.011
 1279SOL     OW 5518   0.732   4.358   4.788
 1279SOL    HW1 5519   0.791   4.332   4.712
 1279SOL    HW2 5520   0.704   4.454   4.777
 1280SOL     OW 5521   1.622   4.091   4.098
 1280SOL    HW1 5522   1.624   4.015   4.162
 1280SOL    HW2 5523   1.574   4.168   4.138
 1281SOL     OW 5524   1.023   4.490   4.690
 1281SOL    HW1 5525   1.038   4.511   4.786
 1281SOL    HW2 5526   0.993   4.395   4.681
 1282SOL     OW 5527   1.540   3.998   3.849
 1282SOL    HW1 5528   1.479   3.923   3.872
 1282SOL    HW2 5529   1.562   4.050   3.932
 1283SOL     OW 5530   1.303   4.562   3.766
 1283SOL    HW1 5531   1.337   4.469   3.781
 1283SOL    HW2 5532   1.321   4.589   3.671
 1284SOL     OW 5533   1.160   3.931   5.201
 1284SOL    HW1 5534   1.160   3.995   5.278
 1284SOL    HW2 5535   1.188   3.979   5.118
 1285SOL     OW 5536   0.008   5.050   3.924
 1285SOL    HW1 5537  -0.085   5.071   3.893
 1285SOL    HW2 5538   0.018   4.951   3.937
 1286SOL     OW 5539   1.002   4.520   4.962
 1286SOL    HW1 5540   1.043   4.488   5.048
 1286SOL    HW2 5541   0.906   4.493   4.959
 1287SOL     OW 5542   0.040   4.268   4.838
 1287SOL    HW1 5543   0.125   4.235   4.797
 1287SOL    HW2 5544   0.053   4.283   4.936
 1288SOL     OW 5545   0.815   4.296   4.049
 1288SOL    HW1 5546   0.822   4.207   4.003
 1288SOL    HW2 5547   0.721   4.330   4.041
 1289SOL     OW 5548   1.657   4.328   4.930
 1289SOL    HW1 5549   1.619   4.259   4.992
 1289SOL    HW2 5550   1.739   4.292   4.886
 1290SOL     OW 5551   0.671   4.188   4.993
 1290SOL    HW1 5552   0.637   4.099   4.963
 1290SOL    HW2 5553   0.697   4.242   4.913
 1291SOL     OW 5554   0.473   4.224   3.915
 1291SOL    HW1 5555   0.534   4.304   3.919
 1291SOL    HW2 5556   0.378   4.255   3.922
 1292SOL     OW 5557   1.347   4.783   4.958
 1292SOL    HW1 5558   1.371   4.720   4.884
 1292SOL    HW2 5559   1.257   4.823   4.940
 1293SOL     OW 5560   1.302   4.579   4.033
 1293SOL    HW1 5561   1.216   4.548   4.075
 1293SOL    HW2 5562   1.298   4.565   3.934
 1294SOL     OW 5563   0.083   4.982   4.746
 1294SOL    HW1 5564   0.078   4.981   4.846
 1294SOL    HW2 5565   0.000   4.941   4.708
 1295SOL     OW 5566   1.726   3.859   4.247
 1295SOL    HW1 5567   1.799   3.842   4.180
 1295SOL    HW2 5568   1.695   3.772   4.285
 1296SOL     OW 5569   1.280   4.651   4.396
 1296SOL    HW1 5570   1.340   4.570   4.398
 1296SOL    HW2 5571   1.320   4.720   4.336
 1297SOL     OW 5572   0.830   4.997   5.146
 1297SOL    HW1 5573   0.825   5.030   5.241
 1297SOL    HW2 5574   0.744   5.016   5.100
 1298SOL     OW 5575   1.841   3.899   4.687
 1298SOL    HW1 5576   1.880   3.814   4.651
 1298SOL    HW2 5577   1.743   3.901   4.668
 1299SOL     OW 5578   1.194   5.336   3.755
 1299SOL    HW1 5579   1.200   5.243   3.792
 1299SOL    HW2 5580   1.135   5.336   3.675
 1300SOL     OW 5581   0.822   4.726   5.096
 1300SOL    HW1 5582   0.862   4.725   5.004
 1300SOL    HW2 5583   0.832   4.818   5.136
 1301SOL     OW 5584   0.916   4.634   4.015
 1301SOL    HW1 5585   0.979   4.672   3.947
 1301SOL    HW2 5586   0.956   4.551   4.054
 1302SOL     OW 5587   1.014   3.960   4.695
 1302SOL    HW1 5588   1.006   3.924   4.602
 1302SOL    HW2 5589   1.012   3.884   4.760
 1303SOL     OW 5590   1.709   4.109   5.105
 1303SOL    HW1 5591   1.782   4.178   5.109
 1303SOL    HW2 5592   1.737   4.034   5.046
 1304SOL     OW 5593   0.075   4.069   3.757
 1304SOL    HW1 5594  -0.017   4.041   3.728
 1304SOL    HW2 5595   0.106   4.146   3.701
 1305SOL     OW 5596   1.450   4.944   5.357
 1305SOL    HW1 5597   1.441   4.934   5.456
 1305SOL    HW2 5598   1.546   4.937   5.331
 1306SOL     OW 5599   1.674   4.607   4.978
 1306SOL    HW1 5600   1.647   4.518   4.941
 1306SOL    HW2 5601   1.675   4.675   4.905
 1307SOL     OW 5602   1.225   4.049   4.173
 1307SOL    HW1 5603   1.290   3.975   4.162
 1307SOL    HW2 5604   1.245   4.099   4.257
 1308SOL     OW 5605   0.594   4.469   4.376
 1308SOL    HW1 5606   0.644   4.554   4.357
 1308SOL    HW2 5607   0.506   4.471   4.328
 1309SOL     OW 5608   1.730   4.658   5.241
 1309SOL    HW1 5609   1.768   4.749   5.256
 1309SOL    HW2 5610   1.722   4.641   5.142
 1310SOL     OW 5611   1.083   4.708   3.811
 1310SOL    HW1 5612   1.060   4.761   3.729
 1310SOL    HW2 5613   1.164   4.652   3.792
 1311SOL     OW 5614   0.079   4.964   4.377
 1311SOL    HW1 5615   0.078   4.917   4.465
 1311SOL    HW2 5616   0.161   4.936   4.326
 1312SOL     OW 5617   1.824   3.916   4.951
 1312SOL    HW1 5618   1.820   3.826   4.995
 1312SOL    HW2 5619   1.827   3.905   4.852
 1313SOL     OW 5620   1.424   3.938   4.836
 1313SOL    HW1 5621   1.476   3.873   4.891
 1313SOL    HW2 5622   1.375   4.001   4.897
 1314SOL     OW 5623   1.001   3.758   4.878
 1314SOL    HW1 5624   0.938   3.686   4.847
 1314SOL    HW2 5625   1.094   3.722   4.878
 1315SOL     OW 5626   0.770   5.054   4.025
 1315SOL    HW1 5627   0.724   4.967   4.042
 1315SOL    HW2 5628   0.861   5.051   4.066
 1316SOL     OW 5629   1.352   3.776   3.892
 1316SOL    HW1 5630   1.387   3.735   3.808
 1316SOL    HW2 5631   1.262   3.738   3.912
 1317SOL     OW 5632   1.300   4.177   4.415
 1317SOL    HW1 5633   1.241   4.257   4.419
 1317SOL    HW2 5634   1.315   4.142   4.508
 1318SOL     OW 5635   1.593   3.945   4.606
 1318SOL    HW1 5636   1.509   3.944   4.660
 1318SOL    HW2 5637   1.595   4.028   4.550
 1319SOL     OW 5638   0.039   4.801   4.024
 1319SOL    HW1 5639   0.138   4.790   4.015
 1319SOL    HW2 5640  -0.001   4.715   4.056
 1320SOL     OW 5641   2.092   0.628   0.113
 1320SOL    HW1 5642   1.999   0.626   0.150
 1320SOL    HW2 5643   2.093   0.589   0.021
 1321SOL     OW 5644   2.087   0.275   0.996
 1321SOL    HW1 5645   2.122   0.258   1.088
 1321SOL    HW2 5646   1.999   0.230   0.984
 1322SOL     OW 5647   1.881   0.368   0.647
 1322SOL    HW1 5648   1.799   0.411   0.686
 1322SOL    HW2 5649   1.853   0.295   0.584
 1323SOL     OW 5650   2.431   1.275   1.165
 1323SOL    HW1 5651   2.338   1.268   1.128
 1323SOL    HW2 5652   2.442   1.364   1.209
 1324SOL     OW 5653   2.997   0.703   0.717
 1324SOL    HW1 5654   3.054   0.781   0.692
 1324SOL    HW2 5655   2.937   0.729   0.793
 1325SOL     OW 5656   3.617   0.607   0.231
 1325SOL    HW1 5657   3.605   0.594   0.132
 1325SOL    HW2 5658   3.587   0.526   0.280
 1326SOL     OW 5659   2.630   1.144   1.023
 1326SOL    HW1 5660   2.552   1.161   1.083
 1326SOL    HW2 5661   2.664   1.231   0.987
 1327SOL     OW 5662   2.712   0.798   1.823
 1327SOL    HW1 5663   2.708   0.874   1.888
 1327SOL    HW2 5664   2.734   0.834   1.732
 1328SOL     OW 5665   2.547   1.012   0.665
 1328SOL    HW1 5666   2.616   0.996   0.735
 1328SOL    HW2 5667   2.474   1.069   0.703
 1329SOL     OW 5668   2.548   1.161   1.803
 1329SOL    HW1 5669   2.608   1.240   1.817
 1329SOL    HW2 5670   2.462   1.192   1.762
 1330SOL     OW 5671   2.197   1.435   1.061
 1330SOL    HW1 5672   2.119   1.404   1.008
 1330SOL    HW2 5673   2.255   1.493   1.004
 1331SOL     OW 5674   3.322   1.505   1.339
 1331SOL    HW1 5675   3.346   1.599   1.365
 1331SOL    HW2 5676   3.306   1.451   1.421
 1332SOL     OW 5677   3.465   0.447   0.737
 1332SOL    HW1 5678   3.391   0.493   0.687
 1332SOL    HW2 5679   3.516   0.515   0.790
 1333SOL     OW 5680   2.093   1.713   0.483
 1333SOL    HW1 5681   2.127   1.790   0.537
 1333SOL    HW2 5682   2.137   1.713   0.393
 1334SOL     OW 5683   2.989   1.341   1.690
 1334SOL    HW1 5684   3.036   1.341   1.778
 1334SOL    HW2 5685   2.941   1.254   1.679
 1335SOL     OW 5686   2.092   1.434   0.538
 1335SOL    HW1 5687   2.066   1.530   0.538
 1335SOL    HW2 5688   2.021   1.380   0.583
 1336SOL     OW 5689   2.102   1.091   0.886
 1336SOL    HW1 5690   2.116   1.007   0.938
 1336SOL    HW2 5691   2.047   1.155   0.941
 1337SOL     OW 5692   2.482   1.786   1.439
 1337SOL    HW1 5693   2.390   1.769   1.474
 1337SOL    HW2 5694   2.510   1.878   1.465
 1338SOL     OW 5695   2.468   0.964   0.123
 1338SOL    HW1 5696   2.475   1.048   0.069
 1338SOL    HW2 5697   2.514   0.977   0.211
 1339SOL     OW 5698   1.984   0.643   0.563
 1339SOL    HW1 5699   1.939   0.555   0.580
 1339SOL    HW2 5700   1.983   0.697   0.647
 1340SOL     OW 5701   3.704   1.767   0.359
 1340SOL    HW1 5702   3.758   1.738   0.439
 1340SOL    HW2 5703   3.734   1.857   0.330
 1341SOL     OW 5704   1.889   1.596   0.117
 1341SOL    HW1 5705   1.870   1.500   0.138
 1341SOL    HW2 5706   1.856   1.654   0.192
 1342SOL     OW 5707   3.551   0.922   0.612
 1342SOL    HW1 5708   3.646   0.893   0.620
 1342SOL    HW2 5709   3.543   0.987   0.537
 1343SOL     OW 5710   1.975   0.737   1.597
 1343SOL    HW1 5711   2.063   0.724   1.642
 1343SOL    HW2 5712   1.962   0.834   1.575
 1344SOL     OW 5713   2.475   1.365   0.726
 1344SOL    HW1 5714   2.426   1.278   0.735
 1344SOL    HW2 5715   2.452   1.408   0.639
 1345SOL     OW 5716   3.155   1.228   1.423
 1345SOL    HW1 5717   3.192   1.155   1.365
 1345SOL    HW2 5718   3.207   1.233   1.508
 1346SOL     OW 5719   2.671   0.004   0.502
 1346SOL    HW1 5720   2.711   0.095   0.493
 1346SOL    HW2 5721   2.571   0.012   0.508
 1347SOL     OW 5722   2.059   0.976   1.264
 1347SOL    HW1 5723   2.148   0.931   1.250
 1347SOL    HW2 5724   1.986   0.911   1.245
 1348SOL     OW 5725   3.049   1.792   1.616
 1348SOL    HW1 5726   3.073   1.852   1.540
 1348SOL    HW2 5727   3.056   1.697   1.586
 1349SOL     OW 5728   3.328   1.417   0.953
 1349SOL    HW1 5729   3.269   1.423   1.033
 1349SOL    HW2 5730   3.313   1.329   0.907
 1350SOL     OW 5731   2.460   0.729   0.270
 1350SOL    HW1 5732   2.484   0.798   0.202
 1350SOL    HW2 5733   2.382   0.762   0.324
 1351SOL     OW 5734   3.143   0.345   0.944
 1351SOL    HW1 5735   3.057   0.295   0.931
 1351SOL    HW2 5736   3.205   0.291   1.000
 1352SOL     OW 5737   3.438   1.662   0.307
 1352SOL    HW1 5738   3.527   1.708   0.310
 1352SOL    HW2 5739   3.417   1.638   0.212
 1353SOL     OW 5740   2.669   0.605   1.465
 1353SOL    HW1 5741   2.622   0.602   1.554
 1353SOL    HW2 5742   2.618   0.550   1.399
 1354SOL     OW 5743   3.256   0.469   1.674
 1354SOL    HW1 5744   3.236   0.512   1.762
 1354SOL    HW2 5745   3.334   0.407   1.683
 1355SOL     OW 5746   2.835   0.890   1.572
 1355SOL    HW1 5747   2.881   0.806   1.543
 1355SOL    HW2 5748   2.779   0.924   1.497
 1356SOL     OW 5749   2.853   0.410   1.242
 1356SOL    HW1 5750   2.776   0.444   1.296
 1356SOL    HW2 5751   2.819   0.359   1.163
 1357SOL     OW 5752   2.903   0.701   0.429
 1357SOL    HW1 5753   2.929   0.697   0.525
 1357SOL    HW2 5754   2.818   0.650   0.415
 1358SOL     OW 5755   1.938   0.811   0.789
 1358SOL    HW1 5756   2.037   0.799   0.798
 1358SOL    HW2 5757   1.914   0.906   0.810
 1359SOL     OW 5758   1.992   1.821   1.571
 1359SOL    HW1 5759   1.982   1.806   1.670
 1359SOL    HW2 5760   1.906   1.857   1.535
 1360SOL     OW 5761   2.727   0.348   0.195
 1360SOL    HW1 5762   2.786   0.411   0.146
 1360SOL    HW2 5763   2.746   0.254   0.166
 1361SOL     OW 5764   3.581   0.585   1.831
 1361SOL    HW1 5765   3.555   0.674   1.795
 1361SOL    HW2 5766   3.579   0.517   1.758
 1362SOL     OW 5767   2.412   0.196   0.885
 1362SOL    HW1 5768   2.407   0.191   0.985
 1362SOL    HW2 5769   2.414   0.292   0.856
 1363SOL     OW 5770   2.870   1.456   0.477
 1363SOL    HW1 5771   2.824   1.528   0.425
 1363SOL    HW2 5772   2.866   1.476   0.575
 1364SOL     OW 5773   3.089   1.550   1.506
 1364SOL    HW1 5774   3.095   1.473   1.570
 1364SOL    HW2 5775   3.037   1.524   1.426
 1365SOL     OW 5776   2.183   0.943   0.242
 1365SOL    HW1 5777   2.265   0.982   0.200
 1365SOL    HW2 5778   2.156   0.861   0.193
 1366SOL     OW 5779   2.323   1.266   1.727
 1366SOL    HW1 5780   2.273   1.267   1.641
 1366SOL    HW2 5781   2.260   1.248   1.803
 1367SOL     OW 5782   2.973   1.776   0.237
 1367SOL    HW1 5783   2.913   1.714   0.287
 1367SOL    HW2 5784   3.004   1.732   0.152
 1368SOL     OW 5785   3.494   1.377   0.081
 1368SOL    HW1 5786   3.462   1.471   0.071
 1368SOL    HW2 5787   3.418   1.314   0.069
 1369SOL     OW 5788   2.326   1.743   0.323
 1369SOL    HW1 5789   2.359   1.782   0.409
 1369SOL    HW2 5790   2.402   1.736   0.258
 1370SOL     OW 5791   3.262   0.107   0.426
 1370SOL    HW1 5792   3.238   0.070   0.336
 1370SOL    HW2 5793   3.361   0.123   0.430
 1371SOL     OW 5794   2.802   1.698   0.904
 1371SOL    HW1 5795   2.882   1.641   0.925
 1371SOL    HW2 5796   2.753   1.658   0.827
 1372SOL     OW 5797   2.244   0.700   0.480
 1372SOL    HW1 5798   2.289   0.610   0.477
 1372SOL    HW2 5799   2.150   0.689   0.513
 1373SOL     OW 5800   3.409   0.222   1.729
 1373SOL    HW1 5801   3.404   0.259   1.821
 1373SOL    HW2 5802   3.337   0.153   1.717
 1374SOL     OW 5803   2.476   0.122   0.117
 1374SOL    HW1 5804   2.574   0.100   0.124
 1374SOL    HW2 5805   2.445   0.105   0.024
 1375SOL     OW 5806   2.750   1.514   1.195
 1375SOL    HW1 5807   2.727   1.489   1.101
 1375SOL    HW2 5808   2.811   1.445   1.234
 1376SOL     OW 5809   3.213   0.590   1.433
 1376SOL    HW1 5810   3.241   0.547   1.518
 1376SOL    HW2 5811   3.238   0.686   1.434
 1377SOL     OW 5812   2.665   1.402   0.924
 1377SOL    HW1 5813   2.755   1.416   0.882
 1377SOL    HW2 5814   2.594   1.404   0.853
 1378SOL     OW 5815   2.784   0.503   0.899
 1378SOL    HW1 5816   2.759   0.494   0.803
 1378SOL    HW2 5817   2.832   0.421   0.930
 1379SOL     OW 5818   2.401   0.064   0.512
 1379SOL    HW1 5819   2.320   0.065   0.570
 1379SOL    HW2 5820   2.404   0.147   0.457
 1380SOL     OW 5821   3.296   1.188   0.041
 1380SOL    HW1 5822   3.328   1.112   0.098
 1380SOL    HW2 5823   3.204   1.215   0.071
 1381SOL     OW 5824   2.159   0.035   0.171
 1381SOL    HW1 5825   2.208   0.119   0.150
 1381SOL    HW2 5826   2.221  -0.030   0.216
 1382SOL     OW 5827   2.797   0.236   0.480
 1382SOL    HW1 5828   2.749   0.277   0.402
 1382SOL    HW2 5829   2.896   0.234   0.461
 1383SOL     OW 5830   2.938   0.683   1.464
 1383SOL    HW1 5831   2.858   0.622   1.467
 1383SOL    HW2 5832   3.019   0.630   1.440
 1384SOL     OW 5833   3.089   1.570   0.793
 1384SOL    HW1 5834   3.110   1.644   0.728
 1384SOL    HW2 5835   3.157   1.570   0.866
 1385SOL     OW 5836   2.321   1.152   0.741
 1385SOL    HW1 5837   2.250   1.125   0.806
 1385SOL    HW2 5838   2.295   1.124   0.648
 1386SOL     OW 5839   3.133   1.797   0.591
 1386SOL    HW1 5840   3.177   1.861   0.527
 1386SOL    HW2 5841   3.083   1.849   0.661
 1387SOL     OW 5842   1.940   0.556   1.386
 1387SOL    HW1 5843   2.032   0.555   1.345
 1387SOL    HW2 5844   1.934   0.630   1.453
 1388SOL     OW 5845   2.423   0.222   1.147
 1388SOL    HW1 5846   2.461   0.138   1.184
 1388SOL    HW2 5847   2.335   0.241   1.191
 1389SOL     OW 5848   2.728   0.454   0.642
 1389SOL    HW1 5849   2.696   0.526   0.580
 1389SOL    HW2 5850   2.752   0.373   0.589
 1390SOL     OW 5851   2.879   0.039   0.753
 1390SOL    HW1 5852   2.807   0.044   0.684
 1390SOL    HW2 5853   2.855  -0.030   0.822
 1391SOL     OW 5854   3.328   0.590   0.992
 1391SOL    HW1 5855   3.298   0.495   0.999
 1391SOL    HW2 5856   3.401   0.606   1.058
 1392SOL     OW 5857   3.719   0.833   0.377
 1392SOL    HW1 5858   3.761   0.769   0.441
 1392SOL    HW2 5859   3.681   0.782   0.299
 1393SOL     OW 5860   2.350   1.385   0.174
 1393SOL    HW1 5861   2.263   1.370   0.221
 1393SOL    HW2 5862   2.333   1.411   0.079
 1394SOL     OW 5863   3.526   1.280   0.657
 1394SOL    HW1 5864   3.625   1.288   0.671
 1394SOL    HW2 5865   3.481   1.364   0.688
 1395SOL     OW 5866   3.252   0.575   0.078
 1395SOL    HW1 5867   3.198   0.554   0.159
 1395SOL    HW2 5868   3.343   0.534   0.087
 1396SOL     OW 5869   2.389   0.256   0.328
 1396SOL    HW1 5870   2.416   0.197   0.253
 1396SOL    HW2 5871   2.389   0.351   0.297
 1397SOL     OW 5872   3.616   1.223   1.588
 1397SOL    HW1 5873   3.707   1.184   1.575
 1397SOL    HW2 5874   3.624   1.319   1.612
 1398SOL     OW 5875   2.926   1.347   1.340
 1398SOL    HW1 5876   2.846   1.324   1.395
 1398SOL    HW2 5877   3.009   1.321   1.389
 1399SOL     OW 5878   3.454   1.629   1.625
 1399SOL    HW1 5879   3.481   1.663   1.535
 1399SOL    HW2 5880   3.533   1.591   1.671
 1400SOL     OW 5881   2.973   1.195   1.100
 1400SOL    HW1 5882   2.933   1.239   1.181
 1400SOL    HW2 5883   2.932   1.232   1.017
 1401SOL     OW 5884   3.500   1.099   1.079
 1401SOL    HW1 5885   3.505   1.180   1.138
 1401SOL    HW2 5886   3.414   1.101   1.028
 1402SOL     OW 5887   2.777   0.089   1.402
 1402SOL    HW1 5888   2.802   0.069   1.307
 1402SOL    HW2 5889   2.849   0.145   1.444
 1403SOL     OW 5890   2.842   1.116   1.719
 1403SOL    HW1 5891   2.743   1.122   1.729
 1403SOL    HW2 5892   2.865   1.036   1.663
 1404SOL     OW 5893   2.567   1.050   0.368
 1404SOL    HW1 5894   2.553   1.057   0.467
 1404SOL    HW2 5895   2.651   0.999   0.350
 1405SOL     OW 5896   2.272   0.813   1.251
 1405SOL    HW1 5897   2.358   0.825   1.301
 1405SOL    HW2 5898   2.230   0.726   1.278
 1406SOL     OW 5899   3.136   0.386   1.262
 1406SOL    HW1 5900   3.157   0.460   1.326
 1406SOL    HW2 5901   3.047   0.403   1.219
 1407SOL     OW 5902   1.926   1.564   1.331
 1407SOL    HW1 5903   1.880   1.646   1.297
 1407SOL    HW2 5904   2.024   1.583   1.340
 1408SOL     OW 5905   2.229   1.100   0.501
 1408SOL    HW1 5906   2.222   1.183   0.445
 1408SOL    HW2 5907   2.233   1.020   0.441
 1409SOL     OW 5908   2.428   0.537   0.865
 1409SOL    HW1 5909   2.440   0.603   0.791
 1409SOL    HW2 5910   2.474   0.571   0.948
 1410SOL     OW 5911   3.114   1.348   0.388
 1410SOL    HW1 5912   3.164   1.425   0.428
 1410SOL    HW2 5913   3.019   1.350   0.420
 1411SOL     OW 5914   3.134   1.445   1.142
 1411SOL    HW1 5915   3.181   1.458   1.229
 1411SOL    HW2 5916   3.068   1.371   1.151
 1412SOL     OW 5917   2.216   1.510   1.329
 1412SOL    HW1 5918   2.195   1.466   1.242
 1412SOL    HW2 5919   2.313   1.536   1.332
 1413SOL     OW 5920   2.264   0.751   1.598
 1413SOL    HW1 5921   2.332   0.806   1.551
 1413SOL    HW2 5922   2.304   0.663   1.625
 1414SOL     OW 5923   3.449   0.779   1.670
 1414SOL    HW1 5924   3.357   0.817   1.665
 1414SOL    HW2 5925   3.509   0.826   1.605
 1415SOL     OW 5926   2.435   0.870   1.029
 1415SOL    HW1 5927   2.479   0.959   1.020
 1415SOL    HW2 5928   2.372   0.870   1.106
 1416SOL     OW 5929   3.222   0.862   1.045
 1416SOL    HW1 5930   3.147   0.862   0.979
 1416SOL    HW2 5931   3.259   0.770   1.054
 1417SOL     OW 5932   3.071   0.525   0.275
 1417SOL    HW1 5933   3.084   0.441   0.329
 1417SOL    HW2 5934   3.042   0.599   0.335
 1418SOL     OW 5935   2.169   0.213   1.231
 1418SOL    HW1 5936   2.146   0.250   1.321
 1418SOL    HW2 5937   2.139   0.118   1.225
 1419SOL     OW 5938   1.899   1.310   1.282
 1419SOL    HW1 5939   1.952   1.261   1.350
 1419SOL    HW2 5940   1.921   1.408   1.287
 1420SOL     OW 5941   2.594   0.634   1.064
 1420SOL    HW1 5942   2.653   0.608   0.988
 1420SOL    HW2 5943   2.566   0.730   1.053
 1421SOL     OW 5944   3.590   0.935   1.854
 1421SOL    HW1 5945   3.544   0.928   1.765
 1421SOL    HW2 5946   3.528   0.979   1.920
 1422SOL     OW 5947   2.169   0.063   0.618
 1422SOL    HW1 5948   2.158   0.157   0.651
 1422SOL    HW2 5949   2.164   0.000   0.695
 1423SOL     OW 5950   3.484   0.367   0.374
 1423SOL    HW1 5951   3.486   0.291   0.438
 1423SOL    HW2 5952   3.436   0.444   0.414
 1424SOL     OW 5953   2.885   0.766   0.966
 1424SOL    HW1 5954   2.900   0.787   1.062
 1424SOL    HW2 5955   2.855   0.671   0.957
 1425SOL     OW 5956   2.842   1.573   1.700
 1425SOL    HW1 5957   2.822   1.617   1.612
 1425SOL    HW2 5958   2.881   1.482   1.684
 1426SOL     OW 5959   3.721   1.518   1.605
 1426SOL    HW1 5960   3.735   1.545   1.510
 1426SOL    HW2 5961   3.804   1.540   1.658
 1427SOL     OW 5962   2.212   0.898   1.804
 1427SOL    HW1 5963   2.288   0.942   1.852
 1427SOL    HW2 5964   2.247   0.851   1.722
 1428SOL     OW 5965   3.402   0.274   0.125
 1428SOL    HW1 5966   3.341   0.199   0.148
 1428SOL    HW2 5967   3.424   0.326   0.208
 1429SOL     OW 5968   3.165   0.838   0.042
 1429SOL    HW1 5969   3.199   0.745   0.057
 1429SOL    HW2 5970   3.183   0.865  -0.053
 1430SOL     OW 5971   2.930   1.333   0.849
 1430SOL    HW1 5972   2.937   1.249   0.794
 1430SOL    HW2 5973   2.992   1.402   0.813
 1431SOL     OW 5974   2.181   0.810   0.949
 1431SOL    HW1 5975   2.274   0.846   0.954
 1431SOL    HW2 5976   2.175   0.725   1.001
 1432SOL     OW 5977   2.201   0.509   1.006
 1432SOL    HW1 5978   2.149   0.426   0.989
 1432SOL    HW2 5979   2.278   0.514   0.942
 1433SOL     OW 5980   3.000   0.380   1.678
 1433SOL    HW1 5981   2.955   0.443   1.742
 1433SOL    HW2 5982   3.093   0.411   1.661
 1434SOL     OW 5983   3.022   0.207   1.477
 1434SOL    HW1 5984   3.022   0.271   1.554
 1434SOL    HW2 5985   3.050   0.255   1.394
 1435SOL     OW 5986   2.366   1.568   0.910
 1435SOL    HW1 5987   2.432   1.642   0.919
 1435SOL    HW2 5988   2.410   1.489   0.868
 1436SOL     OW 5989   2.864   0.796   1.238
 1436SOL    HW1 5990   2.905   0.764   1.324
 1436SOL    HW2 5991   2.768   0.769   1.235
 1437SOL     OW 5992   1.902   0.544   1.114
 1437SOL    HW1 5993   1.987   0.511   1.073
 1437SOL    HW2 5994   1.915   0.559   1.212
 1438SOL     OW 5995   2.051   0.520   1.722
 1438SOL    HW1 5996   2.110   0.480   1.652
 1438SOL    HW2 5997   1.993   0.591   1.681
 1439SOL     OW 5998   3.231   0.950   1.660
 1439SOL    HW1 5999   3.270   1.039   1.680
 1439SOL    HW2 6000   3.241   0.930   1.563
 1440SOL     OW 6001   2.677   0.572   0.325
 1440SOL    HW1 6002   2.684   0.483   0.279
 1440SOL    HW2 6003   2.583   0.606   0.317
 1441SOL     OW 6004   3.519   0.604   1.206
 1441SOL    HW1 6005   3.481   0.535   1.268
 1441SOL    HW2 6006   3.601   0.568   1.162
 1442SOL     OW 6007   2.114   1.564   1.744
 1442SOL    HW1 6008   2.084   1.621   1.820
 1442SOL    HW2 6009   2.107   1.467   1.770
 1443SOL     OW 6010   2.533   0.464   1.269
 1443SOL    HW1 6011   2.499   0.375   1.239
 1443SOL    HW2 6012   2.559   0.518   1.189
 1444SOL     OW 6013   2.792   1.678   1.465
 1444SOL    HW1 6014   2.768   1.660   1.370
 1444SOL    HW2 6015   2.822   1.772   1.475
 1445SOL     OW 6016   2.335   0.500   0.191
 1445SOL    HW1 6017   2.396   0.580   0.195
 1445SOL    HW2 6018   2.240   0.531   0.198
 1446SOL     OW 6019   2.021   1.137   1.466
 1446SOL    HW1 6020   2.043   1.076   1.542
 1446SOL    HW2 6021   2.031   1.088   1.380
 1447SOL     OW 6022   3.209   1.059   1.234
 1447SOL    HW1 6023   3.233   0.996   1.160
 1447SOL    HW2 6024   3.119   1.099   1.216
 1448SOL     OW 6025   3.164   0.855   0.309
 1448SOL    HW1 6026   3.078   0.824   0.351
 1448SOL    HW2 6027   3.160   0.841   0.210
 1449SOL     OW 6028   3.621   1.747   1.154
 1449SOL    HW1 6029   3.682   1.777   1.081
 1449SOL    HW2 6030   3.583   1.658   1.132
 1450SOL     OW 6031   3.114   1.731   1.128
 1450SOL    HW1 6032   3.198   1.736   1.074
 1450SOL    HW2 6033   3.091   1.635   1.146
 1451SOL     OW 6034   1.945   1.258   1.022
 1451SOL    HW1 6035   1.940   1.257   1.122
 1451SOL    HW2 6036   1.862   1.217   0.984
 1452SOL     OW 6037   2.550   1.662   1.716
 1452SOL    HW1 6038   2.494   1.743   1.725
 1452SOL    HW2 6039   2.602   1.666   1.630
 1453SOL     OW 6040   2.765   0.086   0.133
 1453SOL    HW1 6041   2.816   0.087   0.047
 1453SOL    HW2 6042   2.821   0.044   0.204
 1454SOL     OW 6043   3.588   0.135   0.523
 1454SOL    HW1 6044   3.661   0.118   0.456
 1454SOL    HW2 6045   3.557   0.048   0.561
 1455SOL     OW 6046   3.250   1.573   0.477
 1455SOL    HW1 6047   3.317   1.585   0.403
 1455SOL    HW2 6048   3.210   1.662   0.500
 1456SOL     OW 6049   1.992   1.794   1.851
 1456SOL    HW1 6050   1.951   1.720   1.904
 1456SOL    HW2 6051   2.056   1.845   1.909
 1457SOL     OW 6052   2.692   1.273   1.422
 1457SOL    HW1 6053   2.687   1.306   1.517
 1457SOL    HW2 6054   2.606   1.292   1.376
 1458SOL     OW 6055   2.534   1.616   0.154
 1458SOL    HW1 6056   2.543   1.626   0.055
 1458SOL    HW2 6057   2.494   1.527   0.175
 1459SOL     OW 6058   3.512   1.720   1.394
 1459SOL    HW1 6059   3.565   1.730   1.310
 1459SOL    HW2 6060   3.485   1.810   1.428
 1460SOL     OW 6061   2.125   0.326   0.720
 1460SOL    HW1 6062   2.046   0.377   0.686
 1460SOL    HW2 6063   2.116   0.311   0.818
 1461SOL     OW 6064   3.056   1.612   0.031
 1461SOL    HW1 6065   3.062   1.519   0.068
 1461SOL    HW2 6066   2.997   1.612  -0.049
 1462SOL     OW 6067   2.684   1.002   1.372
 1462SOL    HW1 6068   2.724   1.001   1.280
 1462SOL    HW2 6069   2.694   1.094   1.412
 1463SOL     OW 6070   2.778   0.910   0.291
 1463SOL    HW1 6071   2.841   0.948   0.223
 1463SOL    HW2 6072   2.818   0.827   0.330
 1464SOL     OW 6073   3.366   1.607   0.044
 1464SOL    HW1 6074   3.274   1.644   0.051
 1464SOL    HW2 6075   3.404   1.627  -0.046
 1465SOL     OW 6076   2.234   1.288   1.490
 1465SOL    HW1 6077   2.221   1.381   1.456
 1465SOL    HW2 6078   2.150   1.236   1.477
 1466SOL     OW 6079   3.476   1.292   1.289
 1466SOL    HW1 6080   3.536   1.295   1.369
 1466SOL    HW2 6081   3.401   1.356   1.302
 1467SOL     OW 6082   2.901   1.098   0.696
 1467SOL    HW1 6083   2.831   1.051   0.750
 1467SOL    HW2 6084   2.960   1.030   0.653
 1468SOL     OW 6085   2.876   0.236   0.971
 1468SOL    HW1 6086   2.868   0.200   0.878
 1468SOL    HW2 6087   2.874   0.160   1.036
 1469SOL     OW 6088   2.452   1.487   0.491
 1469SOL    HW1 6089   2.494   1.429   0.421
 1469SOL    HW2 6090   2.408   1.566   0.447
 1470SOL     OW 6091   3.571   0.385   1.381
 1470SOL    HW1 6092   3.644   0.454   1.385
 1470SOL    HW2 6093   3.599   0.310   1.322
 1471SOL     OW 6094   2.117   1.348   0.290
 1471SOL    HW1 6095   2.021   1.349   0.263
 1471SOL    HW2 6096   2.129   1.401   0.374
 1472SOL     OW 6097   1.967   1.013   1.726
 1472SOL    HW1 6098   1.890   0.980   1.780
 1472SOL    HW2 6099   2.052   0.983   1.768
 1473SOL     OW 6100   3.302   0.856   1.398
 1473SOL    HW1 6101   3.245   0.908   1.335
 1473SOL    HW2 6102   3.398   0.868   1.374
 1474SOL     OW 6103   1.934   0.166   0.318
 1474SOL    HW1 6104   1.917   0.249   0.264
 1474SOL    HW2 6105   2.024   0.129   0.296
 1475SOL     OW 6106   3.045   1.335   0.119
 1475SOL    HW1 6107   2.946   1.324   0.121
 1475SOL    HW2 6108   3.079   1.350   0.212
 1476SOL     OW 6109   2.475   0.842   1.431
 1476SOL    HW1 6110   2.531   0.923   1.414
 1476SOL    HW2 6111   2.534   0.762   1.434
 1477SOL     OW 6112   3.355   1.767   0.959
 1477SOL    HW1 6113   3.388   1.831   0.890
 1477SOL    HW2 6114   3.421   1.761   1.034
 1478SOL     OW 6115   2.578   0.565   1.708
 1478SOL    HW1 6116   2.597   0.630   1.782
 1478SOL    HW2 6117   2.638   0.485   1.717
 1479SOL     OW 6118   3.312   1.220   1.633
 1479SOL    HW1 6119   3.303   1.210   1.732
 1479SOL    HW2 6120   3.408   1.213   1.607
 1480SOL     OW 6121   2.252   1.741   1.560
 1480SOL    HW1 6122   2.161   1.782   1.558
 1480SOL    HW2 6123   2.245   1.647   1.592
 1481SOL     OW 6124   3.536   0.883   1.254
 1481SOL    HW1 6125   3.509   0.794   1.217
 1481SOL    HW2 6126   3.537   0.951   1.181
 1482SOL     OW 6127   3.087   0.325   0.449
 1482SOL    HW1 6128   3.152   0.251   0.438
 1482SOL    HW2 6129   3.107   0.375   0.533
 1483SOL     OW 6130   2.456   0.745   0.652
 1483SOL    HW1 6131   2.506   0.830   0.633
 1483SOL    HW2 6132   2.368   0.747   0.604
 1484SOL     OW 6133   3.639   0.342   1.642
 1484SOL    HW1 6134   3.622   0.373   1.548
 1484SOL    HW2 6135   3.555   0.305   1.680
 1485SOL     OW 6136   3.592   0.934   1.517
 1485SOL    HW1 6137   3.630   1.025   1.532
 1485SOL    HW2 6138   3.584   0.917   1.418
 1486SOL     OW 6139   2.721   1.374   0.016
 1486SOL    HW1 6140   2.675   1.389   0.104
 1486SOL    HW2 6141   2.765   1.459  -0.014
 1487SOL     OW 6142   2.523   1.790   0.953
 1487SOL    HW1 6143   2.477   1.878   0.940
 1487SOL    HW2 6144   2.622   1.802   0.946
 1488SOL     OW 6145   2.721   0.956   0.861
 1488SOL    HW1 6146   2.775   0.887   0.909
 1488SOL    HW2 6147   2.689   1.025   0.927
 1489SOL     OW 6148   2.945   0.984   0.087
 1489SOL    HW1 6149   2.922   1.037   0.005
 1489SOL    HW2 6150   3.026   0.928   0.068
 1490SOL     OW 6151   3.723   1.569   0.851
 1490SOL    HW1 6152   3.652   1.557   0.781
 1490SOL    HW2 6153   3.724   1.490   0.911
 1491SOL     OW 6154   2.083   1.314   1.844
 1491SOL    HW1 6155   2.018   1.241   1.823
 1491SOL    HW2 6156   2.087   1.328   1.942
 1492SOL     OW 6157   1.941   1.240   0.653
 1492SOL    HW1 6158   1.940   1.193   0.741
 1492SOL    HW2 6159   2.023   1.212   0.602
 1493SOL     OW 6160   2.534   1.391   1.624
 1493SOL    HW1 6161   2.456   1.341   1.662
 1493SOL    HW2 6162   2.531   1.486   1.655
 1494SOL     OW 6163   2.290   0.424   0.520
 1494SOL    HW1 6164   2.320   0.352   0.458
 1494SOL    HW2 6165   2.251   0.384   0.603
 1495SOL     OW 6166   3.567   1.487   1.104
 1495SOL    HW1 6167   3.474   1.462   1.077
 1495SOL    HW2 6168   3.593   1.437   1.186
 1496SOL     OW 6169   2.179   0.547   1.280
 1496SOL    HW1 6170   2.217   0.488   1.352
 1496SOL    HW2 6171   2.219   0.521   1.192
 1497SOL     OW 6172   2.674   1.586   0.687
 1497SOL    HW1 6173   2.706   1.596   0.593
 1497SOL    HW2 6174   2.595   1.524   0.689
 1498SOL     OW 6175   3.286   0.214   1.112
 1498SOL    HW1 6176   3.338   0.149   1.167
 1498SOL    HW2 6177   3.237   0.277   1.173
 1499SOL     OW 6178   2.863   0.034   1.154
 1499SOL    HW1 6179   2.800  -0.038   1.123
 1499SOL    HW2 6180   2.956  -0.002   1.154
 1500SOL     OW 6181   2.632   1.330   0.301
 1500SOL    HW1 6182   2.586   1.243   0.318
 1500SOL    HW2 6183   2.723   1.327   0.342
 1501SOL     OW 6184   2.480   1.567   1.284
 1501SOL    HW1 6185   2.475   1.649   1.341
 1501SOL    HW2 6186   2.569   1.564   1.239
 1502SOL     OW 6187   3.214   0.052   0.168
 1502SOL    HW1 6188   3.249   0.011   0.084
 1502SOL    HW2 6189   3.124   0.014   0.188
 1503SOL     OW 6190   3.162   0.453   0.691
 1503SOL    HW1 6191   3.103   0.533   0.695
 1503SOL    HW2 6192   3.177   0.418   0.784
 1504SOL     OW 6193   3.455   0.221   0.882
 1504SOL    HW1 6194   3.371   0.220   0.936
 1504SOL    HW2 6195   3.457   0.304   0.826
 1505SOL     OW 6196   1.901   1.077   0.300
 1505SOL    HW1 6197   2.000   1.066   0.291
 1505SOL    HW2 6198   1.861   0.991   0.332
 1506SOL     OW 6199   2.737   1.646   0.337
 1506SOL    HW1 6200   2.660   1.611   0.283
 1506SOL    HW2 6201   2.705   1.717   0.399
 1507SOL     OW 6202   2.092   0.628   1.975
 1507SOL    HW1 6203   1.999   0.626   2.012
 1507SOL    HW2 6204   2.093   0.589   1.883
 1508SOL     OW 6205   2.087   0.275   2.858
 1508SOL    HW1 6206   2.122   0.258   2.950
 1508SOL    HW2 6207   1.999   0.230   2.846
 1509SOL     OW 6208   1.881   0.368   2.509
 1509SOL    HW1 6209   1.799   0.411   2.548
 1509SOL    HW2 6210   1.853   0.295   2.446
 1510SOL     OW 6211   2.431   1.275   3.027
 1510SOL    HW1 6212   2.338   1.268   2.990
 1510SOL    HW2 6213   2.442   1.364   3.071
 1511SOL     OW 6214   3.417   1.511   2.565
 1511SOL    HW1 6215   3.360   1.495   2.646
 1511SOL    HW2 6216   3.358   1.521   2.485
 1512SOL     OW 6217   2.997   0.703   2.579
 1512SOL    HW1 6218   3.054   0.781   2.554
 1512SOL    HW2 6219   2.937   0.729   2.655
 1513SOL     OW 6220   3.617   0.607   2.093
 1513SOL    HW1 6221   3.605   0.594   1.994
 1513SOL    HW2 6222   3.587   0.526   2.142
 1514SOL     OW 6223   2.712   0.798   3.685
 1514SOL    HW1 6224   2.708   0.874   3.750
 1514SOL    HW2 6225   2.734   0.834   3.594
 1515SOL     OW 6226   2.548   1.161   3.665
 1515SOL    HW1 6227   2.608   1.240   3.679
 1515SOL    HW2 6228   2.462   1.192   3.624
 1516SOL     OW 6229   2.197   1.435   2.923
 1516SOL    HW1 6230   2.119   1.404   2.870
 1516SOL    HW2 6231   2.255   1.493   2.866
 1517SOL     OW 6232   3.322   1.505   3.201
 1517SOL    HW1 6233   3.346   1.599   3.227
 1517SOL    HW2 6234   3.306   1.451   3.283
 1518SOL     OW 6235   2.300   0.392   3.361
 1518SOL    HW1 6236   2.382   0.336   3.370
 1518SOL    HW2 6237   2.219   0.334   3.365
 1519SOL     OW 6238   3.465   0.447   2.599
 1519SOL    HW1 6239   3.391   0.493   2.549
 1519SOL    HW2 6240   3.516   0.515   2.652
 1520SOL     OW 6241   2.989   1.341   3.552
 1520SOL    HW1 6242   3.036   1.341   3.640
 1520SOL    HW2 6243   2.941   1.254   3.541
 1521SOL     OW 6244   2.092   1.434   2.400
 1521SOL    HW1 6245   2.066   1.530   2.400
 1521SOL    HW2 6246   2.021   1.380   2.445
 1522SOL     OW 6247   2.102   1.091   2.748
 1522SOL    HW1 6248   2.116   1.007   2.800
 1522SOL    HW2 6249   2.047   1.155   2.803
 1523SOL     OW 6250   2.482   1.786   3.301
 1523SOL    HW1 6251   2.390   1.769   3.336
 1523SOL    HW2 6252   2.510   1.878   3.327
 1524SOL     OW 6253   2.468   0.964   1.985
 1524SOL    HW1 6254   2.475   1.048   1.931
 1524SOL    HW2 6255   2.514   0.977   2.073
 1525SOL     OW 6256   3.456   0.114   3.342
 1525SOL    HW1 6257   3.438   0.181   3.270
 1525SOL    HW2 6258   3.453   0.160   3.431
 1526SOL     OW 6259   1.984   0.643   2.425
 1526SOL    HW1 6260   1.939   0.555   2.442
 1526SOL    HW2 6261   1.983   0.697   2.509
 1527SOL     OW 6262   3.704   1.767   2.221
 1527SOL    HW1 6263   3.758   1.738   2.301
 1527SOL    HW2 6264   3.734   1.857   2.192
 1528SOL     OW 6265   1.889   1.596   1.979
 1528SOL    HW1 6266   1.870   1.500   2.000
 1528SOL    HW2 6267   1.856   1.654   2.054
 1529SOL     OW 6268   3.551   0.922   2.474
 1529SOL    HW1 6269   3.646   0.893   2.482
 1529SOL    HW2 6270   3.543   0.987   2.399
 1530SOL     OW 6271   3.503   1.108   2.294
 1530SOL    HW1 6272   3.589   1.110   2.242
 1530SOL    HW2 6273   3.517   1.155   2.382
 1531SOL     OW 6274   1.975   0.737   3.459
 1531SOL    HW1 6275   2.063   0.724   3.504
 1531SOL    HW2 6276   1.962   0.834   3.437
 1532SOL     OW 6277   2.475   1.365   2.588
 1532SOL    HW1 6278   2.426   1.278   2.597
 1532SOL    HW2 6279   2.452   1.408   2.501
 1533SOL     OW 6280   2.059   0.976   3.126
 1533SOL    HW1 6281   2.148   0.931   3.112
 1533SOL    HW2 6282   1.986   0.911   3.107
 1534SOL     OW 6283   3.387   0.999   2.052
 1534SOL    HW1 6284   3.324   0.923   2.065
 1534SOL    HW2 6285   3.435   1.017   2.138
 1535SOL     OW 6286   3.049   1.792   3.478
 1535SOL    HW1 6287   3.073   1.852   3.402
 1535SOL    HW2 6288   3.056   1.697   3.448
 1536SOL     OW 6289   2.179   0.251   3.663
 1536SOL    HW1 6290   2.250   0.322   3.669
 1536SOL    HW2 6291   2.091   0.290   3.691
 1537SOL     OW 6292   3.529   1.714   2.434
 1537SOL    HW1 6293   3.488   1.691   2.346
 1537SOL    HW2 6294   3.511   1.640   2.499
 1538SOL     OW 6295   2.460   0.729   2.132
 1538SOL    HW1 6296   2.484   0.798   2.064
 1538SOL    HW2 6297   2.382   0.762   2.186
 1539SOL     OW 6298   3.143   0.345   2.806
 1539SOL    HW1 6299   3.057   0.295   2.793
 1539SOL    HW2 6300   3.205   0.291   2.862
 1540SOL     OW 6301   3.438   1.662   2.169
 1540SOL    HW1 6302   3.527   1.708   2.172
 1540SOL    HW2 6303   3.417   1.638   2.074
 1541SOL     OW 6304   2.669   0.605   3.327
 1541SOL    HW1 6305   2.622   0.602   3.416
 1541SOL    HW2 6306   2.618   0.550   3.261
 1542SOL     OW 6307   3.256   0.469   3.536
 1542SOL    HW1 6308   3.236   0.512   3.624
 1542SOL    HW2 6309   3.334   0.407   3.545
 1543SOL     OW 6310   2.835   0.890   3.434
 1543SOL    HW1 6311   2.881   0.806   3.405
 1543SOL    HW2 6312   2.779   0.924   3.359
 1544SOL     OW 6313   2.853   0.410   3.104
 1544SOL    HW1 6314   2.776   0.444   3.158
 1544SOL    HW2 6315   2.819   0.359   3.025
 1545SOL     OW 6316   2.903   0.701   2.291
 1545SOL    HW1 6317   2.929   0.697   2.387
 1545SOL    HW2 6318   2.818   0.650   2.277
 1546SOL     OW 6319   1.938   0.811   2.651
 1546SOL    HW1 6320   2.037   0.799   2.660
 1546SOL    HW2 6321   1.914   0.906   2.672
 1547SOL     OW 6322   1.992   1.821   3.433
 1547SOL    HW1 6323   1.982   1.806   3.532
 1547SOL    HW2 6324   1.906   1.857   3.397
 1548SOL     OW 6325   2.727   0.348   2.057
 1548SOL    HW1 6326   2.786   0.411   2.008
 1548SOL    HW2 6327   2.746   0.254   2.028
 1549SOL     OW 6328   2.412   0.196   2.747
 1549SOL    HW1 6329   2.407   0.191   2.847
 1549SOL    HW2 6330   2.414   0.292   2.718
 1550SOL     OW 6331   3.657   1.066   2.735
 1550SOL    HW1 6332   3.595   1.051   2.659
 1550SOL    HW2 6333   3.605   1.077   2.820
 1551SOL     OW 6334   3.089   1.550   3.368
 1551SOL    HW1 6335   3.095   1.473   3.432
 1551SOL    HW2 6336   3.037   1.524   3.288
 1552SOL     OW 6337   2.183   0.943   2.104
 1552SOL    HW1 6338   2.265   0.982   2.062
 1552SOL    HW2 6339   2.156   0.861   2.055
 1553SOL     OW 6340   3.320   0.735   2.590
 1553SOL    HW1 6341   3.315   0.670   2.665
 1553SOL    HW2 6342   3.400   0.794   2.603
 1554SOL     OW 6343   2.323   1.266   3.589
 1554SOL    HW1 6344   2.273   1.267   3.503
 1554SOL    HW2 6345   2.260   1.248   3.665
 1555SOL     OW 6346   2.973   1.776   2.099
 1555SOL    HW1 6347   2.913   1.714   2.149
 1555SOL    HW2 6348   3.004   1.732   2.014
 1556SOL     OW 6349   2.064   0.285   3.360
 1556SOL    HW1 6350   1.984   0.345   3.347
 1556SOL    HW2 6351   2.054   0.236   3.446
 1557SOL     OW 6352   3.494   1.377   1.943
 1557SOL    HW1 6353   3.462   1.471   1.933
 1557SOL    HW2 6354   3.418   1.314   1.931
 1558SOL     OW 6355   2.326   1.743   2.185
 1558SOL    HW1 6356   2.359   1.782   2.271
 1558SOL    HW2 6357   2.402   1.736   2.120
 1559SOL     OW 6358   3.262   0.107   2.288
 1559SOL    HW1 6359   3.238   0.070   2.198
 1559SOL    HW2 6360   3.361   0.123   2.292
 1560SOL     OW 6361   2.111   1.785   3.103
 1560SOL    HW1 6362   2.168   1.720   3.153
 1560SOL    HW2 6363   2.095   1.752   3.010
 1561SOL     OW 6364   2.244   0.700   2.342
 1561SOL    HW1 6365   2.289   0.610   2.339
 1561SOL    HW2 6366   2.150   0.689   2.375
 1562SOL     OW 6367   3.409   0.222   3.591
 1562SOL    HW1 6368   3.404   0.259   3.683
 1562SOL    HW2 6369   3.337   0.153   3.579
 1563SOL     OW 6370   2.643   0.264   3.611
 1563SOL    HW1 6371   2.710   0.203   3.654
 1563SOL    HW2 6372   2.570   0.283   3.676
 1564SOL     OW 6373   2.665   1.402   2.786
 1564SOL    HW1 6374   2.755   1.416   2.744
 1564SOL    HW2 6375   2.594   1.404   2.715
 1565SOL     OW 6376   2.784   0.503   2.761
 1565SOL    HW1 6377   2.759   0.494   2.665
 1565SOL    HW2 6378   2.832   0.421   2.792
 1566SOL     OW 6379   3.296   1.188   1.903
 1566SOL    HW1 6380   3.328   1.112   1.960
 1566SOL    HW2 6381   3.204   1.215   1.933
 1567SOL     OW 6382   2.159   0.035   2.033
 1567SOL    HW1 6383   2.208   0.119   2.012
 1567SOL    HW2 6384   2.221  -0.030   2.078
 1568SOL     OW 6385   2.938   0.683   3.326
 1568SOL    HW1 6386   2.858   0.622   3.329
 1568SOL    HW2 6387   3.019   0.630   3.302
 1569SOL     OW 6388   2.321   1.152   2.603
 1569SOL    HW1 6389   2.250   1.125   2.668
 1569SOL    HW2 6390   2.295   1.124   2.510
 1570SOL     OW 6391   2.894   0.549   1.878
 1570SOL    HW1 6392   2.853   0.631   1.839
 1570SOL    HW2 6393   2.958   0.575   1.951
 1571SOL     OW 6394   1.940   0.556   3.248
 1571SOL    HW1 6395   2.032   0.555   3.207
 1571SOL    HW2 6396   1.934   0.630   3.315
 1572SOL     OW 6397   2.423   0.222   3.009
 1572SOL    HW1 6398   2.461   0.138   3.046
 1572SOL    HW2 6399   2.335   0.241   3.053
 1573SOL     OW 6400   2.728   0.454   2.504
 1573SOL    HW1 6401   2.696   0.526   2.442
 1573SOL    HW2 6402   2.752   0.373   2.451
 1574SOL     OW 6403   2.879   0.039   2.615
 1574SOL    HW1 6404   2.807   0.044   2.546
 1574SOL    HW2 6405   2.855  -0.030   2.684
 1575SOL     OW 6406   3.291   1.173   2.729
 1575SOL    HW1 6407   3.236   1.089   2.722
 1575SOL    HW2 6408   3.317   1.202   2.637
 1576SOL     OW 6409   3.328   0.590   2.854
 1576SOL    HW1 6410   3.298   0.495   2.861
 1576SOL    HW2 6411   3.401   0.606   2.920
 1577SOL     OW 6412   3.719   0.833   2.239
 1577SOL    HW1 6413   3.761   0.769   2.303
 1577SOL    HW2 6414   3.681   0.782   2.161
 1578SOL     OW 6415   2.350   1.385   2.036
 1578SOL    HW1 6416   2.263   1.370   2.083
 1578SOL    HW2 6417   2.333   1.411   1.941
 1579SOL     OW 6418   3.526   1.280   2.519
 1579SOL    HW1 6419   3.625   1.288   2.533
 1579SOL    HW2 6420   3.481   1.364   2.550
 1580SOL     OW 6421   3.252   0.575   1.940
 1580SOL    HW1 6422   3.198   0.554   2.021
 1580SOL    HW2 6423   3.343   0.534   1.949
 1581SOL     OW 6424   3.616   1.223   3.450
 1581SOL    HW1 6425   3.707   1.184   3.437
 1581SOL    HW2 6426   3.624   1.319   3.474
 1582SOL     OW 6427   3.454   1.629   3.487
 1582SOL    HW1 6428   3.481   1.663   3.397
 1582SOL    HW2 6429   3.533   1.591   3.533
 1583SOL     OW 6430   2.777   0.089   3.264
 1583SOL    HW1 6431   2.802   0.069   3.169
 1583SOL    HW2 6432   2.849   0.145   3.306
 1584SOL     OW 6433   2.842   1.116   3.581
 1584SOL    HW1 6434   2.743   1.122   3.591
 1584SOL    HW2 6435   2.865   1.036   3.525
 1585SOL     OW 6436   2.567   1.050   2.230
 1585SOL    HW1 6437   2.553   1.057   2.329
 1585SOL    HW2 6438   2.651   0.999   2.212
 1586SOL     OW 6439   2.272   0.813   3.113
 1586SOL    HW1 6440   2.358   0.825   3.163
 1586SOL    HW2 6441   2.230   0.726   3.140
 1587SOL     OW 6442   3.136   0.386   3.124
 1587SOL    HW1 6443   3.157   0.460   3.188
 1587SOL    HW2 6444   3.047   0.403   3.081
 1588SOL     OW 6445   1.926   1.564   3.193
 1588SOL    HW1 6446   1.880   1.646   3.159
 1588SOL    HW2 6447   2.024   1.583   3.202
 1589SOL     OW 6448   2.229   1.100   2.363
 1589SOL    HW1 6449   2.222   1.183   2.307
 1589SOL    HW2 6450   2.233   1.020   2.303
 1590SOL     OW 6451   2.428   0.537   2.727
 1590SOL    HW1 6452   2.440   0.603   2.653
 1590SOL    HW2 6453   2.474   0.571   2.810
 1591SOL     OW 6454   3.444   0.639   2.334
 1591SOL    HW1 6455   3.413   0.700   2.407
 1591SOL    HW2 6456   3.494   0.691   2.265
 1592SOL     OW 6457   2.216   1.510   3.191
 1592SOL    HW1 6458   2.195   1.466   3.104
 1592SOL    HW2 6459   2.313   1.536   3.194
 1593SOL     OW 6460   2.264   0.751   3.460
 1593SOL    HW1 6461   2.332   0.806   3.413
 1593SOL    HW2 6462   2.304   0.663   3.487
 1594SOL     OW 6463   3.449   0.779   3.532
 1594SOL    HW1 6464   3.357   0.817   3.527
 1594SOL    HW2 6465   3.509   0.826   3.467
 1595SOL     OW 6466   2.875   0.105   3.632
 1595SOL    HW1 6467   2.881   0.190   3.580
 1595SOL    HW2 6468   2.907   0.029   3.575
 1596SOL     OW 6469   2.366   0.050   3.602
 1596SOL    HW1 6470   2.324  -0.007   3.532
 1596SOL    HW2 6471   2.300   0.119   3.634
 1597SOL     OW 6472   2.435   0.870   2.891
 1597SOL    HW1 6473   2.479   0.959   2.882
 1597SOL    HW2 6474   2.372   0.870   2.968
 1598SOL     OW 6475   3.071   0.525   2.137
 1598SOL    HW1 6476   3.084   0.441   2.191
 1598SOL    HW2 6477   3.042   0.599   2.197
 1599SOL     OW 6478   2.169   0.213   3.093
 1599SOL    HW1 6479   2.146   0.250   3.183
 1599SOL    HW2 6480   2.139   0.118   3.087
 1600SOL     OW 6481   1.899   1.310   3.144
 1600SOL    HW1 6482   1.952   1.261   3.212
 1600SOL    HW2 6483   1.921   1.408   3.149
 1601SOL     OW 6484   2.594   0.634   2.926
 1601SOL    HW1 6485   2.653   0.608   2.850
 1601SOL    HW2 6486   2.566   0.730   2.915
 1602SOL     OW 6487   3.484   0.367   2.236
 1602SOL    HW1 6488   3.486   0.291   2.300
 1602SOL    HW2 6489   3.436   0.444   2.276
 1603SOL     OW 6490   2.885   0.766   2.828
 1603SOL    HW1 6491   2.900   0.787   2.924
 1603SOL    HW2 6492   2.855   0.671   2.819
 1604SOL     OW 6493   2.842   1.573   3.562
 1604SOL    HW1 6494   2.822   1.617   3.474
 1604SOL    HW2 6495   2.881   1.482   3.546
 1605SOL     OW 6496   3.721   1.518   3.467
 1605SOL    HW1 6497   3.735   1.545   3.372
 1605SOL    HW2 6498   3.804   1.540   3.520
 1606SOL     OW 6499   2.212   0.898   3.666
 1606SOL    HW1 6500   2.288   0.942   3.714
 1606SOL    HW2 6501   2.247   0.851   3.584
 1607SOL     OW 6502   3.402   0.274   1.987
 1607SOL    HW1 6503   3.341   0.199   2.010
 1607SOL    HW2 6504   3.424   0.326   2.070
 1608SOL     OW 6505   3.165   0.838   1.904
 1608SOL    HW1 6506   3.199   0.745   1.919
 1608SOL    HW2 6507   3.183   0.865   1.809
 1609SOL     OW 6508   2.181   0.810   2.811
 1609SOL    HW1 6509   2.274   0.846   2.816
 1609SOL    HW2 6510   2.175   0.725   2.863
 1610SOL     OW 6511   2.201   0.509   2.868
 1610SOL    HW1 6512   2.149   0.426   2.851
 1610SOL    HW2 6513   2.278   0.514   2.804
 1611SOL     OW 6514   3.000   0.380   3.540
 1611SOL    HW1 6515   2.955   0.443   3.604
 1611SOL    HW2 6516   3.093   0.411   3.523
 1612SOL     OW 6517   3.022   0.207   3.339
 1612SOL    HW1 6518   3.022   0.271   3.416
 1612SOL    HW2 6519   3.050   0.255   3.256
 1613SOL     OW 6520   1.870   1.326   2.062
 1613SOL    HW1 6521   1.777   1.347   2.031
 1613SOL    HW2 6522   1.880   1.227   2.075
 1614SOL     OW 6523   1.950   1.801   2.789
 1614SOL    HW1 6524   1.908   1.715   2.762
 1614SOL    HW2 6525   2.044   1.804   2.755
 1615SOL     OW 6526   2.366   1.568   2.772
 1615SOL    HW1 6527   2.432   1.642   2.781
 1615SOL    HW2 6528   2.410   1.489   2.730
 1616SOL     OW 6529   1.902   0.544   2.976
 1616SOL    HW1 6530   1.987   0.511   2.935
 1616SOL    HW2 6531   1.915   0.559   3.074
 1617SOL     OW 6532   2.051   0.520   3.584
 1617SOL    HW1 6533   2.110   0.480   3.514
 1617SOL    HW2 6534   1.993   0.591   3.543
 1618SOL     OW 6535   3.231   0.950   3.522
 1618SOL    HW1 6536   3.270   1.039   3.542
 1618SOL    HW2 6537   3.241   0.930   3.425
 1619SOL     OW 6538   2.677   0.572   2.187
 1619SOL    HW1 6539   2.684   0.483   2.141
 1619SOL    HW2 6540   2.583   0.606   2.179
 1620SOL     OW 6541   3.519   0.604   3.068
 1620SOL    HW1 6542   3.481   0.535   3.130
 1620SOL    HW2 6543   3.601   0.568   3.024
 1621SOL     OW 6544   2.114   1.564   3.606
 1621SOL    HW1 6545   2.084   1.621   3.682
 1621SOL    HW2 6546   2.107   1.467   3.632
 1622SOL     OW 6547   2.533   0.464   3.131
 1622SOL    HW1 6548   2.499   0.375   3.101
 1622SOL    HW2 6549   2.559   0.518   3.051
 1623SOL     OW 6550   2.792   1.678   3.327
 1623SOL    HW1 6551   2.768   1.660   3.232
 1623SOL    HW2 6552   2.822   1.772   3.337
 1624SOL     OW 6553   2.335   0.500   2.053
 1624SOL    HW1 6554   2.396   0.580   2.057
 1624SOL    HW2 6555   2.240   0.531   2.060
 1625SOL     OW 6556   2.021   1.137   3.328
 1625SOL    HW1 6557   2.043   1.076   3.404
 1625SOL    HW2 6558   2.031   1.088   3.242
 1626SOL     OW 6559   3.164   0.855   2.171
 1626SOL    HW1 6560   3.078   0.824   2.213
 1626SOL    HW2 6561   3.160   0.841   2.072
 1627SOL     OW 6562   3.114   1.731   2.990
 1627SOL    HW1 6563   3.198   1.736   2.936
 1627SOL    HW2 6564   3.091   1.635   3.008
 1628SOL     OW 6565   1.945   1.258   2.884
 1628SOL    HW1 6566   1.940   1.257   2.984
 1628SOL    HW2 6567   1.862   1.217   2.846
 1629SOL     OW 6568   2.550   1.662   3.578
 1629SOL    HW1 6569   2.494   1.743   3.587
 1629SOL    HW2 6570   2.602   1.666   3.492
 1630SOL     OW 6571   3.588   0.135   2.385
 1630SOL    HW1 6572   3.661   0.118   2.318
 1630SOL    HW2 6573   3.557   0.048   2.423
 1631SOL     OW 6574   3.250   1.573   2.339
 1631SOL    HW1 6575   3.317   1.585   2.265
 1631SOL    HW2 6576   3.210   1.662   2.362
 1632SOL     OW 6577   1.992   1.794   3.713
 1632SOL    HW1 6578   1.951   1.720   3.766
 1632SOL    HW2 6579   2.056   1.845   3.771
 1633SOL     OW 6580   3.142   0.927   2.534
 1633SOL    HW1 6581   3.202   0.846   2.536
 1633SOL    HW2 6582   3.182   0.996   2.474
 1634SOL     OW 6583   2.534   1.616   2.016
 1634SOL    HW1 6584   2.543   1.626   1.917
 1634SOL    HW2 6585   2.494   1.527   2.037
 1635SOL     OW 6586   3.512   1.720   3.256
 1635SOL    HW1 6587   3.565   1.730   3.172
 1635SOL    HW2 6588   3.485   1.810   3.290
 1636SOL     OW 6589   3.703   0.175   2.825
 1636SOL    HW1 6590   3.742   0.090   2.789
 1636SOL    HW2 6591   3.605   0.177   2.806
 1637SOL     OW 6592   2.125   0.326   2.582
 1637SOL    HW1 6593   2.046   0.377   2.548
 1637SOL    HW2 6594   2.116   0.311   2.680
 1638SOL     OW 6595   3.056   1.612   1.893
 1638SOL    HW1 6596   3.062   1.519   1.930
 1638SOL    HW2 6597   2.997   1.612   1.813
 1639SOL     OW 6598   2.778   0.910   2.153
 1639SOL    HW1 6599   2.841   0.948   2.085
 1639SOL    HW2 6600   2.818   0.827   2.192
 1640SOL     OW 6601   3.366   1.607   1.906
 1640SOL    HW1 6602   3.274   1.644   1.913
 1640SOL    HW2 6603   3.404   1.627   1.816
 1641SOL     OW 6604   2.234   1.288   3.352
 1641SOL    HW1 6605   2.221   1.381   3.318
 1641SOL    HW2 6606   2.150   1.236   3.339
 1642SOL     OW 6607   2.901   1.098   2.558
 1642SOL    HW1 6608   2.831   1.051   2.612
 1642SOL    HW2 6609   2.960   1.030   2.515
 1643SOL     OW 6610   2.876   0.236   2.833
 1643SOL    HW1 6611   2.868   0.200   2.740
 1643SOL    HW2 6612   2.874   0.160   2.898
 1644SOL     OW 6613   2.452   1.487   2.353
 1644SOL    HW1 6614   2.494   1.429   2.283
 1644SOL    HW2 6615   2.408   1.566   2.309
 1645SOL     OW 6616   3.571   0.385   3.243
 1645SOL    HW1 6617   3.644   0.454   3.247
 1645SOL    HW2 6618   3.599   0.310   3.184
 1646SOL     OW 6619   2.117   1.348   2.152
 1646SOL    HW1 6620   2.021   1.349   2.125
 1646SOL    HW2 6621   2.129   1.401   2.236
 1647SOL     OW 6622   1.967   1.013   3.588
 1647SOL    HW1 6623   1.890   0.980   3.642
 1647SOL    HW2 6624   2.052   0.983   3.630
 1648SOL     OW 6625   2.534   0.203   3.351
 1648SOL    HW1 6626   2.624   0.187   3.311
 1648SOL    HW2 6627   2.542   0.208   3.450
 1649SOL     OW 6628   3.045   1.335   1.981
 1649SOL    HW1 6629   2.946   1.324   1.983
 1649SOL    HW2 6630   3.079   1.350   2.074
 1650SOL     OW 6631   2.475   0.842   3.293
 1650SOL    HW1 6632   2.531   0.923   3.276
 1650SOL    HW2 6633   2.534   0.762   3.296
 1651SOL     OW 6634   2.578   0.565   3.570
 1651SOL    HW1 6635   2.597   0.630   3.644
 1651SOL    HW2 6636   2.638   0.485   3.579
 1652SOL     OW 6637   3.312   1.220   3.495
 1652SOL    HW1 6638   3.303   1.210   3.594
 1652SOL    HW2 6639   3.408   1.213   3.469
 1653SOL     OW 6640   2.252   1.741   3.422
 1653SOL    HW1 6641   2.161   1.782   3.420
 1653SOL    HW2 6642   2.245   1.647   3.454
 1654SOL     OW 6643   3.087   0.325   2.311
 1654SOL    HW1 6644   3.152   0.251   2.300
 1654SOL    HW2 6645   3.107   0.375   2.395
 1655SOL     OW 6646   2.456   0.745   2.514
 1655SOL    HW1 6647   2.506   0.830   2.495
 1655SOL    HW2 6648   2.368   0.747   2.466
 1656SOL     OW 6649   3.639   0.342   3.504
 1656SOL    HW1 6650   3.622   0.373   3.410
 1656SOL    HW2 6651   3.555   0.305   3.542
 1657SOL     OW 6652   3.592   0.934   3.379
 1657SOL    HW1 6653   3.630   1.025   3.394
 1657SOL    HW2 6654   3.584   0.917   3.280
 1658SOL     OW 6655   2.523   1.790   2.815
 1658SOL    HW1 6656   2.477   1.878   2.802
 1658SOL    HW2 6657   2.622   1.802   2.808
 1659SOL     OW 6658   2.945   0.984   1.949
 1659SOL    HW1 6659   2.922   1.037   1.867
 1659SOL    HW2 6660   3.026   0.928   1.930
 1660SOL     OW 6661   3.723   1.569   2.713
 1660SOL    HW1 6662   3.652   1.557   2.643
 1660SOL    HW2 6663   3.724   1.490   2.773
 1661SOL     OW 6664   2.083   1.314   3.706
 1661SOL    HW1 6665   2.018   1.241   3.685
 1661SOL    HW2 6666   2.087   1.328   3.804
 1662SOL     OW 6667   1.941   1.240   2.515
 1662SOL    HW1 6668   1.940   1.193   2.603
 1662SOL    HW2 6669   2.023   1.212   2.464
 1663SOL     OW 6670   2.534   1.391   3.486
 1663SOL    HW1 6671   2.456   1.341   3.524
 1663SOL    HW2 6672   2.531   1.486   3.517
 1664SOL     OW 6673   3.686   0.192   3.089
 1664SOL    HW1 6674   3.682   0.102   3.133
 1664SOL    HW2 6675   3.689   0.181   2.990
 1665SOL     OW 6676   2.290   0.424   2.382
 1665SOL    HW1 6677   2.320   0.352   2.320
 1665SOL    HW2 6678   2.251   0.384   2.465
 1666SOL     OW 6679   2.179   0.547   3.142
 1666SOL    HW1 6680   2.217   0.488   3.214
 1666SOL    HW2 6681   2.219   0.521   3.054
 1667SOL     OW 6682   2.674   1.586   2.549
 1667SOL    HW1 6683   2.706   1.596   2.455
 1667SOL    HW2 6684   2.595   1.524   2.551
 1668SOL     OW 6685   3.286   0.214   2.974
 1668SOL    HW1 6686   3.338   0.149   3.029
 1668SOL    HW2 6687   3.237   0.277   3.035
 1669SOL     OW 6688   2.863   0.034   3.016
 1669SOL    HW1 6689   2.800  -0.038   2.985
 1669SOL    HW2 6690   2.956  -0.002   3.016
 1670SOL     OW 6691   2.480   1.567   3.146
 1670SOL    HW1 6692   2.475   1.649   3.203
 1670SOL    HW2 6693   2.569   1.564   3.101
 1671SOL     OW 6694   3.162   0.453   2.553
 1671SOL    HW1 6695   3.103   0.533   2.557
 1671SOL    HW2 6696   3.177   0.418   2.646
 1672SOL     OW 6697   3.455   0.221   2.744
 1672SOL    HW1 6698   3.371   0.220   2.798
 1672SOL    HW2 6699   3.457   0.304   2.688
 1673SOL     OW 6700   1.901   1.077   2.162
 1673SOL    HW1 6701   2.000   1.066   2.153
 1673SOL    HW2 6702   1.861   0.991   2.194
 1674SOL     OW 6703   2.737   1.646   2.199
 1674SOL    HW1 6704   2.660   1.611   2.145
 1674SOL    HW2 6705   2.705   1.717   2.261
 1675SOL     OW 6706   2.092   0.628   3.837
 1675SOL    HW1 6707   1.999   0.626   3.874
 1675SOL    HW2 6708   2.093   0.589   3.745
 1676SOL     OW 6709   2.087   0.275   4.720
 1676SOL    HW1 6710   2.122   0.258   4.812
 1676SOL    HW2 6711   1.999   0.230   4.708
 1677SOL     OW 6712   2.431   1.275   4.889
 1677SOL    HW1 6713   2.338   1.268   4.852
 1677SOL    HW2 6714   2.442   1.364   4.933
 1678SOL     OW 6715   3.417   1.511   4.427
 1678SOL    HW1 6716   3.360   1.495   4.508
 1678SOL    HW2 6717   3.358   1.521   4.347
 1679SOL     OW 6718   2.997   0.703   4.441
 1679SOL    HW1 6719   3.054   0.781   4.416
 1679SOL    HW2 6720   2.937   0.729   4.517
 1680SOL     OW 6721   2.630   1.144   4.747
 1680SOL    HW1 6722   2.552   1.161   4.807
 1680SOL    HW2 6723   2.664   1.231   4.711
 1681SOL     OW 6724   2.547   1.012   4.389
 1681SOL    HW1 6725   2.616   0.996   4.459
 1681SOL    HW2 6726   2.474   1.069   4.427
 1682SOL     OW 6727   2.197   1.435   4.785
 1682SOL    HW1 6728   2.119   1.404   4.732
 1682SOL    HW2 6729   2.255   1.493   4.728
 1683SOL     OW 6730   2.093   1.713   4.207
 1683SOL    HW1 6731   2.127   1.790   4.261
 1683SOL    HW2 6732   2.137   1.713   4.117
 1684SOL     OW 6733   2.092   1.434   4.262
 1684SOL    HW1 6734   2.066   1.530   4.262
 1684SOL    HW2 6735   2.021   1.380   4.307
 1685SOL     OW 6736   2.102   1.091   4.610
 1685SOL    HW1 6737   2.116   1.007   4.662
 1685SOL    HW2 6738   2.047   1.155   4.665
 1686SOL     OW 6739   2.482   1.786   5.163
 1686SOL    HW1 6740   2.390   1.769   5.198
 1686SOL    HW2 6741   2.510   1.878   5.189
 1687SOL     OW 6742   2.468   0.964   3.847
 1687SOL    HW1 6743   2.475   1.048   3.793
 1687SOL    HW2 6744   2.514   0.977   3.935
 1688SOL     OW 6745   1.984   0.643   4.287
 1688SOL    HW1 6746   1.939   0.555   4.304
 1688SOL    HW2 6747   1.983   0.697   4.371
 1689SOL     OW 6748   3.704   1.767   4.083
 1689SOL    HW1 6749   3.758   1.738   4.163
 1689SOL    HW2 6750   3.734   1.857   4.054
 1690SOL     OW 6751   1.889   1.596   3.841
 1690SOL    HW1 6752   1.870   1.500   3.862
 1690SOL    HW2 6753   1.856   1.654   3.916
 1691SOL     OW 6754   3.503   1.108   4.156
 1691SOL    HW1 6755   3.589   1.110   4.104
 1691SOL    HW2 6756   3.517   1.155   4.244
 1692SOL     OW 6757   2.475   1.365   4.450
 1692SOL    HW1 6758   2.426   1.278   4.459
 1692SOL    HW2 6759   2.452   1.408   4.363
 1693SOL     OW 6760   2.059   0.976   4.988
 1693SOL    HW1 6761   2.148   0.931   4.974
 1693SOL    HW2 6762   1.986   0.911   4.969
 1694SOL     OW 6763   3.387   0.999   3.914
 1694SOL    HW1 6764   3.324   0.923   3.927
 1694SOL    HW2 6765   3.435   1.017   4.000
 1695SOL     OW 6766   3.328   1.417   4.677
 1695SOL    HW1 6767   3.269   1.423   4.757
 1695SOL    HW2 6768   3.313   1.329   4.631
 1696SOL     OW 6769   3.529   1.714   4.296
 1696SOL    HW1 6770   3.488   1.691   4.208
 1696SOL    HW2 6771   3.511   1.640   4.361
 1697SOL     OW 6772   3.143   0.345   4.668
 1697SOL    HW1 6773   3.057   0.295   4.655
 1697SOL    HW2 6774   3.205   0.291   4.724
 1698SOL     OW 6775   3.438   1.662   4.031
 1698SOL    HW1 6776   3.527   1.708   4.034
 1698SOL    HW2 6777   3.417   1.638   3.936
 1699SOL     OW 6778   2.903   0.701   4.153
 1699SOL    HW1 6779   2.929   0.697   4.249
 1699SOL    HW2 6780   2.818   0.650   4.139
 1700SOL     OW 6781   1.938   0.811   4.513
 1700SOL    HW1 6782   2.037   0.799   4.522
 1700SOL    HW2 6783   1.914   0.906   4.534
 1701SOL     OW 6784   2.727   0.348   3.919
 1701SOL    HW1 6785   2.786   0.411   3.870
 1701SOL    HW2 6786   2.746   0.254   3.890
 1702SOL     OW 6787   3.224   1.144   4.269
 1702SOL    HW1 6788   3.307   1.115   4.221
 1702SOL    HW2 6789   3.175   1.211   4.213
 1703SOL     OW 6790   2.412   0.196   4.609
 1703SOL    HW1 6791   2.407   0.191   4.709
 1703SOL    HW2 6792   2.414   0.292   4.580
 1704SOL     OW 6793   2.870   1.456   4.201
 1704SOL    HW1 6794   2.824   1.528   4.149
 1704SOL    HW2 6795   2.866   1.476   4.299
 1705SOL     OW 6796   2.213   1.801   4.577
 1705SOL    HW1 6797   2.263   1.715   4.583
 1705SOL    HW2 6798   2.278   1.878   4.574
 1706SOL     OW 6799   2.183   0.943   3.966
 1706SOL    HW1 6800   2.265   0.982   3.924
 1706SOL    HW2 6801   2.156   0.861   3.917
 1707SOL     OW 6802   3.320   0.735   4.452
 1707SOL    HW1 6803   3.315   0.670   4.527
 1707SOL    HW2 6804   3.400   0.794   4.465
 1708SOL     OW 6805   2.973   1.776   3.961
 1708SOL    HW1 6806   2.913   1.714   4.011
 1708SOL    HW2 6807   3.004   1.732   3.876
 1709SOL     OW 6808   3.494   1.377   3.805
 1709SOL    HW1 6809   3.462   1.471   3.795
 1709SOL    HW2 6810   3.418   1.314   3.793
 1710SOL     OW 6811   2.326   1.743   4.047
 1710SOL    HW1 6812   2.359   1.782   4.133
 1710SOL    HW2 6813   2.402   1.736   3.982
 1711SOL     OW 6814   3.262   0.107   4.150
 1711SOL    HW1 6815   3.238   0.070   4.060
 1711SOL    HW2 6816   3.361   0.123   4.154
 1712SOL     OW 6817   2.111   1.785   4.965
 1712SOL    HW1 6818   2.168   1.720   5.015
 1712SOL    HW2 6819   2.095   1.752   4.872
 1713SOL     OW 6820   2.802   1.698   4.628
 1713SOL    HW1 6821   2.882   1.641   4.649
 1713SOL    HW2 6822   2.753   1.658   4.551
 1714SOL     OW 6823   2.244   0.700   4.204
 1714SOL    HW1 6824   2.289   0.610   4.201
 1714SOL    HW2 6825   2.150   0.689   4.237
 1715SOL     OW 6826   2.476   0.122   3.841
 1715SOL    HW1 6827   2.574   0.100   3.848
 1715SOL    HW2 6828   2.445   0.105   3.748
 1716SOL     OW 6829   2.665   1.402   4.648
 1716SOL    HW1 6830   2.755   1.416   4.606
 1716SOL    HW2 6831   2.594   1.404   4.577
 1717SOL     OW 6832   2.401   0.064   4.236
 1717SOL    HW1 6833   2.320   0.065   4.294
 1717SOL    HW2 6834   2.404   0.147   4.181
 1718SOL     OW 6835   3.296   1.188   3.765
 1718SOL    HW1 6836   3.328   1.112   3.822
 1718SOL    HW2 6837   3.204   1.215   3.795
 1719SOL     OW 6838   2.159   0.035   3.895
 1719SOL    HW1 6839   2.208   0.119   3.874
 1719SOL    HW2 6840   2.221  -0.030   3.940
 1720SOL     OW 6841   3.089   1.570   4.517
 1720SOL    HW1 6842   3.110   1.644   4.452
 1720SOL    HW2 6843   3.157   1.570   4.590
 1721SOL     OW 6844   2.321   1.152   4.465
 1721SOL    HW1 6845   2.250   1.125   4.530
 1721SOL    HW2 6846   2.295   1.124   4.372
 1722SOL     OW 6847   3.133   1.797   4.315
 1722SOL    HW1 6848   3.177   1.861   4.251
 1722SOL    HW2 6849   3.083   1.849   4.385
 1723SOL     OW 6850   2.894   0.549   3.740
 1723SOL    HW1 6851   2.853   0.631   3.701
 1723SOL    HW2 6852   2.958   0.575   3.813
 1724SOL     OW 6853   2.423   0.222   4.871
 1724SOL    HW1 6854   2.461   0.138   4.908
 1724SOL    HW2 6855   2.335   0.241   4.915
 1725SOL     OW 6856   3.291   1.173   4.591
 1725SOL    HW1 6857   3.236   1.089   4.584
 1725SOL    HW2 6858   3.317   1.202   4.499
 1726SOL     OW 6859   3.328   0.590   4.716
 1726SOL    HW1 6860   3.298   0.495   4.723
 1726SOL    HW2 6861   3.401   0.606   4.782
 1727SOL     OW 6862   2.350   1.385   3.898
 1727SOL    HW1 6863   2.263   1.370   3.945
 1727SOL    HW2 6864   2.333   1.411   3.803
 1728SOL     OW 6865   3.526   1.280   4.381
 1728SOL    HW1 6866   3.625   1.288   4.395
 1728SOL    HW2 6867   3.481   1.364   4.412
 1729SOL     OW 6868   3.252   0.575   3.802
 1729SOL    HW1 6869   3.198   0.554   3.883
 1729SOL    HW2 6870   3.343   0.534   3.811
 1730SOL     OW 6871   2.389   0.256   4.052
 1730SOL    HW1 6872   2.416   0.197   3.977
 1730SOL    HW2 6873   2.389   0.351   4.021
 1731SOL     OW 6874   2.973   1.195   4.824
 1731SOL    HW1 6875   2.933   1.239   4.905
 1731SOL    HW2 6876   2.932   1.232   4.741
 1732SOL     OW 6877   3.500   1.099   4.803
 1732SOL    HW1 6878   3.505   1.180   4.862
 1732SOL    HW2 6879   3.414   1.101   4.752
 1733SOL     OW 6880   2.567   1.050   4.092
 1733SOL    HW1 6881   2.553   1.057   4.191
 1733SOL    HW2 6882   2.651   0.999   4.074
 1734SOL     OW 6883   2.272   0.813   4.975
 1734SOL    HW1 6884   2.358   0.825   5.025
 1734SOL    HW2 6885   2.230   0.726   5.002
 1735SOL     OW 6886   3.136   0.386   4.986
 1735SOL    HW1 6887   3.157   0.460   5.050
 1735SOL    HW2 6888   3.047   0.403   4.943
 1736SOL     OW 6889   2.229   1.100   4.225
 1736SOL    HW1 6890   2.222   1.183   4.169
 1736SOL    HW2 6891   2.233   1.020   4.165
 1737SOL     OW 6892   2.428   0.537   4.589
 1737SOL    HW1 6893   2.440   0.603   4.515
 1737SOL    HW2 6894   2.474   0.571   4.672
 1738SOL     OW 6895   3.114   1.348   4.112
 1738SOL    HW1 6896   3.164   1.425   4.152
 1738SOL    HW2 6897   3.019   1.350   4.144
 1739SOL     OW 6898   3.134   1.445   4.866
 1739SOL    HW1 6899   3.181   1.458   4.953
 1739SOL    HW2 6900   3.068   1.371   4.875
 1740SOL     OW 6901   3.444   0.639   4.196
 1740SOL    HW1 6902   3.413   0.700   4.269
 1740SOL    HW2 6903   3.494   0.691   4.127
 1741SOL     OW 6904   2.216   1.510   5.053
 1741SOL    HW1 6905   2.195   1.466   4.966
 1741SOL    HW2 6906   2.313   1.536   5.056
 1742SOL     OW 6907   2.435   0.870   4.753
 1742SOL    HW1 6908   2.479   0.959   4.744
 1742SOL    HW2 6909   2.372   0.870   4.830
 1743SOL     OW 6910   3.222   0.862   4.769
 1743SOL    HW1 6911   3.147   0.862   4.703
 1743SOL    HW2 6912   3.259   0.770   4.778
 1744SOL     OW 6913   3.071   0.525   3.999
 1744SOL    HW1 6914   3.084   0.441   4.053
 1744SOL    HW2 6915   3.042   0.599   4.059
 1745SOL     OW 6916   2.169   0.213   4.955
 1745SOL    HW1 6917   2.146   0.250   5.045
 1745SOL    HW2 6918   2.139   0.118   4.949
 1746SOL     OW 6919   1.899   1.310   5.006
 1746SOL    HW1 6920   1.952   1.261   5.074
 1746SOL    HW2 6921   1.921   1.408   5.011
 1747SOL     OW 6922   2.169   0.063   4.342
 1747SOL    HW1 6923   2.158   0.157   4.375
 1747SOL    HW2 6924   2.164   0.000   4.419
 1748SOL     OW 6925   3.484   0.367   4.098
 1748SOL    HW1 6926   3.486   0.291   4.162
 1748SOL    HW2 6927   3.436   0.444   4.138
 1749SOL     OW 6928   2.885   0.766   4.690
 1749SOL    HW1 6929   2.900   0.787   4.786
 1749SOL    HW2 6930   2.855   0.671   4.681
 1750SOL     OW 6931   3.402   0.274   3.849
 1750SOL    HW1 6932   3.341   0.199   3.872
 1750SOL    HW2 6933   3.424   0.326   3.932
 1751SOL     OW 6934   3.165   0.838   3.766
 1751SOL    HW1 6935   3.199   0.745   3.781
 1751SOL    HW2 6936   3.183   0.865   3.671
 1752SOL     OW 6937   2.930   1.333   4.573
 1752SOL    HW1 6938   2.937   1.249   4.518
 1752SOL    HW2 6939   2.992   1.402   4.537
 1753SOL     OW 6940   2.181   0.810   4.673
 1753SOL    HW1 6941   2.274   0.846   4.678
 1753SOL    HW2 6942   2.175   0.725   4.725
 1754SOL     OW 6943   2.201   0.509   4.730
 1754SOL    HW1 6944   2.149   0.426   4.713
 1754SOL    HW2 6945   2.278   0.514   4.666
 1755SOL     OW 6946   3.022   0.207   5.201
 1755SOL    HW1 6947   3.022   0.271   5.278
 1755SOL    HW2 6948   3.050   0.255   5.118
 1756SOL     OW 6949   1.870   1.326   3.924
 1756SOL    HW1 6950   1.777   1.347   3.893
 1756SOL    HW2 6951   1.880   1.227   3.937
 1757SOL     OW 6952   1.950   1.801   4.651
 1757SOL    HW1 6953   1.908   1.715   4.624
 1757SOL    HW2 6954   2.044   1.804   4.617
 1758SOL     OW 6955   2.366   1.568   4.634
 1758SOL    HW1 6956   2.432   1.642   4.643
 1758SOL    HW2 6957   2.410   1.489   4.592
 1759SOL     OW 6958   2.864   0.796   4.962
 1759SOL    HW1 6959   2.905   0.764   5.048
 1759SOL    HW2 6960   2.768   0.769   4.959
 1760SOL     OW 6961   1.902   0.544   4.838
 1760SOL    HW1 6962   1.987   0.511   4.797
 1760SOL    HW2 6963   1.915   0.559   4.936
 1761SOL     OW 6964   3.519   0.604   4.930
 1761SOL    HW1 6965   3.481   0.535   4.992
 1761SOL    HW2 6966   3.601   0.568   4.886
 1762SOL     OW 6967   2.533   0.464   4.993
 1762SOL    HW1 6968   2.499   0.375   4.963
 1762SOL    HW2 6969   2.559   0.518   4.913
 1763SOL     OW 6970   2.792   1.678   5.189
 1763SOL    HW1 6971   2.768   1.660   5.094
 1763SOL    HW2 6972   2.822   1.772   5.199
 1764SOL     OW 6973   3.209   1.059   4.958
 1764SOL    HW1 6974   3.233   0.996   4.884
 1764SOL    HW2 6975   3.119   1.099   4.940
 1765SOL     OW 6976   3.164   0.855   4.033
 1765SOL    HW1 6977   3.078   0.824   4.075
 1765SOL    HW2 6978   3.160   0.841   3.934
 1766SOL     OW 6979   3.621   1.747   4.878
 1766SOL    HW1 6980   3.682   1.777   4.805
 1766SOL    HW2 6981   3.583   1.658   4.856
 1767SOL     OW 6982   3.114   1.731   4.852
 1767SOL    HW1 6983   3.198   1.736   4.798
 1767SOL    HW2 6984   3.091   1.635   4.870
 1768SOL     OW 6985   1.945   1.258   4.746
 1768SOL    HW1 6986   1.940   1.257   4.846
 1768SOL    HW2 6987   1.862   1.217   4.708
 1769SOL     OW 6988   3.250   1.573   4.201
 1769SOL    HW1 6989   3.317   1.585   4.127
 1769SOL    HW2 6990   3.210   1.662   4.224
 1770SOL     OW 6991   3.142   0.927   4.396
 1770SOL    HW1 6992   3.202   0.846   4.398
 1770SOL    HW2 6993   3.182   0.996   4.336
 1771SOL     OW 6994   2.534   1.616   3.878
 1771SOL    HW1 6995   2.543   1.626   3.779
 1771SOL    HW2 6996   2.494   1.527   3.899
 1772SOL     OW 6997   3.512   1.720   5.118
 1772SOL    HW1 6998   3.565   1.730   5.034
 1772SOL    HW2 6999   3.485   1.810   5.152
 1773SOL     OW 7000   3.703   0.175   4.687
 1773SOL    HW1 7001   3.742   0.090   4.651
 1773SOL    HW2 7002   3.605   0.177   4.668
 1774SOL     OW 7003   2.125   0.326   4.444
 1774SOL    HW1 7004   2.046   0.377   4.410
 1774SOL    HW2 7005   2.116   0.311   4.542
 1775SOL     OW 7006   3.056   1.612   3.755
 1775SOL    HW1 7007   3.062   1.519   3.792
 1775SOL    HW2 7008   2.997   1.612   3.675
 1776SOL     OW 7009   2.684   1.002   5.096
 1776SOL    HW1 7010   2.724   1.001   5.004
 1776SOL    HW2 7011   2.694   1.094   5.136
 1777SOL     OW 7012   2.778   0.910   4.015
 1777SOL    HW1 7013   2.841   0.948   3.947
 1777SOL    HW2 7014   2.818   0.827   4.054
 1778SOL     OW 7015   3.366   1.607   3.768
 1778SOL    HW1 7016   3.274   1.644   3.775
 1778SOL    HW2 7017   3.404   1.627   3.678
 1779SOL     OW 7018   2.901   1.098   4.420
 1779SOL    HW1 7019   2.831   1.051   4.474
 1779SOL    HW2 7020   2.960   1.030   4.377
 1780SOL     OW 7021   2.452   1.487   4.215
 1780SOL    HW1 7022   2.494   1.429   4.145
 1780SOL    HW2 7023   2.408   1.566   4.171
 1781SOL     OW 7024   3.571   0.385   5.105
 1781SOL    HW1 7025   3.644   0.454   5.109
 1781SOL    HW2 7026   3.599   0.310   5.046
 1782SOL     OW 7027   2.117   1.348   4.014
 1782SOL    HW1 7028   2.021   1.349   3.987
 1782SOL    HW2 7029   2.129   1.401   4.098
 1783SOL     OW 7030   1.937   0.345   3.757
 1783SOL    HW1 7031   1.845   0.317   3.728
 1783SOL    HW2 7032   1.968   0.422   3.701
 1784SOL     OW 7033   1.934   0.166   4.042
 1784SOL    HW1 7034   1.917   0.249   3.988
 1784SOL    HW2 7035   2.024   0.129   4.020
 1785SOL     OW 7036   3.045   1.335   3.843
 1785SOL    HW1 7037   2.946   1.324   3.845
 1785SOL    HW2 7038   3.079   1.350   3.936
 1786SOL     OW 7039   3.355   1.767   4.683
 1786SOL    HW1 7040   3.388   1.831   4.614
 1786SOL    HW2 7041   3.421   1.761   4.758
 1787SOL     OW 7042   3.536   0.883   4.978
 1787SOL    HW1 7043   3.509   0.794   4.941
 1787SOL    HW2 7044   3.537   0.951   4.905
 1788SOL     OW 7045   3.087   0.325   4.173
 1788SOL    HW1 7046   3.152   0.251   4.162
 1788SOL    HW2 7047   3.107   0.375   4.257
 1789SOL     OW 7048   3.592   0.934   5.241
 1789SOL    HW1 7049   3.630   1.025   5.256
 1789SOL    HW2 7050   3.584   0.917   5.142
 1790SOL     OW 7051   2.721   1.374   3.740
 1790SOL    HW1 7052   2.675   1.389   3.828
 1790SOL    HW2 7053   2.765   1.459   3.710
 1791SOL     OW 7054   2.523   1.790   4.677
 1791SOL    HW1 7055   2.477   1.878   4.664
 1791SOL    HW2 7056   2.622   1.802   4.670
 1792SOL     OW 7057   2.721   0.956   4.585
 1792SOL    HW1 7058   2.775   0.887   4.633
 1792SOL    HW2 7059   2.689   1.025   4.651
 1793SOL     OW 7060   2.945   0.984   3.811
 1793SOL    HW1 7061   2.922   1.037   3.729
 1793SOL    HW2 7062   3.026   0.928   3.792
 1794SOL     OW 7063   3.723   1.569   4.575
 1794SOL    HW1 7064   3.652   1.557   4.505
 1794SOL    HW2 7065   3.724   1.490   4.635
 1795SOL     OW 7066   1.941   1.240   4.377
 1795SOL    HW1 7067   1.940   1.193   4.465
 1795SOL    HW2 7068   2.023   1.212   4.326
 1796SOL     OW 7069   3.686   0.192   4.951
 1796SOL    HW1 7070   3.682   0.102   4.995
 1796SOL    HW2 7071   3.689   0.181   4.852
 1797SOL     OW 7072   2.290   0.424   4.244
 1797SOL    HW1 7073   2.320   0.352   4.182
 1797SOL    HW2 7074   2.251   0.384   4.327
 1798SOL     OW 7075   3.567   1.487   4.828
 1798SOL    HW1 7076   3.474   1.462   4.801
 1798SOL    HW2 7077   3.593   1.437   4.910
 1799SOL     OW 7078   2.674   1.586   4.411
 1799SOL    HW1 7079   2.706   1.596   4.317
 1799SOL    HW2 7080   2.595   1.524   4.413
 1800SOL     OW 7081   3.286   0.214   4.836
 1800SOL    HW1 7082   3.338   0.149   4.891
 1800SOL    HW2 7083   3.237   0.277   4.897
 1801SOL     OW 7084   2.863   0.034   4.878
 1801SOL    HW1 7085   2.800  -0.038   4.847
 1801SOL    HW2 7086   2.956  -0.002   4.878
 1802SOL     OW 7087   2.632   1.330   4.025
 1802SOL    HW1 7088   2.586   1.243   4.042
 1802SOL    HW2 7089   2.723   1.327   4.066
 1803SOL     OW 7090   3.214   0.052   3.892
 1803SOL    HW1 7091   3.249   0.011   3.808
 1803SOL    HW2 7092   3.124   0.014   3.912
 1804SOL     OW 7093   3.455   0.221   4.606
 1804SOL    HW1 7094   3.371   0.220   4.660
 1804SOL    HW2 7095   3.457   0.304   4.550
 1805SOL     OW 7096   1.901   1.077   4.024
 1805SOL    HW1 7097   2.000   1.066   4.015
 1805SOL    HW2 7098   1.861   0.991   4.056
 1806SOL     OW 7099   2.737   1.646   4.061
 1806SOL    HW1 7100   2.660   1.611   4.007
 1806SOL    HW2 7101   2.705   1.717   4.123
 1807SOL     OW 7102   2.092   2.490   0.113
 1807SOL    HW1 7103   1.999   2.488   0.150
 1807SOL    HW2 7104   2.093   2.451   0.021
 1808SOL     OW 7105   2.431   3.137   1.165
 1808SOL    HW1 7106   2.338   3.130   1.128
 1808SOL    HW2 7107   2.442   3.226   1.209
 1809SOL     OW 7108   3.417   3.373   0.703
 1809SOL    HW1 7109   3.360   3.357   0.784
 1809SOL    HW2 7110   3.358   3.383   0.623
 1810SOL     OW 7111   2.997   2.565   0.717
 1810SOL    HW1 7112   3.054   2.643   0.692
 1810SOL    HW2 7113   2.937   2.591   0.793
 1811SOL     OW 7114   3.617   2.469   0.231
 1811SOL    HW1 7115   3.605   2.456   0.132
 1811SOL    HW2 7116   3.587   2.388   0.280
 1812SOL     OW 7117   2.630   3.006   1.023
 1812SOL    HW1 7118   2.552   3.023   1.083
 1812SOL    HW2 7119   2.664   3.093   0.987
 1813SOL     OW 7120   2.712   2.660   1.823
 1813SOL    HW1 7121   2.708   2.736   1.888
 1813SOL    HW2 7122   2.734   2.696   1.732
 1814SOL     OW 7123   2.547   2.874   0.665
 1814SOL    HW1 7124   2.616   2.858   0.735
 1814SOL    HW2 7125   2.474   2.931   0.703
 1815SOL     OW 7126   2.548   3.023   1.803
 1815SOL    HW1 7127   2.608   3.102   1.817
 1815SOL    HW2 7128   2.462   3.054   1.762
 1816SOL     OW 7129   2.197   3.297   1.061
 1816SOL    HW1 7130   2.119   3.266   1.008
 1816SOL    HW2 7131   2.255   3.355   1.004
 1817SOL     OW 7132   3.322   3.367   1.339
 1817SOL    HW1 7133   3.346   3.461   1.365
 1817SOL    HW2 7134   3.306   3.313   1.421
 1818SOL     OW 7135   2.300   2.254   1.499
 1818SOL    HW1 7136   2.382   2.198   1.508
 1818SOL    HW2 7137   2.219   2.196   1.503
 1819SOL     OW 7138   3.465   2.309   0.737
 1819SOL    HW1 7139   3.391   2.355   0.687
 1819SOL    HW2 7140   3.516   2.377   0.790
 1820SOL     OW 7141   2.093   3.575   0.483
 1820SOL    HW1 7142   2.127   3.652   0.537
 1820SOL    HW2 7143   2.137   3.575   0.393
 1821SOL     OW 7144   2.989   3.203   1.690
 1821SOL    HW1 7145   3.036   3.203   1.778
 1821SOL    HW2 7146   2.941   3.116   1.679
 1822SOL     OW 7147   2.092   3.296   0.538
 1822SOL    HW1 7148   2.066   3.392   0.538
 1822SOL    HW2 7149   2.021   3.242   0.583
 1823SOL     OW 7150   2.102   2.953   0.886
 1823SOL    HW1 7151   2.116   2.869   0.938
 1823SOL    HW2 7152   2.047   3.017   0.941
 1824SOL     OW 7153   2.482   3.648   1.439
 1824SOL    HW1 7154   2.390   3.631   1.474
 1824SOL    HW2 7155   2.510   3.740   1.465
 1825SOL     OW 7156   2.468   2.826   0.123
 1825SOL    HW1 7157   2.475   2.910   0.069
 1825SOL    HW2 7158   2.514   2.839   0.211
 1826SOL     OW 7159   3.456   1.976   1.480
 1826SOL    HW1 7160   3.438   2.043   1.408
 1826SOL    HW2 7161   3.453   2.022   1.569
 1827SOL     OW 7162   1.984   2.505   0.563
 1827SOL    HW1 7163   1.939   2.417   0.580
 1827SOL    HW2 7164   1.983   2.559   0.647
 1828SOL     OW 7165   3.704   3.629   0.359
 1828SOL    HW1 7166   3.758   3.600   0.439
 1828SOL    HW2 7167   3.734   3.719   0.330
 1829SOL     OW 7168   1.889   3.458   0.117
 1829SOL    HW1 7169   1.870   3.362   0.138
 1829SOL    HW2 7170   1.856   3.516   0.192
 1830SOL     OW 7171   3.551   2.784   0.612
 1830SOL    HW1 7172   3.646   2.755   0.620
 1830SOL    HW2 7173   3.543   2.849   0.537
 1831SOL     OW 7174   3.503   2.970   0.432
 1831SOL    HW1 7175   3.589   2.972   0.380
 1831SOL    HW2 7176   3.517   3.017   0.520
 1832SOL     OW 7177   1.975   2.599   1.597
 1832SOL    HW1 7178   2.063   2.586   1.642
 1832SOL    HW2 7179   1.962   2.696   1.575
 1833SOL     OW 7180   2.475   3.227   0.726
 1833SOL    HW1 7181   2.426   3.140   0.735
 1833SOL    HW2 7182   2.452   3.270   0.639
 1834SOL     OW 7183   3.155   3.090   1.423
 1834SOL    HW1 7184   3.192   3.017   1.365
 1834SOL    HW2 7185   3.207   3.095   1.508
 1835SOL     OW 7186   2.671   1.866   0.502
 1835SOL    HW1 7187   2.711   1.957   0.493
 1835SOL    HW2 7188   2.571   1.874   0.508
 1836SOL     OW 7189   2.059   2.838   1.264
 1836SOL    HW1 7190   2.148   2.793   1.250
 1836SOL    HW2 7191   1.986   2.773   1.245
 1837SOL     OW 7192   3.387   2.861   0.190
 1837SOL    HW1 7193   3.324   2.785   0.203
 1837SOL    HW2 7194   3.435   2.879   0.276
 1838SOL     OW 7195   3.049   3.654   1.616
 1838SOL    HW1 7196   3.073   3.714   1.540
 1838SOL    HW2 7197   3.056   3.559   1.586
 1839SOL     OW 7198   2.179   2.113   1.801
 1839SOL    HW1 7199   2.250   2.184   1.807
 1839SOL    HW2 7200   2.091   2.152   1.829
 1840SOL     OW 7201   3.328   3.279   0.953
 1840SOL    HW1 7202   3.269   3.285   1.033
 1840SOL    HW2 7203   3.313   3.191   0.907
 1841SOL     OW 7204   3.529   3.576   0.572
 1841SOL    HW1 7205   3.488   3.553   0.484
 1841SOL    HW2 7206   3.511   3.502   0.637
 1842SOL     OW 7207   2.460   2.591   0.270
 1842SOL    HW1 7208   2.484   2.660   0.202
 1842SOL    HW2 7209   2.382   2.624   0.324
 1843SOL     OW 7210   3.143   2.207   0.944
 1843SOL    HW1 7211   3.057   2.157   0.931
 1843SOL    HW2 7212   3.205   2.153   1.000
 1844SOL     OW 7213   3.438   3.524   0.307
 1844SOL    HW1 7214   3.527   3.570   0.310
 1844SOL    HW2 7215   3.417   3.500   0.212
 1845SOL     OW 7216   2.669   2.467   1.465
 1845SOL    HW1 7217   2.622   2.464   1.554
 1845SOL    HW2 7218   2.618   2.412   1.399
 1846SOL     OW 7219   3.256   2.331   1.674
 1846SOL    HW1 7220   3.236   2.374   1.762
 1846SOL    HW2 7221   3.334   2.269   1.683
 1847SOL     OW 7222   2.835   2.752   1.572
 1847SOL    HW1 7223   2.881   2.668   1.543
 1847SOL    HW2 7224   2.779   2.786   1.497
 1848SOL     OW 7225   2.853   2.272   1.242
 1848SOL    HW1 7226   2.776   2.306   1.296
 1848SOL    HW2 7227   2.819   2.221   1.163
 1849SOL     OW 7228   2.903   2.563   0.429
 1849SOL    HW1 7229   2.929   2.559   0.525
 1849SOL    HW2 7230   2.818   2.512   0.415
 1850SOL     OW 7231   1.992   3.683   1.571
 1850SOL    HW1 7232   1.982   3.668   1.670
 1850SOL    HW2 7233   1.906   3.719   1.535
 1851SOL     OW 7234   2.727   2.210   0.195
 1851SOL    HW1 7235   2.786   2.273   0.146
 1851SOL    HW2 7236   2.746   2.116   0.166
 1852SOL     OW 7237   3.581   2.447   1.831
 1852SOL    HW1 7238   3.555   2.536   1.795
 1852SOL    HW2 7239   3.579   2.379   1.758
 1853SOL     OW 7240   3.224   3.006   0.545
 1853SOL    HW1 7241   3.307   2.977   0.497
 1853SOL    HW2 7242   3.175   3.073   0.489
 1854SOL     OW 7243   2.870   3.318   0.477
 1854SOL    HW1 7244   2.824   3.390   0.425
 1854SOL    HW2 7245   2.866   3.338   0.575
 1855SOL     OW 7246   2.213   3.663   0.853
 1855SOL    HW1 7247   2.263   3.577   0.859
 1855SOL    HW2 7248   2.278   3.740   0.850
 1856SOL     OW 7249   3.657   2.928   0.873
 1856SOL    HW1 7250   3.595   2.913   0.797
 1856SOL    HW2 7251   3.605   2.939   0.958
 1857SOL     OW 7252   3.089   3.412   1.506
 1857SOL    HW1 7253   3.095   3.335   1.570
 1857SOL    HW2 7254   3.037   3.386   1.426
 1858SOL     OW 7255   2.183   2.805   0.242
 1858SOL    HW1 7256   2.265   2.844   0.200
 1858SOL    HW2 7257   2.156   2.723   0.193
 1859SOL     OW 7258   3.320   2.597   0.728
 1859SOL    HW1 7259   3.315   2.532   0.803
 1859SOL    HW2 7260   3.400   2.656   0.741
 1860SOL     OW 7261   2.323   3.128   1.727
 1860SOL    HW1 7262   2.273   3.129   1.641
 1860SOL    HW2 7263   2.260   3.110   1.803
 1861SOL     OW 7264   2.973   3.638   0.237
 1861SOL    HW1 7265   2.913   3.576   0.287
 1861SOL    HW2 7266   3.004   3.594   0.152
 1862SOL     OW 7267   2.064   2.147   1.498
 1862SOL    HW1 7268   1.984   2.207   1.485
 1862SOL    HW2 7269   2.054   2.098   1.584
 1863SOL     OW 7270   3.494   3.239   0.081
 1863SOL    HW1 7271   3.462   3.333   0.071
 1863SOL    HW2 7272   3.418   3.176   0.069
 1864SOL     OW 7273   3.262   1.969   0.426
 1864SOL    HW1 7274   3.238   1.932   0.336
 1864SOL    HW2 7275   3.361   1.985   0.430
 1865SOL     OW 7276   2.802   3.560   0.904
 1865SOL    HW1 7277   2.882   3.503   0.925
 1865SOL    HW2 7278   2.753   3.520   0.827
 1866SOL     OW 7279   2.244   2.562   0.480
 1866SOL    HW1 7280   2.289   2.472   0.477
 1866SOL    HW2 7281   2.150   2.551   0.513
 1867SOL     OW 7282   3.409   2.084   1.729
 1867SOL    HW1 7283   3.404   2.121   1.821
 1867SOL    HW2 7284   3.337   2.015   1.717
 1868SOL     OW 7285   2.643   2.126   1.749
 1868SOL    HW1 7286   2.710   2.065   1.792
 1868SOL    HW2 7287   2.570   2.145   1.814
 1869SOL     OW 7288   2.750   3.376   1.195
 1869SOL    HW1 7289   2.727   3.351   1.101
 1869SOL    HW2 7290   2.811   3.307   1.234
 1870SOL     OW 7291   3.213   2.452   1.433
 1870SOL    HW1 7292   3.241   2.409   1.518
 1870SOL    HW2 7293   3.238   2.548   1.434
 1871SOL     OW 7294   2.665   3.264   0.924
 1871SOL    HW1 7295   2.755   3.278   0.882
 1871SOL    HW2 7296   2.594   3.266   0.853
 1872SOL     OW 7297   2.784   2.365   0.899
 1872SOL    HW1 7298   2.759   2.356   0.803
 1872SOL    HW2 7299   2.832   2.283   0.930
 1873SOL     OW 7300   3.296   3.050   0.041
 1873SOL    HW1 7301   3.328   2.974   0.098
 1873SOL    HW2 7302   3.204   3.077   0.071
 1874SOL     OW 7303   2.159   1.897   0.171
 1874SOL    HW1 7304   2.208   1.981   0.150
 1874SOL    HW2 7305   2.221   1.832   0.216
 1875SOL     OW 7306   2.797   2.098   0.480
 1875SOL    HW1 7307   2.749   2.139   0.402
 1875SOL    HW2 7308   2.896   2.096   0.461
 1876SOL     OW 7309   2.938   2.545   1.464
 1876SOL    HW1 7310   2.858   2.484   1.467
 1876SOL    HW2 7311   3.019   2.492   1.440
 1877SOL     OW 7312   3.089   3.432   0.793
 1877SOL    HW1 7313   3.110   3.506   0.728
 1877SOL    HW2 7314   3.157   3.432   0.866
 1878SOL     OW 7315   2.321   3.014   0.741
 1878SOL    HW1 7316   2.250   2.987   0.806
 1878SOL    HW2 7317   2.295   2.986   0.648
 1879SOL     OW 7318   3.133   3.659   0.591
 1879SOL    HW1 7319   3.177   3.723   0.527
 1879SOL    HW2 7320   3.083   3.711   0.661
 1880SOL     OW 7321   2.894   2.411   0.016
 1880SOL    HW1 7322   2.853   2.493  -0.023
 1880SOL    HW2 7323   2.958   2.437   0.089
 1881SOL     OW 7324   2.728   2.316   0.642
 1881SOL    HW1 7325   2.696   2.388   0.580
 1881SOL    HW2 7326   2.752   2.235   0.589
 1882SOL     OW 7327   2.879   1.901   0.753
 1882SOL    HW1 7328   2.807   1.906   0.684
 1882SOL    HW2 7329   2.855   1.832   0.822
 1883SOL     OW 7330   3.291   3.035   0.867
 1883SOL    HW1 7331   3.236   2.951   0.860
 1883SOL    HW2 7332   3.317   3.064   0.775
 1884SOL     OW 7333   3.328   2.452   0.992
 1884SOL    HW1 7334   3.298   2.357   0.999
 1884SOL    HW2 7335   3.401   2.468   1.058
 1885SOL     OW 7336   3.719   2.695   0.377
 1885SOL    HW1 7337   3.761   2.631   0.441
 1885SOL    HW2 7338   3.681   2.644   0.299
 1886SOL     OW 7339   2.350   3.247   0.174
 1886SOL    HW1 7340   2.263   3.232   0.221
 1886SOL    HW2 7341   2.333   3.273   0.079
 1887SOL     OW 7342   3.526   3.142   0.657
 1887SOL    HW1 7343   3.625   3.150   0.671
 1887SOL    HW2 7344   3.481   3.226   0.688
 1888SOL     OW 7345   3.252   2.437   0.078
 1888SOL    HW1 7346   3.198   2.416   0.159
 1888SOL    HW2 7347   3.343   2.396   0.087
 1889SOL     OW 7348   2.389   2.118   0.328
 1889SOL    HW1 7349   2.416   2.059   0.253
 1889SOL    HW2 7350   2.389   2.213   0.297
 1890SOL     OW 7351   3.616   3.085   1.588
 1890SOL    HW1 7352   3.707   3.046   1.575
 1890SOL    HW2 7353   3.624   3.181   1.612
 1891SOL     OW 7354   2.926   3.209   1.340
 1891SOL    HW1 7355   2.846   3.186   1.395
 1891SOL    HW2 7356   3.009   3.183   1.389
 1892SOL     OW 7357   3.454   3.491   1.625
 1892SOL    HW1 7358   3.481   3.525   1.535
 1892SOL    HW2 7359   3.533   3.453   1.671
 1893SOL     OW 7360   2.973   3.057   1.100
 1893SOL    HW1 7361   2.933   3.101   1.181
 1893SOL    HW2 7362   2.932   3.094   1.017
 1894SOL     OW 7363   3.500   2.961   1.079
 1894SOL    HW1 7364   3.505   3.042   1.138
 1894SOL    HW2 7365   3.414   2.963   1.028
 1895SOL     OW 7366   2.777   1.951   1.402
 1895SOL    HW1 7367   2.802   1.931   1.307
 1895SOL    HW2 7368   2.849   2.007   1.444
 1896SOL     OW 7369   2.842   2.978   1.719
 1896SOL    HW1 7370   2.743   2.984   1.729
 1896SOL    HW2 7371   2.865   2.898   1.663
 1897SOL     OW 7372   2.567   2.912   0.368
 1897SOL    HW1 7373   2.553   2.919   0.467
 1897SOL    HW2 7374   2.651   2.861   0.350
 1898SOL     OW 7375   2.272   2.675   1.251
 1898SOL    HW1 7376   2.358   2.687   1.301
 1898SOL    HW2 7377   2.230   2.588   1.278
 1899SOL     OW 7378   3.136   2.248   1.262
 1899SOL    HW1 7379   3.157   2.322   1.326
 1899SOL    HW2 7380   3.047   2.265   1.219
 1900SOL     OW 7381   2.229   2.962   0.501
 1900SOL    HW1 7382   2.222   3.045   0.445
 1900SOL    HW2 7383   2.233   2.882   0.441
 1901SOL     OW 7384   2.428   2.399   0.865
 1901SOL    HW1 7385   2.440   2.465   0.791
 1901SOL    HW2 7386   2.474   2.433   0.948
 1902SOL     OW 7387   3.114   3.210   0.388
 1902SOL    HW1 7388   3.164   3.287   0.428
 1902SOL    HW2 7389   3.019   3.212   0.420
 1903SOL     OW 7390   3.134   3.307   1.142
 1903SOL    HW1 7391   3.181   3.320   1.229
 1903SOL    HW2 7392   3.068   3.233   1.151
 1904SOL     OW 7393   3.444   2.501   0.472
 1904SOL    HW1 7394   3.413   2.562   0.545
 1904SOL    HW2 7395   3.494   2.553   0.403
 1905SOL     OW 7396   2.216   3.372   1.329
 1905SOL    HW1 7397   2.195   3.328   1.242
 1905SOL    HW2 7398   2.313   3.398   1.332
 1906SOL     OW 7399   2.264   2.613   1.598
 1906SOL    HW1 7400   2.332   2.668   1.551
 1906SOL    HW2 7401   2.304   2.525   1.625
 1907SOL     OW 7402   3.449   2.641   1.670
 1907SOL    HW1 7403   3.357   2.679   1.665
 1907SOL    HW2 7404   3.509   2.688   1.605
 1908SOL     OW 7405   2.875   1.967   1.770
 1908SOL    HW1 7406   2.881   2.052   1.718
 1908SOL    HW2 7407   2.907   1.891   1.713
 1909SOL     OW 7408   2.366   1.912   1.740
 1909SOL    HW1 7409   2.324   1.855   1.670
 1909SOL    HW2 7410   2.300   1.981   1.772
 1910SOL     OW 7411   2.435   2.732   1.029
 1910SOL    HW1 7412   2.479   2.821   1.020
 1910SOL    HW2 7413   2.372   2.732   1.106
 1911SOL     OW 7414   3.222   2.724   1.045
 1911SOL    HW1 7415   3.147   2.724   0.979
 1911SOL    HW2 7416   3.259   2.632   1.054
 1912SOL     OW 7417   3.071   2.387   0.275
 1912SOL    HW1 7418   3.084   2.303   0.329
 1912SOL    HW2 7419   3.042   2.461   0.335
 1913SOL     OW 7420   2.169   2.075   1.231
 1913SOL    HW1 7421   2.146   2.112   1.321
 1913SOL    HW2 7422   2.139   1.980   1.225
 1914SOL     OW 7423   2.594   2.496   1.064
 1914SOL    HW1 7424   2.653   2.470   0.988
 1914SOL    HW2 7425   2.566   2.592   1.053
 1915SOL     OW 7426   3.590   2.797   1.854
 1915SOL    HW1 7427   3.544   2.790   1.765
 1915SOL    HW2 7428   3.528   2.841   1.920
 1916SOL     OW 7429   3.484   2.229   0.374
 1916SOL    HW1 7430   3.486   2.153   0.438
 1916SOL    HW2 7431   3.436   2.306   0.414
 1917SOL     OW 7432   2.885   2.628   0.966
 1917SOL    HW1 7433   2.900   2.649   1.062
 1917SOL    HW2 7434   2.855   2.533   0.957
 1918SOL     OW 7435   2.842   3.435   1.700
 1918SOL    HW1 7436   2.822   3.479   1.612
 1918SOL    HW2 7437   2.881   3.344   1.684
 1919SOL     OW 7438   3.721   3.380   1.605
 1919SOL    HW1 7439   3.735   3.407   1.510
 1919SOL    HW2 7440   3.804   3.402   1.658
 1920SOL     OW 7441   2.212   2.760   1.804
 1920SOL    HW1 7442   2.288   2.804   1.852
 1920SOL    HW2 7443   2.247   2.713   1.722
 1921SOL     OW 7444   3.402   2.136   0.125
 1921SOL    HW1 7445   3.341   2.061   0.148
 1921SOL    HW2 7446   3.424   2.188   0.208
 1922SOL     OW 7447   3.165   2.700   0.042
 1922SOL    HW1 7448   3.199   2.607   0.057
 1922SOL    HW2 7449   3.183   2.727  -0.053
 1923SOL     OW 7450   2.930   3.195   0.849
 1923SOL    HW1 7451   2.937   3.111   0.794
 1923SOL    HW2 7452   2.992   3.264   0.813
 1924SOL     OW 7453   2.181   2.672   0.949
 1924SOL    HW1 7454   2.274   2.708   0.954
 1924SOL    HW2 7455   2.175   2.587   1.001
 1925SOL     OW 7456   2.201   2.371   1.006
 1925SOL    HW1 7457   2.149   2.288   0.989
 1925SOL    HW2 7458   2.278   2.376   0.942
 1926SOL     OW 7459   3.000   2.242   1.678
 1926SOL    HW1 7460   2.955   2.305   1.742
 1926SOL    HW2 7461   3.093   2.273   1.661
 1927SOL     OW 7462   3.022   2.069   1.477
 1927SOL    HW1 7463   3.022   2.133   1.554
 1927SOL    HW2 7464   3.050   2.117   1.394
 1928SOL     OW 7465   2.366   3.430   0.910
 1928SOL    HW1 7466   2.432   3.504   0.919
 1928SOL    HW2 7467   2.410   3.351   0.868
 1929SOL     OW 7468   2.864   2.658   1.238
 1929SOL    HW1 7469   2.905   2.626   1.324
 1929SOL    HW2 7470   2.768   2.631   1.235
 1930SOL     OW 7471   1.902   2.406   1.114
 1930SOL    HW1 7472   1.987   2.373   1.073
 1930SOL    HW2 7473   1.915   2.421   1.212
 1931SOL     OW 7474   2.051   2.382   1.722
 1931SOL    HW1 7475   2.110   2.342   1.652
 1931SOL    HW2 7476   1.993   2.453   1.681
 1932SOL     OW 7477   3.231   2.812   1.660
 1932SOL    HW1 7478   3.270   2.901   1.680
 1932SOL    HW2 7479   3.241   2.792   1.563
 1933SOL     OW 7480   2.677   2.434   0.325
 1933SOL    HW1 7481   2.684   2.345   0.279
 1933SOL    HW2 7482   2.583   2.468   0.317
 1934SOL     OW 7483   3.519   2.466   1.206
 1934SOL    HW1 7484   3.481   2.397   1.268
 1934SOL    HW2 7485   3.601   2.430   1.162
 1935SOL     OW 7486   2.114   3.426   1.744
 1935SOL    HW1 7487   2.084   3.483   1.820
 1935SOL    HW2 7488   2.107   3.329   1.770
 1936SOL     OW 7489   2.792   3.540   1.465
 1936SOL    HW1 7490   2.768   3.522   1.370
 1936SOL    HW2 7491   2.822   3.634   1.475
 1937SOL     OW 7492   2.335   2.362   0.191
 1937SOL    HW1 7493   2.396   2.442   0.195
 1937SOL    HW2 7494   2.240   2.393   0.198
 1938SOL     OW 7495   2.021   2.999   1.466
 1938SOL    HW1 7496   2.043   2.938   1.542
 1938SOL    HW2 7497   2.031   2.950   1.380
 1939SOL     OW 7498   3.209   2.921   1.234
 1939SOL    HW1 7499   3.233   2.858   1.160
 1939SOL    HW2 7500   3.119   2.961   1.216
 1940SOL     OW 7501   3.164   2.717   0.309
 1940SOL    HW1 7502   3.078   2.686   0.351
 1940SOL    HW2 7503   3.160   2.703   0.210
 1941SOL     OW 7504   3.621   3.609   1.154
 1941SOL    HW1 7505   3.682   3.639   1.081
 1941SOL    HW2 7506   3.583   3.520   1.132
 1942SOL     OW 7507   3.114   3.593   1.128
 1942SOL    HW1 7508   3.198   3.598   1.074
 1942SOL    HW2 7509   3.091   3.497   1.146
 1943SOL     OW 7510   2.550   3.524   1.716
 1943SOL    HW1 7511   2.494   3.605   1.725
 1943SOL    HW2 7512   2.602   3.528   1.630
 1944SOL     OW 7513   2.765   1.948   0.133
 1944SOL    HW1 7514   2.816   1.949   0.047
 1944SOL    HW2 7515   2.821   1.906   0.204
 1945SOL     OW 7516   3.588   1.997   0.523
 1945SOL    HW1 7517   3.661   1.980   0.456
 1945SOL    HW2 7518   3.557   1.910   0.561
 1946SOL     OW 7519   3.250   3.435   0.477
 1946SOL    HW1 7520   3.317   3.447   0.403
 1946SOL    HW2 7521   3.210   3.524   0.500
 1947SOL     OW 7522   1.992   3.656   1.851
 1947SOL    HW1 7523   1.951   3.582   1.904
 1947SOL    HW2 7524   2.056   3.707   1.909
 1948SOL     OW 7525   3.142   2.789   0.672
 1948SOL    HW1 7526   3.202   2.708   0.674
 1948SOL    HW2 7527   3.182   2.858   0.612
 1949SOL     OW 7528   2.692   3.135   1.422
 1949SOL    HW1 7529   2.687   3.168   1.517
 1949SOL    HW2 7530   2.606   3.154   1.376
 1950SOL     OW 7531   3.512   3.582   1.394
 1950SOL    HW1 7532   3.565   3.592   1.310
 1950SOL    HW2 7533   3.485   3.672   1.428
 1951SOL     OW 7534   3.703   2.037   0.963
 1951SOL    HW1 7535   3.742   1.952   0.927
 1951SOL    HW2 7536   3.605   2.039   0.944
 1952SOL     OW 7537   2.125   2.188   0.720
 1952SOL    HW1 7538   2.046   2.239   0.686
 1952SOL    HW2 7539   2.116   2.173   0.818
 1953SOL     OW 7540   3.056   3.474   0.031
 1953SOL    HW1 7541   3.062   3.381   0.068
 1953SOL    HW2 7542   2.997   3.474  -0.049
 1954SOL     OW 7543   2.684   2.864   1.372
 1954SOL    HW1 7544   2.724   2.863   1.280
 1954SOL    HW2 7545   2.694   2.956   1.412
 1955SOL     OW 7546   2.778   2.772   0.291
 1955SOL    HW1 7547   2.841   2.810   0.223
 1955SOL    HW2 7548   2.818   2.689   0.330
 1956SOL     OW 7549   3.366   3.469   0.044
 1956SOL    HW1 7550   3.274   3.506   0.051
 1956SOL    HW2 7551   3.404   3.489  -0.046
 1957SOL     OW 7552   2.234   3.150   1.490
 1957SOL    HW1 7553   2.221   3.243   1.456
 1957SOL    HW2 7554   2.150   3.098   1.477
 1958SOL     OW 7555   3.476   3.154   1.289
 1958SOL    HW1 7556   3.536   3.157   1.369
 1958SOL    HW2 7557   3.401   3.218   1.302
 1959SOL     OW 7558   2.901   2.960   0.696
 1959SOL    HW1 7559   2.831   2.913   0.750
 1959SOL    HW2 7560   2.960   2.892   0.653
 1960SOL     OW 7561   2.876   2.098   0.971
 1960SOL    HW1 7562   2.868   2.062   0.878
 1960SOL    HW2 7563   2.874   2.022   1.036
 1961SOL     OW 7564   2.452   3.349   0.491
 1961SOL    HW1 7565   2.494   3.291   0.421
 1961SOL    HW2 7566   2.408   3.428   0.447
 1962SOL     OW 7567   3.571   2.247   1.381
 1962SOL    HW1 7568   3.644   2.316   1.385
 1962SOL    HW2 7569   3.599   2.172   1.322
 1963SOL     OW 7570   2.117   3.210   0.290
 1963SOL    HW1 7571   2.021   3.211   0.263
 1963SOL    HW2 7572   2.129   3.263   0.374
 1964SOL     OW 7573   1.967   2.875   1.726
 1964SOL    HW1 7574   1.890   2.842   1.780
 1964SOL    HW2 7575   2.052   2.845   1.768
 1965SOL     OW 7576   2.534   2.065   1.489
 1965SOL    HW1 7577   2.624   2.049   1.449
 1965SOL    HW2 7578   2.542   2.070   1.588
 1966SOL     OW 7579   3.302   2.718   1.398
 1966SOL    HW1 7580   3.245   2.770   1.335
 1966SOL    HW2 7581   3.398   2.730   1.374
 1967SOL     OW 7582   1.934   2.028   0.318
 1967SOL    HW1 7583   1.917   2.111   0.264
 1967SOL    HW2 7584   2.024   1.991   0.296
 1968SOL     OW 7585   3.045   3.197   0.119
 1968SOL    HW1 7586   2.946   3.186   0.121
 1968SOL    HW2 7587   3.079   3.212   0.212
 1969SOL     OW 7588   2.475   2.704   1.431
 1969SOL    HW1 7589   2.531   2.785   1.414
 1969SOL    HW2 7590   2.534   2.624   1.434
 1970SOL     OW 7591   3.355   3.629   0.959
 1970SOL    HW1 7592   3.388   3.693   0.890
 1970SOL    HW2 7593   3.421   3.623   1.034
 1971SOL     OW 7594   2.578   2.427   1.708
 1971SOL    HW1 7595   2.597   2.492   1.782
 1971SOL    HW2 7596   2.638   2.347   1.717
 1972SOL     OW 7597   3.312   3.082   1.633
 1972SOL    HW1 7598   3.303   3.072   1.732
 1972SOL    HW2 7599   3.408   3.075   1.607
 1973SOL     OW 7600   2.252   3.603   1.560
 1973SOL    HW1 7601   2.161   3.644   1.558
 1973SOL    HW2 7602   2.245   3.509   1.592
 1974SOL     OW 7603   3.536   2.745   1.254
 1974SOL    HW1 7604   3.509   2.656   1.217
 1974SOL    HW2 7605   3.537   2.813   1.181
 1975SOL     OW 7606   3.087   2.187   0.449
 1975SOL    HW1 7607   3.152   2.113   0.438
 1975SOL    HW2 7608   3.107   2.237   0.533
 1976SOL     OW 7609   2.456   2.607   0.652
 1976SOL    HW1 7610   2.506   2.692   0.633
 1976SOL    HW2 7611   2.368   2.609   0.604
 1977SOL     OW 7612   3.639   2.204   1.642
 1977SOL    HW1 7613   3.622   2.235   1.548
 1977SOL    HW2 7614   3.555   2.167   1.680
 1978SOL     OW 7615   3.592   2.796   1.517
 1978SOL    HW1 7616   3.630   2.887   1.532
 1978SOL    HW2 7617   3.584   2.779   1.418
 1979SOL     OW 7618   2.721   3.236   0.016
 1979SOL    HW1 7619   2.675   3.251   0.104
 1979SOL    HW2 7620   2.765   3.321  -0.014
 1980SOL     OW 7621   2.523   3.652   0.953
 1980SOL    HW1 7622   2.477   3.740   0.940
 1980SOL    HW2 7623   2.622   3.664   0.946
 1981SOL     OW 7624   2.721   2.818   0.861
 1981SOL    HW1 7625   2.775   2.749   0.909
 1981SOL    HW2 7626   2.689   2.887   0.927
 1982SOL     OW 7627   2.945   2.846   0.087
 1982SOL    HW1 7628   2.922   2.899   0.005
 1982SOL    HW2 7629   3.026   2.790   0.068
 1983SOL     OW 7630   3.723   3.431   0.851
 1983SOL    HW1 7631   3.652   3.419   0.781
 1983SOL    HW2 7632   3.724   3.352   0.911
 1984SOL     OW 7633   2.083   3.176   1.844
 1984SOL    HW1 7634   2.018   3.103   1.823
 1984SOL    HW2 7635   2.087   3.190   1.942
 1985SOL     OW 7636   2.534   3.253   1.624
 1985SOL    HW1 7637   2.456   3.203   1.662
 1985SOL    HW2 7638   2.531   3.348   1.655
 1986SOL     OW 7639   3.686   2.054   1.227
 1986SOL    HW1 7640   3.682   1.964   1.271
 1986SOL    HW2 7641   3.689   2.043   1.128
 1987SOL     OW 7642   2.290   2.286   0.520
 1987SOL    HW1 7643   2.320   2.214   0.458
 1987SOL    HW2 7644   2.251   2.246   0.603
 1988SOL     OW 7645   3.567   3.349   1.104
 1988SOL    HW1 7646   3.474   3.324   1.077
 1988SOL    HW2 7647   3.593   3.299   1.186
 1989SOL     OW 7648   2.674   3.448   0.687
 1989SOL    HW1 7649   2.706   3.458   0.593
 1989SOL    HW2 7650   2.595   3.386   0.689
 1990SOL     OW 7651   3.286   2.076   1.112
 1990SOL    HW1 7652   3.338   2.011   1.167
 1990SOL    HW2 7653   3.237   2.139   1.173
 1991SOL     OW 7654   2.863   1.896   1.154
 1991SOL    HW1 7655   2.800   1.824   1.123
 1991SOL    HW2 7656   2.956   1.860   1.154
 1992SOL     OW 7657   2.632   3.192   0.301
 1992SOL    HW1 7658   2.586   3.105   0.318
 1992SOL    HW2 7659   2.723   3.189   0.342
 1993SOL     OW 7660   2.480   3.429   1.284
 1993SOL    HW1 7661   2.475   3.511   1.341
 1993SOL    HW2 7662   2.569   3.426   1.239
 1994SOL     OW 7663   3.214   1.914   0.168
 1994SOL    HW1 7664   3.249   1.873   0.084
 1994SOL    HW2 7665   3.124   1.876   0.188
 1995SOL     OW 7666   3.162   2.315   0.691
 1995SOL    HW1 7667   3.103   2.395   0.695
 1995SOL    HW2 7668   3.177   2.280   0.784
 1996SOL     OW 7669   3.455   2.083   0.882
 1996SOL    HW1 7670   3.371   2.082   0.936
 1996SOL    HW2 7671   3.457   2.166   0.826
 1997SOL     OW 7672   1.901   2.939   0.300
 1997SOL    HW1 7673   2.000   2.928   0.291
 1997SOL    HW2 7674   1.861   2.853   0.332
 1998SOL     OW 7675   2.737   3.508   0.337
 1998SOL    HW1 7676   2.660   3.473   0.283
 1998SOL    HW2 7677   2.705   3.579   0.399
 1999SOL     OW 7678   2.092   2.490   1.975
 1999SOL    HW1 7679   1.999   2.488   2.012
 1999SOL    HW2 7680   2.093   2.451   1.883
 2000SOL     OW 7681   2.087   2.137   2.858
 2000SOL    HW1 7682   2.122   2.120   2.950
 2000SOL    HW2 7683   1.999   2.092   2.846
 2001SOL     OW 7684   1.881   2.230   2.509
 2001SOL    HW1 7685   1.799   2.273   2.548
 2001SOL    HW2 7686   1.853   2.157   2.446
 2002SOL     OW 7687   2.431   3.137   3.027
 2002SOL    HW1 7688   2.338   3.130   2.990
 2002SOL    HW2 7689   2.442   3.226   3.071
 2003SOL     OW 7690   3.417   3.373   2.565
 2003SOL    HW1 7691   3.360   3.357   2.646
 2003SOL    HW2 7692   3.358   3.383   2.485
 2004SOL     OW 7693   2.630   3.006   2.885
 2004SOL    HW1 7694   2.552   3.023   2.945
 2004SOL    HW2 7695   2.664   3.093   2.849
 2005SOL     OW 7696   2.548   3.023   3.665
 2005SOL    HW1 7697   2.608   3.102   3.679
 2005SOL    HW2 7698   2.462   3.054   3.624
 2006SOL     OW 7699   2.197   3.297   2.923
 2006SOL    HW1 7700   2.119   3.266   2.870
 2006SOL    HW2 7701   2.255   3.355   2.866
 2007SOL     OW 7702   3.322   3.367   3.201
 2007SOL    HW1 7703   3.346   3.461   3.227
 2007SOL    HW2 7704   3.306   3.313   3.283
 2008SOL     OW 7705   2.300   2.254   3.361
 2008SOL    HW1 7706   2.382   2.198   3.370
 2008SOL    HW2 7707   2.219   2.196   3.365
 2009SOL     OW 7708   2.093   3.575   2.345
 2009SOL    HW1 7709   2.127   3.652   2.399
 2009SOL    HW2 7710   2.137   3.575   2.255
 2010SOL     OW 7711   2.989   3.203   3.552
 2010SOL    HW1 7712   3.036   3.203   3.640
 2010SOL    HW2 7713   2.941   3.116   3.541
 2011SOL     OW 7714   2.092   3.296   2.400
 2011SOL    HW1 7715   2.066   3.392   2.400
 2011SOL    HW2 7716   2.021   3.242   2.445
 2012SOL     OW 7717   2.102   2.953   2.748
 2012SOL    HW1 7718   2.116   2.869   2.800
 2012SOL    HW2 7719   2.047   3.017   2.803
 2013SOL     OW 7720   2.482   3.648   3.301
 2013SOL    HW1 7721   2.390   3.631   3.336
 2013SOL    HW2 7722   2.510   3.740   3.327
 2014SOL     OW 7723   2.468   2.826   1.985
 2014SOL    HW1 7724   2.475   2.910   1.931
 2014SOL    HW2 7725   2.514   2.839   2.073
 2015SOL     OW 7726   3.456   1.976   3.342
 2015SOL    HW1 7727   3.438   2.043   3.270
 2015SOL    HW2 7728   3.453   2.022   3.431
 2016SOL     OW 7729   1.889   3.458   1.979
 2016SOL    HW1 7730   1.870   3.362   2.000
 2016SOL    HW2 7731   1.856   3.516   2.054
 2017SOL     OW 7732   3.551   2.784   2.474
 2017SOL    HW1 7733   3.646   2.755   2.482
 2017SOL    HW2 7734   3.543   2.849   2.399
 2018SOL     OW 7735   3.503   2.970   2.294
 2018SOL    HW1 7736   3.589   2.972   2.242
 2018SOL    HW2 7737   3.517   3.017   2.382
 2019SOL     OW 7738   1.975   2.599   3.459
 2019SOL    HW1 7739   2.063   2.586   3.504
 2019SOL    HW2 7740   1.962   2.696   3.437
 2020SOL     OW 7741   2.475   3.227   2.588
 2020SOL    HW1 7742   2.426   3.140   2.597
 2020SOL    HW2 7743   2.452   3.270   2.501
 2021SOL     OW 7744   3.155   3.090   3.285
 2021SOL    HW1 7745   3.192   3.017   3.227
 2021SOL    HW2 7746   3.207   3.095   3.370
 2022SOL     OW 7747   2.671   1.866   2.364
 2022SOL    HW1 7748   2.711   1.957   2.355
 2022SOL    HW2 7749   2.571   1.874   2.370
 2023SOL     OW 7750   2.059   2.838   3.126
 2023SOL    HW1 7751   2.148   2.793   3.112
 2023SOL    HW2 7752   1.986   2.773   3.107
 2024SOL     OW 7753   3.387   2.861   2.052
 2024SOL    HW1 7754   3.324   2.785   2.065
 2024SOL    HW2 7755   3.435   2.879   2.138
 2025SOL     OW 7756   3.049   3.654   3.478
 2025SOL    HW1 7757   3.073   3.714   3.402
 2025SOL    HW2 7758   3.056   3.559   3.448
 2026SOL     OW 7759   2.179   2.113   3.663
 2026SOL    HW1 7760   2.250   2.184   3.669
 2026SOL    HW2 7761   2.091   2.152   3.691
 2027SOL     OW 7762   3.328   3.279   2.815
 2027SOL    HW1 7763   3.269   3.285   2.895
 2027SOL    HW2 7764   3.313   3.191   2.769
 2028SOL     OW 7765   2.460   2.591   2.132
 2028SOL    HW1 7766   2.484   2.660   2.064
 2028SOL    HW2 7767   2.382   2.624   2.186
 2029SOL     OW 7768   2.669   2.467   3.327
 2029SOL    HW1 7769   2.622   2.464   3.416
 2029SOL    HW2 7770   2.618   2.412   3.261
 2030SOL     OW 7771   2.853   2.272   3.104
 2030SOL    HW1 7772   2.776   2.306   3.158
 2030SOL    HW2 7773   2.819   2.221   3.025
 2031SOL     OW 7774   2.903   2.563   2.291
 2031SOL    HW1 7775   2.929   2.559   2.387
 2031SOL    HW2 7776   2.818   2.512   2.277
 2032SOL     OW 7777   1.938   2.673   2.651
 2032SOL    HW1 7778   2.037   2.661   2.660
 2032SOL    HW2 7779   1.914   2.768   2.672
 2033SOL     OW 7780   1.992   3.683   3.433
 2033SOL    HW1 7781   1.982   3.668   3.532
 2033SOL    HW2 7782   1.906   3.719   3.397
 2034SOL     OW 7783   2.727   2.210   2.057
 2034SOL    HW1 7784   2.786   2.273   2.008
 2034SOL    HW2 7785   2.746   2.116   2.028
 2035SOL     OW 7786   3.581   2.447   3.693
 2035SOL    HW1 7787   3.555   2.536   3.657
 2035SOL    HW2 7788   3.579   2.379   3.620
 2036SOL     OW 7789   3.224   3.006   2.407
 2036SOL    HW1 7790   3.307   2.977   2.359
 2036SOL    HW2 7791   3.175   3.073   2.351
 2037SOL     OW 7792   2.412   2.058   2.747
 2037SOL    HW1 7793   2.407   2.053   2.847
 2037SOL    HW2 7794   2.414   2.154   2.718
 2038SOL     OW 7795   2.870   3.318   2.339
 2038SOL    HW1 7796   2.824   3.390   2.287
 2038SOL    HW2 7797   2.866   3.338   2.437
 2039SOL     OW 7798   2.213   3.663   2.715
 2039SOL    HW1 7799   2.263   3.577   2.721
 2039SOL    HW2 7800   2.278   3.740   2.712
 2040SOL     OW 7801   3.657   2.928   2.735
 2040SOL    HW1 7802   3.595   2.913   2.659
 2040SOL    HW2 7803   3.605   2.939   2.820
 2041SOL     OW 7804   3.089   3.412   3.368
 2041SOL    HW1 7805   3.095   3.335   3.432
 2041SOL    HW2 7806   3.037   3.386   3.288
 2042SOL     OW 7807   2.183   2.805   2.104
 2042SOL    HW1 7808   2.265   2.844   2.062
 2042SOL    HW2 7809   2.156   2.723   2.055
 2043SOL     OW 7810   3.320   2.597   2.590
 2043SOL    HW1 7811   3.315   2.532   2.665
 2043SOL    HW2 7812   3.400   2.656   2.603
 2044SOL     OW 7813   2.323   3.128   3.589
 2044SOL    HW1 7814   2.273   3.129   3.503
 2044SOL    HW2 7815   2.260   3.110   3.665
 2045SOL     OW 7816   2.973   3.638   2.099
 2045SOL    HW1 7817   2.913   3.576   2.149
 2045SOL    HW2 7818   3.004   3.594   2.014
 2046SOL     OW 7819   2.064   2.147   3.360
 2046SOL    HW1 7820   1.984   2.207   3.347
 2046SOL    HW2 7821   2.054   2.098   3.446
 2047SOL     OW 7822   3.494   3.239   1.943
 2047SOL    HW1 7823   3.462   3.333   1.933
 2047SOL    HW2 7824   3.418   3.176   1.931
 2048SOL     OW 7825   2.326   3.605   2.185
 2048SOL    HW1 7826   2.359   3.644   2.271
 2048SOL    HW2 7827   2.402   3.598   2.120
 2049SOL     OW 7828   2.111   3.647   3.103
 2049SOL    HW1 7829   2.168   3.582   3.153
 2049SOL    HW2 7830   2.095   3.614   3.010
 2050SOL     OW 7831   2.802   3.560   2.766
 2050SOL    HW1 7832   2.882   3.503   2.787
 2050SOL    HW2 7833   2.753   3.520   2.689
 2051SOL     OW 7834   2.244   2.562   2.342
 2051SOL    HW1 7835   2.289   2.472   2.339
 2051SOL    HW2 7836   2.150   2.551   2.375
 2052SOL     OW 7837   3.409   2.084   3.591
 2052SOL    HW1 7838   3.404   2.121   3.683
 2052SOL    HW2 7839   3.337   2.015   3.579
 2053SOL     OW 7840   2.476   1.984   1.979
 2053SOL    HW1 7841   2.574   1.962   1.986
 2053SOL    HW2 7842   2.445   1.967   1.886
 2054SOL     OW 7843   2.643   2.126   3.611
 2054SOL    HW1 7844   2.710   2.065   3.654
 2054SOL    HW2 7845   2.570   2.145   3.676
 2055SOL     OW 7846   2.750   3.376   3.057
 2055SOL    HW1 7847   2.727   3.351   2.963
 2055SOL    HW2 7848   2.811   3.307   3.096
 2056SOL     OW 7849   3.213   2.452   3.295
 2056SOL    HW1 7850   3.241   2.409   3.380
 2056SOL    HW2 7851   3.238   2.548   3.296
 2057SOL     OW 7852   2.665   3.264   2.786
 2057SOL    HW1 7853   2.755   3.278   2.744
 2057SOL    HW2 7854   2.594   3.266   2.715
 2058SOL     OW 7855   3.296   3.050   1.903
 2058SOL    HW1 7856   3.328   2.974   1.960
 2058SOL    HW2 7857   3.204   3.077   1.933
 2059SOL     OW 7858   2.159   1.897   2.033
 2059SOL    HW1 7859   2.208   1.981   2.012
 2059SOL    HW2 7860   2.221   1.832   2.078
 2060SOL     OW 7861   3.089   3.432   2.655
 2060SOL    HW1 7862   3.110   3.506   2.590
 2060SOL    HW2 7863   3.157   3.432   2.728
 2061SOL     OW 7864   2.321   3.014   2.603
 2061SOL    HW1 7865   2.250   2.987   2.668
 2061SOL    HW2 7866   2.295   2.986   2.510
 2062SOL     OW 7867   2.894   2.411   1.878
 2062SOL    HW1 7868   2.853   2.493   1.839
 2062SOL    HW2 7869   2.958   2.437   1.951
 2063SOL     OW 7870   1.940   2.418   3.248
 2063SOL    HW1 7871   2.032   2.417   3.207
 2063SOL    HW2 7872   1.934   2.492   3.315
 2064SOL     OW 7873   2.423   2.084   3.009
 2064SOL    HW1 7874   2.461   2.000   3.046
 2064SOL    HW2 7875   2.335   2.103   3.053
 2065SOL     OW 7876   3.291   3.035   2.729
 2065SOL    HW1 7877   3.236   2.951   2.722
 2065SOL    HW2 7878   3.317   3.064   2.637
 2066SOL     OW 7879   3.328   2.452   2.854
 2066SOL    HW1 7880   3.298   2.357   2.861
 2066SOL    HW2 7881   3.401   2.468   2.920
 2067SOL     OW 7882   3.719   2.695   2.239
 2067SOL    HW1 7883   3.761   2.631   2.303
 2067SOL    HW2 7884   3.681   2.644   2.161
 2068SOL     OW 7885   2.350   3.247   2.036
 2068SOL    HW1 7886   2.263   3.232   2.083
 2068SOL    HW2 7887   2.333   3.273   1.941
 2069SOL     OW 7888   3.526   3.142   2.519
 2069SOL    HW1 7889   3.625   3.150   2.533
 2069SOL    HW2 7890   3.481   3.226   2.550
 2070SOL     OW 7891   3.252   2.437   1.940
 2070SOL    HW1 7892   3.198   2.416   2.021
 2070SOL    HW2 7893   3.343   2.396   1.949
 2071SOL     OW 7894   2.389   2.118   2.190
 2071SOL    HW1 7895   2.416   2.059   2.115
 2071SOL    HW2 7896   2.389   2.213   2.159
 2072SOL     OW 7897   3.616   3.085   3.450
 2072SOL    HW1 7898   3.707   3.046   3.437
 2072SOL    HW2 7899   3.624   3.181   3.474
 2073SOL     OW 7900   2.926   3.209   3.202
 2073SOL    HW1 7901   2.846   3.186   3.257
 2073SOL    HW2 7902   3.009   3.183   3.251
 2074SOL     OW 7903   3.454   3.491   3.487
 2074SOL    HW1 7904   3.481   3.525   3.397
 2074SOL    HW2 7905   3.533   3.453   3.533
 2075SOL     OW 7906   2.973   3.057   2.962
 2075SOL    HW1 7907   2.933   3.101   3.043
 2075SOL    HW2 7908   2.932   3.094   2.879
 2076SOL     OW 7909   3.500   2.961   2.941
 2076SOL    HW1 7910   3.505   3.042   3.000
 2076SOL    HW2 7911   3.414   2.963   2.890
 2077SOL     OW 7912   2.777   1.951   3.264
 2077SOL    HW1 7913   2.802   1.931   3.169
 2077SOL    HW2 7914   2.849   2.007   3.306
 2078SOL     OW 7915   2.842   2.978   3.581
 2078SOL    HW1 7916   2.743   2.984   3.591
 2078SOL    HW2 7917   2.865   2.898   3.525
 2079SOL     OW 7918   2.272   2.675   3.113
 2079SOL    HW1 7919   2.358   2.687   3.163
 2079SOL    HW2 7920   2.230   2.588   3.140
 2080SOL     OW 7921   3.136   2.248   3.124
 2080SOL    HW1 7922   3.157   2.322   3.188
 2080SOL    HW2 7923   3.047   2.265   3.081
 2081SOL     OW 7924   2.229   2.962   2.363
 2081SOL    HW1 7925   2.222   3.045   2.307
 2081SOL    HW2 7926   2.233   2.882   2.303
 2082SOL     OW 7927   3.114   3.210   2.250
 2082SOL    HW1 7928   3.164   3.287   2.290
 2082SOL    HW2 7929   3.019   3.212   2.282
 2083SOL     OW 7930   3.134   3.307   3.004
 2083SOL    HW1 7931   3.181   3.320   3.091
 2083SOL    HW2 7932   3.068   3.233   3.013
 2084SOL     OW 7933   3.444   2.501   2.334
 2084SOL    HW1 7934   3.413   2.562   2.407
 2084SOL    HW2 7935   3.494   2.553   2.265
 2085SOL     OW 7936   2.216   3.372   3.191
 2085SOL    HW1 7937   2.195   3.328   3.104
 2085SOL    HW2 7938   2.313   3.398   3.194
 2086SOL     OW 7939   2.264   2.613   3.460
 2086SOL    HW1 7940   2.332   2.668   3.413
 2086SOL    HW2 7941   2.304   2.525   3.487
 2087SOL     OW 7942   3.449   2.641   3.532
 2087SOL    HW1 7943   3.357   2.679   3.527
 2087SOL    HW2 7944   3.509   2.688   3.467
 2088SOL     OW 7945   2.875   1.967   3.632
 2088SOL    HW1 7946   2.881   2.052   3.580
 2088SOL    HW2 7947   2.907   1.891   3.575
 2089SOL     OW 7948   2.366   1.912   3.602
 2089SOL    HW1 7949   2.324   1.855   3.532
 2089SOL    HW2 7950   2.300   1.981   3.634
 2090SOL     OW 7951   2.435   2.732   2.891
 2090SOL    HW1 7952   2.479   2.821   2.882
 2090SOL    HW2 7953   2.372   2.732   2.968
 2091SOL     OW 7954   3.222   2.724   2.907
 2091SOL    HW1 7955   3.147   2.724   2.841
 2091SOL    HW2 7956   3.259   2.632   2.916
 2092SOL     OW 7957   3.071   2.387   2.137
 2092SOL    HW1 7958   3.084   2.303   2.191
 2092SOL    HW2 7959   3.042   2.461   2.197
 2093SOL     OW 7960   2.169   2.075   3.093
 2093SOL    HW1 7961   2.146   2.112   3.183
 2093SOL    HW2 7962   2.139   1.980   3.087
 2094SOL     OW 7963   1.899   3.172   3.144
 2094SOL    HW1 7964   1.952   3.123   3.212
 2094SOL    HW2 7965   1.921   3.270   3.149
 2095SOL     OW 7966   3.590   2.797   3.716
 2095SOL    HW1 7967   3.544   2.790   3.627
 2095SOL    HW2 7968   3.528   2.841   3.782
 2096SOL     OW 7969   2.885   2.628   2.828
 2096SOL    HW1 7970   2.900   2.649   2.924
 2096SOL    HW2 7971   2.855   2.533   2.819
 2097SOL     OW 7972   2.842   3.435   3.562
 2097SOL    HW1 7973   2.822   3.479   3.474
 2097SOL    HW2 7974   2.881   3.344   3.546
 2098SOL     OW 7975   3.721   3.380   3.467
 2098SOL    HW1 7976   3.735   3.407   3.372
 2098SOL    HW2 7977   3.804   3.402   3.520
 2099SOL     OW 7978   2.212   2.760   3.666
 2099SOL    HW1 7979   2.288   2.804   3.714
 2099SOL    HW2 7980   2.247   2.713   3.584
 2100SOL     OW 7981   3.402   2.136   1.987
 2100SOL    HW1 7982   3.341   2.061   2.010
 2100SOL    HW2 7983   3.424   2.188   2.070
 2101SOL     OW 7984   3.165   2.700   1.904
 2101SOL    HW1 7985   3.199   2.607   1.919
 2101SOL    HW2 7986   3.183   2.727   1.809
 2102SOL     OW 7987   2.930   3.195   2.711
 2102SOL    HW1 7988   2.937   3.111   2.656
 2102SOL    HW2 7989   2.992   3.264   2.675
 2103SOL     OW 7990   2.181   2.672   2.811
 2103SOL    HW1 7991   2.274   2.708   2.816
 2103SOL    HW2 7992   2.175   2.587   2.863
 2104SOL     OW 7993   2.201   2.371   2.868
 2104SOL    HW1 7994   2.149   2.288   2.851
 2104SOL    HW2 7995   2.278   2.376   2.804
 2105SOL     OW 7996   3.000   2.242   3.540
 2105SOL    HW1 7997   2.955   2.305   3.604
 2105SOL    HW2 7998   3.093   2.273   3.523
 2106SOL     OW 7999   3.022   2.069   3.339
 2106SOL    HW1 8000   3.022   2.133   3.416
 2106SOL    HW2 8001   3.050   2.117   3.256
 2107SOL     OW 8002   1.870   3.188   2.062
 2107SOL    HW1 8003   1.777   3.209   2.031
 2107SOL    HW2 8004   1.880   3.089   2.075
 2108SOL     OW 8005   1.950   3.663   2.789
 2108SOL    HW1 8006   1.908   3.577   2.762
 2108SOL    HW2 8007   2.044   3.666   2.755
 2109SOL     OW 8008   2.366   3.430   2.772
 2109SOL    HW1 8009   2.432   3.504   2.781
 2109SOL    HW2 8010   2.410   3.351   2.730
 2110SOL     OW 8011   1.902   2.406   2.976
 2110SOL    HW1 8012   1.987   2.373   2.935
 2110SOL    HW2 8013   1.915   2.421   3.074
 2111SOL     OW 8014   2.051   2.382   3.584
 2111SOL    HW1 8015   2.110   2.342   3.514
 2111SOL    HW2 8016   1.993   2.453   3.543
 2112SOL     OW 8017   2.677   2.434   2.187
 2112SOL    HW1 8018   2.684   2.345   2.141
 2112SOL    HW2 8019   2.583   2.468   2.179
 2113SOL     OW 8020   3.519   2.466   3.068
 2113SOL    HW1 8021   3.481   2.397   3.130
 2113SOL    HW2 8022   3.601   2.430   3.024
 2114SOL     OW 8023   2.533   2.326   3.131
 2114SOL    HW1 8024   2.499   2.237   3.101
 2114SOL    HW2 8025   2.559   2.380   3.051
 2115SOL     OW 8026   2.792   3.540   3.327
 2115SOL    HW1 8027   2.768   3.522   3.232
 2115SOL    HW2 8028   2.822   3.634   3.337
 2116SOL     OW 8029   2.335   2.362   2.053
 2116SOL    HW1 8030   2.396   2.442   2.057
 2116SOL    HW2 8031   2.240   2.393   2.060
 2117SOL     OW 8032   2.021   2.999   3.328
 2117SOL    HW1 8033   2.043   2.938   3.404
 2117SOL    HW2 8034   2.031   2.950   3.242
 2118SOL     OW 8035   3.209   2.921   3.096
 2118SOL    HW1 8036   3.233   2.858   3.022
 2118SOL    HW2 8037   3.119   2.961   3.078
 2119SOL     OW 8038   3.164   2.717   2.171
 2119SOL    HW1 8039   3.078   2.686   2.213
 2119SOL    HW2 8040   3.160   2.703   2.072
 2120SOL     OW 8041   3.621   3.609   3.016
 2120SOL    HW1 8042   3.682   3.639   2.943
 2120SOL    HW2 8043   3.583   3.520   2.994
 2121SOL     OW 8044   3.114   3.593   2.990
 2121SOL    HW1 8045   3.198   3.598   2.936
 2121SOL    HW2 8046   3.091   3.497   3.008
 2122SOL     OW 8047   1.945   3.120   2.884
 2122SOL    HW1 8048   1.940   3.119   2.984
 2122SOL    HW2 8049   1.862   3.079   2.846
 2123SOL     OW 8050   2.550   3.524   3.578
 2123SOL    HW1 8051   2.494   3.605   3.587
 2123SOL    HW2 8052   2.602   3.528   3.492
 2124SOL     OW 8053   3.588   1.997   2.385
 2124SOL    HW1 8054   3.661   1.980   2.318
 2124SOL    HW2 8055   3.557   1.910   2.423
 2125SOL     OW 8056   3.250   3.435   2.339
 2125SOL    HW1 8057   3.317   3.447   2.265
 2125SOL    HW2 8058   3.210   3.524   2.362
 2126SOL     OW 8059   3.142   2.789   2.534
 2126SOL    HW1 8060   3.202   2.708   2.536
 2126SOL    HW2 8061   3.182   2.858   2.474
 2127SOL     OW 8062   2.692   3.135   3.284
 2127SOL    HW1 8063   2.687   3.168   3.379
 2127SOL    HW2 8064   2.606   3.154   3.238
 2128SOL     OW 8065   2.534   3.478   2.016
 2128SOL    HW1 8066   2.543   3.488   1.917
 2128SOL    HW2 8067   2.494   3.389   2.037
 2129SOL     OW 8068   3.512   3.582   3.256
 2129SOL    HW1 8069   3.565   3.592   3.172
 2129SOL    HW2 8070   3.485   3.672   3.290
 2130SOL     OW 8071   3.056   3.474   1.893
 2130SOL    HW1 8072   3.062   3.381   1.930
 2130SOL    HW2 8073   2.997   3.474   1.813
 2131SOL     OW 8074   2.684   2.864   3.234
 2131SOL    HW1 8075   2.724   2.863   3.142
 2131SOL    HW2 8076   2.694   2.956   3.274
 2132SOL     OW 8077   2.778   2.772   2.153
 2132SOL    HW1 8078   2.841   2.810   2.085
 2132SOL    HW2 8079   2.818   2.689   2.192
 2133SOL     OW 8080   2.234   3.150   3.352
 2133SOL    HW1 8081   2.221   3.243   3.318
 2133SOL    HW2 8082   2.150   3.098   3.339
 2134SOL     OW 8083   3.476   3.154   3.151
 2134SOL    HW1 8084   3.536   3.157   3.231
 2134SOL    HW2 8085   3.401   3.218   3.164
 2135SOL     OW 8086   2.901   2.960   2.558
 2135SOL    HW1 8087   2.831   2.913   2.612
 2135SOL    HW2 8088   2.960   2.892   2.515
 2136SOL     OW 8089   2.876   2.098   2.833
 2136SOL    HW1 8090   2.868   2.062   2.740
 2136SOL    HW2 8091   2.874   2.022   2.898
 2137SOL     OW 8092   2.452   3.349   2.353
 2137SOL    HW1 8093   2.494   3.291   2.283
 2137SOL    HW2 8094   2.408   3.428   2.309
 2138SOL     OW 8095   3.571   2.247   3.243
 2138SOL    HW1 8096   3.644   2.316   3.247
 2138SOL    HW2 8097   3.599   2.172   3.184
 2139SOL     OW 8098   2.117   3.210   2.152
 2139SOL    HW1 8099   2.021   3.211   2.125
 2139SOL    HW2 8100   2.129   3.263   2.236
 2140SOL     OW 8101   1.967   2.875   3.588
 2140SOL    HW1 8102   1.890   2.842   3.642
 2140SOL    HW2 8103   2.052   2.845   3.630
 2141SOL     OW 8104   2.534   2.065   3.351
 2141SOL    HW1 8105   2.624   2.049   3.311
 2141SOL    HW2 8106   2.542   2.070   3.450
 2142SOL     OW 8107   1.937   2.207   1.895
 2142SOL    HW1 8108   1.845   2.179   1.866
 2142SOL    HW2 8109   1.968   2.284   1.839
 2143SOL     OW 8110   1.934   2.028   2.180
 2143SOL    HW1 8111   1.917   2.111   2.126
 2143SOL    HW2 8112   2.024   1.991   2.158
 2144SOL     OW 8113   3.045   3.197   1.981
 2144SOL    HW1 8114   2.946   3.186   1.983
 2144SOL    HW2 8115   3.079   3.212   2.074
 2145SOL     OW 8116   2.475   2.704   3.293
 2145SOL    HW1 8117   2.531   2.785   3.276
 2145SOL    HW2 8118   2.534   2.624   3.296
 2146SOL     OW 8119   3.355   3.629   2.821
 2146SOL    HW1 8120   3.388   3.693   2.752
 2146SOL    HW2 8121   3.421   3.623   2.896
 2147SOL     OW 8122   2.578   2.427   3.570
 2147SOL    HW1 8123   2.597   2.492   3.644
 2147SOL    HW2 8124   2.638   2.347   3.579
 2148SOL     OW 8125   3.312   3.082   3.495
 2148SOL    HW1 8126   3.303   3.072   3.594
 2148SOL    HW2 8127   3.408   3.075   3.469
 2149SOL     OW 8128   3.536   2.745   3.116
 2149SOL    HW1 8129   3.509   2.656   3.079
 2149SOL    HW2 8130   3.537   2.813   3.043
 2150SOL     OW 8131   3.639   2.204   3.504
 2150SOL    HW1 8132   3.622   2.235   3.410
 2150SOL    HW2 8133   3.555   2.167   3.542
 2151SOL     OW 8134   3.592   2.796   3.379
 2151SOL    HW1 8135   3.630   2.887   3.394
 2151SOL    HW2 8136   3.584   2.779   3.280
 2152SOL     OW 8137   2.721   3.236   1.878
 2152SOL    HW1 8138   2.675   3.251   1.966
 2152SOL    HW2 8139   2.765   3.321   1.848
 2153SOL     OW 8140   2.523   3.652   2.815
 2153SOL    HW1 8141   2.477   3.740   2.802
 2153SOL    HW2 8142   2.622   3.664   2.808
 2154SOL     OW 8143   2.945   2.846   1.949
 2154SOL    HW1 8144   2.922   2.899   1.867
 2154SOL    HW2 8145   3.026   2.790   1.930
 2155SOL     OW 8146   2.083   3.176   3.706
 2155SOL    HW1 8147   2.018   3.103   3.685
 2155SOL    HW2 8148   2.087   3.190   3.804
 2156SOL     OW 8149   1.941   3.102   2.515
 2156SOL    HW1 8150   1.940   3.055   2.603
 2156SOL    HW2 8151   2.023   3.074   2.464
 2157SOL     OW 8152   2.534   3.253   3.486
 2157SOL    HW1 8153   2.456   3.203   3.524
 2157SOL    HW2 8154   2.531   3.348   3.517
 2158SOL     OW 8155   3.567   3.349   2.966
 2158SOL    HW1 8156   3.474   3.324   2.939
 2158SOL    HW2 8157   3.593   3.299   3.048
 2159SOL     OW 8158   2.179   2.409   3.142
 2159SOL    HW1 8159   2.217   2.350   3.214
 2159SOL    HW2 8160   2.219   2.383   3.054
 2160SOL     OW 8161   2.674   3.448   2.549
 2160SOL    HW1 8162   2.706   3.458   2.455
 2160SOL    HW2 8163   2.595   3.386   2.551
 2161SOL     OW 8164   3.286   2.076   2.974
 2161SOL    HW1 8165   3.338   2.011   3.029
 2161SOL    HW2 8166   3.237   2.139   3.035
 2162SOL     OW 8167   2.863   1.896   3.016
 2162SOL    HW1 8168   2.800   1.824   2.985
 2162SOL    HW2 8169   2.956   1.860   3.016
 2163SOL     OW 8170   2.632   3.192   2.163
 2163SOL    HW1 8171   2.586   3.105   2.180
 2163SOL    HW2 8172   2.723   3.189   2.204
 2164SOL     OW 8173   2.480   3.429   3.146
 2164SOL    HW1 8174   2.475   3.511   3.203
 2164SOL    HW2 8175   2.569   3.426   3.101
 2165SOL     OW 8176   3.214   1.914   2.030
 2165SOL    HW1 8177   3.249   1.873   1.946
 2165SOL    HW2 8178   3.124   1.876   2.050
 2166SOL     OW 8179   1.901   2.939   2.162
 2166SOL    HW1 8180   2.000   2.928   2.153
 2166SOL    HW2 8181   1.861   2.853   2.194
 2167SOL     OW 8182   2.087   2.137   4.720
 2167SOL    HW1 8183   2.122   2.120   4.812
 2167SOL    HW2 8184   1.999   2.092   4.708
 2168SOL     OW 8185   1.881   2.230   4.371
 2168SOL    HW1 8186   1.799   2.273   4.410
 2168SOL    HW2 8187   1.853   2.157   4.308
 2169SOL     OW 8188   2.997   2.565   4.441
 2169SOL    HW1 8189   3.054   2.643   4.416
 2169SOL    HW2 8190   2.937   2.591   4.517
 2170SOL     OW 8191   3.617   2.469   3.955
 2170SOL    HW1 8192   3.605   2.456   3.856
 2170SOL    HW2 8193   3.587   2.388   4.004
 2171SOL     OW 8194   2.630   3.006   4.747
 2171SOL    HW1 8195   2.552   3.023   4.807
 2171SOL    HW2 8196   2.664   3.093   4.711
 2172SOL     OW 8197   2.547   2.874   4.389
 2172SOL    HW1 8198   2.616   2.858   4.459
 2172SOL    HW2 8199   2.474   2.931   4.427
 2173SOL     OW 8200   2.197   3.297   4.785
 2173SOL    HW1 8201   2.119   3.266   4.732
 2173SOL    HW2 8202   2.255   3.355   4.728
 2174SOL     OW 8203   3.465   2.309   4.461
 2174SOL    HW1 8204   3.391   2.355   4.411
 2174SOL    HW2 8205   3.516   2.377   4.514
 2175SOL     OW 8206   2.092   3.296   4.262
 2175SOL    HW1 8207   2.066   3.392   4.262
 2175SOL    HW2 8208   2.021   3.242   4.307
 2176SOL     OW 8209   2.102   2.953   4.610
 2176SOL    HW1 8210   2.116   2.869   4.662
 2176SOL    HW2 8211   2.047   3.017   4.665
 2177SOL     OW 8212   1.984   2.505   4.287
 2177SOL    HW1 8213   1.939   2.417   4.304
 2177SOL    HW2 8214   1.983   2.559   4.371
 2178SOL     OW 8215   3.704   3.629   4.083
 2178SOL    HW1 8216   3.758   3.600   4.163
 2178SOL    HW2 8217   3.734   3.719   4.054
 2179SOL     OW 8218   1.889   3.458   3.841
 2179SOL    HW1 8219   1.870   3.362   3.862
 2179SOL    HW2 8220   1.856   3.516   3.916
 2180SOL     OW 8221   2.475   3.227   4.450
 2180SOL    HW1 8222   2.426   3.140   4.459
 2180SOL    HW2 8223   2.452   3.270   4.363
 2181SOL     OW 8224   2.671   1.866   4.226
 2181SOL    HW1 8225   2.711   1.957   4.217
 2181SOL    HW2 8226   2.571   1.874   4.232
 2182SOL     OW 8227   2.059   2.838   4.988
 2182SOL    HW1 8228   2.148   2.793   4.974
 2182SOL    HW2 8229   1.986   2.773   4.969
 2183SOL     OW 8230   3.529   3.576   4.296
 2183SOL    HW1 8231   3.488   3.553   4.208
 2183SOL    HW2 8232   3.511   3.502   4.361
 2184SOL     OW 8233   3.143   2.207   4.668
 2184SOL    HW1 8234   3.057   2.157   4.655
 2184SOL    HW2 8235   3.205   2.153   4.724
 2185SOL     OW 8236   3.438   3.524   4.031
 2185SOL    HW1 8237   3.527   3.570   4.034
 2185SOL    HW2 8238   3.417   3.500   3.936
 2186SOL     OW 8239   2.853   2.272   4.966
 2186SOL    HW1 8240   2.776   2.306   5.020
 2186SOL    HW2 8241   2.819   2.221   4.887
 2187SOL     OW 8242   2.903   2.563   4.153
 2187SOL    HW1 8243   2.929   2.559   4.249
 2187SOL    HW2 8244   2.818   2.512   4.139
 2188SOL     OW 8245   1.938   2.673   4.513
 2188SOL    HW1 8246   2.037   2.661   4.522
 2188SOL    HW2 8247   1.914   2.768   4.534
 2189SOL     OW 8248   2.727   2.210   3.919
 2189SOL    HW1 8249   2.786   2.273   3.870
 2189SOL    HW2 8250   2.746   2.116   3.890
 2190SOL     OW 8251   2.412   2.058   4.609
 2190SOL    HW1 8252   2.407   2.053   4.709
 2190SOL    HW2 8253   2.414   2.154   4.580
 2191SOL     OW 8254   2.870   3.318   4.201
 2191SOL    HW1 8255   2.824   3.390   4.149
 2191SOL    HW2 8256   2.866   3.338   4.299
 2192SOL     OW 8257   3.657   2.928   4.597
 2192SOL    HW1 8258   3.595   2.913   4.521
 2192SOL    HW2 8259   3.605   2.939   4.682
 2193SOL     OW 8260   3.320   2.597   4.452
 2193SOL    HW1 8261   3.315   2.532   4.527
 2193SOL    HW2 8262   3.400   2.656   4.465
 2194SOL     OW 8263   2.973   3.638   3.961
 2194SOL    HW1 8264   2.913   3.576   4.011
 2194SOL    HW2 8265   3.004   3.594   3.876
 2195SOL     OW 8266   3.494   3.239   3.805
 2195SOL    HW1 8267   3.462   3.333   3.795
 2195SOL    HW2 8268   3.418   3.176   3.793
 2196SOL     OW 8269   2.326   3.605   4.047
 2196SOL    HW1 8270   2.359   3.644   4.133
 2196SOL    HW2 8271   2.402   3.598   3.982
 2197SOL     OW 8272   3.262   1.969   4.150
 2197SOL    HW1 8273   3.238   1.932   4.060
 2197SOL    HW2 8274   3.361   1.985   4.154
 2198SOL     OW 8275   2.244   2.562   4.204
 2198SOL    HW1 8276   2.289   2.472   4.201
 2198SOL    HW2 8277   2.150   2.551   4.237
 2199SOL     OW 8278   2.476   1.984   3.841
 2199SOL    HW1 8279   2.574   1.962   3.848
 2199SOL    HW2 8280   2.445   1.967   3.748
 2200SOL     OW 8281   2.784   2.365   4.623
 2200SOL    HW1 8282   2.759   2.356   4.527
 2200SOL    HW2 8283   2.832   2.283   4.654
 2201SOL     OW 8284   2.401   1.926   4.236
 2201SOL    HW1 8285   2.320   1.927   4.294
 2201SOL    HW2 8286   2.404   2.009   4.181
 2202SOL     OW 8287   3.296   3.050   3.765
 2202SOL    HW1 8288   3.328   2.974   3.822
 2202SOL    HW2 8289   3.204   3.077   3.795
 2203SOL     OW 8290   2.159   1.897   3.895
 2203SOL    HW1 8291   2.208   1.981   3.874
 2203SOL    HW2 8292   2.221   1.832   3.940
 2204SOL     OW 8293   2.797   2.098   4.204
 2204SOL    HW1 8294   2.749   2.139   4.126
 2204SOL    HW2 8295   2.896   2.096   4.185
 2205SOL     OW 8296   3.133   3.659   4.315
 2205SOL    HW1 8297   3.177   3.723   4.251
 2205SOL    HW2 8298   3.083   3.711   4.385
 2206SOL     OW 8299   2.423   2.084   4.871
 2206SOL    HW1 8300   2.461   2.000   4.908
 2206SOL    HW2 8301   2.335   2.103   4.915
 2207SOL     OW 8302   2.728   2.316   4.366
 2207SOL    HW1 8303   2.696   2.388   4.304
 2207SOL    HW2 8304   2.752   2.235   4.313
 2208SOL     OW 8305   2.879   1.901   4.477
 2208SOL    HW1 8306   2.807   1.906   4.408
 2208SOL    HW2 8307   2.855   1.832   4.546
 2209SOL     OW 8308   3.291   3.035   4.591
 2209SOL    HW1 8309   3.236   2.951   4.584
 2209SOL    HW2 8310   3.317   3.064   4.499
 2210SOL     OW 8311   3.328   2.452   4.716
 2210SOL    HW1 8312   3.298   2.357   4.723
 2210SOL    HW2 8313   3.401   2.468   4.782
 2211SOL     OW 8314   2.389   2.118   4.052
 2211SOL    HW1 8315   2.416   2.059   3.977
 2211SOL    HW2 8316   2.389   2.213   4.021
 2212SOL     OW 8317   2.973   3.057   4.824
 2212SOL    HW1 8318   2.933   3.101   4.905
 2212SOL    HW2 8319   2.932   3.094   4.741
 2213SOL     OW 8320   3.500   2.961   4.803
 2213SOL    HW1 8321   3.505   3.042   4.862
 2213SOL    HW2 8322   3.414   2.963   4.752
 2214SOL     OW 8323   2.272   2.675   4.975
 2214SOL    HW1 8324   2.358   2.687   5.025
 2214SOL    HW2 8325   2.230   2.588   5.002
 2215SOL     OW 8326   3.136   2.248   4.986
 2215SOL    HW1 8327   3.157   2.322   5.050
 2215SOL    HW2 8328   3.047   2.265   4.943
 2216SOL     OW 8329   2.428   2.399   4.589
 2216SOL    HW1 8330   2.440   2.465   4.515
 2216SOL    HW2 8331   2.474   2.433   4.672
 2217SOL     OW 8332   3.134   3.307   4.866
 2217SOL    HW1 8333   3.181   3.320   4.953
 2217SOL    HW2 8334   3.068   3.233   4.875
 2218SOL     OW 8335   3.444   2.501   4.196
 2218SOL    HW1 8336   3.413   2.562   4.269
 2218SOL    HW2 8337   3.494   2.553   4.127
 2219SOL     OW 8338   2.435   2.732   4.753
 2219SOL    HW1 8339   2.479   2.821   4.744
 2219SOL    HW2 8340   2.372   2.732   4.830
 2220SOL     OW 8341   3.222   2.724   4.769
 2220SOL    HW1 8342   3.147   2.724   4.703
 2220SOL    HW2 8343   3.259   2.632   4.778
 2221SOL     OW 8344   3.071   2.387   3.999
 2221SOL    HW1 8345   3.084   2.303   4.053
 2221SOL    HW2 8346   3.042   2.461   4.059
 2222SOL     OW 8347   2.169   2.075   4.955
 2222SOL    HW1 8348   2.146   2.112   5.045
 2222SOL    HW2 8349   2.139   1.980   4.949
 2223SOL     OW 8350   1.899   3.172   5.006
 2223SOL    HW1 8351   1.952   3.123   5.074
 2223SOL    HW2 8352   1.921   3.270   5.011
 2224SOL     OW 8353   2.594   2.496   4.788
 2224SOL    HW1 8354   2.653   2.470   4.712
 2224SOL    HW2 8355   2.566   2.592   4.777
 2225SOL     OW 8356   2.169   1.925   4.342
 2225SOL    HW1 8357   2.158   2.019   4.375
 2225SOL    HW2 8358   2.164   1.862   4.419
 2226SOL     OW 8359   3.484   2.229   4.098
 2226SOL    HW1 8360   3.486   2.153   4.162
 2226SOL    HW2 8361   3.436   2.306   4.138
 2227SOL     OW 8362   2.885   2.628   4.690
 2227SOL    HW1 8363   2.900   2.649   4.786
 2227SOL    HW2 8364   2.855   2.533   4.681
 2228SOL     OW 8365   3.402   2.136   3.849
 2228SOL    HW1 8366   3.341   2.061   3.872
 2228SOL    HW2 8367   3.424   2.188   3.932
 2229SOL     OW 8368   2.930   3.195   4.573
 2229SOL    HW1 8369   2.937   3.111   4.518
 2229SOL    HW2 8370   2.992   3.264   4.537
 2230SOL     OW 8371   2.181   2.672   4.673
 2230SOL    HW1 8372   2.274   2.708   4.678
 2230SOL    HW2 8373   2.175   2.587   4.725
 2231SOL     OW 8374   2.201   2.371   4.730
 2231SOL    HW1 8375   2.149   2.288   4.713
 2231SOL    HW2 8376   2.278   2.376   4.666
 2232SOL     OW 8377   3.022   2.069   5.201
 2232SOL    HW1 8378   3.022   2.133   5.278
 2232SOL    HW2 8379   3.050   2.117   5.118
 2233SOL     OW 8380   1.870   3.188   3.924
 2233SOL    HW1 8381   1.777   3.209   3.893
 2233SOL    HW2 8382   1.880   3.089   3.937
 2234SOL     OW 8383   2.864   2.658   4.962
 2234SOL    HW1 8384   2.905   2.626   5.048
 2234SOL    HW2 8385   2.768   2.631   4.959
 2235SOL     OW 8386   1.902   2.406   4.838
 2235SOL    HW1 8387   1.987   2.373   4.797
 2235SOL    HW2 8388   1.915   2.421   4.936
 2236SOL     OW 8389   2.677   2.434   4.049
 2236SOL    HW1 8390   2.684   2.345   4.003
 2236SOL    HW2 8391   2.583   2.468   4.041
 2237SOL     OW 8392   3.519   2.466   4.930
 2237SOL    HW1 8393   3.481   2.397   4.992
 2237SOL    HW2 8394   3.601   2.430   4.886
 2238SOL     OW 8395   2.533   2.326   4.993
 2238SOL    HW1 8396   2.499   2.237   4.963
 2238SOL    HW2 8397   2.559   2.380   4.913
 2239SOL     OW 8398   2.792   3.540   5.189
 2239SOL    HW1 8399   2.768   3.522   5.094
 2239SOL    HW2 8400   2.822   3.634   5.199
 2240SOL     OW 8401   2.335   2.362   3.915
 2240SOL    HW1 8402   2.396   2.442   3.919
 2240SOL    HW2 8403   2.240   2.393   3.922
 2241SOL     OW 8404   3.209   2.921   4.958
 2241SOL    HW1 8405   3.233   2.858   4.884
 2241SOL    HW2 8406   3.119   2.961   4.940
 2242SOL     OW 8407   3.621   3.609   4.878
 2242SOL    HW1 8408   3.682   3.639   4.805
 2242SOL    HW2 8409   3.583   3.520   4.856
 2243SOL     OW 8410   3.114   3.593   4.852
 2243SOL    HW1 8411   3.198   3.598   4.798
 2243SOL    HW2 8412   3.091   3.497   4.870
 2244SOL     OW 8413   1.945   3.120   4.746
 2244SOL    HW1 8414   1.940   3.119   4.846
 2244SOL    HW2 8415   1.862   3.079   4.708
 2245SOL     OW 8416   3.588   1.997   4.247
 2245SOL    HW1 8417   3.661   1.980   4.180
 2245SOL    HW2 8418   3.557   1.910   4.285
 2246SOL     OW 8419   3.250   3.435   4.201
 2246SOL    HW1 8420   3.317   3.447   4.127
 2246SOL    HW2 8421   3.210   3.524   4.224
 2247SOL     OW 8422   2.534   3.478   3.878
 2247SOL    HW1 8423   2.543   3.488   3.779
 2247SOL    HW2 8424   2.494   3.389   3.899
 2248SOL     OW 8425   3.512   3.582   5.118
 2248SOL    HW1 8426   3.565   3.592   5.034
 2248SOL    HW2 8427   3.485   3.672   5.152
 2249SOL     OW 8428   3.703   2.037   4.687
 2249SOL    HW1 8429   3.742   1.952   4.651
 2249SOL    HW2 8430   3.605   2.039   4.668
 2250SOL     OW 8431   2.125   2.188   4.444
 2250SOL    HW1 8432   2.046   2.239   4.410
 2250SOL    HW2 8433   2.116   2.173   4.542
 2251SOL     OW 8434   3.056   3.474   3.755
 2251SOL    HW1 8435   3.062   3.381   3.792
 2251SOL    HW2 8436   2.997   3.474   3.675
 2252SOL     OW 8437   2.684   2.864   5.096
 2252SOL    HW1 8438   2.724   2.863   5.004
 2252SOL    HW2 8439   2.694   2.956   5.136
 2253SOL     OW 8440   2.778   2.772   4.015
 2253SOL    HW1 8441   2.841   2.810   3.947
 2253SOL    HW2 8442   2.818   2.689   4.054
 2254SOL     OW 8443   3.366   3.469   3.768
 2254SOL    HW1 8444   3.274   3.506   3.775
 2254SOL    HW2 8445   3.404   3.489   3.678
 2255SOL     OW 8446   2.901   2.960   4.420
 2255SOL    HW1 8447   2.831   2.913   4.474
 2255SOL    HW2 8448   2.960   2.892   4.377
 2256SOL     OW 8449   2.876   2.098   4.695
 2256SOL    HW1 8450   2.868   2.062   4.602
 2256SOL    HW2 8451   2.874   2.022   4.760
 2257SOL     OW 8452   3.571   2.247   5.105
 2257SOL    HW1 8453   3.644   2.316   5.109
 2257SOL    HW2 8454   3.599   2.172   5.046
 2258SOL     OW 8455   1.937   2.207   3.757
 2258SOL    HW1 8456   1.845   2.179   3.728
 2258SOL    HW2 8457   1.968   2.284   3.701
 2259SOL     OW 8458   1.934   2.028   4.042
 2259SOL    HW1 8459   1.917   2.111   3.988
 2259SOL    HW2 8460   2.024   1.991   4.020
 2260SOL     OW 8461   3.045   3.197   3.843
 2260SOL    HW1 8462   2.946   3.186   3.845
 2260SOL    HW2 8463   3.079   3.212   3.936
 2261SOL     OW 8464   3.355   3.629   4.683
 2261SOL    HW1 8465   3.388   3.693   4.614
 2261SOL    HW2 8466   3.421   3.623   4.758
 2262SOL     OW 8467   3.312   3.082   5.357
 2262SOL    HW1 8468   3.303   3.072   5.456
 2262SOL    HW2 8469   3.408   3.075   5.331
 2263SOL     OW 8470   3.536   2.745   4.978
 2263SOL    HW1 8471   3.509   2.656   4.941
 2263SOL    HW2 8472   3.537   2.813   4.905
 2264SOL     OW 8473   3.087   2.187   4.173
 2264SOL    HW1 8474   3.152   2.113   4.162
 2264SOL    HW2 8475   3.107   2.237   4.257
 2265SOL     OW 8476   2.456   2.607   4.376
 2265SOL    HW1 8477   2.506   2.692   4.357
 2265SOL    HW2 8478   2.368   2.609   4.328
 2266SOL     OW 8479   3.592   2.796   5.241
 2266SOL    HW1 8480   3.630   2.887   5.256
 2266SOL    HW2 8481   3.584   2.779   5.142
 2267SOL     OW 8482   2.721   3.236   3.740
 2267SOL    HW1 8483   2.675   3.251   3.828
 2267SOL    HW2 8484   2.765   3.321   3.710
 2268SOL     OW 8485   2.721   2.818   4.585
 2268SOL    HW1 8486   2.775   2.749   4.633
 2268SOL    HW2 8487   2.689   2.887   4.651
 2269SOL     OW 8488   3.723   3.431   4.575
 2269SOL    HW1 8489   3.652   3.419   4.505
 2269SOL    HW2 8490   3.724   3.352   4.635
 2270SOL     OW 8491   1.941   3.102   4.377
 2270SOL    HW1 8492   1.940   3.055   4.465
 2270SOL    HW2 8493   2.023   3.074   4.326
 2271SOL     OW 8494   3.686   2.054   4.951
 2271SOL    HW1 8495   3.682   1.964   4.995
 2271SOL    HW2 8496   3.689   2.043   4.852
 2272SOL     OW 8497   2.290   2.286   4.244
 2272SOL    HW1 8498   2.320   2.214   4.182
 2272SOL    HW2 8499   2.251   2.246   4.327
 2273SOL     OW 8500   3.567   3.349   4.828
 2273SOL    HW1 8501   3.474   3.324   4.801
 2273SOL    HW2 8502   3.593   3.299   4.910
 2274SOL     OW 8503   3.286   2.076   4.836
 2274SOL    HW1 8504   3.338   2.011   4.891
 2274SOL    HW2 8505   3.237   2.139   4.897
 2275SOL     OW 8506   2.863   1.896   4.878
 2275SOL    HW1 8507   2.800   1.824   4.847
 2275SOL    HW2 8508   2.956   1.860   4.878
 2276SOL     OW 8509   3.214   1.914   3.892
 2276SOL    HW1 8510   3.249   1.873   3.808
 2276SOL    HW2 8511   3.124   1.876   3.912
 2277SOL     OW 8512   3.162   2.315   4.415
 2277SOL    HW1 8513   3.103   2.395   4.419
 2277SOL    HW2 8514   3.177   2.280   4.508
 2278SOL     OW 8515   3.455   2.083   4.606
 2278SOL    HW1 8516   3.371   2.082   4.660
 2278SOL    HW2 8517   3.457   2.166   4.550
 2279SOL     OW 8518   2.737   3.508   4.061
 2279SOL    HW1 8519   2.660   3.473   4.007
 2279SOL    HW2 8520   2.705   3.579   4.123
 2280SOL     OW 8521   2.092   4.352   0.113
 2280SOL    HW1 8522   1.999   4.350   0.150
 2280SOL    HW2 8523   2.093   4.313   0.021
 2281SOL     OW 8524   2.087   3.999   0.996
 2281SOL    HW1 8525   2.122   3.982   1.088
 2281SOL    HW2 8526   1.999   3.954   0.984
 2282SOL     OW 8527   1.881   4.092   0.647
 2282SOL    HW1 8528   1.799   4.135   0.686
 2282SOL    HW2 8529   1.853   4.019   0.584
 2283SOL     OW 8530   2.431   4.999   1.165
 2283SOL    HW1 8531   2.338   4.992   1.128
 2283SOL    HW2 8532   2.442   5.088   1.209
 2284SOL     OW 8533   3.417   5.235   0.703
 2284SOL    HW1 8534   3.360   5.219   0.784
 2284SOL    HW2 8535   3.358   5.245   0.623
 2285SOL     OW 8536   2.997   4.427   0.717
 2285SOL    HW1 8537   3.054   4.505   0.692
 2285SOL    HW2 8538   2.937   4.453   0.793
 2286SOL     OW 8539   3.617   4.331   0.231
 2286SOL    HW1 8540   3.605   4.318   0.132
 2286SOL    HW2 8541   3.587   4.250   0.280
 2287SOL     OW 8542   2.630   4.868   1.023
 2287SOL    HW1 8543   2.552   4.885   1.083
 2287SOL    HW2 8544   2.664   4.955   0.987
 2288SOL     OW 8545   2.712   4.522   1.823
 2288SOL    HW1 8546   2.708   4.598   1.888
 2288SOL    HW2 8547   2.734   4.558   1.732
 2289SOL     OW 8548   2.548   4.885   1.803
 2289SOL    HW1 8549   2.608   4.964   1.817
 2289SOL    HW2 8550   2.462   4.916   1.762
 2290SOL     OW 8551   2.197   5.159   1.061
 2290SOL    HW1 8552   2.119   5.128   1.008
 2290SOL    HW2 8553   2.255   5.217   1.004
 2291SOL     OW 8554   2.300   4.116   1.499
 2291SOL    HW1 8555   2.382   4.060   1.508
 2291SOL    HW2 8556   2.219   4.058   1.503
 2292SOL     OW 8557   3.465   4.171   0.737
 2292SOL    HW1 8558   3.391   4.217   0.687
 2292SOL    HW2 8559   3.516   4.239   0.790
 2293SOL     OW 8560   2.102   4.815   0.886
 2293SOL    HW1 8561   2.116   4.731   0.938
 2293SOL    HW2 8562   2.047   4.879   0.941
 2294SOL     OW 8563   3.456   3.838   1.480
 2294SOL    HW1 8564   3.438   3.905   1.408
 2294SOL    HW2 8565   3.453   3.884   1.569
 2295SOL     OW 8566   1.984   4.367   0.563
 2295SOL    HW1 8567   1.939   4.279   0.580
 2295SOL    HW2 8568   1.983   4.421   0.647
 2296SOL     OW 8569   3.503   4.832   0.432
 2296SOL    HW1 8570   3.589   4.834   0.380
 2296SOL    HW2 8571   3.517   4.879   0.520
 2297SOL     OW 8572   2.671   3.728   0.502
 2297SOL    HW1 8573   2.711   3.819   0.493
 2297SOL    HW2 8574   2.571   3.736   0.508
 2298SOL     OW 8575   3.387   4.723   0.190
 2298SOL    HW1 8576   3.324   4.647   0.203
 2298SOL    HW2 8577   3.435   4.741   0.276
 2299SOL     OW 8578   2.179   3.975   1.801
 2299SOL    HW1 8579   2.250   4.046   1.807
 2299SOL    HW2 8580   2.091   4.014   1.829
 2300SOL     OW 8581   3.328   5.141   0.953
 2300SOL    HW1 8582   3.269   5.147   1.033
 2300SOL    HW2 8583   3.313   5.053   0.907
 2301SOL     OW 8584   3.143   4.069   0.944
 2301SOL    HW1 8585   3.057   4.019   0.931
 2301SOL    HW2 8586   3.205   4.015   1.000
 2302SOL     OW 8587   2.669   4.329   1.465
 2302SOL    HW1 8588   2.622   4.326   1.554
 2302SOL    HW2 8589   2.618   4.274   1.399
 2303SOL     OW 8590   3.256   4.193   1.674
 2303SOL    HW1 8591   3.236   4.236   1.762
 2303SOL    HW2 8592   3.334   4.131   1.683
 2304SOL     OW 8593   2.835   4.614   1.572
 2304SOL    HW1 8594   2.881   4.530   1.543
 2304SOL    HW2 8595   2.779   4.648   1.497
 2305SOL     OW 8596   2.853   4.134   1.242
 2305SOL    HW1 8597   2.776   4.168   1.296
 2305SOL    HW2 8598   2.819   4.083   1.163
 2306SOL     OW 8599   2.903   4.425   0.429
 2306SOL    HW1 8600   2.929   4.421   0.525
 2306SOL    HW2 8601   2.818   4.374   0.415
 2307SOL     OW 8602   2.727   4.072   0.195
 2307SOL    HW1 8603   2.786   4.135   0.146
 2307SOL    HW2 8604   2.746   3.978   0.166
 2308SOL     OW 8605   3.581   4.309   1.831
 2308SOL    HW1 8606   3.555   4.398   1.795
 2308SOL    HW2 8607   3.579   4.241   1.758
 2309SOL     OW 8608   2.412   3.920   0.885
 2309SOL    HW1 8609   2.407   3.915   0.985
 2309SOL    HW2 8610   2.414   4.016   0.856
 2310SOL     OW 8611   3.657   4.790   0.873
 2310SOL    HW1 8612   3.595   4.775   0.797
 2310SOL    HW2 8613   3.605   4.801   0.958
 2311SOL     OW 8614   3.320   4.459   0.728
 2311SOL    HW1 8615   3.315   4.394   0.803
 2311SOL    HW2 8616   3.400   4.518   0.741
 2312SOL     OW 8617   2.064   4.009   1.498
 2312SOL    HW1 8618   1.984   4.069   1.485
 2312SOL    HW2 8619   2.054   3.960   1.584
 2313SOL     OW 8620   3.262   3.831   0.426
 2313SOL    HW1 8621   3.238   3.794   0.336
 2313SOL    HW2 8622   3.361   3.847   0.430
 2314SOL     OW 8623   2.244   4.424   0.480
 2314SOL    HW1 8624   2.289   4.334   0.477
 2314SOL    HW2 8625   2.150   4.413   0.513
 2315SOL     OW 8626   3.409   3.946   1.729
 2315SOL    HW1 8627   3.404   3.983   1.821
 2315SOL    HW2 8628   3.337   3.877   1.717
 2316SOL     OW 8629   2.643   3.988   1.749
 2316SOL    HW1 8630   2.710   3.927   1.792
 2316SOL    HW2 8631   2.570   4.007   1.814
 2317SOL     OW 8632   3.213   4.314   1.433
 2317SOL    HW1 8633   3.241   4.271   1.518
 2317SOL    HW2 8634   3.238   4.410   1.434
 2318SOL     OW 8635   2.665   5.126   0.924
 2318SOL    HW1 8636   2.755   5.140   0.882
 2318SOL    HW2 8637   2.594   5.128   0.853
 2319SOL     OW 8638   2.784   4.227   0.899
 2319SOL    HW1 8639   2.759   4.218   0.803
 2319SOL    HW2 8640   2.832   4.145   0.930
 2320SOL     OW 8641   2.401   3.788   0.512
 2320SOL    HW1 8642   2.320   3.789   0.570
 2320SOL    HW2 8643   2.404   3.871   0.457
 2321SOL     OW 8644   3.296   4.912   0.041
 2321SOL    HW1 8645   3.328   4.836   0.098
 2321SOL    HW2 8646   3.204   4.939   0.071
 2322SOL     OW 8647   2.159   3.759   0.171
 2322SOL    HW1 8648   2.208   3.843   0.150
 2322SOL    HW2 8649   2.221   3.694   0.216
 2323SOL     OW 8650   2.797   3.960   0.480
 2323SOL    HW1 8651   2.749   4.001   0.402
 2323SOL    HW2 8652   2.896   3.958   0.461
 2324SOL     OW 8653   2.938   4.407   1.464
 2324SOL    HW1 8654   2.858   4.346   1.467
 2324SOL    HW2 8655   3.019   4.354   1.440
 2325SOL     OW 8656   3.089   5.294   0.793
 2325SOL    HW1 8657   3.110   5.368   0.728
 2325SOL    HW2 8658   3.157   5.294   0.866
 2326SOL     OW 8659   2.321   4.876   0.741
 2326SOL    HW1 8660   2.250   4.849   0.806
 2326SOL    HW2 8661   2.295   4.848   0.648
 2327SOL     OW 8662   2.894   4.273   0.016
 2327SOL    HW1 8663   2.853   4.355  -0.023
 2327SOL    HW2 8664   2.958   4.299   0.089
 2328SOL     OW 8665   2.423   3.946   1.147
 2328SOL    HW1 8666   2.461   3.862   1.184
 2328SOL    HW2 8667   2.335   3.965   1.191
 2329SOL     OW 8668   2.728   4.178   0.642
 2329SOL    HW1 8669   2.696   4.250   0.580
 2329SOL    HW2 8670   2.752   4.097   0.589
 2330SOL     OW 8671   2.879   3.763   0.753
 2330SOL    HW1 8672   2.807   3.768   0.684
 2330SOL    HW2 8673   2.855   3.694   0.822
 2331SOL     OW 8674   3.328   4.314   0.992
 2331SOL    HW1 8675   3.298   4.219   0.999
 2331SOL    HW2 8676   3.401   4.330   1.058
 2332SOL     OW 8677   3.526   5.004   0.657
 2332SOL    HW1 8678   3.625   5.012   0.671
 2332SOL    HW2 8679   3.481   5.088   0.688
 2333SOL     OW 8680   3.252   4.299   0.078
 2333SOL    HW1 8681   3.198   4.278   0.159
 2333SOL    HW2 8682   3.343   4.258   0.087
 2334SOL     OW 8683   2.389   3.980   0.328
 2334SOL    HW1 8684   2.416   3.921   0.253
 2334SOL    HW2 8685   2.389   4.075   0.297
 2335SOL     OW 8686   3.616   4.947   1.588
 2335SOL    HW1 8687   3.707   4.908   1.575
 2335SOL    HW2 8688   3.624   5.043   1.612
 2336SOL     OW 8689   2.777   3.813   1.402
 2336SOL    HW1 8690   2.802   3.793   1.307
 2336SOL    HW2 8691   2.849   3.869   1.444
 2337SOL     OW 8692   2.842   4.840   1.719
 2337SOL    HW1 8693   2.743   4.846   1.729
 2337SOL    HW2 8694   2.865   4.760   1.663
 2338SOL     OW 8695   3.136   4.110   1.262
 2338SOL    HW1 8696   3.157   4.184   1.326
 2338SOL    HW2 8697   3.047   4.127   1.219
 2339SOL     OW 8698   2.229   4.824   0.501
 2339SOL    HW1 8699   2.222   4.907   0.445
 2339SOL    HW2 8700   2.233   4.744   0.441
 2340SOL     OW 8701   2.428   4.261   0.865
 2340SOL    HW1 8702   2.440   4.327   0.791
 2340SOL    HW2 8703   2.474   4.295   0.948
 2341SOL     OW 8704   3.444   4.363   0.472
 2341SOL    HW1 8705   3.413   4.424   0.545
 2341SOL    HW2 8706   3.494   4.415   0.403
 2342SOL     OW 8707   3.449   4.503   1.670
 2342SOL    HW1 8708   3.357   4.541   1.665
 2342SOL    HW2 8709   3.509   4.550   1.605
 2343SOL     OW 8710   2.875   3.829   1.770
 2343SOL    HW1 8711   2.881   3.914   1.718
 2343SOL    HW2 8712   2.907   3.753   1.713
 2344SOL     OW 8713   2.366   3.774   1.740
 2344SOL    HW1 8714   2.324   3.717   1.670
 2344SOL    HW2 8715   2.300   3.843   1.772
 2345SOL     OW 8716   3.071   4.249   0.275
 2345SOL    HW1 8717   3.084   4.165   0.329
 2345SOL    HW2 8718   3.042   4.323   0.335
 2346SOL     OW 8719   2.169   3.937   1.231
 2346SOL    HW1 8720   2.146   3.974   1.321
 2346SOL    HW2 8721   2.139   3.842   1.225
 2347SOL     OW 8722   2.594   4.358   1.064
 2347SOL    HW1 8723   2.653   4.332   0.988
 2347SOL    HW2 8724   2.566   4.454   1.053
 2348SOL     OW 8725   3.590   4.659   1.854
 2348SOL    HW1 8726   3.544   4.652   1.765
 2348SOL    HW2 8727   3.528   4.703   1.920
 2349SOL     OW 8728   2.169   3.787   0.618
 2349SOL    HW1 8729   2.158   3.881   0.651
 2349SOL    HW2 8730   2.164   3.724   0.695
 2350SOL     OW 8731   3.484   4.091   0.374
 2350SOL    HW1 8732   3.486   4.015   0.438
 2350SOL    HW2 8733   3.436   4.168   0.414
 2351SOL     OW 8734   2.885   4.490   0.966
 2351SOL    HW1 8735   2.900   4.511   1.062
 2351SOL    HW2 8736   2.855   4.395   0.957
 2352SOL     OW 8737   3.721   5.242   1.605
 2352SOL    HW1 8738   3.735   5.269   1.510
 2352SOL    HW2 8739   3.804   5.264   1.658
 2353SOL     OW 8740   2.212   4.622   1.804
 2353SOL    HW1 8741   2.288   4.666   1.852
 2353SOL    HW2 8742   2.247   4.575   1.722
 2354SOL     OW 8743   3.402   3.998   0.125
 2354SOL    HW1 8744   3.341   3.923   0.148
 2354SOL    HW2 8745   3.424   4.050   0.208
 2355SOL     OW 8746   3.165   4.562   0.042
 2355SOL    HW1 8747   3.199   4.469   0.057
 2355SOL    HW2 8748   3.183   4.589  -0.053
 2356SOL     OW 8749   3.000   4.104   1.678
 2356SOL    HW1 8750   2.955   4.167   1.742
 2356SOL    HW2 8751   3.093   4.135   1.661
 2357SOL     OW 8752   3.022   3.931   1.477
 2357SOL    HW1 8753   3.022   3.995   1.554
 2357SOL    HW2 8754   3.050   3.979   1.394
 2358SOL     OW 8755   2.864   4.520   1.238
 2358SOL    HW1 8756   2.905   4.488   1.324
 2358SOL    HW2 8757   2.768   4.493   1.235
 2359SOL     OW 8758   1.902   4.268   1.114
 2359SOL    HW1 8759   1.987   4.235   1.073
 2359SOL    HW2 8760   1.915   4.283   1.212
 2360SOL     OW 8761   3.231   4.674   1.660
 2360SOL    HW1 8762   3.270   4.763   1.680
 2360SOL    HW2 8763   3.241   4.654   1.563
 2361SOL     OW 8764   2.677   4.296   0.325
 2361SOL    HW1 8765   2.684   4.207   0.279
 2361SOL    HW2 8766   2.583   4.330   0.317
 2362SOL     OW 8767   3.519   4.328   1.206
 2362SOL    HW1 8768   3.481   4.259   1.268
 2362SOL    HW2 8769   3.601   4.292   1.162
 2363SOL     OW 8770   2.533   4.188   1.269
 2363SOL    HW1 8771   2.499   4.099   1.239
 2363SOL    HW2 8772   2.559   4.242   1.189
 2364SOL     OW 8773   2.021   4.861   1.466
 2364SOL    HW1 8774   2.043   4.800   1.542
 2364SOL    HW2 8775   2.031   4.812   1.380
 2365SOL     OW 8776   3.164   4.579   0.309
 2365SOL    HW1 8777   3.078   4.548   0.351
 2365SOL    HW2 8778   3.160   4.565   0.210
 2366SOL     OW 8779   1.945   4.982   1.022
 2366SOL    HW1 8780   1.940   4.981   1.122
 2366SOL    HW2 8781   1.862   4.941   0.984
 2367SOL     OW 8782   2.765   3.810   0.133
 2367SOL    HW1 8783   2.816   3.811   0.047
 2367SOL    HW2 8784   2.821   3.768   0.204
 2368SOL     OW 8785   3.588   3.859   0.523
 2368SOL    HW1 8786   3.661   3.842   0.456
 2368SOL    HW2 8787   3.557   3.772   0.561
 2369SOL     OW 8788   2.692   4.997   1.422
 2369SOL    HW1 8789   2.687   5.030   1.517
 2369SOL    HW2 8790   2.606   5.016   1.376
 2370SOL     OW 8791   3.703   3.899   0.963
 2370SOL    HW1 8792   3.742   3.814   0.927
 2370SOL    HW2 8793   3.605   3.901   0.944
 2371SOL     OW 8794   2.125   4.050   0.720
 2371SOL    HW1 8795   2.046   4.101   0.686
 2371SOL    HW2 8796   2.116   4.035   0.818
 2372SOL     OW 8797   2.684   4.726   1.372
 2372SOL    HW1 8798   2.724   4.725   1.280
 2372SOL    HW2 8799   2.694   4.818   1.412
 2373SOL     OW 8800   2.778   4.634   0.291
 2373SOL    HW1 8801   2.841   4.672   0.223
 2373SOL    HW2 8802   2.818   4.551   0.330
 2374SOL     OW 8803   2.901   4.822   0.696
 2374SOL    HW1 8804   2.831   4.775   0.750
 2374SOL    HW2 8805   2.960   4.754   0.653
 2375SOL     OW 8806   2.876   3.960   0.971
 2375SOL    HW1 8807   2.868   3.924   0.878
 2375SOL    HW2 8808   2.874   3.884   1.036
 2376SOL     OW 8809   3.571   4.109   1.381
 2376SOL    HW1 8810   3.644   4.178   1.385
 2376SOL    HW2 8811   3.599   4.034   1.322
 2377SOL     OW 8812   1.967   4.737   1.726
 2377SOL    HW1 8813   1.890   4.704   1.780
 2377SOL    HW2 8814   2.052   4.707   1.768
 2378SOL     OW 8815   2.534   3.927   1.489
 2378SOL    HW1 8816   2.624   3.911   1.449
 2378SOL    HW2 8817   2.542   3.932   1.588
 2379SOL     OW 8818   1.934   3.890   0.318
 2379SOL    HW1 8819   1.917   3.973   0.264
 2379SOL    HW2 8820   2.024   3.853   0.296
 2380SOL     OW 8821   2.578   4.289   1.708
 2380SOL    HW1 8822   2.597   4.354   1.782
 2380SOL    HW2 8823   2.638   4.209   1.717
 2381SOL     OW 8824   3.312   4.944   1.633
 2381SOL    HW1 8825   3.303   4.934   1.732
 2381SOL    HW2 8826   3.408   4.937   1.607
 2382SOL     OW 8827   3.536   4.607   1.254
 2382SOL    HW1 8828   3.509   4.518   1.217
 2382SOL    HW2 8829   3.537   4.675   1.181
 2383SOL     OW 8830   3.087   4.049   0.449
 2383SOL    HW1 8831   3.152   3.975   0.438
 2383SOL    HW2 8832   3.107   4.099   0.533
 2384SOL     OW 8833   2.456   4.469   0.652
 2384SOL    HW1 8834   2.506   4.554   0.633
 2384SOL    HW2 8835   2.368   4.471   0.604
 2385SOL     OW 8836   3.639   4.066   1.642
 2385SOL    HW1 8837   3.622   4.097   1.548
 2385SOL    HW2 8838   3.555   4.029   1.680
 2386SOL     OW 8839   3.592   4.658   1.517
 2386SOL    HW1 8840   3.630   4.749   1.532
 2386SOL    HW2 8841   3.584   4.641   1.418
 2387SOL     OW 8842   2.721   4.680   0.861
 2387SOL    HW1 8843   2.775   4.611   0.909
 2387SOL    HW2 8844   2.689   4.749   0.927
 2388SOL     OW 8845   2.945   4.708   0.087
 2388SOL    HW1 8846   2.922   4.761   0.005
 2388SOL    HW2 8847   3.026   4.652   0.068
 2389SOL     OW 8848   1.941   4.964   0.653
 2389SOL    HW1 8849   1.940   4.917   0.741
 2389SOL    HW2 8850   2.023   4.936   0.602
 2390SOL     OW 8851   3.686   3.916   1.227
 2390SOL    HW1 8852   3.682   3.826   1.271
 2390SOL    HW2 8853   3.689   3.905   1.128
 2391SOL     OW 8854   2.290   4.148   0.520
 2391SOL    HW1 8855   2.320   4.076   0.458
 2391SOL    HW2 8856   2.251   4.108   0.603
 2392SOL     OW 8857   3.286   3.938   1.112
 2392SOL    HW1 8858   3.338   3.873   1.167
 2392SOL    HW2 8859   3.237   4.001   1.173
 2393SOL     OW 8860   2.863   3.758   1.154
 2393SOL    HW1 8861   2.800   3.686   1.123
 2393SOL    HW2 8862   2.956   3.722   1.154
 2394SOL     OW 8863   3.214   3.776   0.168
 2394SOL    HW1 8864   3.249   3.735   0.084
 2394SOL    HW2 8865   3.124   3.738   0.188
 2395SOL     OW 8866   3.162   4.177   0.691
 2395SOL    HW1 8867   3.103   4.257   0.695
 2395SOL    HW2 8868   3.177   4.142   0.784
 2396SOL     OW 8869   3.455   3.945   0.882
 2396SOL    HW1 8870   3.371   3.944   0.936
 2396SOL    HW2 8871   3.457   4.028   0.826
 2397SOL     OW 8872   1.901   4.801   0.300
 2397SOL    HW1 8873   2.000   4.790   0.291
 2397SOL    HW2 8874   1.861   4.715   0.332
 2398SOL     OW 8875   2.087   3.999   2.858
 2398SOL    HW1 8876   2.122   3.982   2.950
 2398SOL    HW2 8877   1.999   3.954   2.846
 2399SOL     OW 8878   1.881   4.092   2.509
 2399SOL    HW1 8879   1.799   4.135   2.548
 2399SOL    HW2 8880   1.853   4.019   2.446
 2400SOL     OW 8881   2.431   4.999   3.027
 2400SOL    HW1 8882   2.338   4.992   2.990
 2400SOL    HW2 8883   2.442   5.088   3.071
 2401SOL     OW 8884   3.417   5.235   2.565
 2401SOL    HW1 8885   3.360   5.219   2.646
 2401SOL    HW2 8886   3.358   5.245   2.485
 2402SOL     OW 8887   2.997   4.427   2.579
 2402SOL    HW1 8888   3.054   4.505   2.554
 2402SOL    HW2 8889   2.937   4.453   2.655
 2403SOL     OW 8890   3.617   4.331   2.093
 2403SOL    HW1 8891   3.605   4.318   1.994
 2403SOL    HW2 8892   3.587   4.250   2.142
 2404SOL     OW 8893   2.630   4.868   2.885
 2404SOL    HW1 8894   2.552   4.885   2.945
 2404SOL    HW2 8895   2.664   4.955   2.849
 2405SOL     OW 8896   2.712   4.522   3.685
 2405SOL    HW1 8897   2.708   4.598   3.750
 2405SOL    HW2 8898   2.734   4.558   3.594
 2406SOL     OW 8899   2.547   4.736   2.527
 2406SOL    HW1 8900   2.616   4.720   2.597
 2406SOL    HW2 8901   2.474   4.793   2.565
 2407SOL     OW 8902   2.548   4.885   3.665
 2407SOL    HW1 8903   2.608   4.964   3.679
 2407SOL    HW2 8904   2.462   4.916   3.624
 2408SOL     OW 8905   2.197   5.159   2.923
 2408SOL    HW1 8906   2.119   5.128   2.870
 2408SOL    HW2 8907   2.255   5.217   2.866
 2409SOL     OW 8908   2.300   4.116   3.361
 2409SOL    HW1 8909   2.382   4.060   3.370
 2409SOL    HW2 8910   2.219   4.058   3.365
 2410SOL     OW 8911   3.465   4.171   2.599
 2410SOL    HW1 8912   3.391   4.217   2.549
 2410SOL    HW2 8913   3.516   4.239   2.652
 2411SOL     OW 8914   2.102   4.815   2.748
 2411SOL    HW1 8915   2.116   4.731   2.800
 2411SOL    HW2 8916   2.047   4.879   2.803
 2412SOL     OW 8917   2.468   4.688   1.985
 2412SOL    HW1 8918   2.475   4.772   1.931
 2412SOL    HW2 8919   2.514   4.701   2.073
 2413SOL     OW 8920   1.984   4.367   2.425
 2413SOL    HW1 8921   1.939   4.279   2.442
 2413SOL    HW2 8922   1.983   4.421   2.509
 2414SOL     OW 8923   3.551   4.646   2.474
 2414SOL    HW1 8924   3.646   4.617   2.482
 2414SOL    HW2 8925   3.543   4.711   2.399
 2415SOL     OW 8926   3.503   4.832   2.294
 2415SOL    HW1 8927   3.589   4.834   2.242
 2415SOL    HW2 8928   3.517   4.879   2.382
 2416SOL     OW 8929   1.975   4.461   3.459
 2416SOL    HW1 8930   2.063   4.448   3.504
 2416SOL    HW2 8931   1.962   4.558   3.437
 2417SOL     OW 8932   3.155   4.952   3.285
 2417SOL    HW1 8933   3.192   4.879   3.227
 2417SOL    HW2 8934   3.207   4.957   3.370
 2418SOL     OW 8935   2.059   4.700   3.126
 2418SOL    HW1 8936   2.148   4.655   3.112
 2418SOL    HW2 8937   1.986   4.635   3.107
 2419SOL     OW 8938   3.387   4.723   2.052
 2419SOL    HW1 8939   3.324   4.647   2.065
 2419SOL    HW2 8940   3.435   4.741   2.138
 2420SOL     OW 8941   2.179   3.975   3.663
 2420SOL    HW1 8942   2.250   4.046   3.669
 2420SOL    HW2 8943   2.091   4.014   3.691
 2421SOL     OW 8944   3.328   5.141   2.815
 2421SOL    HW1 8945   3.269   5.147   2.895
 2421SOL    HW2 8946   3.313   5.053   2.769
 2422SOL     OW 8947   2.460   4.453   2.132
 2422SOL    HW1 8948   2.484   4.522   2.064
 2422SOL    HW2 8949   2.382   4.486   2.186
 2423SOL     OW 8950   3.143   4.069   2.806
 2423SOL    HW1 8951   3.057   4.019   2.793
 2423SOL    HW2 8952   3.205   4.015   2.862
 2424SOL     OW 8953   2.835   4.614   3.434
 2424SOL    HW1 8954   2.881   4.530   3.405
 2424SOL    HW2 8955   2.779   4.648   3.359
 2425SOL     OW 8956   2.903   4.425   2.291
 2425SOL    HW1 8957   2.929   4.421   2.387
 2425SOL    HW2 8958   2.818   4.374   2.277
 2426SOL     OW 8959   1.938   4.535   2.651
 2426SOL    HW1 8960   2.037   4.523   2.660
 2426SOL    HW2 8961   1.914   4.630   2.672
 2427SOL     OW 8962   2.727   4.072   2.057
 2427SOL    HW1 8963   2.786   4.135   2.008
 2427SOL    HW2 8964   2.746   3.978   2.028
 2428SOL     OW 8965   3.581   4.309   3.693
 2428SOL    HW1 8966   3.555   4.398   3.657
 2428SOL    HW2 8967   3.579   4.241   3.620
 2429SOL     OW 8968   3.224   4.868   2.407
 2429SOL    HW1 8969   3.307   4.839   2.359
 2429SOL    HW2 8970   3.175   4.935   2.351
 2430SOL     OW 8971   2.412   3.920   2.747
 2430SOL    HW1 8972   2.407   3.915   2.847
 2430SOL    HW2 8973   2.414   4.016   2.718
 2431SOL     OW 8974   3.657   4.790   2.735
 2431SOL    HW1 8975   3.595   4.775   2.659
 2431SOL    HW2 8976   3.605   4.801   2.820
 2432SOL     OW 8977   2.183   4.667   2.104
 2432SOL    HW1 8978   2.265   4.706   2.062
 2432SOL    HW2 8979   2.156   4.585   2.055
 2433SOL     OW 8980   3.320   4.459   2.590
 2433SOL    HW1 8981   3.315   4.394   2.665
 2433SOL    HW2 8982   3.400   4.518   2.603
 2434SOL     OW 8983   2.064   4.009   3.360
 2434SOL    HW1 8984   1.984   4.069   3.347
 2434SOL    HW2 8985   2.054   3.960   3.446
 2435SOL     OW 8986   3.494   5.101   1.943
 2435SOL    HW1 8987   3.462   5.195   1.933
 2435SOL    HW2 8988   3.418   5.038   1.931
 2436SOL     OW 8989   2.244   4.424   2.342
 2436SOL    HW1 8990   2.289   4.334   2.339
 2436SOL    HW2 8991   2.150   4.413   2.375
 2437SOL     OW 8992   3.409   3.946   3.591
 2437SOL    HW1 8993   3.404   3.983   3.683
 2437SOL    HW2 8994   3.337   3.877   3.579
 2438SOL     OW 8995   2.476   3.846   1.979
 2438SOL    HW1 8996   2.574   3.824   1.986
 2438SOL    HW2 8997   2.445   3.829   1.886
 2439SOL     OW 8998   3.213   4.314   3.295
 2439SOL    HW1 8999   3.241   4.271   3.380
 2439SOL    HW2 9000   3.238   4.410   3.296
 2440SOL     OW 9001   2.665   5.126   2.786
 2440SOL    HW1 9002   2.755   5.140   2.744
 2440SOL    HW2 9003   2.594   5.128   2.715
 2441SOL     OW 9004   2.784   4.227   2.761
 2441SOL    HW1 9005   2.759   4.218   2.665
 2441SOL    HW2 9006   2.832   4.145   2.792
 2442SOL     OW 9007   2.401   3.788   2.374
 2442SOL    HW1 9008   2.320   3.789   2.432
 2442SOL    HW2 9009   2.404   3.871   2.319
 2443SOL     OW 9010   3.296   4.912   1.903
 2443SOL    HW1 9011   3.328   4.836   1.960
 2443SOL    HW2 9012   3.204   4.939   1.933
 2444SOL     OW 9013   2.159   3.759   2.033
 2444SOL    HW1 9014   2.208   3.843   2.012
 2444SOL    HW2 9015   2.221   3.694   2.078
 2445SOL     OW 9016   2.938   4.407   3.326
 2445SOL    HW1 9017   2.858   4.346   3.329
 2445SOL    HW2 9018   3.019   4.354   3.302
 2446SOL     OW 9019   3.089   5.294   2.655
 2446SOL    HW1 9020   3.110   5.368   2.590
 2446SOL    HW2 9021   3.157   5.294   2.728
 2447SOL     OW 9022   2.321   4.876   2.603
 2447SOL    HW1 9023   2.250   4.849   2.668
 2447SOL    HW2 9024   2.295   4.848   2.510
 2448SOL     OW 9025   2.894   4.273   1.878
 2448SOL    HW1 9026   2.853   4.355   1.839
 2448SOL    HW2 9027   2.958   4.299   1.951
 2449SOL     OW 9028   1.940   4.280   3.248
 2449SOL    HW1 9029   2.032   4.279   3.207
 2449SOL    HW2 9030   1.934   4.354   3.315
 2450SOL     OW 9031   2.423   3.946   3.009
 2450SOL    HW1 9032   2.461   3.862   3.046
 2450SOL    HW2 9033   2.335   3.965   3.053
 2451SOL     OW 9034   3.291   4.897   2.729
 2451SOL    HW1 9035   3.236   4.813   2.722
 2451SOL    HW2 9036   3.317   4.926   2.637
 2452SOL     OW 9037   3.328   4.314   2.854
 2452SOL    HW1 9038   3.298   4.219   2.861
 2452SOL    HW2 9039   3.401   4.330   2.920
 2453SOL     OW 9040   3.719   4.557   2.239
 2453SOL    HW1 9041   3.761   4.493   2.303
 2453SOL    HW2 9042   3.681   4.506   2.161
 2454SOL     OW 9043   3.526   5.004   2.519
 2454SOL    HW1 9044   3.625   5.012   2.533
 2454SOL    HW2 9045   3.481   5.088   2.550
 2455SOL     OW 9046   3.252   4.299   1.940
 2455SOL    HW1 9047   3.198   4.278   2.021
 2455SOL    HW2 9048   3.343   4.258   1.949
 2456SOL     OW 9049   2.389   3.980   2.190
 2456SOL    HW1 9050   2.416   3.921   2.115
 2456SOL    HW2 9051   2.389   4.075   2.159
 2457SOL     OW 9052   3.616   4.947   3.450
 2457SOL    HW1 9053   3.707   4.908   3.437
 2457SOL    HW2 9054   3.624   5.043   3.474
 2458SOL     OW 9055   3.500   4.823   2.941
 2458SOL    HW1 9056   3.505   4.904   3.000
 2458SOL    HW2 9057   3.414   4.825   2.890
 2459SOL     OW 9058   2.777   3.813   3.264
 2459SOL    HW1 9059   2.802   3.793   3.169
 2459SOL    HW2 9060   2.849   3.869   3.306
 2460SOL     OW 9061   2.842   4.840   3.581
 2460SOL    HW1 9062   2.743   4.846   3.591
 2460SOL    HW2 9063   2.865   4.760   3.525
 2461SOL     OW 9064   2.272   4.537   3.113
 2461SOL    HW1 9065   2.358   4.549   3.163
 2461SOL    HW2 9066   2.230   4.450   3.140
 2462SOL     OW 9067   2.229   4.824   2.363
 2462SOL    HW1 9068   2.222   4.907   2.307
 2462SOL    HW2 9069   2.233   4.744   2.303
 2463SOL     OW 9070   3.444   4.363   2.334
 2463SOL    HW1 9071   3.413   4.424   2.407
 2463SOL    HW2 9072   3.494   4.415   2.265
 2464SOL     OW 9073   3.449   4.503   3.532
 2464SOL    HW1 9074   3.357   4.541   3.527
 2464SOL    HW2 9075   3.509   4.550   3.467
 2465SOL     OW 9076   2.366   3.774   3.602
 2465SOL    HW1 9077   2.324   3.717   3.532
 2465SOL    HW2 9078   2.300   3.843   3.634
 2466SOL     OW 9079   2.435   4.594   2.891
 2466SOL    HW1 9080   2.479   4.683   2.882
 2466SOL    HW2 9081   2.372   4.594   2.968
 2467SOL     OW 9082   3.222   4.586   2.907
 2467SOL    HW1 9083   3.147   4.586   2.841
 2467SOL    HW2 9084   3.259   4.494   2.916
 2468SOL     OW 9085   3.071   4.249   2.137
 2468SOL    HW1 9086   3.084   4.165   2.191
 2468SOL    HW2 9087   3.042   4.323   2.197
 2469SOL     OW 9088   2.169   3.937   3.093
 2469SOL    HW1 9089   2.146   3.974   3.183
 2469SOL    HW2 9090   2.139   3.842   3.087
 2470SOL     OW 9091   3.590   4.659   3.716
 2470SOL    HW1 9092   3.544   4.652   3.627
 2470SOL    HW2 9093   3.528   4.703   3.782
 2471SOL     OW 9094   2.169   3.787   2.480
 2471SOL    HW1 9095   2.158   3.881   2.513
 2471SOL    HW2 9096   2.164   3.724   2.557
 2472SOL     OW 9097   3.484   4.091   2.236
 2472SOL    HW1 9098   3.486   4.015   2.300
 2472SOL    HW2 9099   3.436   4.168   2.276
 2473SOL     OW 9100   2.885   4.490   2.828
 2473SOL    HW1 9101   2.900   4.511   2.924
 2473SOL    HW2 9102   2.855   4.395   2.819
 2474SOL     OW 9103   3.721   5.242   3.467
 2474SOL    HW1 9104   3.735   5.269   3.372
 2474SOL    HW2 9105   3.804   5.264   3.520
 2475SOL     OW 9106   3.165   4.562   1.904
 2475SOL    HW1 9107   3.199   4.469   1.919
 2475SOL    HW2 9108   3.183   4.589   1.809
 2476SOL     OW 9109   2.181   4.534   2.811
 2476SOL    HW1 9110   2.274   4.570   2.816
 2476SOL    HW2 9111   2.175   4.449   2.863
 2477SOL     OW 9112   2.201   4.233   2.868
 2477SOL    HW1 9113   2.149   4.150   2.851
 2477SOL    HW2 9114   2.278   4.238   2.804
 2478SOL     OW 9115   1.870   5.050   2.062
 2478SOL    HW1 9116   1.777   5.071   2.031
 2478SOL    HW2 9117   1.880   4.951   2.075
 2479SOL     OW 9118   2.864   4.520   3.100
 2479SOL    HW1 9119   2.905   4.488   3.186
 2479SOL    HW2 9120   2.768   4.493   3.097
 2480SOL     OW 9121   1.902   4.268   2.976
 2480SOL    HW1 9122   1.987   4.235   2.935
 2480SOL    HW2 9123   1.915   4.283   3.074
 2481SOL     OW 9124   2.051   4.244   3.584
 2481SOL    HW1 9125   2.110   4.204   3.514
 2481SOL    HW2 9126   1.993   4.315   3.543
 2482SOL     OW 9127   3.231   4.674   3.522
 2482SOL    HW1 9128   3.270   4.763   3.542
 2482SOL    HW2 9129   3.241   4.654   3.425
 2483SOL     OW 9130   3.519   4.328   3.068
 2483SOL    HW1 9131   3.481   4.259   3.130
 2483SOL    HW2 9132   3.601   4.292   3.024
 2484SOL     OW 9133   2.335   4.224   2.053
 2484SOL    HW1 9134   2.396   4.304   2.057
 2484SOL    HW2 9135   2.240   4.255   2.060
 2485SOL     OW 9136   2.021   4.861   3.328
 2485SOL    HW1 9137   2.043   4.800   3.404
 2485SOL    HW2 9138   2.031   4.812   3.242
 2486SOL     OW 9139   3.209   4.783   3.096
 2486SOL    HW1 9140   3.233   4.720   3.022
 2486SOL    HW2 9141   3.119   4.823   3.078
 2487SOL     OW 9142   3.164   4.579   2.171
 2487SOL    HW1 9143   3.078   4.548   2.213
 2487SOL    HW2 9144   3.160   4.565   2.072
 2488SOL     OW 9145   1.945   4.982   2.884
 2488SOL    HW1 9146   1.940   4.981   2.984
 2488SOL    HW2 9147   1.862   4.941   2.846
 2489SOL     OW 9148   3.142   4.651   2.534
 2489SOL    HW1 9149   3.202   4.570   2.536
 2489SOL    HW2 9150   3.182   4.720   2.474
 2490SOL     OW 9151   2.692   4.997   3.284
 2490SOL    HW1 9152   2.687   5.030   3.379
 2490SOL    HW2 9153   2.606   5.016   3.238
 2491SOL     OW 9154   3.703   3.899   2.825
 2491SOL    HW1 9155   3.742   3.814   2.789
 2491SOL    HW2 9156   3.605   3.901   2.806
 2492SOL     OW 9157   2.125   4.050   2.582
 2492SOL    HW1 9158   2.046   4.101   2.548
 2492SOL    HW2 9159   2.116   4.035   2.680
 2493SOL     OW 9160   3.056   5.336   1.893
 2493SOL    HW1 9161   3.062   5.243   1.930
 2493SOL    HW2 9162   2.997   5.336   1.813
 2494SOL     OW 9163   2.684   4.726   3.234
 2494SOL    HW1 9164   2.724   4.725   3.142
 2494SOL    HW2 9165   2.694   4.818   3.274
 2495SOL     OW 9166   2.778   4.634   2.153
 2495SOL    HW1 9167   2.841   4.672   2.085
 2495SOL    HW2 9168   2.818   4.551   2.192
 2496SOL     OW 9169   2.234   5.012   3.352
 2496SOL    HW1 9170   2.221   5.105   3.318
 2496SOL    HW2 9171   2.150   4.960   3.339
 2497SOL     OW 9172   3.476   5.016   3.151
 2497SOL    HW1 9173   3.536   5.019   3.231
 2497SOL    HW2 9174   3.401   5.080   3.164
 2498SOL     OW 9175   3.571   4.109   3.243
 2498SOL    HW1 9176   3.644   4.178   3.247
 2498SOL    HW2 9177   3.599   4.034   3.184
 2499SOL     OW 9178   1.967   4.737   3.588
 2499SOL    HW1 9179   1.890   4.704   3.642
 2499SOL    HW2 9180   2.052   4.707   3.630
 2500SOL     OW 9181   2.534   3.927   3.351
 2500SOL    HW1 9182   2.624   3.911   3.311
 2500SOL    HW2 9183   2.542   3.932   3.450
 2501SOL     OW 9184   1.937   4.069   1.895
 2501SOL    HW1 9185   1.845   4.041   1.866
 2501SOL    HW2 9186   1.968   4.146   1.839
 2502SOL     OW 9187   3.302   4.580   3.260
 2502SOL    HW1 9188   3.245   4.632   3.197
 2502SOL    HW2 9189   3.398   4.592   3.236
 2503SOL     OW 9190   1.934   3.890   2.180
 2503SOL    HW1 9191   1.917   3.973   2.126
 2503SOL    HW2 9192   2.024   3.853   2.158
 2504SOL     OW 9193   3.312   4.944   3.495
 2504SOL    HW1 9194   3.303   4.934   3.594
 2504SOL    HW2 9195   3.408   4.937   3.469
 2505SOL     OW 9196   3.536   4.607   3.116
 2505SOL    HW1 9197   3.509   4.518   3.079
 2505SOL    HW2 9198   3.537   4.675   3.043
 2506SOL     OW 9199   3.639   4.066   3.504
 2506SOL    HW1 9200   3.622   4.097   3.410
 2506SOL    HW2 9201   3.555   4.029   3.542
 2507SOL     OW 9202   3.592   4.658   3.379
 2507SOL    HW1 9203   3.630   4.749   3.394
 2507SOL    HW2 9204   3.584   4.641   3.280
 2508SOL     OW 9205   2.721   4.680   2.723
 2508SOL    HW1 9206   2.775   4.611   2.771
 2508SOL    HW2 9207   2.689   4.749   2.789
 2509SOL     OW 9208   2.945   4.708   1.949
 2509SOL    HW1 9209   2.922   4.761   1.867
 2509SOL    HW2 9210   3.026   4.652   1.930
 2510SOL     OW 9211   1.941   4.964   2.515
 2510SOL    HW1 9212   1.940   4.917   2.603
 2510SOL    HW2 9213   2.023   4.936   2.464
 2511SOL     OW 9214   3.686   3.916   3.089
 2511SOL    HW1 9215   3.682   3.826   3.133
 2511SOL    HW2 9216   3.689   3.905   2.990
 2512SOL     OW 9217   2.290   4.148   2.382
 2512SOL    HW1 9218   2.320   4.076   2.320
 2512SOL    HW2 9219   2.251   4.108   2.465
 2513SOL     OW 9220   2.179   4.271   3.142
 2513SOL    HW1 9221   2.217   4.212   3.214
 2513SOL    HW2 9222   2.219   4.245   3.054
 2514SOL     OW 9223   3.286   3.938   2.974
 2514SOL    HW1 9224   3.338   3.873   3.029
 2514SOL    HW2 9225   3.237   4.001   3.035
 2515SOL     OW 9226   2.863   3.758   3.016
 2515SOL    HW1 9227   2.800   3.686   2.985
 2515SOL    HW2 9228   2.956   3.722   3.016
 2516SOL     OW 9229   3.162   4.177   2.553
 2516SOL    HW1 9230   3.103   4.257   2.557
 2516SOL    HW2 9231   3.177   4.142   2.646
 2517SOL     OW 9232   3.455   3.945   2.744
 2517SOL    HW1 9233   3.371   3.944   2.798
 2517SOL    HW2 9234   3.457   4.028   2.688
 2518SOL     OW 9235   1.901   4.801   2.162
 2518SOL    HW1 9236   2.000   4.790   2.153
 2518SOL    HW2 9237   1.861   4.715   2.194
 2519SOL     OW 9238   2.087   3.999   4.720
 2519SOL    HW1 9239   2.122   3.982   4.812
 2519SOL    HW2 9240   1.999   3.954   4.708
 2520SOL     OW 9241   1.881   4.092   4.371
 2520SOL    HW1 9242   1.799   4.135   4.410
 2520SOL    HW2 9243   1.853   4.019   4.308
 2521SOL     OW 9244   2.431   4.999   4.889
 2521SOL    HW1 9245   2.338   4.992   4.852
 2521SOL    HW2 9246   2.442   5.088   4.933
 2522SOL     OW 9247   3.417   5.235   4.427
 2522SOL    HW1 9248   3.360   5.219   4.508
 2522SOL    HW2 9249   3.358   5.245   4.347
 2523SOL     OW 9250   2.997   4.427   4.441
 2523SOL    HW1 9251   3.054   4.505   4.416
 2523SOL    HW2 9252   2.937   4.453   4.517
 2524SOL     OW 9253   3.617   4.331   3.955
 2524SOL    HW1 9254   3.605   4.318   3.856
 2524SOL    HW2 9255   3.587   4.250   4.004
 2525SOL     OW 9256   2.547   4.736   4.389
 2525SOL    HW1 9257   2.616   4.720   4.459
 2525SOL    HW2 9258   2.474   4.793   4.427
 2526SOL     OW 9259   2.197   5.159   4.785
 2526SOL    HW1 9260   2.119   5.128   4.732
 2526SOL    HW2 9261   2.255   5.217   4.728
 2527SOL     OW 9262   3.465   4.171   4.461
 2527SOL    HW1 9263   3.391   4.217   4.411
 2527SOL    HW2 9264   3.516   4.239   4.514
 2528SOL     OW 9265   2.102   4.815   4.610
 2528SOL    HW1 9266   2.116   4.731   4.662
 2528SOL    HW2 9267   2.047   4.879   4.665
 2529SOL     OW 9268   2.468   4.688   3.847
 2529SOL    HW1 9269   2.475   4.772   3.793
 2529SOL    HW2 9270   2.514   4.701   3.935
 2530SOL     OW 9271   1.984   4.367   4.287
 2530SOL    HW1 9272   1.939   4.279   4.304
 2530SOL    HW2 9273   1.983   4.421   4.371
 2531SOL     OW 9274   2.671   3.728   4.226
 2531SOL    HW1 9275   2.711   3.819   4.217
 2531SOL    HW2 9276   2.571   3.736   4.232
 2532SOL     OW 9277   2.059   4.700   4.988
 2532SOL    HW1 9278   2.148   4.655   4.974
 2532SOL    HW2 9279   1.986   4.635   4.969
 2533SOL     OW 9280   3.387   4.723   3.914
 2533SOL    HW1 9281   3.324   4.647   3.927
 2533SOL    HW2 9282   3.435   4.741   4.000
 2534SOL     OW 9283   3.328   5.141   4.677
 2534SOL    HW1 9284   3.269   5.147   4.757
 2534SOL    HW2 9285   3.313   5.053   4.631
 2535SOL     OW 9286   3.143   4.069   4.668
 2535SOL    HW1 9287   3.057   4.019   4.655
 2535SOL    HW2 9288   3.205   4.015   4.724
 2536SOL     OW 9289   2.853   4.134   4.966
 2536SOL    HW1 9290   2.776   4.168   5.020
 2536SOL    HW2 9291   2.819   4.083   4.887
 2537SOL     OW 9292   1.938   4.535   4.513
 2537SOL    HW1 9293   2.037   4.523   4.522
 2537SOL    HW2 9294   1.914   4.630   4.534
 2538SOL     OW 9295   2.727   4.072   3.919
 2538SOL    HW1 9296   2.786   4.135   3.870
 2538SOL    HW2 9297   2.746   3.978   3.890
 2539SOL     OW 9298   3.224   4.868   4.269
 2539SOL    HW1 9299   3.307   4.839   4.221
 2539SOL    HW2 9300   3.175   4.935   4.213
 2540SOL     OW 9301   2.412   3.920   4.609
 2540SOL    HW1 9302   2.407   3.915   4.709
 2540SOL    HW2 9303   2.414   4.016   4.580
 2541SOL     OW 9304   3.657   4.790   4.597
 2541SOL    HW1 9305   3.595   4.775   4.521
 2541SOL    HW2 9306   3.605   4.801   4.682
 2542SOL     OW 9307   3.320   4.459   4.452
 2542SOL    HW1 9308   3.315   4.394   4.527
 2542SOL    HW2 9309   3.400   4.518   4.465
 2543SOL     OW 9310   3.494   5.101   3.805
 2543SOL    HW1 9311   3.462   5.195   3.795
 2543SOL    HW2 9312   3.418   5.038   3.793
 2544SOL     OW 9313   3.262   3.831   4.150
 2544SOL    HW1 9314   3.238   3.794   4.060
 2544SOL    HW2 9315   3.361   3.847   4.154
 2545SOL     OW 9316   2.476   3.846   3.841
 2545SOL    HW1 9317   2.574   3.824   3.848
 2545SOL    HW2 9318   2.445   3.829   3.748
 2546SOL     OW 9319   2.784   4.227   4.623
 2546SOL    HW1 9320   2.759   4.218   4.527
 2546SOL    HW2 9321   2.832   4.145   4.654
 2547SOL     OW 9322   2.401   3.788   4.236
 2547SOL    HW1 9323   2.320   3.789   4.294
 2547SOL    HW2 9324   2.404   3.871   4.181
 2548SOL     OW 9325   3.296   4.912   3.765
 2548SOL    HW1 9326   3.328   4.836   3.822
 2548SOL    HW2 9327   3.204   4.939   3.795
 2549SOL     OW 9328   2.159   3.759   3.895
 2549SOL    HW1 9329   2.208   3.843   3.874
 2549SOL    HW2 9330   2.221   3.694   3.940
 2550SOL     OW 9331   2.797   3.960   4.204
 2550SOL    HW1 9332   2.749   4.001   4.126
 2550SOL    HW2 9333   2.896   3.958   4.185
 2551SOL     OW 9334   2.321   4.876   4.465
 2551SOL    HW1 9335   2.250   4.849   4.530
 2551SOL    HW2 9336   2.295   4.848   4.372
 2552SOL     OW 9337   2.728   4.178   4.366
 2552SOL    HW1 9338   2.696   4.250   4.304
 2552SOL    HW2 9339   2.752   4.097   4.313
 2553SOL     OW 9340   2.879   3.763   4.477
 2553SOL    HW1 9341   2.807   3.768   4.408
 2553SOL    HW2 9342   2.855   3.694   4.546
 2554SOL     OW 9343   3.291   4.897   4.591
 2554SOL    HW1 9344   3.236   4.813   4.584
 2554SOL    HW2 9345   3.317   4.926   4.499
 2555SOL     OW 9346   3.328   4.314   4.716
 2555SOL    HW1 9347   3.298   4.219   4.723
 2555SOL    HW2 9348   3.401   4.330   4.782
 2556SOL     OW 9349   3.719   4.557   4.101
 2556SOL    HW1 9350   3.761   4.493   4.165
 2556SOL    HW2 9351   3.681   4.506   4.023
 2557SOL     OW 9352   3.526   5.004   4.381
 2557SOL    HW1 9353   3.625   5.012   4.395
 2557SOL    HW2 9354   3.481   5.088   4.412
 2558SOL     OW 9355   3.252   4.299   3.802
 2558SOL    HW1 9356   3.198   4.278   3.883
 2558SOL    HW2 9357   3.343   4.258   3.811
 2559SOL     OW 9358   2.389   3.980   4.052
 2559SOL    HW1 9359   2.416   3.921   3.977
 2559SOL    HW2 9360   2.389   4.075   4.021
 2560SOL     OW 9361   3.500   4.823   4.803
 2560SOL    HW1 9362   3.505   4.904   4.862
 2560SOL    HW2 9363   3.414   4.825   4.752
 2561SOL     OW 9364   2.567   4.774   4.092
 2561SOL    HW1 9365   2.553   4.781   4.191
 2561SOL    HW2 9366   2.651   4.723   4.074
 2562SOL     OW 9367   3.136   4.110   4.986
 2562SOL    HW1 9368   3.157   4.184   5.050
 2562SOL    HW2 9369   3.047   4.127   4.943
 2563SOL     OW 9370   2.428   4.261   4.589
 2563SOL    HW1 9371   2.440   4.327   4.515
 2563SOL    HW2 9372   2.474   4.295   4.672
 2564SOL     OW 9373   3.444   4.363   4.196
 2564SOL    HW1 9374   3.413   4.424   4.269
 2564SOL    HW2 9375   3.494   4.415   4.127
 2565SOL     OW 9376   2.435   4.594   4.753
 2565SOL    HW1 9377   2.479   4.683   4.744
 2565SOL    HW2 9378   2.372   4.594   4.830
 2566SOL     OW 9379   3.222   4.586   4.769
 2566SOL    HW1 9380   3.147   4.586   4.703
 2566SOL    HW2 9381   3.259   4.494   4.778
 2567SOL     OW 9382   3.071   4.249   3.999
 2567SOL    HW1 9383   3.084   4.165   4.053
 2567SOL    HW2 9384   3.042   4.323   4.059
 2568SOL     OW 9385   2.594   4.358   4.788
 2568SOL    HW1 9386   2.653   4.332   4.712
 2568SOL    HW2 9387   2.566   4.454   4.777
 2569SOL     OW 9388   3.484   4.091   4.098
 2569SOL    HW1 9389   3.486   4.015   4.162
 2569SOL    HW2 9390   3.436   4.168   4.138
 2570SOL     OW 9391   2.885   4.490   4.690
 2570SOL    HW1 9392   2.900   4.511   4.786
 2570SOL    HW2 9393   2.855   4.395   4.681
 2571SOL     OW 9394   3.402   3.998   3.849
 2571SOL    HW1 9395   3.341   3.923   3.872
 2571SOL    HW2 9396   3.424   4.050   3.932
 2572SOL     OW 9397   3.165   4.562   3.766
 2572SOL    HW1 9398   3.199   4.469   3.781
 2572SOL    HW2 9399   3.183   4.589   3.671
 2573SOL     OW 9400   2.181   4.534   4.673
 2573SOL    HW1 9401   2.274   4.570   4.678
 2573SOL    HW2 9402   2.175   4.449   4.725
 2574SOL     OW 9403   2.201   4.233   4.730
 2574SOL    HW1 9404   2.149   4.150   4.713
 2574SOL    HW2 9405   2.278   4.238   4.666
 2575SOL     OW 9406   3.022   3.931   5.201
 2575SOL    HW1 9407   3.022   3.995   5.278
 2575SOL    HW2 9408   3.050   3.979   5.118
 2576SOL     OW 9409   1.870   5.050   3.924
 2576SOL    HW1 9410   1.777   5.071   3.893
 2576SOL    HW2 9411   1.880   4.951   3.937
 2577SOL     OW 9412   2.864   4.520   4.962
 2577SOL    HW1 9413   2.905   4.488   5.048
 2577SOL    HW2 9414   2.768   4.493   4.959
 2578SOL     OW 9415   1.902   4.268   4.838
 2578SOL    HW1 9416   1.987   4.235   4.797
 2578SOL    HW2 9417   1.915   4.283   4.936
 2579SOL     OW 9418   3.519   4.328   4.930
 2579SOL    HW1 9419   3.481   4.259   4.992
 2579SOL    HW2 9420   3.601   4.292   4.886
 2580SOL     OW 9421   3.209   4.783   4.958
 2580SOL    HW1 9422   3.233   4.720   4.884
 2580SOL    HW2 9423   3.119   4.823   4.940
 2581SOL     OW 9424   3.164   4.579   4.033
 2581SOL    HW1 9425   3.078   4.548   4.075
 2581SOL    HW2 9426   3.160   4.565   3.934
 2582SOL     OW 9427   1.945   4.982   4.746
 2582SOL    HW1 9428   1.940   4.981   4.846
 2582SOL    HW2 9429   1.862   4.941   4.708
 2583SOL     OW 9430   3.588   3.859   4.247
 2583SOL    HW1 9431   3.661   3.842   4.180
 2583SOL    HW2 9432   3.557   3.772   4.285
 2584SOL     OW 9433   3.142   4.651   4.396
 2584SOL    HW1 9434   3.202   4.570   4.398
 2584SOL    HW2 9435   3.182   4.720   4.336
 2585SOL     OW 9436   3.703   3.899   4.687
 2585SOL    HW1 9437   3.742   3.814   4.651
 2585SOL    HW2 9438   3.605   3.901   4.668
 2586SOL     OW 9439   2.125   4.050   4.444
 2586SOL    HW1 9440   2.046   4.101   4.410
 2586SOL    HW2 9441   2.116   4.035   4.542
 2587SOL     OW 9442   3.056   5.336   3.755
 2587SOL    HW1 9443   3.062   5.243   3.792
 2587SOL    HW2 9444   2.997   5.336   3.675
 2588SOL     OW 9445   2.901   4.822   4.420
 2588SOL    HW1 9446   2.831   4.775   4.474
 2588SOL    HW2 9447   2.960   4.754   4.377
 2589SOL     OW 9448   2.876   3.960   4.695
 2589SOL    HW1 9449   2.868   3.924   4.602
 2589SOL    HW2 9450   2.874   3.884   4.760
 2590SOL     OW 9451   3.571   4.109   5.105
 2590SOL    HW1 9452   3.644   4.178   5.109
 2590SOL    HW2 9453   3.599   4.034   5.046
 2591SOL     OW 9454   1.937   4.069   3.757
 2591SOL    HW1 9455   1.845   4.041   3.728
 2591SOL    HW2 9456   1.968   4.146   3.701
 2592SOL     OW 9457   3.312   4.944   5.357
 2592SOL    HW1 9458   3.303   4.934   5.456
 2592SOL    HW2 9459   3.408   4.937   5.331
 2593SOL     OW 9460   3.536   4.607   4.978
 2593SOL    HW1 9461   3.509   4.518   4.941
 2593SOL    HW2 9462   3.537   4.675   4.905
 2594SOL     OW 9463   3.087   4.049   4.173
 2594SOL    HW1 9464   3.152   3.975   4.162
 2594SOL    HW2 9465   3.107   4.099   4.257
 2595SOL     OW 9466   2.456   4.469   4.376
 2595SOL    HW1 9467   2.506   4.554   4.357
 2595SOL    HW2 9468   2.368   4.471   4.328
 2596SOL     OW 9469   3.592   4.658   5.241
 2596SOL    HW1 9470   3.630   4.749   5.256
 2596SOL    HW2 9471   3.584   4.641   5.142
 2597SOL     OW 9472   2.721   4.680   4.585
 2597SOL    HW1 9473   2.775   4.611   4.633
 2597SOL    HW2 9474   2.689   4.749   4.651
 2598SOL     OW 9475   2.945   4.708   3.811
 2598SOL    HW1 9476   2.922   4.761   3.729
 2598SOL    HW2 9477   3.026   4.652   3.792
 2599SOL     OW 9478   1.941   4.964   4.377
 2599SOL    HW1 9479   1.940   4.917   4.465
 2599SOL    HW2 9480   2.023   4.936   4.326
 2600SOL     OW 9481   3.686   3.916   4.951
 2600SOL    HW1 9482   3.682   3.826   4.995
 2600SOL    HW2 9483   3.689   3.905   4.852
 2601SOL     OW 9484   2.290   4.148   4.244
 2601SOL    HW1 9485   2.320   4.076   4.182
 2601SOL    HW2 9486   2.251   4.108   4.327
 2602SOL     OW 9487   3.286   3.938   4.836
 2602SOL    HW1 9488   3.338   3.873   4.891
 2602SOL    HW2 9489   3.237   4.001   4.897
 2603SOL     OW 9490   2.863   3.758   4.878
 2603SOL    HW1 9491   2.800   3.686   4.847
 2603SOL    HW2 9492   2.956   3.722   4.878
 2604SOL     OW 9493   2.632   5.054   4.025
 2604SOL    HW1 9494   2.586   4.967   4.042
 2604SOL    HW2 9495   2.723   5.051   4.066
 2605SOL     OW 9496   3.214   3.776   3.892
 2605SOL    HW1 9497   3.249   3.735   3.808
 2605SOL    HW2 9498   3.124   3.738   3.912
 2606SOL     OW 9499   3.162   4.177   4.415
 2606SOL    HW1 9500   3.103   4.257   4.419
 2606SOL    HW2 9501   3.177   4.142   4.508
 2607SOL     OW 9502   3.455   3.945   4.606
 2607SOL    HW1 9503   3.371   3.944   4.660
 2607SOL    HW2 9504   3.457   4.028   4.550
 2608SOL     OW 9505   3.954   0.628   0.113
 2608SOL    HW1 9506   3.861   0.626   0.150
 2608SOL    HW2 9507   3.955   0.589   0.021
 2609SOL     OW 9508   3.949   0.275   0.996
 2609SOL    HW1 9509   3.984   0.258   1.088
 2609SOL    HW2 9510   3.861   0.230   0.984
 2610SOL     OW 9511   4.410   1.161   1.803
 2610SOL    HW1 9512   4.470   1.240   1.817
 2610SOL    HW2 9513   4.324   1.192   1.762
 2611SOL     OW 9514   4.059   1.435   1.061
 2611SOL    HW1 9515   3.981   1.404   1.008
 2611SOL    HW2 9516   4.117   1.493   1.004
 2612SOL     OW 9517   4.162   0.392   1.499
 2612SOL    HW1 9518   4.244   0.336   1.508
 2612SOL    HW2 9519   4.081   0.334   1.503
 2613SOL     OW 9520   3.955   1.713   0.483
 2613SOL    HW1 9521   3.989   1.790   0.537
 2613SOL    HW2 9522   3.999   1.713   0.393
 2614SOL     OW 9523   4.851   1.341   1.690
 2614SOL    HW1 9524   4.898   1.341   1.778
 2614SOL    HW2 9525   4.803   1.254   1.679
 2615SOL     OW 9526   3.954   1.434   0.538
 2615SOL    HW1 9527   3.928   1.530   0.538
 2615SOL    HW2 9528   3.883   1.380   0.583
 2616SOL     OW 9529   3.964   1.091   0.886
 2616SOL    HW1 9530   3.978   1.007   0.938
 2616SOL    HW2 9531   3.909   1.155   0.941
 2617SOL     OW 9532   4.344   1.786   1.439
 2617SOL    HW1 9533   4.252   1.769   1.474
 2617SOL    HW2 9534   4.372   1.878   1.465
 2618SOL     OW 9535   4.330   0.964   0.123
 2618SOL    HW1 9536   4.337   1.048   0.069
 2618SOL    HW2 9537   4.376   0.977   0.211
 2619SOL     OW 9538   3.751   1.596   0.117
 2619SOL    HW1 9539   3.732   1.500   0.138
 2619SOL    HW2 9540   3.718   1.654   0.192
 2620SOL     OW 9541   3.837   0.737   1.597
 2620SOL    HW1 9542   3.925   0.724   1.642
 2620SOL    HW2 9543   3.824   0.834   1.575
 2621SOL     OW 9544   4.337   1.365   0.726
 2621SOL    HW1 9545   4.288   1.278   0.735
 2621SOL    HW2 9546   4.314   1.408   0.639
 2622SOL     OW 9547   5.017   1.228   1.423
 2622SOL    HW1 9548   5.054   1.155   1.365
 2622SOL    HW2 9549   5.069   1.233   1.508
 2623SOL     OW 9550   4.533   0.004   0.502
 2623SOL    HW1 9551   4.573   0.095   0.493
 2623SOL    HW2 9552   4.433   0.012   0.508
 2624SOL     OW 9553   3.921   0.976   1.264
 2624SOL    HW1 9554   4.010   0.931   1.250
 2624SOL    HW2 9555   3.848   0.911   1.245
 2625SOL     OW 9556   4.911   1.792   1.616
 2625SOL    HW1 9557   4.935   1.852   1.540
 2625SOL    HW2 9558   4.918   1.697   1.586
 2626SOL     OW 9559   4.041   0.251   1.801
 2626SOL    HW1 9560   4.112   0.322   1.807
 2626SOL    HW2 9561   3.953   0.290   1.829
 2627SOL     OW 9562   4.322   0.729   0.270
 2627SOL    HW1 9563   4.346   0.798   0.202
 2627SOL    HW2 9564   4.244   0.762   0.324
 2628SOL     OW 9565   5.005   0.345   0.944
 2628SOL    HW1 9566   4.919   0.295   0.931
 2628SOL    HW2 9567   5.067   0.291   1.000
 2629SOL     OW 9568   4.697   0.890   1.572
 2629SOL    HW1 9569   4.743   0.806   1.543
 2629SOL    HW2 9570   4.641   0.924   1.497
 2630SOL     OW 9571   4.715   0.410   1.242
 2630SOL    HW1 9572   4.638   0.444   1.296
 2630SOL    HW2 9573   4.681   0.359   1.163
 2631SOL     OW 9574   3.800   0.811   0.789
 2631SOL    HW1 9575   3.899   0.799   0.798
 2631SOL    HW2 9576   3.776   0.906   0.810
 2632SOL     OW 9577   3.854   1.821   1.571
 2632SOL    HW1 9578   3.844   1.806   1.670
 2632SOL    HW2 9579   3.768   1.857   1.535
 2633SOL     OW 9580   4.589   0.348   0.195
 2633SOL    HW1 9581   4.648   0.411   0.146
 2633SOL    HW2 9582   4.608   0.254   0.166
 2634SOL     OW 9583   4.274   0.196   0.885
 2634SOL    HW1 9584   4.269   0.191   0.985
 2634SOL    HW2 9585   4.276   0.292   0.856
 2635SOL     OW 9586   4.732   1.456   0.477
 2635SOL    HW1 9587   4.686   1.528   0.425
 2635SOL    HW2 9588   4.728   1.476   0.575
 2636SOL     OW 9589   4.075   1.801   0.853
 2636SOL    HW1 9590   4.125   1.715   0.859
 2636SOL    HW2 9591   4.140   1.878   0.850
 2637SOL     OW 9592   4.045   0.943   0.242
 2637SOL    HW1 9593   4.127   0.982   0.200
 2637SOL    HW2 9594   4.018   0.861   0.193
 2638SOL     OW 9595   4.185   1.266   1.727
 2638SOL    HW1 9596   4.135   1.267   1.641
 2638SOL    HW2 9597   4.122   1.248   1.803
 2639SOL     OW 9598   4.835   1.776   0.237
 2639SOL    HW1 9599   4.775   1.714   0.287
 2639SOL    HW2 9600   4.866   1.732   0.152
 2640SOL     OW 9601   3.926   0.285   1.498
 2640SOL    HW1 9602   3.846   0.345   1.485
 2640SOL    HW2 9603   3.916   0.236   1.584
 2641SOL     OW 9604   5.356   1.377   0.081
 2641SOL    HW1 9605   5.324   1.471   0.071
 2641SOL    HW2 9606   5.280   1.314   0.069
 2642SOL     OW 9607   3.973   1.785   1.241
 2642SOL    HW1 9608   4.030   1.720   1.291
 2642SOL    HW2 9609   3.957   1.752   1.148
 2643SOL     OW 9610   4.664   1.698   0.904
 2643SOL    HW1 9611   4.744   1.641   0.925
 2643SOL    HW2 9612   4.615   1.658   0.827
 2644SOL     OW 9613   4.106   0.700   0.480
 2644SOL    HW1 9614   4.151   0.610   0.477
 2644SOL    HW2 9615   4.012   0.689   0.513
 2645SOL     OW 9616   4.338   0.122   0.117
 2645SOL    HW1 9617   4.436   0.100   0.124
 2645SOL    HW2 9618   4.307   0.105   0.024
 2646SOL     OW 9619   4.505   0.264   1.749
 2646SOL    HW1 9620   4.572   0.203   1.792
 2646SOL    HW2 9621   4.432   0.283   1.814
 2647SOL     OW 9622   4.646   0.503   0.899
 2647SOL    HW1 9623   4.621   0.494   0.803
 2647SOL    HW2 9624   4.694   0.421   0.930
 2648SOL     OW 9625   4.263   0.064   0.512
 2648SOL    HW1 9626   4.182   0.065   0.570
 2648SOL    HW2 9627   4.266   0.147   0.457
 2649SOL     OW 9628   4.659   0.236   0.480
 2649SOL    HW1 9629   4.611   0.277   0.402
 2649SOL    HW2 9630   4.758   0.234   0.461
 2650SOL     OW 9631   4.800   0.683   1.464
 2650SOL    HW1 9632   4.720   0.622   1.467
 2650SOL    HW2 9633   4.881   0.630   1.440
 2651SOL     OW 9634   4.183   1.152   0.741
 2651SOL    HW1 9635   4.112   1.125   0.806
 2651SOL    HW2 9636   4.157   1.124   0.648
 2652SOL     OW 9637   4.995   1.797   0.591
 2652SOL    HW1 9638   5.039   1.861   0.527
 2652SOL    HW2 9639   4.945   1.849   0.661
 2653SOL     OW 9640   4.756   0.549   0.016
 2653SOL    HW1 9641   4.715   0.631  -0.023
 2653SOL    HW2 9642   4.820   0.575   0.089
 2654SOL     OW 9643   3.802   0.556   1.386
 2654SOL    HW1 9644   3.894   0.555   1.345
 2654SOL    HW2 9645   3.796   0.630   1.453
 2655SOL     OW 9646   4.285   0.222   1.147
 2655SOL    HW1 9647   4.323   0.138   1.184
 2655SOL    HW2 9648   4.197   0.241   1.191
 2656SOL     OW 9649   4.590   0.454   0.642
 2656SOL    HW1 9650   4.558   0.526   0.580
 2656SOL    HW2 9651   4.614   0.373   0.589
 2657SOL     OW 9652   4.741   0.039   0.753
 2657SOL    HW1 9653   4.669   0.044   0.684
 2657SOL    HW2 9654   4.717  -0.030   0.822
 2658SOL     OW 9655   5.388   1.280   0.657
 2658SOL    HW1 9656   5.487   1.288   0.671
 2658SOL    HW2 9657   5.343   1.364   0.688
 2659SOL     OW 9658   4.251   0.256   0.328
 2659SOL    HW1 9659   4.278   0.197   0.253
 2659SOL    HW2 9660   4.251   0.351   0.297
 2660SOL     OW 9661   4.835   1.195   1.100
 2660SOL    HW1 9662   4.795   1.239   1.181
 2660SOL    HW2 9663   4.794   1.232   1.017
 2661SOL     OW 9664   4.639   0.089   1.402
 2661SOL    HW1 9665   4.664   0.069   1.307
 2661SOL    HW2 9666   4.711   0.145   1.444
 2662SOL     OW 9667   4.704   1.116   1.719
 2662SOL    HW1 9668   4.605   1.122   1.729
 2662SOL    HW2 9669   4.727   1.036   1.663
 2663SOL     OW 9670   4.134   0.813   1.251
 2663SOL    HW1 9671   4.220   0.825   1.301
 2663SOL    HW2 9672   4.092   0.726   1.278
 2664SOL     OW 9673   4.998   0.386   1.262
 2664SOL    HW1 9674   5.019   0.460   1.326
 2664SOL    HW2 9675   4.909   0.403   1.219
 2665SOL     OW 9676   3.788   1.564   1.331
 2665SOL    HW1 9677   3.742   1.646   1.297
 2665SOL    HW2 9678   3.886   1.583   1.340
 2666SOL     OW 9679   4.091   1.100   0.501
 2666SOL    HW1 9680   4.084   1.183   0.445
 2666SOL    HW2 9681   4.095   1.020   0.441
 2667SOL     OW 9682   4.290   0.537   0.865
 2667SOL    HW1 9683   4.302   0.603   0.791
 2667SOL    HW2 9684   4.336   0.571   0.948
 2668SOL     OW 9685   4.976   1.348   0.388
 2668SOL    HW1 9686   5.026   1.425   0.428
 2668SOL    HW2 9687   4.881   1.350   0.420
 2669SOL     OW 9688   4.078   1.510   1.329
 2669SOL    HW1 9689   4.057   1.466   1.242
 2669SOL    HW2 9690   4.175   1.536   1.332
 2670SOL     OW 9691   4.126   0.751   1.598
 2670SOL    HW1 9692   4.194   0.806   1.551
 2670SOL    HW2 9693   4.166   0.663   1.625
 2671SOL     OW 9694   4.737   0.105   1.770
 2671SOL    HW1 9695   4.743   0.190   1.718
 2671SOL    HW2 9696   4.769   0.029   1.713
 2672SOL     OW 9697   4.228   0.050   1.740
 2672SOL    HW1 9698   4.186  -0.007   1.670
 2672SOL    HW2 9699   4.162   0.119   1.772
 2673SOL     OW 9700   4.297   0.870   1.029
 2673SOL    HW1 9701   4.341   0.959   1.020
 2673SOL    HW2 9702   4.234   0.870   1.106
 2674SOL     OW 9703   5.084   0.862   1.045
 2674SOL    HW1 9704   5.009   0.862   0.979
 2674SOL    HW2 9705   5.121   0.770   1.054
 2675SOL     OW 9706   4.031   0.213   1.231
 2675SOL    HW1 9707   4.008   0.250   1.321
 2675SOL    HW2 9708   4.001   0.118   1.225
 2676SOL     OW 9709   3.761   1.310   1.282
 2676SOL    HW1 9710   3.814   1.261   1.350
 2676SOL    HW2 9711   3.783   1.408   1.287
 2677SOL     OW 9712   4.031   0.063   0.618
 2677SOL    HW1 9713   4.020   0.157   0.651
 2677SOL    HW2 9714   4.026   0.000   0.695
 2678SOL     OW 9715   5.346   0.367   0.374
 2678SOL    HW1 9716   5.348   0.291   0.438
 2678SOL    HW2 9717   5.298   0.444   0.414
 2679SOL     OW 9718   4.074   0.898   1.804
 2679SOL    HW1 9719   4.150   0.942   1.852
 2679SOL    HW2 9720   4.109   0.851   1.722
 2680SOL     OW 9721   5.027   0.838   0.042
 2680SOL    HW1 9722   5.061   0.745   0.057
 2680SOL    HW2 9723   5.045   0.865  -0.053
 2681SOL     OW 9724   4.043   0.810   0.949
 2681SOL    HW1 9725   4.136   0.846   0.954
 2681SOL    HW2 9726   4.037   0.725   1.001
 2682SOL     OW 9727   4.063   0.509   1.006
 2682SOL    HW1 9728   4.011   0.426   0.989
 2682SOL    HW2 9729   4.140   0.514   0.942
 2683SOL     OW 9730   4.862   0.380   1.678
 2683SOL    HW1 9731   4.817   0.443   1.742
 2683SOL    HW2 9732   4.955   0.411   1.661
 2684SOL     OW 9733   4.884   0.207   1.477
 2684SOL    HW1 9734   4.884   0.271   1.554
 2684SOL    HW2 9735   4.912   0.255   1.394
 2685SOL     OW 9736   3.812   1.801   0.927
 2685SOL    HW1 9737   3.770   1.715   0.900
 2685SOL    HW2 9738   3.906   1.804   0.893
 2686SOL     OW 9739   4.228   1.568   0.910
 2686SOL    HW1 9740   4.294   1.642   0.919
 2686SOL    HW2 9741   4.272   1.489   0.868
 2687SOL     OW 9742   4.726   0.796   1.238
 2687SOL    HW1 9743   4.767   0.764   1.324
 2687SOL    HW2 9744   4.630   0.769   1.235
 2688SOL     OW 9745   3.764   0.544   1.114
 2688SOL    HW1 9746   3.849   0.511   1.073
 2688SOL    HW2 9747   3.777   0.559   1.212
 2689SOL     OW 9748   3.913   0.520   1.722
 2689SOL    HW1 9749   3.972   0.480   1.652
 2689SOL    HW2 9750   3.855   0.591   1.681
 2690SOL     OW 9751   4.539   0.572   0.325
 2690SOL    HW1 9752   4.546   0.483   0.279
 2690SOL    HW2 9753   4.445   0.606   0.317
 2691SOL     OW 9754   3.976   1.564   1.744
 2691SOL    HW1 9755   3.946   1.621   1.820
 2691SOL    HW2 9756   3.969   1.467   1.770
 2692SOL     OW 9757   4.395   0.464   1.269
 2692SOL    HW1 9758   4.361   0.375   1.239
 2692SOL    HW2 9759   4.421   0.518   1.189
 2693SOL     OW 9760   4.197   0.500   0.191
 2693SOL    HW1 9761   4.258   0.580   0.195
 2693SOL    HW2 9762   4.102   0.531   0.198
 2694SOL     OW 9763   3.883   1.137   1.466
 2694SOL    HW1 9764   3.905   1.076   1.542
 2694SOL    HW2 9765   3.893   1.088   1.380
 2695SOL     OW 9766   5.071   1.059   1.234
 2695SOL    HW1 9767   5.095   0.996   1.160
 2695SOL    HW2 9768   4.981   1.099   1.216
 2696SOL     OW 9769   4.976   1.731   1.128
 2696SOL    HW1 9770   5.060   1.736   1.074
 2696SOL    HW2 9771   4.953   1.635   1.146
 2697SOL     OW 9772   3.807   1.258   1.022
 2697SOL    HW1 9773   3.802   1.257   1.122
 2697SOL    HW2 9774   3.724   1.217   0.984
 2698SOL     OW 9775   4.412   1.662   1.716
 2698SOL    HW1 9776   4.356   1.743   1.725
 2698SOL    HW2 9777   4.464   1.666   1.630
 2699SOL     OW 9778   4.627   0.086   0.133
 2699SOL    HW1 9779   4.678   0.087   0.047
 2699SOL    HW2 9780   4.683   0.044   0.204
 2700SOL     OW 9781   5.112   1.573   0.477
 2700SOL    HW1 9782   5.179   1.585   0.403
 2700SOL    HW2 9783   5.072   1.662   0.500
 2701SOL     OW 9784   3.854   1.794   1.851
 2701SOL    HW1 9785   3.813   1.720   1.904
 2701SOL    HW2 9786   3.918   1.845   1.909
 2702SOL     OW 9787   4.554   1.273   1.422
 2702SOL    HW1 9788   4.549   1.306   1.517
 2702SOL    HW2 9789   4.468   1.292   1.376
 2703SOL     OW 9790   3.987   0.326   0.720
 2703SOL    HW1 9791   3.908   0.377   0.686
 2703SOL    HW2 9792   3.978   0.311   0.818
 2704SOL     OW 9793   4.918   1.612   0.031
 2704SOL    HW1 9794   4.924   1.519   0.068
 2704SOL    HW2 9795   4.859   1.612  -0.049
 2705SOL     OW 9796   4.546   1.002   1.372
 2705SOL    HW1 9797   4.586   1.001   1.280
 2705SOL    HW2 9798   4.556   1.094   1.412
 2706SOL     OW 9799   4.096   1.288   1.490
 2706SOL    HW1 9800   4.083   1.381   1.456
 2706SOL    HW2 9801   4.012   1.236   1.477
 2707SOL     OW 9802   4.763   1.098   0.696
 2707SOL    HW1 9803   4.693   1.051   0.750
 2707SOL    HW2 9804   4.822   1.030   0.653
 2708SOL     OW 9805   4.738   0.236   0.971
 2708SOL    HW1 9806   4.730   0.200   0.878
 2708SOL    HW2 9807   4.736   0.160   1.036
 2709SOL     OW 9808   3.979   1.348   0.290
 2709SOL    HW1 9809   3.883   1.349   0.263
 2709SOL    HW2 9810   3.991   1.401   0.374
 2710SOL     OW 9811   3.829   1.013   1.726
 2710SOL    HW1 9812   3.752   0.980   1.780
 2710SOL    HW2 9813   3.914   0.983   1.768
 2711SOL     OW 9814   4.396   0.203   1.489
 2711SOL    HW1 9815   4.486   0.187   1.449
 2711SOL    HW2 9816   4.404   0.208   1.588
 2712SOL     OW 9817   5.164   0.856   1.398
 2712SOL    HW1 9818   5.107   0.908   1.335
 2712SOL    HW2 9819   5.260   0.868   1.374
 2713SOL     OW 9820   4.337   0.842   1.431
 2713SOL    HW1 9821   4.393   0.923   1.414
 2713SOL    HW2 9822   4.396   0.762   1.434
 2714SOL     OW 9823   4.114   1.741   1.560
 2714SOL    HW1 9824   4.023   1.782   1.558
 2714SOL    HW2 9825   4.107   1.647   1.592
 2715SOL     OW 9826   4.949   0.325   0.449
 2715SOL    HW1 9827   5.014   0.251   0.438
 2715SOL    HW2 9828   4.969   0.375   0.533
 2716SOL     OW 9829   4.583   1.374   0.016
 2716SOL    HW1 9830   4.537   1.389   0.104
 2716SOL    HW2 9831   4.627   1.459  -0.014
 2717SOL     OW 9832   3.945   1.314   1.844
 2717SOL    HW1 9833   3.880   1.241   1.823
 2717SOL    HW2 9834   3.949   1.328   1.942
 2718SOL     OW 9835   3.803   1.240   0.653
 2718SOL    HW1 9836   3.802   1.193   0.741
 2718SOL    HW2 9837   3.885   1.212   0.602
 2719SOL     OW 9838   4.152   0.424   0.520
 2719SOL    HW1 9839   4.182   0.352   0.458
 2719SOL    HW2 9840   4.113   0.384   0.603
 2720SOL     OW 9841   4.041   0.547   1.280
 2720SOL    HW1 9842   4.079   0.488   1.352
 2720SOL    HW2 9843   4.081   0.521   1.192
 2721SOL     OW 9844   4.536   1.586   0.687
 2721SOL    HW1 9845   4.568   1.596   0.593
 2721SOL    HW2 9846   4.457   1.524   0.689
 2722SOL     OW 9847   4.725   0.034   1.154
 2722SOL    HW1 9848   4.662  -0.038   1.123
 2722SOL    HW2 9849   4.818  -0.002   1.154
 2723SOL     OW 9850   4.494   1.330   0.301
 2723SOL    HW1 9851   4.448   1.243   0.318
 2723SOL    HW2 9852   4.585   1.327   0.342
 2724SOL     OW 9853   3.763   1.077   0.300
 2724SOL    HW1 9854   3.862   1.066   0.291
 2724SOL    HW2 9855   3.723   0.991   0.332
 2725SOL     OW 9856   4.599   1.646   0.337
 2725SOL    HW1 9857   4.522   1.611   0.283
 2725SOL    HW2 9858   4.567   1.717   0.399
 2726SOL     OW 9859   3.954   0.628   1.975
 2726SOL    HW1 9860   3.861   0.626   2.012
 2726SOL    HW2 9861   3.955   0.589   1.883
 2727SOL     OW 9862   3.949   0.275   2.858
 2727SOL    HW1 9863   3.984   0.258   2.950
 2727SOL    HW2 9864   3.861   0.230   2.846
 2728SOL     OW 9865   3.743   0.368   2.509
 2728SOL    HW1 9866   3.661   0.411   2.548
 2728SOL    HW2 9867   3.715   0.295   2.446
 2729SOL     OW 9868   4.293   1.275   3.027
 2729SOL    HW1 9869   4.200   1.268   2.990
 2729SOL    HW2 9870   4.304   1.364   3.071
 2730SOL     OW 9871   4.859   0.703   2.579
 2730SOL    HW1 9872   4.916   0.781   2.554
 2730SOL    HW2 9873   4.799   0.729   2.655
 2731SOL     OW 9874   4.492   1.144   2.885
 2731SOL    HW1 9875   4.414   1.161   2.945
 2731SOL    HW2 9876   4.526   1.231   2.849
 2732SOL     OW 9877   4.574   0.798   3.685
 2732SOL    HW1 9878   4.570   0.874   3.750
 2732SOL    HW2 9879   4.596   0.834   3.594
 2733SOL     OW 9880   4.409   1.012   2.527
 2733SOL    HW1 9881   4.478   0.996   2.597
 2733SOL    HW2 9882   4.336   1.069   2.565
 2734SOL     OW 9883   4.410   1.161   3.665
 2734SOL    HW1 9884   4.470   1.240   3.679
 2734SOL    HW2 9885   4.324   1.192   3.624
 2735SOL     OW 9886   4.059   1.435   2.923
 2735SOL    HW1 9887   3.981   1.404   2.870
 2735SOL    HW2 9888   4.117   1.493   2.866
 2736SOL     OW 9889   4.162   0.392   3.361
 2736SOL    HW1 9890   4.244   0.336   3.370
 2736SOL    HW2 9891   4.081   0.334   3.365
 2737SOL     OW 9892   3.955   1.713   2.345
 2737SOL    HW1 9893   3.989   1.790   2.399
 2737SOL    HW2 9894   3.999   1.713   2.255
 2738SOL     OW 9895   4.851   1.341   3.552
 2738SOL    HW1 9896   4.898   1.341   3.640
 2738SOL    HW2 9897   4.803   1.254   3.541
 2739SOL     OW 9898   3.954   1.434   2.400
 2739SOL    HW1 9899   3.928   1.530   2.400
 2739SOL    HW2 9900   3.883   1.380   2.445
 2740SOL     OW 9901   3.964   1.091   2.748
 2740SOL    HW1 9902   3.978   1.007   2.800
 2740SOL    HW2 9903   3.909   1.155   2.803
 2741SOL     OW 9904   4.330   0.964   1.985
 2741SOL    HW1 9905   4.337   1.048   1.931
 2741SOL    HW2 9906   4.376   0.977   2.073
 2742SOL     OW 9907   3.846   0.643   2.425
 2742SOL    HW1 9908   3.801   0.555   2.442
 2742SOL    HW2 9909   3.845   0.697   2.509
 2743SOL     OW 9910   3.751   1.596   1.979
 2743SOL    HW1 9911   3.732   1.500   2.000
 2743SOL    HW2 9912   3.718   1.654   2.054
 2744SOL     OW 9913   3.837   0.737   3.459
 2744SOL    HW1 9914   3.925   0.724   3.504
 2744SOL    HW2 9915   3.824   0.834   3.437
 2745SOL     OW 9916   4.337   1.365   2.588
 2745SOL    HW1 9917   4.288   1.278   2.597
 2745SOL    HW2 9918   4.314   1.408   2.501
 2746SOL     OW 9919   4.533   0.004   2.364
 2746SOL    HW1 9920   4.573   0.095   2.355
 2746SOL    HW2 9921   4.433   0.012   2.370
 2747SOL     OW 9922   3.921   0.976   3.126
 2747SOL    HW1 9923   4.010   0.931   3.112
 2747SOL    HW2 9924   3.848   0.911   3.107
 2748SOL     OW 9925   4.041   0.251   3.663
 2748SOL    HW1 9926   4.112   0.322   3.669
 2748SOL    HW2 9927   3.953   0.290   3.691
 2749SOL     OW 9928   5.005   0.345   2.806
 2749SOL    HW1 9929   4.919   0.295   2.793
 2749SOL    HW2 9930   5.067   0.291   2.862
 2750SOL     OW 9931   4.531   0.605   3.327
 2750SOL    HW1 9932   4.484   0.602   3.416
 2750SOL    HW2 9933   4.480   0.550   3.261
 2751SOL     OW 9934   4.697   0.890   3.434
 2751SOL    HW1 9935   4.743   0.806   3.405
 2751SOL    HW2 9936   4.641   0.924   3.359
 2752SOL     OW 9937   4.715   0.410   3.104
 2752SOL    HW1 9938   4.638   0.444   3.158
 2752SOL    HW2 9939   4.681   0.359   3.025
 2753SOL     OW 9940   3.800   0.811   2.651
 2753SOL    HW1 9941   3.899   0.799   2.660
 2753SOL    HW2 9942   3.776   0.906   2.672
 2754SOL     OW 9943   3.854   1.821   3.433
 2754SOL    HW1 9944   3.844   1.806   3.532
 2754SOL    HW2 9945   3.768   1.857   3.397
 2755SOL     OW 9946   4.274   0.196   2.747
 2755SOL    HW1 9947   4.269   0.191   2.847
 2755SOL    HW2 9948   4.276   0.292   2.718
 2756SOL     OW 9949   4.732   1.456   2.339
 2756SOL    HW1 9950   4.686   1.528   2.287
 2756SOL    HW2 9951   4.728   1.476   2.437
 2757SOL     OW 9952   4.075   1.801   2.715
 2757SOL    HW1 9953   4.125   1.715   2.721
 2757SOL    HW2 9954   4.140   1.878   2.712
 2758SOL     OW 9955   4.951   1.550   3.368
 2758SOL    HW1 9956   4.957   1.473   3.432
 2758SOL    HW2 9957   4.899   1.524   3.288
 2759SOL     OW 9958   4.045   0.943   2.104
 2759SOL    HW1 9959   4.127   0.982   2.062
 2759SOL    HW2 9960   4.018   0.861   2.055
 2760SOL     OW 9961   4.185   1.266   3.589
 2760SOL    HW1 9962   4.135   1.267   3.503
 2760SOL    HW2 9963   4.122   1.248   3.665
 2761SOL     OW 9964   4.835   1.776   2.099
 2761SOL    HW1 9965   4.775   1.714   2.149
 2761SOL    HW2 9966   4.866   1.732   2.014
 2762SOL     OW 9967   3.926   0.285   3.360
 2762SOL    HW1 9968   3.846   0.345   3.347
 2762SOL    HW2 9969   3.916   0.236   3.446
 2763SOL     OW 9970   4.188   1.743   2.185
 2763SOL    HW1 9971   4.221   1.782   2.271
 2763SOL    HW2 9972   4.264   1.736   2.120
 2764SOL     OW 9973   4.664   1.698   2.766
 2764SOL    HW1 9974   4.744   1.641   2.787
 2764SOL    HW2 9975   4.615   1.658   2.689
 2765SOL     OW 9976   4.106   0.700   2.342
 2765SOL    HW1 9977   4.151   0.610   2.339
 2765SOL    HW2 9978   4.012   0.689   2.375
 2766SOL     OW 9979   4.338   0.122   1.979
 2766SOL    HW1 9980   4.436   0.100   1.986
 2766SOL    HW2 9981   4.307   0.105   1.886
 2767SOL     OW 9982   4.612   1.514   3.057
 2767SOL    HW1 9983   4.589   1.489   2.963
 2767SOL    HW2 9984   4.673   1.445   3.096
 2768SOL     OW 9985   4.527   1.402   2.786
 2768SOL    HW1 9986   4.617   1.416   2.744
 2768SOL    HW2 9987   4.456   1.404   2.715
 2769SOL     OW 9988   4.646   0.503   2.761
 2769SOL    HW1 9989   4.621   0.494   2.665
 2769SOL    HW2 9990   4.694   0.421   2.792
 2770SOL     OW 9991   4.263   0.064   2.374
 2770SOL    HW1 9992   4.182   0.065   2.432
 2770SOL    HW2 9993   4.266   0.147   2.319
 2771SOL     OW 9994   4.021   0.035   2.033
 2771SOL    HW1 9995   4.070   0.119   2.012
 2771SOL    HW2 9996   4.083  -0.030   2.078
 2772SOL     OW 9997   4.800   0.683   3.326
 2772SOL    HW1 9998   4.720   0.622   3.329
 2772SOL    HW2 9999   4.881   0.630   3.302
 2773SOL     OW10000   4.951   1.570   2.655
 2773SOL    HW110001   4.972   1.644   2.590
 2773SOL    HW210002   5.019   1.570   2.728
 2774SOL     OW10003   4.183   1.152   2.603
 2774SOL    HW110004   4.112   1.125   2.668
 2774SOL    HW210005   4.157   1.124   2.510
 2775SOL     OW10006   4.995   1.797   2.453
 2775SOL    HW110007   5.039   1.861   2.389
 2775SOL    HW210008   4.945   1.849   2.523
 2776SOL     OW10009   3.802   0.556   3.248
 2776SOL    HW110010   3.894   0.555   3.207
 2776SOL    HW210011   3.796   0.630   3.315
 2777SOL     OW10012   4.285   0.222   3.009
 2777SOL    HW110013   4.323   0.138   3.046
 2777SOL    HW210014   4.197   0.241   3.053
 2778SOL     OW10015   4.741   0.039   2.615
 2778SOL    HW110016   4.669   0.044   2.546
 2778SOL    HW210017   4.717  -0.030   2.684
 2779SOL     OW10018   4.212   1.385   2.036
 2779SOL    HW110019   4.125   1.370   2.083
 2779SOL    HW210020   4.195   1.411   1.941
 2780SOL     OW10021   5.388   1.280   2.519
 2780SOL    HW110022   5.487   1.288   2.533
 2780SOL    HW210023   5.343   1.364   2.550
 2781SOL     OW10024   4.251   0.256   2.190
 2781SOL    HW110025   4.278   0.197   2.115
 2781SOL    HW210026   4.251   0.351   2.159
 2782SOL     OW10027   4.788   1.347   3.202
 2782SOL    HW110028   4.708   1.324   3.257
 2782SOL    HW210029   4.871   1.321   3.251
 2783SOL     OW10030   4.835   1.195   2.962
 2783SOL    HW110031   4.795   1.239   3.043
 2783SOL    HW210032   4.794   1.232   2.879
 2784SOL     OW10033   4.639   0.089   3.264
 2784SOL    HW110034   4.664   0.069   3.169
 2784SOL    HW210035   4.711   0.145   3.306
 2785SOL     OW10036   4.704   1.116   3.581
 2785SOL    HW110037   4.605   1.122   3.591
 2785SOL    HW210038   4.727   1.036   3.525
 2786SOL     OW10039   4.429   1.050   2.230
 2786SOL    HW110040   4.415   1.057   2.329
 2786SOL    HW210041   4.513   0.999   2.212
 2787SOL     OW10042   4.134   0.813   3.113
 2787SOL    HW110043   4.220   0.825   3.163
 2787SOL    HW210044   4.092   0.726   3.140
 2788SOL     OW10045   4.998   0.386   3.124
 2788SOL    HW110046   5.019   0.460   3.188
 2788SOL    HW210047   4.909   0.403   3.081
 2789SOL     OW10048   4.091   1.100   2.363
 2789SOL    HW110049   4.084   1.183   2.307
 2789SOL    HW210050   4.095   1.020   2.303
 2790SOL     OW10051   4.290   0.537   2.727
 2790SOL    HW110052   4.302   0.603   2.653
 2790SOL    HW210053   4.336   0.571   2.810
 2791SOL     OW10054   4.976   1.348   2.250
 2791SOL    HW110055   5.026   1.425   2.290
 2791SOL    HW210056   4.881   1.350   2.282
 2792SOL     OW10057   4.126   0.751   3.460
 2792SOL    HW110058   4.194   0.806   3.413
 2792SOL    HW210059   4.166   0.663   3.487
 2793SOL     OW10060   4.228   0.050   3.602
 2793SOL    HW110061   4.186  -0.007   3.532
 2793SOL    HW210062   4.162   0.119   3.634
 2794SOL     OW10063   4.297   0.870   2.891
 2794SOL    HW110064   4.341   0.959   2.882
 2794SOL    HW210065   4.234   0.870   2.968
 2795SOL     OW10066   5.084   0.862   2.907
 2795SOL    HW110067   5.009   0.862   2.841
 2795SOL    HW210068   5.121   0.770   2.916
 2796SOL     OW10069   4.933   0.525   2.137
 2796SOL    HW110070   4.946   0.441   2.191
 2796SOL    HW210071   4.904   0.599   2.197
 2797SOL     OW10072   4.031   0.213   3.093
 2797SOL    HW110073   4.008   0.250   3.183
 2797SOL    HW210074   4.001   0.118   3.087
 2798SOL     OW10075   4.456   0.634   2.926
 2798SOL    HW110076   4.515   0.608   2.850
 2798SOL    HW210077   4.428   0.730   2.915
 2799SOL     OW10078   4.031   0.063   2.480
 2799SOL    HW110079   4.020   0.157   2.513
 2799SOL    HW210080   4.026   0.000   2.557
 2800SOL     OW10081   5.346   0.367   2.236
 2800SOL    HW110082   5.348   0.291   2.300
 2800SOL    HW210083   5.298   0.444   2.276
 2801SOL     OW10084   4.747   0.766   2.828
 2801SOL    HW110085   4.762   0.787   2.924
 2801SOL    HW210086   4.717   0.671   2.819
 2802SOL     OW10087   4.704   1.573   3.562
 2802SOL    HW110088   4.684   1.617   3.474
 2802SOL    HW210089   4.743   1.482   3.546
 2803SOL     OW10090   4.074   0.898   3.666
 2803SOL    HW110091   4.150   0.942   3.714
 2803SOL    HW210092   4.109   0.851   3.584
 2804SOL     OW10093   5.027   0.838   1.904
 2804SOL    HW110094   5.061   0.745   1.919
 2804SOL    HW210095   5.045   0.865   1.809
 2805SOL     OW10096   4.792   1.333   2.711
 2805SOL    HW110097   4.799   1.249   2.656
 2805SOL    HW210098   4.854   1.402   2.675
 2806SOL     OW10099   4.043   0.810   2.811
 2806SOL    HW110100   4.136   0.846   2.816
 2806SOL    HW210101   4.037   0.725   2.863
 2807SOL     OW10102   4.063   0.509   2.868
 2807SOL    HW110103   4.011   0.426   2.851
 2807SOL    HW210104   4.140   0.514   2.804
 2808SOL     OW10105   3.732   1.326   2.062
 2808SOL    HW110106   3.639   1.347   2.031
 2808SOL    HW210107   3.742   1.227   2.075
 2809SOL     OW10108   4.228   1.568   2.772
 2809SOL    HW110109   4.294   1.642   2.781
 2809SOL    HW210110   4.272   1.489   2.730
 2810SOL     OW10111   4.726   0.796   3.100
 2810SOL    HW110112   4.767   0.764   3.186
 2810SOL    HW210113   4.630   0.769   3.097
 2811SOL     OW10114   3.764   0.544   2.976
 2811SOL    HW110115   3.849   0.511   2.935
 2811SOL    HW210116   3.777   0.559   3.074
 2812SOL     OW10117   3.913   0.520   3.584
 2812SOL    HW110118   3.972   0.480   3.514
 2812SOL    HW210119   3.855   0.591   3.543
 2813SOL     OW10120   3.976   1.564   3.606
 2813SOL    HW110121   3.946   1.621   3.682
 2813SOL    HW210122   3.969   1.467   3.632
 2814SOL     OW10123   4.395   0.464   3.131
 2814SOL    HW110124   4.361   0.375   3.101
 2814SOL    HW210125   4.421   0.518   3.051
 2815SOL     OW10126   3.883   1.137   3.328
 2815SOL    HW110127   3.905   1.076   3.404
 2815SOL    HW210128   3.893   1.088   3.242
 2816SOL     OW10129   5.071   1.059   3.096
 2816SOL    HW110130   5.095   0.996   3.022
 2816SOL    HW210131   4.981   1.099   3.078
 2817SOL     OW10132   4.976   1.731   2.990
 2817SOL    HW110133   5.060   1.736   2.936
 2817SOL    HW210134   4.953   1.635   3.008
 2818SOL     OW10135   5.112   1.573   2.339
 2818SOL    HW110136   5.179   1.585   2.265
 2818SOL    HW210137   5.072   1.662   2.362
 2819SOL     OW10138   3.854   1.794   3.713
 2819SOL    HW110139   3.813   1.720   3.766
 2819SOL    HW210140   3.918   1.845   3.771
 2820SOL     OW10141   5.004   0.927   2.534
 2820SOL    HW110142   5.064   0.846   2.536
 2820SOL    HW210143   5.044   0.996   2.474
 2821SOL     OW10144   4.554   1.273   3.284
 2821SOL    HW110145   4.549   1.306   3.379
 2821SOL    HW210146   4.468   1.292   3.238
 2822SOL     OW10147   4.396   1.616   2.016
 2822SOL    HW110148   4.405   1.626   1.917
 2822SOL    HW210149   4.356   1.527   2.037
 2823SOL     OW10150   3.987   0.326   2.582
 2823SOL    HW110151   3.908   0.377   2.548
 2823SOL    HW210152   3.978   0.311   2.680
 2824SOL     OW10153   4.918   1.612   1.893
 2824SOL    HW110154   4.924   1.519   1.930
 2824SOL    HW210155   4.859   1.612   1.813
 2825SOL     OW10156   4.546   1.002   3.234
 2825SOL    HW110157   4.586   1.001   3.142
 2825SOL    HW210158   4.556   1.094   3.274
 2826SOL     OW10159   4.096   1.288   3.352
 2826SOL    HW110160   4.083   1.381   3.318
 2826SOL    HW210161   4.012   1.236   3.339
 2827SOL     OW10162   4.763   1.098   2.558
 2827SOL    HW110163   4.693   1.051   2.612
 2827SOL    HW210164   4.822   1.030   2.515
 2828SOL     OW10165   4.738   0.236   2.833
 2828SOL    HW110166   4.730   0.200   2.740
 2828SOL    HW210167   4.736   0.160   2.898
 2829SOL     OW10168   4.314   1.487   2.353
 2829SOL    HW110169   4.356   1.429   2.283
 2829SOL    HW210170   4.270   1.566   2.309
 2830SOL     OW10171   3.979   1.348   2.152
 2830SOL    HW110172   3.883   1.349   2.125
 2830SOL    HW210173   3.991   1.401   2.236
 2831SOL     OW10174   3.829   1.013   3.588
 2831SOL    HW110175   3.752   0.980   3.642
 2831SOL    HW210176   3.914   0.983   3.630
 2832SOL     OW10177   4.396   0.203   3.351
 2832SOL    HW110178   4.486   0.187   3.311
 2832SOL    HW210179   4.404   0.208   3.450
 2833SOL     OW10180   3.799   0.345   1.895
 2833SOL    HW110181   3.707   0.317   1.866
 2833SOL    HW210182   3.830   0.422   1.839
 2834SOL     OW10183   5.164   0.856   3.260
 2834SOL    HW110184   5.107   0.908   3.197
 2834SOL    HW210185   5.260   0.868   3.236
 2835SOL     OW10186   3.796   0.166   2.180
 2835SOL    HW110187   3.779   0.249   2.126
 2835SOL    HW210188   3.886   0.129   2.158
 2836SOL     OW10189   4.337   0.842   3.293
 2836SOL    HW110190   4.393   0.923   3.276
 2836SOL    HW210191   4.396   0.762   3.296
 2837SOL     OW10192   4.114   1.741   3.422
 2837SOL    HW110193   4.023   1.782   3.420
 2837SOL    HW210194   4.107   1.647   3.454
 2838SOL     OW10195   4.949   0.325   2.311
 2838SOL    HW110196   5.014   0.251   2.300
 2838SOL    HW210197   4.969   0.375   2.395
 2839SOL     OW10198   4.318   0.745   2.514
 2839SOL    HW110199   4.368   0.830   2.495
 2839SOL    HW210200   4.230   0.747   2.466
 2840SOL     OW10201   4.583   0.956   2.723
 2840SOL    HW110202   4.637   0.887   2.771
 2840SOL    HW210203   4.551   1.025   2.789
 2841SOL     OW10204   4.807   0.984   1.949
 2841SOL    HW110205   4.784   1.037   1.867
 2841SOL    HW210206   4.888   0.928   1.930
 2842SOL     OW10207   3.945   1.314   3.706
 2842SOL    HW110208   3.880   1.241   3.685
 2842SOL    HW210209   3.949   1.328   3.804
 2843SOL     OW10210   3.803   1.240   2.515
 2843SOL    HW110211   3.802   1.193   2.603
 2843SOL    HW210212   3.885   1.212   2.464
 2844SOL     OW10213   4.396   1.391   3.486
 2844SOL    HW110214   4.318   1.341   3.524
 2844SOL    HW210215   4.393   1.486   3.517
 2845SOL     OW10216   4.152   0.424   2.382
 2845SOL    HW110217   4.182   0.352   2.320
 2845SOL    HW210218   4.113   0.384   2.465
 2846SOL     OW10219   4.041   0.547   3.142
 2846SOL    HW110220   4.079   0.488   3.214
 2846SOL    HW210221   4.081   0.521   3.054
 2847SOL     OW10222   4.536   1.586   2.549
 2847SOL    HW110223   4.568   1.596   2.455
 2847SOL    HW210224   4.457   1.524   2.551
 2848SOL     OW10225   4.725   0.034   3.016
 2848SOL    HW110226   4.662  -0.038   2.985
 2848SOL    HW210227   4.818  -0.002   3.016
 2849SOL     OW10228   4.494   1.330   2.163
 2849SOL    HW110229   4.448   1.243   2.180
 2849SOL    HW210230   4.585   1.327   2.204
 2850SOL     OW10231   3.763   1.077   2.162
 2850SOL    HW110232   3.862   1.066   2.153
 2850SOL    HW210233   3.723   0.991   2.194
 2851SOL     OW10234   4.599   1.646   2.199
 2851SOL    HW110235   4.522   1.611   2.145
 2851SOL    HW210236   4.567   1.717   2.261
 2852SOL     OW10237   3.949   0.275   4.720
 2852SOL    HW110238   3.984   0.258   4.812
 2852SOL    HW210239   3.861   0.230   4.708
 2853SOL     OW10240   4.293   1.275   4.889
 2853SOL    HW110241   4.200   1.268   4.852
 2853SOL    HW210242   4.304   1.364   4.933
 2854SOL     OW10243   4.859   0.703   4.441
 2854SOL    HW110244   4.916   0.781   4.416
 2854SOL    HW210245   4.799   0.729   4.517
 2855SOL     OW10246   4.492   1.144   4.747
 2855SOL    HW110247   4.414   1.161   4.807
 2855SOL    HW210248   4.526   1.231   4.711
 2856SOL     OW10249   4.409   1.012   4.389
 2856SOL    HW110250   4.478   0.996   4.459
 2856SOL    HW210251   4.336   1.069   4.427
 2857SOL     OW10252   4.059   1.435   4.785
 2857SOL    HW110253   3.981   1.404   4.732
 2857SOL    HW210254   4.117   1.493   4.728
 2858SOL     OW10255   3.955   1.713   4.207
 2858SOL    HW110256   3.989   1.790   4.261
 2858SOL    HW210257   3.999   1.713   4.117
 2859SOL     OW10258   3.954   1.434   4.262
 2859SOL    HW110259   3.928   1.530   4.262
 2859SOL    HW210260   3.883   1.380   4.307
 2860SOL     OW10261   3.964   1.091   4.610
 2860SOL    HW110262   3.978   1.007   4.662
 2860SOL    HW210263   3.909   1.155   4.665
 2861SOL     OW10264   4.330   0.964   3.847
 2861SOL    HW110265   4.337   1.048   3.793
 2861SOL    HW210266   4.376   0.977   3.935
 2862SOL     OW10267   3.751   1.596   3.841
 2862SOL    HW110268   3.732   1.500   3.862
 2862SOL    HW210269   3.718   1.654   3.916
 2863SOL     OW10270   4.337   1.365   4.450
 2863SOL    HW110271   4.288   1.278   4.459
 2863SOL    HW210272   4.314   1.408   4.363
 2864SOL     OW10273   4.533   0.004   4.226
 2864SOL    HW110274   4.573   0.095   4.217
 2864SOL    HW210275   4.433   0.012   4.232
 2865SOL     OW10276   3.921   0.976   4.988
 2865SOL    HW110277   4.010   0.931   4.974
 2865SOL    HW210278   3.848   0.911   4.969
 2866SOL     OW10279   5.005   0.345   4.668
 2866SOL    HW110280   4.919   0.295   4.655
 2866SOL    HW210281   5.067   0.291   4.724
 2867SOL     OW10282   4.715   0.410   4.966
 2867SOL    HW110283   4.638   0.444   5.020
 2867SOL    HW210284   4.681   0.359   4.887
 2868SOL     OW10285   4.765   0.701   4.153
 2868SOL    HW110286   4.791   0.697   4.249
 2868SOL    HW210287   4.680   0.650   4.139
 2869SOL     OW10288   3.800   0.811   4.513
 2869SOL    HW110289   3.899   0.799   4.522
 2869SOL    HW210290   3.776   0.906   4.534
 2870SOL     OW10291   4.274   0.196   4.609
 2870SOL    HW110292   4.269   0.191   4.709
 2870SOL    HW210293   4.276   0.292   4.580
 2871SOL     OW10294   4.732   1.456   4.201
 2871SOL    HW110295   4.686   1.528   4.149
 2871SOL    HW210296   4.728   1.476   4.299
 2872SOL     OW10297   4.075   1.801   4.577
 2872SOL    HW110298   4.125   1.715   4.583
 2872SOL    HW210299   4.140   1.878   4.574
 2873SOL     OW10300   4.045   0.943   3.966
 2873SOL    HW110301   4.127   0.982   3.924
 2873SOL    HW210302   4.018   0.861   3.917
 2874SOL     OW10303   4.835   1.776   3.961
 2874SOL    HW110304   4.775   1.714   4.011
 2874SOL    HW210305   4.866   1.732   3.876
 2875SOL     OW10306   4.188   1.743   4.047
 2875SOL    HW110307   4.221   1.782   4.133
 2875SOL    HW210308   4.264   1.736   3.982
 2876SOL     OW10309   3.973   1.785   4.965
 2876SOL    HW110310   4.030   1.720   5.015
 2876SOL    HW210311   3.957   1.752   4.872
 2877SOL     OW10312   4.664   1.698   4.628
 2877SOL    HW110313   4.744   1.641   4.649
 2877SOL    HW210314   4.615   1.658   4.551
 2878SOL     OW10315   4.338   0.122   3.841
 2878SOL    HW110316   4.436   0.100   3.848
 2878SOL    HW210317   4.307   0.105   3.748
 2879SOL     OW10318   4.527   1.402   4.648
 2879SOL    HW110319   4.617   1.416   4.606
 2879SOL    HW210320   4.456   1.404   4.577
 2880SOL     OW10321   4.646   0.503   4.623
 2880SOL    HW110322   4.621   0.494   4.527
 2880SOL    HW210323   4.694   0.421   4.654
 2881SOL     OW10324   4.263   0.064   4.236
 2881SOL    HW110325   4.182   0.065   4.294
 2881SOL    HW210326   4.266   0.147   4.181
 2882SOL     OW10327   4.951   1.570   4.517
 2882SOL    HW110328   4.972   1.644   4.452
 2882SOL    HW210329   5.019   1.570   4.590
 2883SOL     OW10330   4.183   1.152   4.465
 2883SOL    HW110331   4.112   1.125   4.530
 2883SOL    HW210332   4.157   1.124   4.372
 2884SOL     OW10333   4.995   1.797   4.315
 2884SOL    HW110334   5.039   1.861   4.251
 2884SOL    HW210335   4.945   1.849   4.385
 2885SOL     OW10336   4.285   0.222   4.871
 2885SOL    HW110337   4.323   0.138   4.908
 2885SOL    HW210338   4.197   0.241   4.915
 2886SOL     OW10339   4.741   0.039   4.477
 2886SOL    HW110340   4.669   0.044   4.408
 2886SOL    HW210341   4.717  -0.030   4.546
 2887SOL     OW10342   4.212   1.385   3.898
 2887SOL    HW110343   4.125   1.370   3.945
 2887SOL    HW210344   4.195   1.411   3.803
 2888SOL     OW10345   5.388   1.280   4.381
 2888SOL    HW110346   5.487   1.288   4.395
 2888SOL    HW210347   5.343   1.364   4.412
 2889SOL     OW10348   4.251   0.256   4.052
 2889SOL    HW110349   4.278   0.197   3.977
 2889SOL    HW210350   4.251   0.351   4.021
 2890SOL     OW10351   5.316   1.629   5.349
 2890SOL    HW110352   5.343   1.663   5.259
 2890SOL    HW210353   5.395   1.591   5.395
 2891SOL     OW10354   4.835   1.195   4.824
 2891SOL    HW110355   4.795   1.239   4.905
 2891SOL    HW210356   4.794   1.232   4.741
 2892SOL     OW10357   4.429   1.050   4.092
 2892SOL    HW110358   4.415   1.057   4.191
 2892SOL    HW210359   4.513   0.999   4.074
 2893SOL     OW10360   4.134   0.813   4.975
 2893SOL    HW110361   4.220   0.825   5.025
 2893SOL    HW210362   4.092   0.726   5.002
 2894SOL     OW10363   4.091   1.100   4.225
 2894SOL    HW110364   4.084   1.183   4.169
 2894SOL    HW210365   4.095   1.020   4.165
 2895SOL     OW10366   4.290   0.537   4.589
 2895SOL    HW110367   4.302   0.603   4.515
 2895SOL    HW210368   4.336   0.571   4.672
 2896SOL     OW10369   4.078   1.510   5.053
 2896SOL    HW110370   4.057   1.466   4.966
 2896SOL    HW210371   4.175   1.536   5.056
 2897SOL     OW10372   4.297   0.870   4.753
 2897SOL    HW110373   4.341   0.959   4.744
 2897SOL    HW210374   4.234   0.870   4.830
 2898SOL     OW10375   5.084   0.862   4.769
 2898SOL    HW110376   5.009   0.862   4.703
 2898SOL    HW210377   5.121   0.770   4.778
 2899SOL     OW10378   4.933   0.525   3.999
 2899SOL    HW110379   4.946   0.441   4.053
 2899SOL    HW210380   4.904   0.599   4.059
 2900SOL     OW10381   3.761   1.310   5.006
 2900SOL    HW110382   3.814   1.261   5.074
 2900SOL    HW210383   3.783   1.408   5.011
 2901SOL     OW10384   4.456   0.634   4.788
 2901SOL    HW110385   4.515   0.608   4.712
 2901SOL    HW210386   4.428   0.730   4.777
 2902SOL     OW10387   5.346   0.367   4.098
 2902SOL    HW110388   5.348   0.291   4.162
 2902SOL    HW210389   5.298   0.444   4.138
 2903SOL     OW10390   4.747   0.766   4.690
 2903SOL    HW110391   4.762   0.787   4.786
 2903SOL    HW210392   4.717   0.671   4.681
 2904SOL     OW10393   5.027   0.838   3.766
 2904SOL    HW110394   5.061   0.745   3.781
 2904SOL    HW210395   5.045   0.865   3.671
 2905SOL     OW10396   4.792   1.333   4.573
 2905SOL    HW110397   4.799   1.249   4.518
 2905SOL    HW210398   4.854   1.402   4.537
 2906SOL     OW10399   4.043   0.810   4.673
 2906SOL    HW110400   4.136   0.846   4.678
 2906SOL    HW210401   4.037   0.725   4.725
 2907SOL     OW10402   4.063   0.509   4.730
 2907SOL    HW110403   4.011   0.426   4.713
 2907SOL    HW210404   4.140   0.514   4.666
 2908SOL     OW10405   4.884   0.207   5.201
 2908SOL    HW110406   4.884   0.271   5.278
 2908SOL    HW210407   4.912   0.255   5.118
 2909SOL     OW10408   3.732   1.326   3.924
 2909SOL    HW110409   3.639   1.347   3.893
 2909SOL    HW210410   3.742   1.227   3.937
 2910SOL     OW10411   3.812   1.801   4.651
 2910SOL    HW110412   3.770   1.715   4.624
 2910SOL    HW210413   3.906   1.804   4.617
 2911SOL     OW10414   4.228   1.568   4.634
 2911SOL    HW110415   4.294   1.642   4.643
 2911SOL    HW210416   4.272   1.489   4.592
 2912SOL     OW10417   4.726   0.796   4.962
 2912SOL    HW110418   4.767   0.764   5.048
 2912SOL    HW210419   4.630   0.769   4.959
 2913SOL     OW10420   3.764   0.544   4.838
 2913SOL    HW110421   3.849   0.511   4.797
 2913SOL    HW210422   3.777   0.559   4.936
 2914SOL     OW10423   4.395   0.464   4.993
 2914SOL    HW110424   4.361   0.375   4.963
 2914SOL    HW210425   4.421   0.518   4.913
 2915SOL     OW10426   4.654   1.678   5.189
 2915SOL    HW110427   4.630   1.660   5.094
 2915SOL    HW210428   4.684   1.772   5.199
 2916SOL     OW10429   4.197   0.500   3.915
 2916SOL    HW110430   4.258   0.580   3.919
 2916SOL    HW210431   4.102   0.531   3.922
 2917SOL     OW10432   5.071   1.059   4.958
 2917SOL    HW110433   5.095   0.996   4.884
 2917SOL    HW210434   4.981   1.099   4.940
 2918SOL     OW10435   4.976   1.731   4.852
 2918SOL    HW110436   5.060   1.736   4.798
 2918SOL    HW210437   4.953   1.635   4.870
 2919SOL     OW10438   3.807   1.258   4.746
 2919SOL    HW110439   3.802   1.257   4.846
 2919SOL    HW210440   3.724   1.217   4.708
 2920SOL     OW10441   5.112   1.573   4.201
 2920SOL    HW110442   5.179   1.585   4.127
 2920SOL    HW210443   5.072   1.662   4.224
 2921SOL     OW10444   5.004   0.927   4.396
 2921SOL    HW110445   5.064   0.846   4.398
 2921SOL    HW210446   5.044   0.996   4.336
 2922SOL     OW10447   4.396   1.616   3.878
 2922SOL    HW110448   4.405   1.626   3.779
 2922SOL    HW210449   4.356   1.527   3.899
 2923SOL     OW10450   4.640   0.910   4.015
 2923SOL    HW110451   4.703   0.948   3.947
 2923SOL    HW210452   4.680   0.827   4.054
 2924SOL     OW10453   4.763   1.098   4.420
 2924SOL    HW110454   4.693   1.051   4.474
 2924SOL    HW210455   4.822   1.030   4.377
 2925SOL     OW10456   4.738   0.236   4.695
 2925SOL    HW110457   4.730   0.200   4.602
 2925SOL    HW210458   4.736   0.160   4.760
 2926SOL     OW10459   4.314   1.487   4.215
 2926SOL    HW110460   4.356   1.429   4.145
 2926SOL    HW210461   4.270   1.566   4.171
 2927SOL     OW10462   3.979   1.348   4.014
 2927SOL    HW110463   3.883   1.349   3.987
 2927SOL    HW210464   3.991   1.401   4.098
 2928SOL     OW10465   3.799   0.345   3.757
 2928SOL    HW110466   3.707   0.317   3.728
 2928SOL    HW210467   3.830   0.422   3.701
 2929SOL     OW10468   4.949   0.325   4.173
 2929SOL    HW110469   5.014   0.251   4.162
 2929SOL    HW210470   4.969   0.375   4.257
 2930SOL     OW10471   4.318   0.745   4.376
 2930SOL    HW110472   4.368   0.830   4.357
 2930SOL    HW210473   4.230   0.747   4.328
 2931SOL     OW10474   4.583   1.374   3.740
 2931SOL    HW110475   4.537   1.389   3.828
 2931SOL    HW210476   4.627   1.459   3.710
 2932SOL     OW10477   4.385   1.790   4.677
 2932SOL    HW110478   4.339   1.878   4.664
 2932SOL    HW210479   4.484   1.802   4.670
 2933SOL     OW10480   4.583   0.956   4.585
 2933SOL    HW110481   4.637   0.887   4.633
 2933SOL    HW210482   4.551   1.025   4.651
 2934SOL     OW10483   4.807   0.984   3.811
 2934SOL    HW110484   4.784   1.037   3.729
 2934SOL    HW210485   4.888   0.928   3.792
 2935SOL     OW10486   3.803   1.240   4.377
 2935SOL    HW110487   3.802   1.193   4.465
 2935SOL    HW210488   3.885   1.212   4.326
 2936SOL     OW10489   4.536   1.586   4.411
 2936SOL    HW110490   4.568   1.596   4.317
 2936SOL    HW210491   4.457   1.524   4.413
 2937SOL     OW10492   4.725   0.034   4.878
 2937SOL    HW110493   4.662  -0.038   4.847
 2937SOL    HW210494   4.818  -0.002   4.878
 2938SOL     OW10495   4.494   1.330   4.025
 2938SOL    HW110496   4.448   1.243   4.042
 2938SOL    HW210497   4.585   1.327   4.066
 2939SOL     OW10498   4.599   1.646   4.061
 2939SOL    HW110499   4.522   1.611   4.007
 2939SOL    HW210500   4.567   1.717   4.123
 2940SOL     OW10501   3.954   2.490   0.113
 2940SOL    HW110502   3.861   2.488   0.150
 2940SOL    HW210503   3.955   2.451   0.021
 2941SOL     OW10504   3.949   2.137   0.996
 2941SOL    HW110505   3.984   2.120   1.088
 2941SOL    HW210506   3.861   2.092   0.984
 2942SOL     OW10507   3.743   2.230   0.647
 2942SOL    HW110508   3.661   2.273   0.686
 2942SOL    HW210509   3.715   2.157   0.584
 2943SOL     OW10510   4.293   3.137   1.165
 2943SOL    HW110511   4.200   3.130   1.128
 2943SOL    HW210512   4.304   3.226   1.209
 2944SOL     OW10513   4.859   2.565   0.717
 2944SOL    HW110514   4.916   2.643   0.692
 2944SOL    HW210515   4.799   2.591   0.793
 2945SOL     OW10516   4.492   3.006   1.023
 2945SOL    HW110517   4.414   3.023   1.083
 2945SOL    HW210518   4.526   3.093   0.987
 2946SOL     OW10519   4.574   2.660   1.823
 2946SOL    HW110520   4.570   2.736   1.888
 2946SOL    HW210521   4.596   2.696   1.732
 2947SOL     OW10522   4.409   2.874   0.665
 2947SOL    HW110523   4.478   2.858   0.735
 2947SOL    HW210524   4.336   2.931   0.703
 2948SOL     OW10525   4.410   3.023   1.803
 2948SOL    HW110526   4.470   3.102   1.817
 2948SOL    HW210527   4.324   3.054   1.762
 2949SOL     OW10528   4.059   3.297   1.061
 2949SOL    HW110529   3.981   3.266   1.008
 2949SOL    HW210530   4.117   3.355   1.004
 2950SOL     OW10531   4.162   2.254   1.499
 2950SOL    HW110532   4.244   2.198   1.508
 2950SOL    HW210533   4.081   2.196   1.503
 2951SOL     OW10534   3.955   3.575   0.483
 2951SOL    HW110535   3.989   3.652   0.537
 2951SOL    HW210536   3.999   3.575   0.393
 2952SOL     OW10537   4.851   3.203   1.690
 2952SOL    HW110538   4.898   3.203   1.778
 2952SOL    HW210539   4.803   3.116   1.679
 2953SOL     OW10540   3.954   3.296   0.538
 2953SOL    HW110541   3.928   3.392   0.538
 2953SOL    HW210542   3.883   3.242   0.583
 2954SOL     OW10543   3.964   2.953   0.886
 2954SOL    HW110544   3.978   2.869   0.938
 2954SOL    HW210545   3.909   3.017   0.941
 2955SOL     OW10546   4.330   2.826   0.123
 2955SOL    HW110547   4.337   2.910   0.069
 2955SOL    HW210548   4.376   2.839   0.211
 2956SOL     OW10549   3.846   2.505   0.563
 2956SOL    HW110550   3.801   2.417   0.580
 2956SOL    HW210551   3.845   2.559   0.647
 2957SOL     OW10552   3.751   3.458   0.117
 2957SOL    HW110553   3.732   3.362   0.138
 2957SOL    HW210554   3.718   3.516   0.192
 2958SOL     OW10555   3.837   2.599   1.597
 2958SOL    HW110556   3.925   2.586   1.642
 2958SOL    HW210557   3.824   2.696   1.575
 2959SOL     OW10558   4.337   3.227   0.726
 2959SOL    HW110559   4.288   3.140   0.735
 2959SOL    HW210560   4.314   3.270   0.639
 2960SOL     OW10561   5.017   3.090   1.423
 2960SOL    HW110562   5.054   3.017   1.365
 2960SOL    HW210563   5.069   3.095   1.508
 2961SOL     OW10564   3.921   2.838   1.264
 2961SOL    HW110565   4.010   2.793   1.250
 2961SOL    HW210566   3.848   2.773   1.245
 2962SOL     OW10567   4.911   3.654   1.616
 2962SOL    HW110568   4.935   3.714   1.540
 2962SOL    HW210569   4.918   3.559   1.586
 2963SOL     OW10570   4.041   2.113   1.801
 2963SOL    HW110571   4.112   2.184   1.807
 2963SOL    HW210572   3.953   2.152   1.829
 2964SOL     OW10573   4.322   2.591   0.270
 2964SOL    HW110574   4.346   2.660   0.202
 2964SOL    HW210575   4.244   2.624   0.324
 2965SOL     OW10576   5.005   2.207   0.944
 2965SOL    HW110577   4.919   2.157   0.931
 2965SOL    HW210578   5.067   2.153   1.000
 2966SOL     OW10579   4.531   2.467   1.465
 2966SOL    HW110580   4.484   2.464   1.554
 2966SOL    HW210581   4.480   2.412   1.399
 2967SOL     OW10582   4.697   2.752   1.572
 2967SOL    HW110583   4.743   2.668   1.543
 2967SOL    HW210584   4.641   2.786   1.497
 2968SOL     OW10585   4.715   2.272   1.242
 2968SOL    HW110586   4.638   2.306   1.296
 2968SOL    HW210587   4.681   2.221   1.163
 2969SOL     OW10588   4.765   2.563   0.429
 2969SOL    HW110589   4.791   2.559   0.525
 2969SOL    HW210590   4.680   2.512   0.415
 2970SOL     OW10591   3.800   2.673   0.789
 2970SOL    HW110592   3.899   2.661   0.798
 2970SOL    HW210593   3.776   2.768   0.810
 2971SOL     OW10594   4.589   2.210   0.195
 2971SOL    HW110595   4.648   2.273   0.146
 2971SOL    HW210596   4.608   2.116   0.166
 2972SOL     OW10597   4.274   2.058   0.885
 2972SOL    HW110598   4.269   2.053   0.985
 2972SOL    HW210599   4.276   2.154   0.856
 2973SOL     OW10600   4.732   3.318   0.477
 2973SOL    HW110601   4.686   3.390   0.425
 2973SOL    HW210602   4.728   3.338   0.575
 2974SOL     OW10603   4.075   3.663   0.853
 2974SOL    HW110604   4.125   3.577   0.859
 2974SOL    HW210605   4.140   3.740   0.850
 2975SOL     OW10606   4.951   3.412   1.506
 2975SOL    HW110607   4.957   3.335   1.570
 2975SOL    HW210608   4.899   3.386   1.426
 2976SOL     OW10609   4.185   3.128   1.727
 2976SOL    HW110610   4.135   3.129   1.641
 2976SOL    HW210611   4.122   3.110   1.803
 2977SOL     OW10612   4.835   3.638   0.237
 2977SOL    HW110613   4.775   3.576   0.287
 2977SOL    HW210614   4.866   3.594   0.152
 2978SOL     OW10615   3.926   2.147   1.498
 2978SOL    HW110616   3.846   2.207   1.485
 2978SOL    HW210617   3.916   2.098   1.584
 2979SOL     OW10618   4.188   3.605   0.323
 2979SOL    HW110619   4.221   3.644   0.409
 2979SOL    HW210620   4.264   3.598   0.258
 2980SOL     OW10621   3.973   3.647   1.241
 2980SOL    HW110622   4.030   3.582   1.291
 2980SOL    HW210623   3.957   3.614   1.148
 2981SOL     OW10624   4.664   3.560   0.904
 2981SOL    HW110625   4.744   3.503   0.925
 2981SOL    HW210626   4.615   3.520   0.827
 2982SOL     OW10627   4.106   2.562   0.480
 2982SOL    HW110628   4.151   2.472   0.477
 2982SOL    HW210629   4.012   2.551   0.513
 2983SOL     OW10630   4.505   2.126   1.749
 2983SOL    HW110631   4.572   2.065   1.792
 2983SOL    HW210632   4.432   2.145   1.814
 2984SOL     OW10633   4.527   3.264   0.924
 2984SOL    HW110634   4.617   3.278   0.882
 2984SOL    HW210635   4.456   3.266   0.853
 2985SOL     OW10636   4.646   2.365   0.899
 2985SOL    HW110637   4.621   2.356   0.803
 2985SOL    HW210638   4.694   2.283   0.930
 2986SOL     OW10639   4.021   1.897   0.171
 2986SOL    HW110640   4.070   1.981   0.150
 2986SOL    HW210641   4.083   1.832   0.216
 2987SOL     OW10642   4.800   2.545   1.464
 2987SOL    HW110643   4.720   2.484   1.467
 2987SOL    HW210644   4.881   2.492   1.440
 2988SOL     OW10645   4.951   3.432   0.793
 2988SOL    HW110646   4.972   3.506   0.728
 2988SOL    HW210647   5.019   3.432   0.866
 2989SOL     OW10648   4.183   3.014   0.741
 2989SOL    HW110649   4.112   2.987   0.806
 2989SOL    HW210650   4.157   2.986   0.648
 2990SOL     OW10651   4.756   2.411   0.016
 2990SOL    HW110652   4.715   2.493  -0.023
 2990SOL    HW210653   4.820   2.437   0.089
 2991SOL     OW10654   3.802   2.418   1.386
 2991SOL    HW110655   3.894   2.417   1.345
 2991SOL    HW210656   3.796   2.492   1.453
 2992SOL     OW10657   4.285   2.084   1.147
 2992SOL    HW110658   4.323   2.000   1.184
 2992SOL    HW210659   4.197   2.103   1.191
 2993SOL     OW10660   4.741   1.901   0.753
 2993SOL    HW110661   4.669   1.906   0.684
 2993SOL    HW210662   4.717   1.832   0.822
 2994SOL     OW10663   4.212   3.247   0.174
 2994SOL    HW110664   4.125   3.232   0.221
 2994SOL    HW210665   4.195   3.273   0.079
 2995SOL     OW10666   5.388   3.142   0.657
 2995SOL    HW110667   5.487   3.150   0.671
 2995SOL    HW210668   5.343   3.226   0.688
 2996SOL     OW10669   4.788   3.209   1.340
 2996SOL    HW110670   4.708   3.186   1.395
 2996SOL    HW210671   4.871   3.183   1.389
 2997SOL     OW10672   4.835   3.057   1.100
 2997SOL    HW110673   4.795   3.101   1.181
 2997SOL    HW210674   4.794   3.094   1.017
 2998SOL     OW10675   4.639   1.951   1.402
 2998SOL    HW110676   4.664   1.931   1.307
 2998SOL    HW210677   4.711   2.007   1.444
 2999SOL     OW10678   4.704   2.978   1.719
 2999SOL    HW110679   4.605   2.984   1.729
 2999SOL    HW210680   4.727   2.898   1.663
 3000SOL     OW10681   4.429   2.912   0.368
 3000SOL    HW110682   4.415   2.919   0.467
 3000SOL    HW210683   4.513   2.861   0.350
 3001SOL     OW10684   4.134   2.675   1.251
 3001SOL    HW110685   4.220   2.687   1.301
 3001SOL    HW210686   4.092   2.588   1.278
 3002SOL     OW10687   4.998   2.248   1.262
 3002SOL    HW110688   5.019   2.322   1.326
 3002SOL    HW210689   4.909   2.265   1.219
 3003SOL     OW10690   3.788   3.426   1.331
 3003SOL    HW110691   3.742   3.508   1.297
 3003SOL    HW210692   3.886   3.445   1.340
 3004SOL     OW10693   4.290   2.399   0.865
 3004SOL    HW110694   4.302   2.465   0.791
 3004SOL    HW210695   4.336   2.433   0.948
 3005SOL     OW10696   4.976   3.210   0.388
 3005SOL    HW110697   5.026   3.287   0.428
 3005SOL    HW210698   4.881   3.212   0.420
 3006SOL     OW10699   4.078   3.372   1.329
 3006SOL    HW110700   4.057   3.328   1.242
 3006SOL    HW210701   4.175   3.398   1.332
 3007SOL     OW10702   4.126   2.613   1.598
 3007SOL    HW110703   4.194   2.668   1.551
 3007SOL    HW210704   4.166   2.525   1.625
 3008SOL     OW10705   4.737   1.967   1.770
 3008SOL    HW110706   4.743   2.052   1.718
 3008SOL    HW210707   4.769   1.891   1.713
 3009SOL     OW10708   4.228   1.912   1.740
 3009SOL    HW110709   4.186   1.855   1.670
 3009SOL    HW210710   4.162   1.981   1.772
 3010SOL     OW10711   4.297   2.732   1.029
 3010SOL    HW110712   4.341   2.821   1.020
 3010SOL    HW210713   4.234   2.732   1.106
 3011SOL     OW10714   5.084   2.724   1.045
 3011SOL    HW110715   5.009   2.724   0.979
 3011SOL    HW210716   5.121   2.632   1.054
 3012SOL     OW10717   4.933   2.387   0.275
 3012SOL    HW110718   4.946   2.303   0.329
 3012SOL    HW210719   4.904   2.461   0.335
 3013SOL     OW10720   4.031   2.075   1.231
 3013SOL    HW110721   4.008   2.112   1.321
 3013SOL    HW210722   4.001   1.980   1.225
 3014SOL     OW10723   3.761   3.172   1.282
 3014SOL    HW110724   3.814   3.123   1.350
 3014SOL    HW210725   3.783   3.270   1.287
 3015SOL     OW10726   4.456   2.496   1.064
 3015SOL    HW110727   4.515   2.470   0.988
 3015SOL    HW210728   4.428   2.592   1.053
 3016SOL     OW10729   4.031   1.925   0.618
 3016SOL    HW110730   4.020   2.019   0.651
 3016SOL    HW210731   4.026   1.862   0.695
 3017SOL     OW10732   5.346   2.229   0.374
 3017SOL    HW110733   5.348   2.153   0.438
 3017SOL    HW210734   5.298   2.306   0.414
 3018SOL     OW10735   4.747   2.628   0.966
 3018SOL    HW110736   4.762   2.649   1.062
 3018SOL    HW210737   4.717   2.533   0.957
 3019SOL     OW10738   4.704   3.435   1.700
 3019SOL    HW110739   4.684   3.479   1.612
 3019SOL    HW210740   4.743   3.344   1.684
 3020SOL     OW10741   4.074   2.760   1.804
 3020SOL    HW110742   4.150   2.804   1.852
 3020SOL    HW210743   4.109   2.713   1.722
 3021SOL     OW10744   5.027   2.700   0.042
 3021SOL    HW110745   5.061   2.607   0.057
 3021SOL    HW210746   5.045   2.727  -0.053
 3022SOL     OW10747   4.792   3.195   0.849
 3022SOL    HW110748   4.799   3.111   0.794
 3022SOL    HW210749   4.854   3.264   0.813
 3023SOL     OW10750   4.043   2.672   0.949
 3023SOL    HW110751   4.136   2.708   0.954
 3023SOL    HW210752   4.037   2.587   1.001
 3024SOL     OW10753   4.063   2.371   1.006
 3024SOL    HW110754   4.011   2.288   0.989
 3024SOL    HW210755   4.140   2.376   0.942
 3025SOL     OW10756   4.862   2.242   1.678
 3025SOL    HW110757   4.817   2.305   1.742
 3025SOL    HW210758   4.955   2.273   1.661
 3026SOL     OW10759   4.884   2.069   1.477
 3026SOL    HW110760   4.884   2.133   1.554
 3026SOL    HW210761   4.912   2.117   1.394
 3027SOL     OW10762   3.812   3.663   0.927
 3027SOL    HW110763   3.770   3.577   0.900
 3027SOL    HW210764   3.906   3.666   0.893
 3028SOL     OW10765   4.228   3.430   0.910
 3028SOL    HW110766   4.294   3.504   0.919
 3028SOL    HW210767   4.272   3.351   0.868
 3029SOL     OW10768   4.726   2.658   1.238
 3029SOL    HW110769   4.767   2.626   1.324
 3029SOL    HW210770   4.630   2.631   1.235
 3030SOL     OW10771   3.764   2.406   1.114
 3030SOL    HW110772   3.849   2.373   1.073
 3030SOL    HW210773   3.777   2.421   1.212
 3031SOL     OW10774   3.913   2.382   1.722
 3031SOL    HW110775   3.972   2.342   1.652
 3031SOL    HW210776   3.855   2.453   1.681
 3032SOL     OW10777   3.976   3.426   1.744
 3032SOL    HW110778   3.946   3.483   1.820
 3032SOL    HW210779   3.969   3.329   1.770
 3033SOL     OW10780   4.395   2.326   1.269
 3033SOL    HW110781   4.361   2.237   1.239
 3033SOL    HW210782   4.421   2.380   1.189
 3034SOL     OW10783   4.197   2.362   0.191
 3034SOL    HW110784   4.258   2.442   0.195
 3034SOL    HW210785   4.102   2.393   0.198
 3035SOL     OW10786   3.883   2.999   1.466
 3035SOL    HW110787   3.905   2.938   1.542
 3035SOL    HW210788   3.893   2.950   1.380
 3036SOL     OW10789   5.071   2.921   1.234
 3036SOL    HW110790   5.095   2.858   1.160
 3036SOL    HW210791   4.981   2.961   1.216
 3037SOL     OW10792   4.976   3.593   1.128
 3037SOL    HW110793   5.060   3.598   1.074
 3037SOL    HW210794   4.953   3.497   1.146
 3038SOL     OW10795   3.807   3.120   1.022
 3038SOL    HW110796   3.802   3.119   1.122
 3038SOL    HW210797   3.724   3.079   0.984
 3039SOL     OW10798   4.412   3.524   1.716
 3039SOL    HW110799   4.356   3.605   1.725
 3039SOL    HW210800   4.464   3.528   1.630
 3040SOL     OW10801   4.627   1.948   0.133
 3040SOL    HW110802   4.678   1.949   0.047
 3040SOL    HW210803   4.683   1.906   0.204
 3041SOL     OW10804   5.004   2.789   0.672
 3041SOL    HW110805   5.064   2.708   0.674
 3041SOL    HW210806   5.044   2.858   0.612
 3042SOL     OW10807   3.987   2.188   0.720
 3042SOL    HW110808   3.908   2.239   0.686
 3042SOL    HW210809   3.978   2.173   0.818
 3043SOL     OW10810   4.918   3.474   0.031
 3043SOL    HW110811   4.924   3.381   0.068
 3043SOL    HW210812   4.859   3.474  -0.049
 3044SOL     OW10813   4.546   2.864   1.372
 3044SOL    HW110814   4.586   2.863   1.280
 3044SOL    HW210815   4.556   2.956   1.412
 3045SOL     OW10816   4.640   2.772   0.291
 3045SOL    HW110817   4.703   2.810   0.223
 3045SOL    HW210818   4.680   2.689   0.330
 3046SOL     OW10819   4.096   3.150   1.490
 3046SOL    HW110820   4.083   3.243   1.456
 3046SOL    HW210821   4.012   3.098   1.477
 3047SOL     OW10822   4.763   2.960   0.696
 3047SOL    HW110823   4.693   2.913   0.750
 3047SOL    HW210824   4.822   2.892   0.653
 3048SOL     OW10825   4.738   2.098   0.971
 3048SOL    HW110826   4.730   2.062   0.878
 3048SOL    HW210827   4.736   2.022   1.036
 3049SOL     OW10828   3.979   3.210   0.290
 3049SOL    HW110829   3.883   3.211   0.263
 3049SOL    HW210830   3.991   3.263   0.374
 3050SOL     OW10831   3.829   2.875   1.726
 3050SOL    HW110832   3.752   2.842   1.780
 3050SOL    HW210833   3.914   2.845   1.768
 3051SOL     OW10834   4.396   2.065   1.489
 3051SOL    HW110835   4.486   2.049   1.449
 3051SOL    HW210836   4.404   2.070   1.588
 3052SOL     OW10837   3.796   2.028   0.318
 3052SOL    HW110838   3.779   2.111   0.264
 3052SOL    HW210839   3.886   1.991   0.296
 3053SOL     OW10840   4.337   2.704   1.431
 3053SOL    HW110841   4.393   2.785   1.414
 3053SOL    HW210842   4.396   2.624   1.434
 3054SOL     OW10843   4.440   2.427   1.708
 3054SOL    HW110844   4.459   2.492   1.782
 3054SOL    HW210845   4.500   2.347   1.717
 3055SOL     OW10846   4.949   2.187   0.449
 3055SOL    HW110847   5.014   2.113   0.438
 3055SOL    HW210848   4.969   2.237   0.533
 3056SOL     OW10849   4.318   2.607   0.652
 3056SOL    HW110850   4.368   2.692   0.633
 3056SOL    HW210851   4.230   2.609   0.604
 3057SOL     OW10852   4.385   3.652   0.953
 3057SOL    HW110853   4.339   3.740   0.940
 3057SOL    HW210854   4.484   3.664   0.946
 3058SOL     OW10855   4.583   2.818   0.861
 3058SOL    HW110856   4.637   2.749   0.909
 3058SOL    HW210857   4.551   2.887   0.927
 3059SOL     OW10858   4.807   2.846   0.087
 3059SOL    HW110859   4.784   2.899   0.005
 3059SOL    HW210860   4.888   2.790   0.068
 3060SOL     OW10861   3.945   3.176   1.844
 3060SOL    HW110862   3.880   3.103   1.823
 3060SOL    HW210863   3.949   3.190   1.942
 3061SOL     OW10864   3.803   3.102   0.653
 3061SOL    HW110865   3.802   3.055   0.741
 3061SOL    HW210866   3.885   3.074   0.602
 3062SOL     OW10867   4.396   3.253   1.624
 3062SOL    HW110868   4.318   3.203   1.662
 3062SOL    HW210869   4.393   3.348   1.655
 3063SOL     OW10870   4.041   2.409   1.280
 3063SOL    HW110871   4.079   2.350   1.352
 3063SOL    HW210872   4.081   2.383   1.192
 3064SOL     OW10873   4.536   3.448   0.687
 3064SOL    HW110874   4.568   3.458   0.593
 3064SOL    HW210875   4.457   3.386   0.689
 3065SOL     OW10876   4.725   1.896   1.154
 3065SOL    HW110877   4.662   1.824   1.123
 3065SOL    HW210878   4.818   1.860   1.154
 3066SOL     OW10879   3.763   2.939   0.300
 3066SOL    HW110880   3.862   2.928   0.291
 3066SOL    HW210881   3.723   2.853   0.332
 3067SOL     OW10882   4.599   3.508   0.337
 3067SOL    HW110883   4.522   3.473   0.283
 3067SOL    HW210884   4.567   3.579   0.399
 3068SOL     OW10885   3.954   2.490   1.975
 3068SOL    HW110886   3.861   2.488   2.012
 3068SOL    HW210887   3.955   2.451   1.883
 3069SOL     OW10888   3.743   2.230   2.509
 3069SOL    HW110889   3.661   2.273   2.548
 3069SOL    HW210890   3.715   2.157   2.446
 3070SOL     OW10891   4.859   2.565   2.579
 3070SOL    HW110892   4.916   2.643   2.554
 3070SOL    HW210893   4.799   2.591   2.655
 3071SOL     OW10894   4.574   2.660   3.685
 3071SOL    HW110895   4.570   2.736   3.750
 3071SOL    HW210896   4.596   2.696   3.594
 3072SOL     OW10897   4.409   2.874   2.527
 3072SOL    HW110898   4.478   2.858   2.597
 3072SOL    HW210899   4.336   2.931   2.565
 3073SOL     OW10900   4.410   3.023   3.665
 3073SOL    HW110901   4.470   3.102   3.679
 3073SOL    HW210902   4.324   3.054   3.624
 3074SOL     OW10903   4.059   3.297   2.923
 3074SOL    HW110904   3.981   3.266   2.870
 3074SOL    HW210905   4.117   3.355   2.866
 3075SOL     OW10906   4.162   2.254   3.361
 3075SOL    HW110907   4.244   2.198   3.370
 3075SOL    HW210908   4.081   2.196   3.365
 3076SOL     OW10909   3.955   3.575   2.345
 3076SOL    HW110910   3.989   3.652   2.399
 3076SOL    HW210911   3.999   3.575   2.255
 3077SOL     OW10912   4.851   3.203   3.552
 3077SOL    HW110913   4.898   3.203   3.640
 3077SOL    HW210914   4.803   3.116   3.541
 3078SOL     OW10915   3.954   3.296   2.400
 3078SOL    HW110916   3.928   3.392   2.400
 3078SOL    HW210917   3.883   3.242   2.445
 3079SOL     OW10918   3.964   2.953   2.748
 3079SOL    HW110919   3.978   2.869   2.800
 3079SOL    HW210920   3.909   3.017   2.803
 3080SOL     OW10921   4.344   3.648   3.301
 3080SOL    HW110922   4.252   3.631   3.336
 3080SOL    HW210923   4.372   3.740   3.327
 3081SOL     OW10924   4.330   2.826   1.985
 3081SOL    HW110925   4.337   2.910   1.931
 3081SOL    HW210926   4.376   2.839   2.073
 3082SOL     OW10927   3.846   2.505   2.425
 3082SOL    HW110928   3.801   2.417   2.442
 3082SOL    HW210929   3.845   2.559   2.509
 3083SOL     OW10930   3.837   2.599   3.459
 3083SOL    HW110931   3.925   2.586   3.504
 3083SOL    HW210932   3.824   2.696   3.437
 3084SOL     OW10933   4.337   3.227   2.588
 3084SOL    HW110934   4.288   3.140   2.597
 3084SOL    HW210935   4.314   3.270   2.501
 3085SOL     OW10936   4.533   1.866   2.364
 3085SOL    HW110937   4.573   1.957   2.355
 3085SOL    HW210938   4.433   1.874   2.370
 3086SOL     OW10939   3.921   2.838   3.126
 3086SOL    HW110940   4.010   2.793   3.112
 3086SOL    HW210941   3.848   2.773   3.107
 3087SOL     OW10942   4.911   3.654   3.478
 3087SOL    HW110943   4.935   3.714   3.402
 3087SOL    HW210944   4.918   3.559   3.448
 3088SOL     OW10945   4.041   2.113   3.663
 3088SOL    HW110946   4.112   2.184   3.669
 3088SOL    HW210947   3.953   2.152   3.691
 3089SOL     OW10948   4.322   2.591   2.132
 3089SOL    HW110949   4.346   2.660   2.064
 3089SOL    HW210950   4.244   2.624   2.186
 3090SOL     OW10951   4.531   2.467   3.327
 3090SOL    HW110952   4.484   2.464   3.416
 3090SOL    HW210953   4.480   2.412   3.261
 3091SOL     OW10954   4.715   2.272   3.104
 3091SOL    HW110955   4.638   2.306   3.158
 3091SOL    HW210956   4.681   2.221   3.025
 3092SOL     OW10957   4.765   2.563   2.291
 3092SOL    HW110958   4.791   2.559   2.387
 3092SOL    HW210959   4.680   2.512   2.277
 3093SOL     OW10960   3.800   2.673   2.651
 3093SOL    HW110961   3.899   2.661   2.660
 3093SOL    HW210962   3.776   2.768   2.672
 3094SOL     OW10963   3.854   3.683   3.433
 3094SOL    HW110964   3.844   3.668   3.532
 3094SOL    HW210965   3.768   3.719   3.397
 3095SOL     OW10966   4.589   2.210   2.057
 3095SOL    HW110967   4.648   2.273   2.008
 3095SOL    HW210968   4.608   2.116   2.028
 3096SOL     OW10969   4.732   3.318   2.339
 3096SOL    HW110970   4.686   3.390   2.287
 3096SOL    HW210971   4.728   3.338   2.437
 3097SOL     OW10972   4.075   3.663   2.715
 3097SOL    HW110973   4.125   3.577   2.721
 3097SOL    HW210974   4.140   3.740   2.712
 3098SOL     OW10975   4.951   3.412   3.368
 3098SOL    HW110976   4.957   3.335   3.432
 3098SOL    HW210977   4.899   3.386   3.288
 3099SOL     OW10978   4.045   2.805   2.104
 3099SOL    HW110979   4.127   2.844   2.062
 3099SOL    HW210980   4.018   2.723   2.055
 3100SOL     OW10981   4.835   3.638   2.099
 3100SOL    HW110982   4.775   3.576   2.149
 3100SOL    HW210983   4.866   3.594   2.014
 3101SOL     OW10984   4.188   3.605   2.185
 3101SOL    HW110985   4.221   3.644   2.271
 3101SOL    HW210986   4.264   3.598   2.120
 3102SOL     OW10987   3.973   3.647   3.103
 3102SOL    HW110988   4.030   3.582   3.153
 3102SOL    HW210989   3.957   3.614   3.010
 3103SOL     OW10990   4.664   3.560   2.766
 3103SOL    HW110991   4.744   3.503   2.787
 3103SOL    HW210992   4.615   3.520   2.689
 3104SOL     OW10993   4.106   2.562   2.342
 3104SOL    HW110994   4.151   2.472   2.339
 3104SOL    HW210995   4.012   2.551   2.375
 3105SOL     OW10996   4.338   1.984   1.979
 3105SOL    HW110997   4.436   1.962   1.986
 3105SOL    HW210998   4.307   1.967   1.886
 3106SOL     OW10999   4.505   2.126   3.611
 3106SOL    HW111000   4.572   2.065   3.654
 3106SOL    HW211001   4.432   2.145   3.676
 3107SOL     OW11002   4.612   3.376   3.057
 3107SOL    HW111003   4.589   3.351   2.963
 3107SOL    HW211004   4.673   3.307   3.096
 3108SOL     OW11005   4.527   3.264   2.786
 3108SOL    HW111006   4.617   3.278   2.744
 3108SOL    HW211007   4.456   3.266   2.715
 3109SOL     OW11008   4.646   2.365   2.761
 3109SOL    HW111009   4.621   2.356   2.665
 3109SOL    HW211010   4.694   2.283   2.792
 3110SOL     OW11011   4.263   1.926   2.374
 3110SOL    HW111012   4.182   1.927   2.432
 3110SOL    HW211013   4.266   2.009   2.319
 3111SOL     OW11014   4.021   1.897   2.033
 3111SOL    HW111015   4.070   1.981   2.012
 3111SOL    HW211016   4.083   1.832   2.078
 3112SOL     OW11017   4.659   2.098   2.342
 3112SOL    HW111018   4.611   2.139   2.264
 3112SOL    HW211019   4.758   2.096   2.323
 3113SOL     OW11020   4.800   2.545   3.326
 3113SOL    HW111021   4.720   2.484   3.329
 3113SOL    HW211022   4.881   2.492   3.302
 3114SOL     OW11023   4.951   3.432   2.655
 3114SOL    HW111024   4.972   3.506   2.590
 3114SOL    HW211025   5.019   3.432   2.728
 3115SOL     OW11026   4.183   3.014   2.603
 3115SOL    HW111027   4.112   2.987   2.668
 3115SOL    HW211028   4.157   2.986   2.510
 3116SOL     OW11029   4.995   3.659   2.453
 3116SOL    HW111030   5.039   3.723   2.389
 3116SOL    HW211031   4.945   3.711   2.523
 3117SOL     OW11032   4.756   2.411   1.878
 3117SOL    HW111033   4.715   2.493   1.839
 3117SOL    HW211034   4.820   2.437   1.951
 3118SOL     OW11035   3.802   2.418   3.248
 3118SOL    HW111036   3.894   2.417   3.207
 3118SOL    HW211037   3.796   2.492   3.315
 3119SOL     OW11038   4.590   2.316   2.504
 3119SOL    HW111039   4.558   2.388   2.442
 3119SOL    HW211040   4.614   2.235   2.451
 3120SOL     OW11041   4.741   1.901   2.615
 3120SOL    HW111042   4.669   1.906   2.546
 3120SOL    HW211043   4.717   1.832   2.684
 3121SOL     OW11044   4.212   3.247   2.036
 3121SOL    HW111045   4.125   3.232   2.083
 3121SOL    HW211046   4.195   3.273   1.941
 3122SOL     OW11047   4.251   2.118   2.190
 3122SOL    HW111048   4.278   2.059   2.115
 3122SOL    HW211049   4.251   2.213   2.159
 3123SOL     OW11050   4.835   3.057   2.962
 3123SOL    HW111051   4.795   3.101   3.043
 3123SOL    HW211052   4.794   3.094   2.879
 3124SOL     OW11053   4.639   1.951   3.264
 3124SOL    HW111054   4.664   1.931   3.169
 3124SOL    HW211055   4.711   2.007   3.306
 3125SOL     OW11056   4.704   2.978   3.581
 3125SOL    HW111057   4.605   2.984   3.591
 3125SOL    HW211058   4.727   2.898   3.525
 3126SOL     OW11059   4.429   2.912   2.230
 3126SOL    HW111060   4.415   2.919   2.329
 3126SOL    HW211061   4.513   2.861   2.212
 3127SOL     OW11062   4.998   2.248   3.124
 3127SOL    HW111063   5.019   2.322   3.188
 3127SOL    HW211064   4.909   2.265   3.081
 3128SOL     OW11065   3.788   3.426   3.193
 3128SOL    HW111066   3.742   3.508   3.159
 3128SOL    HW211067   3.886   3.445   3.202
 3129SOL     OW11068   4.091   2.962   2.363
 3129SOL    HW111069   4.084   3.045   2.307
 3129SOL    HW211070   4.095   2.882   2.303
 3130SOL     OW11071   4.290   2.399   2.727
 3130SOL    HW111072   4.302   2.465   2.653
 3130SOL    HW211073   4.336   2.433   2.810
 3131SOL     OW11074   4.976   3.210   2.250
 3131SOL    HW111075   5.026   3.287   2.290
 3131SOL    HW211076   4.881   3.212   2.282
 3132SOL     OW11077   4.078   3.372   3.191
 3132SOL    HW111078   4.057   3.328   3.104
 3132SOL    HW211079   4.175   3.398   3.194
 3133SOL     OW11080   4.126   2.613   3.460
 3133SOL    HW111081   4.194   2.668   3.413
 3133SOL    HW211082   4.166   2.525   3.487
 3134SOL     OW11083   4.737   1.967   3.632
 3134SOL    HW111084   4.743   2.052   3.580
 3134SOL    HW211085   4.769   1.891   3.575
 3135SOL     OW11086   4.228   1.912   3.602
 3135SOL    HW111087   4.186   1.855   3.532
 3135SOL    HW211088   4.162   1.981   3.634
 3136SOL     OW11089   4.933   2.387   2.137
 3136SOL    HW111090   4.946   2.303   2.191
 3136SOL    HW211091   4.904   2.461   2.197
 3137SOL     OW11092   3.761   3.172   3.144
 3137SOL    HW111093   3.814   3.123   3.212
 3137SOL    HW211094   3.783   3.270   3.149
 3138SOL     OW11095   4.031   1.925   2.480
 3138SOL    HW111096   4.020   2.019   2.513
 3138SOL    HW211097   4.026   1.862   2.557
 3139SOL     OW11098   5.346   2.229   2.236
 3139SOL    HW111099   5.348   2.153   2.300
 3139SOL    HW211100   5.298   2.306   2.276
 3140SOL     OW11101   4.747   2.628   2.828
 3140SOL    HW111102   4.762   2.649   2.924
 3140SOL    HW211103   4.717   2.533   2.819
 3141SOL     OW11104   4.704   3.435   3.562
 3141SOL    HW111105   4.684   3.479   3.474
 3141SOL    HW211106   4.743   3.344   3.546
 3142SOL     OW11107   4.074   2.760   3.666
 3142SOL    HW111108   4.150   2.804   3.714
 3142SOL    HW211109   4.109   2.713   3.584
 3143SOL     OW11110   5.027   2.700   1.904
 3143SOL    HW111111   5.061   2.607   1.919
 3143SOL    HW211112   5.045   2.727   1.809
 3144SOL     OW11113   4.792   3.195   2.711
 3144SOL    HW111114   4.799   3.111   2.656
 3144SOL    HW211115   4.854   3.264   2.675
 3145SOL     OW11116   4.063   2.371   2.868
 3145SOL    HW111117   4.011   2.288   2.851
 3145SOL    HW211118   4.140   2.376   2.804
 3146SOL     OW11119   4.862   2.242   3.540
 3146SOL    HW111120   4.817   2.305   3.604
 3146SOL    HW211121   4.955   2.273   3.523
 3147SOL     OW11122   4.884   2.069   3.339
 3147SOL    HW111123   4.884   2.133   3.416
 3147SOL    HW211124   4.912   2.117   3.256
 3148SOL     OW11125   4.228   3.430   2.772
 3148SOL    HW111126   4.294   3.504   2.781
 3148SOL    HW211127   4.272   3.351   2.730
 3149SOL     OW11128   3.764   2.406   2.976
 3149SOL    HW111129   3.849   2.373   2.935
 3149SOL    HW211130   3.777   2.421   3.074
 3150SOL     OW11131   3.913   2.382   3.584
 3150SOL    HW111132   3.972   2.342   3.514
 3150SOL    HW211133   3.855   2.453   3.543
 3151SOL     OW11134   4.539   2.434   2.187
 3151SOL    HW111135   4.546   2.345   2.141
 3151SOL    HW211136   4.445   2.468   2.179
 3152SOL     OW11137   3.976   3.426   3.606
 3152SOL    HW111138   3.946   3.483   3.682
 3152SOL    HW211139   3.969   3.329   3.632
 3153SOL     OW11140   4.395   2.326   3.131
 3153SOL    HW111141   4.361   2.237   3.101
 3153SOL    HW211142   4.421   2.380   3.051
 3154SOL     OW11143   4.654   3.540   3.327
 3154SOL    HW111144   4.630   3.522   3.232
 3154SOL    HW211145   4.684   3.634   3.337
 3155SOL     OW11146   4.197   2.362   2.053
 3155SOL    HW111147   4.258   2.442   2.057
 3155SOL    HW211148   4.102   2.393   2.060
 3156SOL     OW11149   3.883   2.999   3.328
 3156SOL    HW111150   3.905   2.938   3.404
 3156SOL    HW211151   3.893   2.950   3.242
 3157SOL     OW11152   5.071   2.921   3.096
 3157SOL    HW111153   5.095   2.858   3.022
 3157SOL    HW211154   4.981   2.961   3.078
 3158SOL     OW11155   4.976   3.593   2.990
 3158SOL    HW111156   5.060   3.598   2.936
 3158SOL    HW211157   4.953   3.497   3.008
 3159SOL     OW11158   3.807   3.120   2.884
 3159SOL    HW111159   3.802   3.119   2.984
 3159SOL    HW211160   3.724   3.079   2.846
 3160SOL     OW11161   4.412   3.524   3.578
 3160SOL    HW111162   4.356   3.605   3.587
 3160SOL    HW211163   4.464   3.528   3.492
 3161SOL     OW11164   5.112   3.435   2.339
 3161SOL    HW111165   5.179   3.447   2.265
 3161SOL    HW211166   5.072   3.524   2.362
 3162SOL     OW11167   3.854   3.656   3.713
 3162SOL    HW111168   3.813   3.582   3.766
 3162SOL    HW211169   3.918   3.707   3.771
 3163SOL     OW11170   5.004   2.789   2.534
 3163SOL    HW111171   5.064   2.708   2.536
 3163SOL    HW211172   5.044   2.858   2.474
 3164SOL     OW11173   4.396   3.478   2.016
 3164SOL    HW111174   4.405   3.488   1.917
 3164SOL    HW211175   4.356   3.389   2.037
 3165SOL     OW11176   3.987   2.188   2.582
 3165SOL    HW111177   3.908   2.239   2.548
 3165SOL    HW211178   3.978   2.173   2.680
 3166SOL     OW11179   4.918   3.474   1.893
 3166SOL    HW111180   4.924   3.381   1.930
 3166SOL    HW211181   4.859   3.474   1.813
 3167SOL     OW11182   4.640   2.772   2.153
 3167SOL    HW111183   4.703   2.810   2.085
 3167SOL    HW211184   4.680   2.689   2.192
 3168SOL     OW11185   4.763   2.960   2.558
 3168SOL    HW111186   4.693   2.913   2.612
 3168SOL    HW211187   4.822   2.892   2.515
 3169SOL     OW11188   4.314   3.349   2.353
 3169SOL    HW111189   4.356   3.291   2.283
 3169SOL    HW211190   4.270   3.428   2.309
 3170SOL     OW11191   3.829   2.875   3.588
 3170SOL    HW111192   3.752   2.842   3.642
 3170SOL    HW211193   3.914   2.845   3.630
 3171SOL     OW11194   4.396   2.065   3.351
 3171SOL    HW111195   4.486   2.049   3.311
 3171SOL    HW211196   4.404   2.070   3.450
 3172SOL     OW11197   3.799   2.207   1.895
 3172SOL    HW111198   3.707   2.179   1.866
 3172SOL    HW211199   3.830   2.284   1.839
 3173SOL     OW11200   5.164   2.718   3.260
 3173SOL    HW111201   5.107   2.770   3.197
 3173SOL    HW211202   5.260   2.730   3.236
 3174SOL     OW11203   3.796   2.028   2.180
 3174SOL    HW111204   3.779   2.111   2.126
 3174SOL    HW211205   3.886   1.991   2.158
 3175SOL     OW11206   4.440   2.427   3.570
 3175SOL    HW111207   4.459   2.492   3.644
 3175SOL    HW211208   4.500   2.347   3.579
 3176SOL     OW11209   4.114   3.603   3.422
 3176SOL    HW111210   4.023   3.644   3.420
 3176SOL    HW211211   4.107   3.509   3.454
 3177SOL     OW11212   4.949   2.187   2.311
 3177SOL    HW111213   5.014   2.113   2.300
 3177SOL    HW211214   4.969   2.237   2.395
 3178SOL     OW11215   4.318   2.607   2.514
 3178SOL    HW111216   4.368   2.692   2.495
 3178SOL    HW211217   4.230   2.609   2.466
 3179SOL     OW11218   4.583   3.236   1.878
 3179SOL    HW111219   4.537   3.251   1.966
 3179SOL    HW211220   4.627   3.321   1.848
 3180SOL     OW11221   4.385   3.652   2.815
 3180SOL    HW111222   4.339   3.740   2.802
 3180SOL    HW211223   4.484   3.664   2.808
 3181SOL     OW11224   4.583   2.818   2.723
 3181SOL    HW111225   4.637   2.749   2.771
 3181SOL    HW211226   4.551   2.887   2.789
 3182SOL     OW11227   4.807   2.846   1.949
 3182SOL    HW111228   4.784   2.899   1.867
 3182SOL    HW211229   4.888   2.790   1.930
 3183SOL     OW11230   3.945   3.176   3.706
 3183SOL    HW111231   3.880   3.103   3.685
 3183SOL    HW211232   3.949   3.190   3.804
 3184SOL     OW11233   3.803   3.102   2.515
 3184SOL    HW111234   3.802   3.055   2.603
 3184SOL    HW211235   3.885   3.074   2.464
 3185SOL     OW11236   4.152   2.286   2.382
 3185SOL    HW111237   4.182   2.214   2.320
 3185SOL    HW211238   4.113   2.246   2.465
 3186SOL     OW11239   4.041   2.409   3.142
 3186SOL    HW111240   4.079   2.350   3.214
 3186SOL    HW211241   4.081   2.383   3.054
 3187SOL     OW11242   4.536   3.448   2.549
 3187SOL    HW111243   4.568   3.458   2.455
 3187SOL    HW211244   4.457   3.386   2.551
 3188SOL     OW11245   4.725   1.896   3.016
 3188SOL    HW111246   4.662   1.824   2.985
 3188SOL    HW211247   4.818   1.860   3.016
 3189SOL     OW11248   4.494   3.192   2.163
 3189SOL    HW111249   4.448   3.105   2.180
 3189SOL    HW211250   4.585   3.189   2.204
 3190SOL     OW11251   4.342   3.429   3.146
 3190SOL    HW111252   4.337   3.511   3.203
 3190SOL    HW211253   4.431   3.426   3.101
 3191SOL     OW11254   5.076   1.914   2.030
 3191SOL    HW111255   5.111   1.873   1.946
 3191SOL    HW211256   4.986   1.876   2.050
 3192SOL     OW11257   3.763   2.939   2.162
 3192SOL    HW111258   3.862   2.928   2.153
 3192SOL    HW211259   3.723   2.853   2.194
 3193SOL     OW11260   4.599   3.508   2.199
 3193SOL    HW111261   4.522   3.473   2.145
 3193SOL    HW211262   4.567   3.579   2.261
 3194SOL     OW11263   3.954   2.490   3.837
 3194SOL    HW111264   3.861   2.488   3.874
 3194SOL    HW211265   3.955   2.451   3.745
 3195SOL     OW11266   3.949   2.137   4.720
 3195SOL    HW111267   3.984   2.120   4.812
 3195SOL    HW211268   3.861   2.092   4.708
 3196SOL     OW11269   3.743   2.230   4.371
 3196SOL    HW111270   3.661   2.273   4.410
 3196SOL    HW211271   3.715   2.157   4.308
 3197SOL     OW11272   4.859   2.565   4.441
 3197SOL    HW111273   4.916   2.643   4.416
 3197SOL    HW211274   4.799   2.591   4.517
 3198SOL     OW11275   4.492   3.006   4.747
 3198SOL    HW111276   4.414   3.023   4.807
 3198SOL    HW211277   4.526   3.093   4.711
 3199SOL     OW11278   4.409   2.874   4.389
 3199SOL    HW111279   4.478   2.858   4.459
 3199SOL    HW211280   4.336   2.931   4.427
 3200SOL     OW11281   4.059   3.297   4.785
 3200SOL    HW111282   3.981   3.266   4.732
 3200SOL    HW211283   4.117   3.355   4.728
 3201SOL     OW11284   3.955   3.575   4.207
 3201SOL    HW111285   3.989   3.652   4.261
 3201SOL    HW211286   3.999   3.575   4.117
 3202SOL     OW11287   3.954   3.296   4.262
 3202SOL    HW111288   3.928   3.392   4.262
 3202SOL    HW211289   3.883   3.242   4.307
 3203SOL     OW11290   4.344   3.648   5.163
 3203SOL    HW111291   4.252   3.631   5.198
 3203SOL    HW211292   4.372   3.740   5.189
 3204SOL     OW11293   4.330   2.826   3.847
 3204SOL    HW111294   4.337   2.910   3.793
 3204SOL    HW211295   4.376   2.839   3.935
 3205SOL     OW11296   3.846   2.505   4.287
 3205SOL    HW111297   3.801   2.417   4.304
 3205SOL    HW211298   3.845   2.559   4.371
 3206SOL     OW11299   3.751   3.458   3.841
 3206SOL    HW111300   3.732   3.362   3.862
 3206SOL    HW211301   3.718   3.516   3.916
 3207SOL     OW11302   4.337   3.227   4.450
 3207SOL    HW111303   4.288   3.140   4.459
 3207SOL    HW211304   4.314   3.270   4.363
 3208SOL     OW11305   4.533   1.866   4.226
 3208SOL    HW111306   4.573   1.957   4.217
 3208SOL    HW211307   4.433   1.874   4.232
 3209SOL     OW11308   3.921   2.838   4.988
 3209SOL    HW111309   4.010   2.793   4.974
 3209SOL    HW211310   3.848   2.773   4.969
 3210SOL     OW11311   4.322   2.591   3.994
 3210SOL    HW111312   4.346   2.660   3.926
 3210SOL    HW211313   4.244   2.624   4.048
 3211SOL     OW11314   3.800   2.673   4.513
 3211SOL    HW111315   3.899   2.661   4.522
 3211SOL    HW211316   3.776   2.768   4.534
 3212SOL     OW11317   4.589   2.210   3.919
 3212SOL    HW111318   4.648   2.273   3.870
 3212SOL    HW211319   4.608   2.116   3.890
 3213SOL     OW11320   4.274   2.058   4.609
 3213SOL    HW111321   4.269   2.053   4.709
 3213SOL    HW211322   4.276   2.154   4.580
 3214SOL     OW11323   4.732   3.318   4.201
 3214SOL    HW111324   4.686   3.390   4.149
 3214SOL    HW211325   4.728   3.338   4.299
 3215SOL     OW11326   4.045   2.805   3.966
 3215SOL    HW111327   4.127   2.844   3.924
 3215SOL    HW211328   4.018   2.723   3.917
 3216SOL     OW11329   4.835   3.638   3.961
 3216SOL    HW111330   4.775   3.576   4.011
 3216SOL    HW211331   4.866   3.594   3.876
 3217SOL     OW11332   4.188   3.605   4.047
 3217SOL    HW111333   4.221   3.644   4.133
 3217SOL    HW211334   4.264   3.598   3.982
 3218SOL     OW11335   4.664   3.560   4.628
 3218SOL    HW111336   4.744   3.503   4.649
 3218SOL    HW211337   4.615   3.520   4.551
 3219SOL     OW11338   4.106   2.562   4.204
 3219SOL    HW111339   4.151   2.472   4.201
 3219SOL    HW211340   4.012   2.551   4.237
 3220SOL     OW11341   4.338   1.984   3.841
 3220SOL    HW111342   4.436   1.962   3.848
 3220SOL    HW211343   4.307   1.967   3.748
 3221SOL     OW11344   4.527   3.264   4.648
 3221SOL    HW111345   4.617   3.278   4.606
 3221SOL    HW211346   4.456   3.266   4.577
 3222SOL     OW11347   4.263   1.926   4.236
 3222SOL    HW111348   4.182   1.927   4.294
 3222SOL    HW211349   4.266   2.009   4.181
 3223SOL     OW11350   4.021   1.897   3.895
 3223SOL    HW111351   4.070   1.981   3.874
 3223SOL    HW211352   4.083   1.832   3.940
 3224SOL     OW11353   4.659   2.098   4.204
 3224SOL    HW111354   4.611   2.139   4.126
 3224SOL    HW211355   4.758   2.096   4.185
 3225SOL     OW11356   4.951   3.432   4.517
 3225SOL    HW111357   4.972   3.506   4.452
 3225SOL    HW211358   5.019   3.432   4.590
 3226SOL     OW11359   4.995   3.659   4.315
 3226SOL    HW111360   5.039   3.723   4.251
 3226SOL    HW211361   4.945   3.711   4.385
 3227SOL     OW11362   4.756   2.411   3.740
 3227SOL    HW111363   4.715   2.493   3.701
 3227SOL    HW211364   4.820   2.437   3.813
 3228SOL     OW11365   4.285   2.084   4.871
 3228SOL    HW111366   4.323   2.000   4.908
 3228SOL    HW211367   4.197   2.103   4.915
 3229SOL     OW11368   4.741   1.901   4.477
 3229SOL    HW111369   4.669   1.906   4.408
 3229SOL    HW211370   4.717   1.832   4.546
 3230SOL     OW11371   4.212   3.247   3.898
 3230SOL    HW111372   4.125   3.232   3.945
 3230SOL    HW211373   4.195   3.273   3.803
 3231SOL     OW11374   5.388   3.142   4.381
 3231SOL    HW111375   5.487   3.150   4.395
 3231SOL    HW211376   5.343   3.226   4.412
 3232SOL     OW11377   4.835   3.057   4.824
 3232SOL    HW111378   4.795   3.101   4.905
 3232SOL    HW211379   4.794   3.094   4.741
 3233SOL     OW11380   4.429   2.912   4.092
 3233SOL    HW111381   4.415   2.919   4.191
 3233SOL    HW211382   4.513   2.861   4.074
 3234SOL     OW11383   4.134   2.675   4.975
 3234SOL    HW111384   4.220   2.687   5.025
 3234SOL    HW211385   4.092   2.588   5.002
 3235SOL     OW11386   4.091   2.962   4.225
 3235SOL    HW111387   4.084   3.045   4.169
 3235SOL    HW211388   4.095   2.882   4.165
 3236SOL     OW11389   4.290   2.399   4.589
 3236SOL    HW111390   4.302   2.465   4.515
 3236SOL    HW211391   4.336   2.433   4.672
 3237SOL     OW11392   4.976   3.210   4.112
 3237SOL    HW111393   5.026   3.287   4.152
 3237SOL    HW211394   4.881   3.212   4.144
 3238SOL     OW11395   4.078   3.372   5.053
 3238SOL    HW111396   4.057   3.328   4.966
 3238SOL    HW211397   4.175   3.398   5.056
 3239SOL     OW11398   4.297   2.732   4.753
 3239SOL    HW111399   4.341   2.821   4.744
 3239SOL    HW211400   4.234   2.732   4.830
 3240SOL     OW11401   5.084   2.724   4.769
 3240SOL    HW111402   5.009   2.724   4.703
 3240SOL    HW211403   5.121   2.632   4.778
 3241SOL     OW11404   4.933   2.387   3.999
 3241SOL    HW111405   4.946   2.303   4.053
 3241SOL    HW211406   4.904   2.461   4.059
 3242SOL     OW11407   4.031   2.075   4.955
 3242SOL    HW111408   4.008   2.112   5.045
 3242SOL    HW211409   4.001   1.980   4.949
 3243SOL     OW11410   3.761   3.172   5.006
 3243SOL    HW111411   3.814   3.123   5.074
 3243SOL    HW211412   3.783   3.270   5.011
 3244SOL     OW11413   4.456   2.496   4.788
 3244SOL    HW111414   4.515   2.470   4.712
 3244SOL    HW211415   4.428   2.592   4.777
 3245SOL     OW11416   4.031   1.925   4.342
 3245SOL    HW111417   4.020   2.019   4.375
 3245SOL    HW211418   4.026   1.862   4.419
 3246SOL     OW11419   5.027   2.700   3.766
 3246SOL    HW111420   5.061   2.607   3.781
 3246SOL    HW211421   5.045   2.727   3.671
 3247SOL     OW11422   4.792   3.195   4.573
 3247SOL    HW111423   4.799   3.111   4.518
 3247SOL    HW211424   4.854   3.264   4.537
 3248SOL     OW11425   4.043   2.672   4.673
 3248SOL    HW111426   4.136   2.708   4.678
 3248SOL    HW211427   4.037   2.587   4.725
 3249SOL     OW11428   4.063   2.371   4.730
 3249SOL    HW111429   4.011   2.288   4.713
 3249SOL    HW211430   4.140   2.376   4.666
 3250SOL     OW11431   4.884   2.069   5.201
 3250SOL    HW111432   4.884   2.133   5.278
 3250SOL    HW211433   4.912   2.117   5.118
 3251SOL     OW11434   3.732   3.188   3.924
 3251SOL    HW111435   3.639   3.209   3.893
 3251SOL    HW211436   3.742   3.089   3.937
 3252SOL     OW11437   3.812   3.663   4.651
 3252SOL    HW111438   3.770   3.577   4.624
 3252SOL    HW211439   3.906   3.666   4.617
 3253SOL     OW11440   4.228   3.430   4.634
 3253SOL    HW111441   4.294   3.504   4.643
 3253SOL    HW211442   4.272   3.351   4.592
 3254SOL     OW11443   4.726   2.658   4.962
 3254SOL    HW111444   4.767   2.626   5.048
 3254SOL    HW211445   4.630   2.631   4.959
 3255SOL     OW11446   3.764   2.406   4.838
 3255SOL    HW111447   3.849   2.373   4.797
 3255SOL    HW211448   3.777   2.421   4.936
 3256SOL     OW11449   4.395   2.326   4.993
 3256SOL    HW111450   4.361   2.237   4.963
 3256SOL    HW211451   4.421   2.380   4.913
 3257SOL     OW11452   5.071   2.921   4.958
 3257SOL    HW111453   5.095   2.858   4.884
 3257SOL    HW211454   4.981   2.961   4.940
 3258SOL     OW11455   4.976   3.593   4.852
 3258SOL    HW111456   5.060   3.598   4.798
 3258SOL    HW211457   4.953   3.497   4.870
 3259SOL     OW11458   3.807   3.120   4.746
 3259SOL    HW111459   3.802   3.119   4.846
 3259SOL    HW211460   3.724   3.079   4.708
 3260SOL     OW11461   5.112   3.435   4.201
 3260SOL    HW111462   5.179   3.447   4.127
 3260SOL    HW211463   5.072   3.524   4.224
 3261SOL     OW11464   4.396   3.478   3.878
 3261SOL    HW111465   4.405   3.488   3.779
 3261SOL    HW211466   4.356   3.389   3.899
 3262SOL     OW11467   3.987   2.188   4.444
 3262SOL    HW111468   3.908   2.239   4.410
 3262SOL    HW211469   3.978   2.173   4.542
 3263SOL     OW11470   4.918   3.474   3.755
 3263SOL    HW111471   4.924   3.381   3.792
 3263SOL    HW211472   4.859   3.474   3.675
 3264SOL     OW11473   4.640   2.772   4.015
 3264SOL    HW111474   4.703   2.810   3.947
 3264SOL    HW211475   4.680   2.689   4.054
 3265SOL     OW11476   4.763   2.960   4.420
 3265SOL    HW111477   4.693   2.913   4.474
 3265SOL    HW211478   4.822   2.892   4.377
 3266SOL     OW11479   4.314   3.349   4.215
 3266SOL    HW111480   4.356   3.291   4.145
 3266SOL    HW211481   4.270   3.428   4.171
 3267SOL     OW11482   3.979   3.210   4.014
 3267SOL    HW111483   3.883   3.211   3.987
 3267SOL    HW211484   3.991   3.263   4.098
 3268SOL     OW11485   3.799   2.207   3.757
 3268SOL    HW111486   3.707   2.179   3.728
 3268SOL    HW211487   3.830   2.284   3.701
 3269SOL     OW11488   3.796   2.028   4.042
 3269SOL    HW111489   3.779   2.111   3.988
 3269SOL    HW211490   3.886   1.991   4.020
 3270SOL     OW11491   4.318   2.607   4.376
 3270SOL    HW111492   4.368   2.692   4.357
 3270SOL    HW211493   4.230   2.609   4.328
 3271SOL     OW11494   4.583   3.236   3.740
 3271SOL    HW111495   4.537   3.251   3.828
 3271SOL    HW211496   4.627   3.321   3.710
 3272SOL     OW11497   4.583   2.818   4.585
 3272SOL    HW111498   4.637   2.749   4.633
 3272SOL    HW211499   4.551   2.887   4.651
 3273SOL     OW11500   4.807   2.846   3.811
 3273SOL    HW111501   4.784   2.899   3.729
 3273SOL    HW211502   4.888   2.790   3.792
 3274SOL     OW11503   4.536   3.448   4.411
 3274SOL    HW111504   4.568   3.458   4.317
 3274SOL    HW211505   4.457   3.386   4.413
 3275SOL     OW11506   4.494   3.192   4.025
 3275SOL    HW111507   4.448   3.105   4.042
 3275SOL    HW211508   4.585   3.189   4.066
 3276SOL     OW11509   4.599   3.508   4.061
 3276SOL    HW111510   4.522   3.473   4.007
 3276SOL    HW211511   4.567   3.579   4.123
 3277SOL     OW11512   3.954   4.352   0.113
 3277SOL    HW111513   3.861   4.350   0.150
 3277SOL    HW211514   3.955   4.313   0.021
 3278SOL     OW11515   3.743   4.092   0.647
 3278SOL    HW111516   3.661   4.135   0.686
 3278SOL    HW211517   3.715   4.019   0.584
 3279SOL     OW11518   4.293   4.999   1.165
 3279SOL    HW111519   4.200   4.992   1.128
 3279SOL    HW211520   4.304   5.088   1.209
 3280SOL     OW11521   4.859   4.427   0.717
 3280SOL    HW111522   4.916   4.505   0.692
 3280SOL    HW211523   4.799   4.453   0.793
 3281SOL     OW11524   4.492   4.868   1.023
 3281SOL    HW111525   4.414   4.885   1.083
 3281SOL    HW211526   4.526   4.955   0.987
 3282SOL     OW11527   4.574   4.522   1.823
 3282SOL    HW111528   4.570   4.598   1.888
 3282SOL    HW211529   4.596   4.558   1.732
 3283SOL     OW11530   4.409   4.736   0.665
 3283SOL    HW111531   4.478   4.720   0.735
 3283SOL    HW211532   4.336   4.793   0.703
 3284SOL     OW11533   4.410   4.885   1.803
 3284SOL    HW111534   4.470   4.964   1.817
 3284SOL    HW211535   4.324   4.916   1.762
 3285SOL     OW11536   4.059   5.159   1.061
 3285SOL    HW111537   3.981   5.128   1.008
 3285SOL    HW211538   4.117   5.217   1.004
 3286SOL     OW11539   4.162   4.116   1.499
 3286SOL    HW111540   4.244   4.060   1.508
 3286SOL    HW211541   4.081   4.058   1.503
 3287SOL     OW11542   3.964   4.815   0.886
 3287SOL    HW111543   3.978   4.731   0.938
 3287SOL    HW211544   3.909   4.879   0.941
 3288SOL     OW11545   4.330   4.688   0.123
 3288SOL    HW111546   4.337   4.772   0.069
 3288SOL    HW211547   4.376   4.701   0.211
 3289SOL     OW11548   3.837   4.461   1.597
 3289SOL    HW111549   3.925   4.448   1.642
 3289SOL    HW211550   3.824   4.558   1.575
 3290SOL     OW11551   5.017   4.952   1.423
 3290SOL    HW111552   5.054   4.879   1.365
 3290SOL    HW211553   5.069   4.957   1.508
 3291SOL     OW11554   4.533   3.728   0.502
 3291SOL    HW111555   4.573   3.819   0.493
 3291SOL    HW211556   4.433   3.736   0.508
 3292SOL     OW11557   3.921   4.700   1.264
 3292SOL    HW111558   4.010   4.655   1.250
 3292SOL    HW211559   3.848   4.635   1.245
 3293SOL     OW11560   4.322   4.453   0.270
 3293SOL    HW111561   4.346   4.522   0.202
 3293SOL    HW211562   4.244   4.486   0.324
 3294SOL     OW11563   5.005   4.069   0.944
 3294SOL    HW111564   4.919   4.019   0.931
 3294SOL    HW211565   5.067   4.015   1.000
 3295SOL     OW11566   4.531   4.329   1.465
 3295SOL    HW111567   4.484   4.326   1.554
 3295SOL    HW211568   4.480   4.274   1.399
 3296SOL     OW11569   4.697   4.614   1.572
 3296SOL    HW111570   4.743   4.530   1.543
 3296SOL    HW211571   4.641   4.648   1.497
 3297SOL     OW11572   4.765   4.425   0.429
 3297SOL    HW111573   4.791   4.421   0.525
 3297SOL    HW211574   4.680   4.374   0.415
 3298SOL     OW11575   4.589   4.072   0.195
 3298SOL    HW111576   4.648   4.135   0.146
 3298SOL    HW211577   4.608   3.978   0.166
 3299SOL     OW11578   4.045   4.667   0.242
 3299SOL    HW111579   4.127   4.706   0.200
 3299SOL    HW211580   4.018   4.585   0.193
 3300SOL     OW11581   4.505   3.988   1.749
 3300SOL    HW111582   4.572   3.927   1.792
 3300SOL    HW211583   4.432   4.007   1.814
 3301SOL     OW11584   4.527   5.126   0.924
 3301SOL    HW111585   4.617   5.140   0.882
 3301SOL    HW211586   4.456   5.128   0.853
 3302SOL     OW11587   4.263   3.788   0.512
 3302SOL    HW111588   4.182   3.789   0.570
 3302SOL    HW211589   4.266   3.871   0.457
 3303SOL     OW11590   4.021   3.759   0.171
 3303SOL    HW111591   4.070   3.843   0.150
 3303SOL    HW211592   4.083   3.694   0.216
 3304SOL     OW11593   4.800   4.407   1.464
 3304SOL    HW111594   4.720   4.346   1.467
 3304SOL    HW211595   4.881   4.354   1.440
 3305SOL     OW11596   4.951   5.294   0.793
 3305SOL    HW111597   4.972   5.368   0.728
 3305SOL    HW211598   5.019   5.294   0.866
 3306SOL     OW11599   4.183   4.876   0.741
 3306SOL    HW111600   4.112   4.849   0.806
 3306SOL    HW211601   4.157   4.848   0.648
 3307SOL     OW11602   4.756   4.273   0.016
 3307SOL    HW111603   4.715   4.355  -0.023
 3307SOL    HW211604   4.820   4.299   0.089
 3308SOL     OW11605   4.590   4.178   0.642
 3308SOL    HW111606   4.558   4.250   0.580
 3308SOL    HW211607   4.614   4.097   0.589
 3309SOL     OW11608   4.741   3.763   0.753
 3309SOL    HW111609   4.669   3.768   0.684
 3309SOL    HW211610   4.717   3.694   0.822
 3310SOL     OW11611   4.251   3.980   0.328
 3310SOL    HW111612   4.278   3.921   0.253
 3310SOL    HW211613   4.251   4.075   0.297
 3311SOL     OW11614   4.704   4.840   1.719
 3311SOL    HW111615   4.605   4.846   1.729
 3311SOL    HW211616   4.727   4.760   1.663
 3312SOL     OW11617   4.429   4.774   0.368
 3312SOL    HW111618   4.415   4.781   0.467
 3312SOL    HW211619   4.513   4.723   0.350
 3313SOL     OW11620   4.134   4.537   1.251
 3313SOL    HW111621   4.220   4.549   1.301
 3313SOL    HW211622   4.092   4.450   1.278
 3314SOL     OW11623   4.998   4.110   1.262
 3314SOL    HW111624   5.019   4.184   1.326
 3314SOL    HW211625   4.909   4.127   1.219
 3315SOL     OW11626   4.091   4.824   0.501
 3315SOL    HW111627   4.084   4.907   0.445
 3315SOL    HW211628   4.095   4.744   0.441
 3316SOL     OW11629   4.290   4.261   0.865
 3316SOL    HW111630   4.302   4.327   0.791
 3316SOL    HW211631   4.336   4.295   0.948
 3317SOL     OW11632   4.976   5.072   0.388
 3317SOL    HW111633   5.026   5.149   0.428
 3317SOL    HW211634   4.881   5.074   0.420
 3318SOL     OW11635   4.126   4.475   1.598
 3318SOL    HW111636   4.194   4.530   1.551
 3318SOL    HW211637   4.166   4.387   1.625
 3319SOL     OW11638   4.737   3.829   1.770
 3319SOL    HW111639   4.743   3.914   1.718
 3319SOL    HW211640   4.769   3.753   1.713
 3320SOL     OW11641   4.297   4.594   1.029
 3320SOL    HW111642   4.341   4.683   1.020
 3320SOL    HW211643   4.234   4.594   1.106
 3321SOL     OW11644   5.084   4.586   1.045
 3321SOL    HW111645   5.009   4.586   0.979
 3321SOL    HW211646   5.121   4.494   1.054
 3322SOL     OW11647   4.456   4.358   1.064
 3322SOL    HW111648   4.515   4.332   0.988
 3322SOL    HW211649   4.428   4.454   1.053
 3323SOL     OW11650   4.031   3.787   0.618
 3323SOL    HW111651   4.020   3.881   0.651
 3323SOL    HW211652   4.026   3.724   0.695
 3324SOL     OW11653   4.747   4.490   0.966
 3324SOL    HW111654   4.762   4.511   1.062
 3324SOL    HW211655   4.717   4.395   0.957
 3325SOL     OW11656   4.074   4.622   1.804
 3325SOL    HW111657   4.150   4.666   1.852
 3325SOL    HW211658   4.109   4.575   1.722
 3326SOL     OW11659   5.027   4.562   0.042
 3326SOL    HW111660   5.061   4.469   0.057
 3326SOL    HW211661   5.045   4.589  -0.053
 3327SOL     OW11662   4.862   4.104   1.678
 3327SOL    HW111663   4.817   4.167   1.742
 3327SOL    HW211664   4.955   4.135   1.661
 3328SOL     OW11665   4.884   3.931   1.477
 3328SOL    HW111666   4.884   3.995   1.554
 3328SOL    HW211667   4.912   3.979   1.394
 3329SOL     OW11668   4.726   4.520   1.238
 3329SOL    HW111669   4.767   4.488   1.324
 3329SOL    HW211670   4.630   4.493   1.235
 3330SOL     OW11671   3.913   4.244   1.722
 3330SOL    HW111672   3.972   4.204   1.652
 3330SOL    HW211673   3.855   4.315   1.681
 3331SOL     OW11674   4.539   4.296   0.325
 3331SOL    HW111675   4.546   4.207   0.279
 3331SOL    HW211676   4.445   4.330   0.317
 3332SOL     OW11677   4.197   4.224   0.191
 3332SOL    HW111678   4.258   4.304   0.195
 3332SOL    HW211679   4.102   4.255   0.198
 3333SOL     OW11680   3.883   4.861   1.466
 3333SOL    HW111681   3.905   4.800   1.542
 3333SOL    HW211682   3.893   4.812   1.380
 3334SOL     OW11683   5.071   4.783   1.234
 3334SOL    HW111684   5.095   4.720   1.160
 3334SOL    HW211685   4.981   4.823   1.216
 3335SOL     OW11686   3.807   4.982   1.022
 3335SOL    HW111687   3.802   4.981   1.122
 3335SOL    HW211688   3.724   4.941   0.984
 3336SOL     OW11689   4.627   3.810   0.133
 3336SOL    HW111690   4.678   3.811   0.047
 3336SOL    HW211691   4.683   3.768   0.204
 3337SOL     OW11692   5.004   4.651   0.672
 3337SOL    HW111693   5.064   4.570   0.674
 3337SOL    HW211694   5.044   4.720   0.612
 3338SOL     OW11695   4.554   4.997   1.422
 3338SOL    HW111696   4.549   5.030   1.517
 3338SOL    HW211697   4.468   5.016   1.376
 3339SOL     OW11698   4.546   4.726   1.372
 3339SOL    HW111699   4.586   4.725   1.280
 3339SOL    HW211700   4.556   4.818   1.412
 3340SOL     OW11701   4.640   4.634   0.291
 3340SOL    HW111702   4.703   4.672   0.223
 3340SOL    HW211703   4.680   4.551   0.330
 3341SOL     OW11704   4.096   5.012   1.490
 3341SOL    HW111705   4.083   5.105   1.456
 3341SOL    HW211706   4.012   4.960   1.477
 3342SOL     OW11707   4.763   4.822   0.696
 3342SOL    HW111708   4.693   4.775   0.750
 3342SOL    HW211709   4.822   4.754   0.653
 3343SOL     OW11710   3.829   4.737   1.726
 3343SOL    HW111711   3.752   4.704   1.780
 3343SOL    HW211712   3.914   4.707   1.768
 3344SOL     OW11713   5.164   4.580   1.398
 3344SOL    HW111714   5.107   4.632   1.335
 3344SOL    HW211715   5.260   4.592   1.374
 3345SOL     OW11716   3.796   3.890   0.318
 3345SOL    HW111717   3.779   3.973   0.264
 3345SOL    HW211718   3.886   3.853   0.296
 3346SOL     OW11719   4.337   4.566   1.431
 3346SOL    HW111720   4.393   4.647   1.414
 3346SOL    HW211721   4.396   4.486   1.434
 3347SOL     OW11722   4.440   4.289   1.708
 3347SOL    HW111723   4.459   4.354   1.782
 3347SOL    HW211724   4.500   4.209   1.717
 3348SOL     OW11725   5.174   4.944   1.633
 3348SOL    HW111726   5.165   4.934   1.732
 3348SOL    HW211727   5.270   4.937   1.607
 3349SOL     OW11728   4.318   4.469   0.652
 3349SOL    HW111729   4.368   4.554   0.633
 3349SOL    HW211730   4.230   4.471   0.604
 3350SOL     OW11731   4.583   4.680   0.861
 3350SOL    HW111732   4.637   4.611   0.909
 3350SOL    HW211733   4.551   4.749   0.927
 3351SOL     OW11734   4.807   4.708   0.087
 3351SOL    HW111735   4.784   4.761   0.005
 3351SOL    HW211736   4.888   4.652   0.068
 3352SOL     OW11737   4.041   4.271   1.280
 3352SOL    HW111738   4.079   4.212   1.352
 3352SOL    HW211739   4.081   4.245   1.192
 3353SOL     OW11740   4.494   5.054   0.301
 3353SOL    HW111741   4.448   4.967   0.318
 3353SOL    HW211742   4.585   5.051   0.342
 3354SOL     OW11743   3.954   4.352   1.975
 3354SOL    HW111744   3.861   4.350   2.012
 3354SOL    HW211745   3.955   4.313   1.883
 3355SOL     OW11746   3.949   3.999   2.858
 3355SOL    HW111747   3.984   3.982   2.950
 3355SOL    HW211748   3.861   3.954   2.846
 3356SOL     OW11749   3.743   4.092   2.509
 3356SOL    HW111750   3.661   4.135   2.548
 3356SOL    HW211751   3.715   4.019   2.446
 3357SOL     OW11752   4.293   4.999   3.027
 3357SOL    HW111753   4.200   4.992   2.990
 3357SOL    HW211754   4.304   5.088   3.071
 3358SOL     OW11755   4.859   4.427   2.579
 3358SOL    HW111756   4.916   4.505   2.554
 3358SOL    HW211757   4.799   4.453   2.655
 3359SOL     OW11758   4.492   4.868   2.885
 3359SOL    HW111759   4.414   4.885   2.945
 3359SOL    HW211760   4.526   4.955   2.849
 3360SOL     OW11761   4.574   4.522   3.685
 3360SOL    HW111762   4.570   4.598   3.750
 3360SOL    HW211763   4.596   4.558   3.594
 3361SOL     OW11764   4.409   4.736   2.527
 3361SOL    HW111765   4.478   4.720   2.597
 3361SOL    HW211766   4.336   4.793   2.565
 3362SOL     OW11767   4.410   4.885   3.665
 3362SOL    HW111768   4.470   4.964   3.679
 3362SOL    HW211769   4.324   4.916   3.624
 3363SOL     OW11770   4.059   5.159   2.923
 3363SOL    HW111771   3.981   5.128   2.870
 3363SOL    HW211772   4.117   5.217   2.866
 3364SOL     OW11773   4.162   4.116   3.361
 3364SOL    HW111774   4.244   4.060   3.370
 3364SOL    HW211775   4.081   4.058   3.365
 3365SOL     OW11776   3.964   4.815   2.748
 3365SOL    HW111777   3.978   4.731   2.800
 3365SOL    HW211778   3.909   4.879   2.803
 3366SOL     OW11779   4.330   4.688   1.985
 3366SOL    HW111780   4.337   4.772   1.931
 3366SOL    HW211781   4.376   4.701   2.073
 3367SOL     OW11782   3.846   4.367   2.425
 3367SOL    HW111783   3.801   4.279   2.442
 3367SOL    HW211784   3.845   4.421   2.509
 3368SOL     OW11785   3.837   4.461   3.459
 3368SOL    HW111786   3.925   4.448   3.504
 3368SOL    HW211787   3.824   4.558   3.437
 3369SOL     OW11788   5.017   4.952   3.285
 3369SOL    HW111789   5.054   4.879   3.227
 3369SOL    HW211790   5.069   4.957   3.370
 3370SOL     OW11791   4.533   3.728   2.364
 3370SOL    HW111792   4.573   3.819   2.355
 3370SOL    HW211793   4.433   3.736   2.370
 3371SOL     OW11794   3.921   4.700   3.126
 3371SOL    HW111795   4.010   4.655   3.112
 3371SOL    HW211796   3.848   4.635   3.107
 3372SOL     OW11797   4.041   3.975   3.663
 3372SOL    HW111798   4.112   4.046   3.669
 3372SOL    HW211799   3.953   4.014   3.691
 3373SOL     OW11800   4.322   4.453   2.132
 3373SOL    HW111801   4.346   4.522   2.064
 3373SOL    HW211802   4.244   4.486   2.186
 3374SOL     OW11803   5.005   4.069   2.806
 3374SOL    HW111804   4.919   4.019   2.793
 3374SOL    HW211805   5.067   4.015   2.862
 3375SOL     OW11806   4.531   4.329   3.327
 3375SOL    HW111807   4.484   4.326   3.416
 3375SOL    HW211808   4.480   4.274   3.261
 3376SOL     OW11809   4.697   4.614   3.434
 3376SOL    HW111810   4.743   4.530   3.405
 3376SOL    HW211811   4.641   4.648   3.359
 3377SOL     OW11812   4.715   4.134   3.104
 3377SOL    HW111813   4.638   4.168   3.158
 3377SOL    HW211814   4.681   4.083   3.025
 3378SOL     OW11815   4.765   4.425   2.291
 3378SOL    HW111816   4.791   4.421   2.387
 3378SOL    HW211817   4.680   4.374   2.277
 3379SOL     OW11818   3.800   4.535   2.651
 3379SOL    HW111819   3.899   4.523   2.660
 3379SOL    HW211820   3.776   4.630   2.672
 3380SOL     OW11821   4.589   4.072   2.057
 3380SOL    HW111822   4.648   4.135   2.008
 3380SOL    HW211823   4.608   3.978   2.028
 3381SOL     OW11824   4.274   3.920   2.747
 3381SOL    HW111825   4.269   3.915   2.847
 3381SOL    HW211826   4.276   4.016   2.718
 3382SOL     OW11827   4.045   4.667   2.104
 3382SOL    HW111828   4.127   4.706   2.062
 3382SOL    HW211829   4.018   4.585   2.055
 3383SOL     OW11830   3.926   4.009   3.360
 3383SOL    HW111831   3.846   4.069   3.347
 3383SOL    HW211832   3.916   3.960   3.446
 3384SOL     OW11833   4.106   4.424   2.342
 3384SOL    HW111834   4.151   4.334   2.339
 3384SOL    HW211835   4.012   4.413   2.375
 3385SOL     OW11836   4.338   3.846   1.979
 3385SOL    HW111837   4.436   3.824   1.986
 3385SOL    HW211838   4.307   3.829   1.886
 3386SOL     OW11839   4.505   3.988   3.611
 3386SOL    HW111840   4.572   3.927   3.654
 3386SOL    HW211841   4.432   4.007   3.676
 3387SOL     OW11842   4.527   5.126   2.786
 3387SOL    HW111843   4.617   5.140   2.744
 3387SOL    HW211844   4.456   5.128   2.715
 3388SOL     OW11845   4.646   4.227   2.761
 3388SOL    HW111846   4.621   4.218   2.665
 3388SOL    HW211847   4.694   4.145   2.792
 3389SOL     OW11848   4.263   3.788   2.374
 3389SOL    HW111849   4.182   3.789   2.432
 3389SOL    HW211850   4.266   3.871   2.319
 3390SOL     OW11851   5.158   4.912   1.903
 3390SOL    HW111852   5.190   4.836   1.960
 3390SOL    HW211853   5.066   4.939   1.933
 3391SOL     OW11854   4.659   3.960   2.342
 3391SOL    HW111855   4.611   4.001   2.264
 3391SOL    HW211856   4.758   3.958   2.323
 3392SOL     OW11857   4.800   4.407   3.326
 3392SOL    HW111858   4.720   4.346   3.329
 3392SOL    HW211859   4.881   4.354   3.302
 3393SOL     OW11860   4.951   5.294   2.655
 3393SOL    HW111861   4.972   5.368   2.590
 3393SOL    HW211862   5.019   5.294   2.728
 3394SOL     OW11863   4.183   4.876   2.603
 3394SOL    HW111864   4.112   4.849   2.668
 3394SOL    HW211865   4.157   4.848   2.510
 3395SOL     OW11866   4.756   4.273   1.878
 3395SOL    HW111867   4.715   4.355   1.839
 3395SOL    HW211868   4.820   4.299   1.951
 3396SOL     OW11869   3.802   4.280   3.248
 3396SOL    HW111870   3.894   4.279   3.207
 3396SOL    HW211871   3.796   4.354   3.315
 3397SOL     OW11872   4.285   3.946   3.009
 3397SOL    HW111873   4.323   3.862   3.046
 3397SOL    HW211874   4.197   3.965   3.053
 3398SOL     OW11875   4.590   4.178   2.504
 3398SOL    HW111876   4.558   4.250   2.442
 3398SOL    HW211877   4.614   4.097   2.451
 3399SOL     OW11878   4.741   3.763   2.615
 3399SOL    HW111879   4.669   3.768   2.546
 3399SOL    HW211880   4.717   3.694   2.684
 3400SOL     OW11881   4.251   3.980   2.190
 3400SOL    HW111882   4.278   3.921   2.115
 3400SOL    HW211883   4.251   4.075   2.159
 3401SOL     OW11884   4.639   3.813   3.264
 3401SOL    HW111885   4.664   3.793   3.169
 3401SOL    HW211886   4.711   3.869   3.306
 3402SOL     OW11887   4.704   4.840   3.581
 3402SOL    HW111888   4.605   4.846   3.591
 3402SOL    HW211889   4.727   4.760   3.525
 3403SOL     OW11890   4.429   4.774   2.230
 3403SOL    HW111891   4.415   4.781   2.329
 3403SOL    HW211892   4.513   4.723   2.212
 3404SOL     OW11893   4.134   4.537   3.113
 3404SOL    HW111894   4.220   4.549   3.163
 3404SOL    HW211895   4.092   4.450   3.140
 3405SOL     OW11896   4.998   4.110   3.124
 3405SOL    HW111897   5.019   4.184   3.188
 3405SOL    HW211898   4.909   4.127   3.081
 3406SOL     OW11899   4.091   4.824   2.363
 3406SOL    HW111900   4.084   4.907   2.307
 3406SOL    HW211901   4.095   4.744   2.303
 3407SOL     OW11902   4.290   4.261   2.727
 3407SOL    HW111903   4.302   4.327   2.653
 3407SOL    HW211904   4.336   4.295   2.810
 3408SOL     OW11905   4.976   5.072   2.250
 3408SOL    HW111906   5.026   5.149   2.290
 3408SOL    HW211907   4.881   5.074   2.282
 3409SOL     OW11908   4.126   4.475   3.460
 3409SOL    HW111909   4.194   4.530   3.413
 3409SOL    HW211910   4.166   4.387   3.487
 3410SOL     OW11911   4.737   3.829   3.632
 3410SOL    HW111912   4.743   3.914   3.580
 3410SOL    HW211913   4.769   3.753   3.575
 3411SOL     OW11914   4.228   3.774   3.602
 3411SOL    HW111915   4.186   3.717   3.532
 3411SOL    HW211916   4.162   3.843   3.634
 3412SOL     OW11917   4.297   4.594   2.891
 3412SOL    HW111918   4.341   4.683   2.882
 3412SOL    HW211919   4.234   4.594   2.968
 3413SOL     OW11920   5.084   4.586   2.907
 3413SOL    HW111921   5.009   4.586   2.841
 3413SOL    HW211922   5.121   4.494   2.916
 3414SOL     OW11923   4.933   4.249   2.137
 3414SOL    HW111924   4.946   4.165   2.191
 3414SOL    HW211925   4.904   4.323   2.197
 3415SOL     OW11926   4.031   3.937   3.093
 3415SOL    HW111927   4.008   3.974   3.183
 3415SOL    HW211928   4.001   3.842   3.087
 3416SOL     OW11929   4.456   4.358   2.926
 3416SOL    HW111930   4.515   4.332   2.850
 3416SOL    HW211931   4.428   4.454   2.915
 3417SOL     OW11932   4.031   3.787   2.480
 3417SOL    HW111933   4.020   3.881   2.513
 3417SOL    HW211934   4.026   3.724   2.557
 3418SOL     OW11935   5.346   4.091   2.236
 3418SOL    HW111936   5.348   4.015   2.300
 3418SOL    HW211937   5.298   4.168   2.276
 3419SOL     OW11938   4.747   4.490   2.828
 3419SOL    HW111939   4.762   4.511   2.924
 3419SOL    HW211940   4.717   4.395   2.819
 3420SOL     OW11941   4.074   4.622   3.666
 3420SOL    HW111942   4.150   4.666   3.714
 3420SOL    HW211943   4.109   4.575   3.584
 3421SOL     OW11944   5.027   4.562   1.904
 3421SOL    HW111945   5.061   4.469   1.919
 3421SOL    HW211946   5.045   4.589   1.809
 3422SOL     OW11947   4.043   4.534   2.811
 3422SOL    HW111948   4.136   4.570   2.816
 3422SOL    HW211949   4.037   4.449   2.863
 3423SOL     OW11950   4.063   4.233   2.868
 3423SOL    HW111951   4.011   4.150   2.851
 3423SOL    HW211952   4.140   4.238   2.804
 3424SOL     OW11953   4.862   4.104   3.540
 3424SOL    HW111954   4.817   4.167   3.604
 3424SOL    HW211955   4.955   4.135   3.523
 3425SOL     OW11956   4.884   3.931   3.339
 3425SOL    HW111957   4.884   3.995   3.416
 3425SOL    HW211958   4.912   3.979   3.256
 3426SOL     OW11959   3.732   5.050   2.062
 3426SOL    HW111960   3.639   5.071   2.031
 3426SOL    HW211961   3.742   4.951   2.075
 3427SOL     OW11962   4.726   4.520   3.100
 3427SOL    HW111963   4.767   4.488   3.186
 3427SOL    HW211964   4.630   4.493   3.097
 3428SOL     OW11965   3.764   4.268   2.976
 3428SOL    HW111966   3.849   4.235   2.935
 3428SOL    HW211967   3.777   4.283   3.074
 3429SOL     OW11968   3.913   4.244   3.584
 3429SOL    HW111969   3.972   4.204   3.514
 3429SOL    HW211970   3.855   4.315   3.543
 3430SOL     OW11971   4.539   4.296   2.187
 3430SOL    HW111972   4.546   4.207   2.141
 3430SOL    HW211973   4.445   4.330   2.179
 3431SOL     OW11974   4.395   4.188   3.131
 3431SOL    HW111975   4.361   4.099   3.101
 3431SOL    HW211976   4.421   4.242   3.051
 3432SOL     OW11977   4.197   4.224   2.053
 3432SOL    HW111978   4.258   4.304   2.057
 3432SOL    HW211979   4.102   4.255   2.060
 3433SOL     OW11980   3.883   4.861   3.328
 3433SOL    HW111981   3.905   4.800   3.404
 3433SOL    HW211982   3.893   4.812   3.242
 3434SOL     OW11983   5.071   4.783   3.096
 3434SOL    HW111984   5.095   4.720   3.022
 3434SOL    HW211985   4.981   4.823   3.078
 3435SOL     OW11986   3.807   4.982   2.884
 3435SOL    HW111987   3.802   4.981   2.984
 3435SOL    HW211988   3.724   4.941   2.846
 3436SOL     OW11989   5.004   4.651   2.534
 3436SOL    HW111990   5.064   4.570   2.536
 3436SOL    HW211991   5.044   4.720   2.474
 3437SOL     OW11992   4.554   4.997   3.284
 3437SOL    HW111993   4.549   5.030   3.379
 3437SOL    HW211994   4.468   5.016   3.238
 3438SOL     OW11995   3.987   4.050   2.582
 3438SOL    HW111996   3.908   4.101   2.548
 3438SOL    HW211997   3.978   4.035   2.680
 3439SOL     OW11998   4.918   5.336   1.893
 3439SOL    HW111999   4.924   5.243   1.930
 3439SOL    HW212000   4.859   5.336   1.813
 3440SOL     OW12001   4.546   4.726   3.234
 3440SOL    HW112002   4.586   4.725   3.142
 3440SOL    HW212003   4.556   4.818   3.274
 3441SOL     OW12004   4.640   4.634   2.153
 3441SOL    HW112005   4.703   4.672   2.085
 3441SOL    HW212006   4.680   4.551   2.192
 3442SOL     OW12007   4.096   5.012   3.352
 3442SOL    HW112008   4.083   5.105   3.318
 3442SOL    HW212009   4.012   4.960   3.339
 3443SOL     OW12010   4.763   4.822   2.558
 3443SOL    HW112011   4.693   4.775   2.612
 3443SOL    HW212012   4.822   4.754   2.515
 3444SOL     OW12013   4.738   3.960   2.833
 3444SOL    HW112014   4.730   3.924   2.740
 3444SOL    HW212015   4.736   3.884   2.898
 3445SOL     OW12016   3.829   4.737   3.588
 3445SOL    HW112017   3.752   4.704   3.642
 3445SOL    HW212018   3.914   4.707   3.630
 3446SOL     OW12019   4.396   3.927   3.351
 3446SOL    HW112020   4.486   3.911   3.311
 3446SOL    HW212021   4.404   3.932   3.450
 3447SOL     OW12022   3.799   4.069   1.895
 3447SOL    HW112023   3.707   4.041   1.866
 3447SOL    HW212024   3.830   4.146   1.839
 3448SOL     OW12025   5.164   4.580   3.260
 3448SOL    HW112026   5.107   4.632   3.197
 3448SOL    HW212027   5.260   4.592   3.236
 3449SOL     OW12028   4.337   4.566   3.293
 3449SOL    HW112029   4.393   4.647   3.276
 3449SOL    HW212030   4.396   4.486   3.296
 3450SOL     OW12031   4.440   4.289   3.570
 3450SOL    HW112032   4.459   4.354   3.644
 3450SOL    HW212033   4.500   4.209   3.579
 3451SOL     OW12034   5.174   4.944   3.495
 3451SOL    HW112035   5.165   4.934   3.594
 3451SOL    HW212036   5.270   4.937   3.469
 3452SOL     OW12037   4.949   4.049   2.311
 3452SOL    HW112038   5.014   3.975   2.300
 3452SOL    HW212039   4.969   4.099   2.395
 3453SOL     OW12040   4.318   4.469   2.514
 3453SOL    HW112041   4.368   4.554   2.495
 3453SOL    HW212042   4.230   4.471   2.466
 3454SOL     OW12043   4.583   4.680   2.723
 3454SOL    HW112044   4.637   4.611   2.771
 3454SOL    HW212045   4.551   4.749   2.789
 3455SOL     OW12046   4.807   4.708   1.949
 3455SOL    HW112047   4.784   4.761   1.867
 3455SOL    HW212048   4.888   4.652   1.930
 3456SOL     OW12049   3.803   4.964   2.515
 3456SOL    HW112050   3.802   4.917   2.603
 3456SOL    HW212051   3.885   4.936   2.464
 3457SOL     OW12052   4.152   4.148   2.382
 3457SOL    HW112053   4.182   4.076   2.320
 3457SOL    HW212054   4.113   4.108   2.465
 3458SOL     OW12055   4.041   4.271   3.142
 3458SOL    HW112056   4.079   4.212   3.214
 3458SOL    HW212057   4.081   4.245   3.054
 3459SOL     OW12058   4.725   3.758   3.016
 3459SOL    HW112059   4.662   3.686   2.985
 3459SOL    HW212060   4.818   3.722   3.016
 3460SOL     OW12061   4.494   5.054   2.163
 3460SOL    HW112062   4.448   4.967   2.180
 3460SOL    HW212063   4.585   5.051   2.204
 3461SOL     OW12064   5.076   3.776   2.030
 3461SOL    HW112065   5.111   3.735   1.946
 3461SOL    HW212066   4.986   3.738   2.050
 3462SOL     OW12067   3.763   4.801   2.162
 3462SOL    HW112068   3.862   4.790   2.153
 3462SOL    HW212069   3.723   4.715   2.194
 3463SOL     OW12070   3.954   4.352   3.837
 3463SOL    HW112071   3.861   4.350   3.874
 3463SOL    HW212072   3.955   4.313   3.745
 3464SOL     OW12073   3.949   3.999   4.720
 3464SOL    HW112074   3.984   3.982   4.812
 3464SOL    HW212075   3.861   3.954   4.708
 3465SOL     OW12076   3.743   4.092   4.371
 3465SOL    HW112077   3.661   4.135   4.410
 3465SOL    HW212078   3.715   4.019   4.308
 3466SOL     OW12079   4.293   4.999   4.889
 3466SOL    HW112080   4.200   4.992   4.852
 3466SOL    HW212081   4.304   5.088   4.933
 3467SOL     OW12082   4.859   4.427   4.441
 3467SOL    HW112083   4.916   4.505   4.416
 3467SOL    HW212084   4.799   4.453   4.517
 3468SOL     OW12085   4.492   4.868   4.747
 3468SOL    HW112086   4.414   4.885   4.807
 3468SOL    HW212087   4.526   4.955   4.711
 3469SOL     OW12088   4.409   4.736   4.389
 3469SOL    HW112089   4.478   4.720   4.459
 3469SOL    HW212090   4.336   4.793   4.427
 3470SOL     OW12091   4.059   5.159   4.785
 3470SOL    HW112092   3.981   5.128   4.732
 3470SOL    HW212093   4.117   5.217   4.728
 3471SOL     OW12094   4.330   4.688   3.847
 3471SOL    HW112095   4.337   4.772   3.793
 3471SOL    HW212096   4.376   4.701   3.935
 3472SOL     OW12097   3.846   4.367   4.287
 3472SOL    HW112098   3.801   4.279   4.304
 3472SOL    HW212099   3.845   4.421   4.371
 3473SOL     OW12100   4.533   3.728   4.226
 3473SOL    HW112101   4.573   3.819   4.217
 3473SOL    HW212102   4.433   3.736   4.232
 3474SOL     OW12103   3.921   4.700   4.988
 3474SOL    HW112104   4.010   4.655   4.974
 3474SOL    HW212105   3.848   4.635   4.969
 3475SOL     OW12106   4.322   4.453   3.994
 3475SOL    HW112107   4.346   4.522   3.926
 3475SOL    HW212108   4.244   4.486   4.048
 3476SOL     OW12109   4.715   4.134   4.966
 3476SOL    HW112110   4.638   4.168   5.020
 3476SOL    HW212111   4.681   4.083   4.887
 3477SOL     OW12112   4.765   4.425   4.153
 3477SOL    HW112113   4.791   4.421   4.249
 3477SOL    HW212114   4.680   4.374   4.139
 3478SOL     OW12115   4.589   4.072   3.919
 3478SOL    HW112116   4.648   4.135   3.870
 3478SOL    HW212117   4.608   3.978   3.890
 3479SOL     OW12118   4.045   4.667   3.966
 3479SOL    HW112119   4.127   4.706   3.924
 3479SOL    HW212120   4.018   4.585   3.917
 3480SOL     OW12121   4.106   4.424   4.204
 3480SOL    HW112122   4.151   4.334   4.201
 3480SOL    HW212123   4.012   4.413   4.237
 3481SOL     OW12124   4.338   3.846   3.841
 3481SOL    HW112125   4.436   3.824   3.848
 3481SOL    HW212126   4.307   3.829   3.748
 3482SOL     OW12127   4.527   5.126   4.648
 3482SOL    HW112128   4.617   5.140   4.606
 3482SOL    HW212129   4.456   5.128   4.577
 3483SOL     OW12130   4.646   4.227   4.623
 3483SOL    HW112131   4.621   4.218   4.527
 3483SOL    HW212132   4.694   4.145   4.654
 3484SOL     OW12133   4.263   3.788   4.236
 3484SOL    HW112134   4.182   3.789   4.294
 3484SOL    HW212135   4.266   3.871   4.181
 3485SOL     OW12136   5.158   4.912   3.765
 3485SOL    HW112137   5.190   4.836   3.822
 3485SOL    HW212138   5.066   4.939   3.795
 3486SOL     OW12139   4.021   3.759   3.895
 3486SOL    HW112140   4.070   3.843   3.874
 3486SOL    HW212141   4.083   3.694   3.940
 3487SOL     OW12142   4.659   3.960   4.204
 3487SOL    HW112143   4.611   4.001   4.126
 3487SOL    HW212144   4.758   3.958   4.185
 3488SOL     OW12145   4.951   5.294   4.517
 3488SOL    HW112146   4.972   5.368   4.452
 3488SOL    HW212147   5.019   5.294   4.590
 3489SOL     OW12148   4.183   4.876   4.465
 3489SOL    HW112149   4.112   4.849   4.530
 3489SOL    HW212150   4.157   4.848   4.372
 3490SOL     OW12151   4.756   4.273   3.740
 3490SOL    HW112152   4.715   4.355   3.701
 3490SOL    HW212153   4.820   4.299   3.813
 3491SOL     OW12154   4.251   3.980   4.052
 3491SOL    HW112155   4.278   3.921   3.977
 3491SOL    HW212156   4.251   4.075   4.021
 3492SOL     OW12157   4.429   4.774   4.092
 3492SOL    HW112158   4.415   4.781   4.191
 3492SOL    HW212159   4.513   4.723   4.074
 3493SOL     OW12160   4.134   4.537   4.975
 3493SOL    HW112161   4.220   4.549   5.025
 3493SOL    HW212162   4.092   4.450   5.002
 3494SOL     OW12163   4.091   4.824   4.225
 3494SOL    HW112164   4.084   4.907   4.169
 3494SOL    HW212165   4.095   4.744   4.165
 3495SOL     OW12166   4.290   4.261   4.589
 3495SOL    HW112167   4.302   4.327   4.515
 3495SOL    HW212168   4.336   4.295   4.672
 3496SOL     OW12169   4.976   5.072   4.112
 3496SOL    HW112170   5.026   5.149   4.152
 3496SOL    HW212171   4.881   5.074   4.144
 3497SOL     OW12172   4.297   4.594   4.753
 3497SOL    HW112173   4.341   4.683   4.744
 3497SOL    HW212174   4.234   4.594   4.830
 3498SOL     OW12175   5.084   4.586   4.769
 3498SOL    HW112176   5.009   4.586   4.703
 3498SOL    HW212177   5.121   4.494   4.778
 3499SOL     OW12178   4.933   4.249   3.999
 3499SOL    HW112179   4.946   4.165   4.053
 3499SOL    HW212180   4.904   4.323   4.059
 3500SOL     OW12181   4.031   3.937   4.955
 3500SOL    HW112182   4.008   3.974   5.045
 3500SOL    HW212183   4.001   3.842   4.949
 3501SOL     OW12184   4.456   4.358   4.788
 3501SOL    HW112185   4.515   4.332   4.712
 3501SOL    HW212186   4.428   4.454   4.777
 3502SOL     OW12187   4.031   3.787   4.342
 3502SOL    HW112188   4.020   3.881   4.375
 3502SOL    HW212189   4.026   3.724   4.419
 3503SOL     OW12190   4.747   4.490   4.690
 3503SOL    HW112191   4.762   4.511   4.786
 3503SOL    HW212192   4.717   4.395   4.681
 3504SOL     OW12193   5.027   4.562   3.766
 3504SOL    HW112194   5.061   4.469   3.781
 3504SOL    HW212195   5.045   4.589   3.671
 3505SOL     OW12196   4.043   4.534   4.673
 3505SOL    HW112197   4.136   4.570   4.678
 3505SOL    HW212198   4.037   4.449   4.725
 3506SOL     OW12199   4.063   4.233   4.730
 3506SOL    HW112200   4.011   4.150   4.713
 3506SOL    HW212201   4.140   4.238   4.666
 3507SOL     OW12202   4.884   3.931   5.201
 3507SOL    HW112203   4.884   3.995   5.278
 3507SOL    HW212204   4.912   3.979   5.118
 3508SOL     OW12205   4.726   4.520   4.962
 3508SOL    HW112206   4.767   4.488   5.048
 3508SOL    HW212207   4.630   4.493   4.959
 3509SOL     OW12208   3.764   4.268   4.838
 3509SOL    HW112209   3.849   4.235   4.797
 3509SOL    HW212210   3.777   4.283   4.936
 3510SOL     OW12211   4.539   4.296   4.049
 3510SOL    HW112212   4.546   4.207   4.003
 3510SOL    HW212213   4.445   4.330   4.041
 3511SOL     OW12214   4.395   4.188   4.993
 3511SOL    HW112215   4.361   4.099   4.963
 3511SOL    HW212216   4.421   4.242   4.913
 3512SOL     OW12217   4.197   4.224   3.915
 3512SOL    HW112218   4.258   4.304   3.919
 3512SOL    HW212219   4.102   4.255   3.922
 3513SOL     OW12220   5.071   4.783   4.958
 3513SOL    HW112221   5.095   4.720   4.884
 3513SOL    HW212222   4.981   4.823   4.940
 3514SOL     OW12223   3.807   4.982   4.746
 3514SOL    HW112224   3.802   4.981   4.846
 3514SOL    HW212225   3.724   4.941   4.708
 3515SOL     OW12226   5.004   4.651   4.396
 3515SOL    HW112227   5.064   4.570   4.398
 3515SOL    HW212228   5.044   4.720   4.336
 3516SOL     OW12229   4.554   4.997   5.146
 3516SOL    HW112230   4.549   5.030   5.241
 3516SOL    HW212231   4.468   5.016   5.100
 3517SOL     OW12232   3.987   4.050   4.444
 3517SOL    HW112233   3.908   4.101   4.410
 3517SOL    HW212234   3.978   4.035   4.542
 3518SOL     OW12235   4.546   4.726   5.096
 3518SOL    HW112236   4.586   4.725   5.004
 3518SOL    HW212237   4.556   4.818   5.136
 3519SOL     OW12238   4.640   4.634   4.015
 3519SOL    HW112239   4.703   4.672   3.947
 3519SOL    HW212240   4.680   4.551   4.054
 3520SOL     OW12241   4.763   4.822   4.420
 3520SOL    HW112242   4.693   4.775   4.474
 3520SOL    HW212243   4.822   4.754   4.377
 3521SOL     OW12244   3.799   4.069   3.757
 3521SOL    HW112245   3.707   4.041   3.728
 3521SOL    HW212246   3.830   4.146   3.701
 3522SOL     OW12247   3.796   3.890   4.042
 3522SOL    HW112248   3.779   3.973   3.988
 3522SOL    HW212249   3.886   3.853   4.020
 3523SOL     OW12250   4.949   4.049   4.173
 3523SOL    HW112251   5.014   3.975   4.162
 3523SOL    HW212252   4.969   4.099   4.257
 3524SOL     OW12253   4.318   4.469   4.376
 3524SOL    HW112254   4.368   4.554   4.357
 3524SOL    HW212255   4.230   4.471   4.328
 3525SOL     OW12256   4.583   4.680   4.585
 3525SOL    HW112257   4.637   4.611   4.633
 3525SOL    HW212258   4.551   4.749   4.651
 3526SOL     OW12259   4.807   4.708   3.811
 3526SOL    HW112260   4.784   4.761   3.729
 3526SOL    HW212261   4.888   4.652   3.792
 3527SOL     OW12262   4.152   4.148   4.244
 3527SOL    HW112263   4.182   4.076   4.182
 3527SOL    HW212264   4.113   4.108   4.327
 3528SOL     OW12265   4.494   5.054   4.025
 3528SOL    HW112266   4.448   4.967   4.042
 3528SOL    HW212267   4.585   5.051   4.066
 3529SOL     OW12268   5.076   3.776   3.892
 3529SOL    HW112269   5.111   3.735   3.808
 3529SOL    HW212270   4.986   3.738   3.912
   5.08970   5.08970   5.08970
