UNITED ATOM STRUCTURE FOR MOLECULE UNK
12126
    0X2IT   H18    1   3.092   2.352   2.583
    0X2IT    N4    2   3.026   2.419   2.548
    0X2IT   H17    3   3.059   2.484   2.478
    0X2IT   C14    4   2.895   2.380   2.546
    0X2IT    O5    5   2.849   2.285   2.607
    0X2IT    O4    6   2.822   2.466   2.469
    0X2IT   C13    7   2.680   2.441   2.463
    0X2IT   C10    8   2.607   2.502   2.584
    0X2IT    C9    9   2.457   2.484   2.578
    0X2IT    C4   10   2.394   2.607   2.582
    0X2IT    C5   11   2.245   2.625   2.577
    0X2IT    O1   12   2.197   2.739   2.585
    0X2IT    C6   13   2.166   2.505   2.564
    0X2IT   C12   14   2.015   2.516   2.558
    0X2IT    C7   15   2.229   2.382   2.561
    0X2IT    C8   16   2.381   2.365   2.567
    0X2IT    O2   17   2.427   2.250   2.559
    0X2IT    N3   18   2.164   2.265   2.551
    0X2IT   H15   19   2.064   2.258   2.544
    0X2IT   H16   20   2.221   2.180   2.548
    0X2IT    N2   21   2.482   2.709   2.599
    0X2IT    C3   22   2.473   2.846   2.546
    0X2IT    C2   23   2.599   2.856   2.461
    0X2IT    H2   24   2.639   2.954   2.435
    0X2IT    N1   25   2.611   2.744   2.365
    0X2IT   H14   26   2.674   2.771   2.289
    0X2IT    C1   27   2.688   2.741   2.491
    0X2IT    H1   28   2.796   2.748   2.490
    0X2IT   C11   29   2.622   2.658   2.600
    0X2IT    O3   30   2.691   2.695   2.718
    0X2IT   C15   31   2.628   2.664   2.843
    1X2IT   H18   32   3.965   4.612   0.011
    1X2IT    N4   33   4.045   4.673   0.003
    1X2IT   H17   34   4.108   4.656  -0.074
    1X2IT   C14   35   4.029   4.800   0.050
    1X2IT    O5   36   3.939   4.838   0.123
    1X2IT    O4   37   4.132   4.879   0.006
    1X2IT   C13   38   4.132   5.015   0.054
    1X2IT   C10   39   4.196   5.026   0.193
    1X2IT    C9   40   4.204   5.168   0.244
    1X2IT    C4   41   4.336   5.201   0.272
    1X2IT    C5   42   4.379   5.335   0.323
    1X2IT    O1   43   4.499   5.355   0.348
    1X2IT    C6   44   4.276   5.435   0.340
    1X2IT   C12   45   4.313   5.572   0.391
    1X2IT    C7   46   4.145   5.401   0.313
    1X2IT    C8   47   4.101   5.264   0.262
    1X2IT    O2   48   3.981   5.246   0.236
    1X2IT    N3   49   4.042   5.486   0.327
    1X2IT   H15   50   4.052   5.581   0.358
    1X2IT   H16   51   3.949   5.451   0.303
    1X2IT    N2   52   4.419   5.096   0.255
    1X2IT    C3   53   4.560   5.098   0.210
    1X2IT    C2   54   4.554   5.012   0.084
    1X2IT    H2   55   4.645   4.967   0.045
    1X2IT    N1   56   4.449   5.057  -0.010
    1X2IT   H14   57   4.470   5.023  -0.104
    1X2IT    C1   58   4.423   4.941   0.078
    1X2IT    H1   59   4.412   4.842   0.037
    1X2IT   C11   60   4.345   4.977   0.203
    1X2IT    O3   61   4.361   4.864   0.287
    1X2IT   C15   62   4.332   4.882   0.426
    2X2IT   H18   63   3.859   3.667   1.343
    2X2IT    N4   64   3.893   3.587   1.392
    2X2IT   H17   65   3.972   3.601   1.454
    2X2IT   C14   66   3.802   3.490   1.423
    2X2IT    O5   67   3.691   3.480   1.373
    2X2IT    O4   68   3.854   3.403   1.515
    2X2IT   C13   69   3.770   3.292   1.551
    2X2IT   C10   70   3.782   3.177   1.450
    2X2IT    C9   71   3.701   3.055   1.488
    2X2IT    C4   72   3.784   2.944   1.499
    2X2IT    C5   73   3.736   2.807   1.536
    2X2IT    O1   74   3.816   2.713   1.540
    2X2IT    C6   75   3.595   2.794   1.566
    2X2IT   C12   76   3.540   2.659   1.605
    2X2IT    C7   77   3.512   2.904   1.554
    2X2IT    C8   78   3.563   3.044   1.515
    2X2IT    O2   79   3.480   3.136   1.512
    2X2IT    N3   80   3.380   2.902   1.577
    2X2IT   H15   81   3.331   2.819   1.606
    2X2IT   H16   82   3.329   2.990   1.567
    2X2IT    N2   83   3.912   2.973   1.464
    2X2IT    C3   84   4.036   2.914   1.518
    2X2IT    C2   85   4.107   3.037   1.574
    2X2IT    H2   86   4.215   3.034   1.591
    2X2IT    N1   87   4.021   3.116   1.664
    2X2IT   H14   88   4.079   3.174   1.725
    2X2IT    C1   89   4.040   3.160   1.524
    2X2IT    H1   90   4.093   3.251   1.502
    2X2IT   C11   91   3.927   3.117   1.432
    2X2IT    O3   92   3.979   3.138   1.302
    2X2IT   C15   93   3.913   3.072   1.193
    3X2IT   H18   94   1.873   4.777   2.583
    3X2IT    N4   95   1.841   4.710   2.650
    3X2IT   H17   96   1.911   4.659   2.702
    3X2IT   C14   97   1.721   4.737   2.710
    3X2IT    O5   98   1.639   4.818   2.670
    3X2IT    O4   99   1.705   4.657   2.820
    3X2IT   C13  100   1.579   4.670   2.890
    3X2IT   C10  101   1.469   4.586   2.823
    3X2IT    C9  102   1.337   4.592   2.898
    3X2IT    C4  103   1.298   4.464   2.935
    3X2IT    C5  104   1.172   4.434   3.011
    3X2IT    O1  105   1.143   4.316   3.037
    3X2IT    C6  106   1.091   4.547   3.049
    3X2IT   C12  107   0.963   4.524   3.126
    3X2IT    C7  108   1.130   4.674   3.011
    3X2IT    C8  109   1.258   4.704   2.933
    3X2IT    O2  110   1.285   4.822   2.908
    3X2IT    N3  111   1.060   4.785   3.040
    3X2IT   H15  112   0.975   4.785   3.092
    3X2IT   H16  113   1.099   4.875   3.008
    3X2IT    N2  114   1.382   4.369   2.887
    3X2IT    C3  115   1.419   4.241   2.950
    3X2IT    C2  116   1.570   4.255   2.967
    3X2IT    H2  117   1.631   4.165   2.979
    3X2IT    N1  118   1.608   4.380   3.035
    3X2IT   H14  119   1.701   4.370   3.075
    3X2IT    C1  120   1.617   4.371   2.888
    3X2IT    H1  121   1.714   4.374   2.839
    3X2IT   C11  122   1.497   4.431   2.816
    3X2IT    O3  123   1.510   4.384   2.683
    3X2IT   C15  124   1.393   4.390   2.601
    4X2IT   H18  125   4.436   3.199   3.272
    4X2IT    N4  126   4.405   3.162   3.360
    4X2IT   H17  127   4.322   3.104   3.359
    4X2IT   C14  128   4.502   3.137   3.452
    4X2IT    O5  129   4.616   3.181   3.449
    4X2IT    O4  130   4.452   3.058   3.553
    4X2IT   C13  131   4.542   3.029   3.662
    4X2IT   C10  132   4.544   3.143   3.765
    4X2IT    C9  133   4.632   3.114   3.884
    4X2IT    C4  134   4.558   3.120   4.001
    4X2IT    C5  135   4.615   3.095   4.137
    4X2IT    O1  136   4.542   3.107   4.237
    4X2IT    C6  137   4.754   3.059   4.144
    4X2IT   C12  138   4.818   3.032   4.279
    4X2IT    C7  139   4.829   3.054   4.027
    4X2IT    C8  140   4.770   3.080   3.888
    4X2IT    O2  141   4.845   3.068   3.790
    4X2IT    N3  142   4.959   3.023   4.023
    4X2IT   H15  143   5.013   3.001   4.105
    4X2IT   H16  144   5.004   3.020   3.931
    4X2IT    N2  145   4.430   3.160   3.978
    4X2IT    C3  146   4.309   3.120   4.050
    4X2IT    C2  147   4.225   3.055   3.941
    4X2IT    H2  148   4.118   3.045   3.954
    4X2IT    N1  149   4.300   2.952   3.866
    4X2IT   H14  150   4.235   2.889   3.820
    4X2IT    C1  151   4.285   3.087   3.808
    4X2IT    H1  152   4.226   3.102   3.719
    4X2IT   C11  153   4.406   3.176   3.832
    4X2IT    O3  154   4.359   3.306   3.800
    4X2IT   C15  155   4.436   3.417   3.849
    5X2IT   H18  156   1.745   2.439   3.869
    5X2IT    N4  157   1.840   2.449   3.837
    5X2IT   H17  158   1.877   2.543   3.831
    5X2IT   C14  159   1.925   2.346   3.867
    5X2IT    O5  160   1.891   2.235   3.902
    5X2IT    O4  161   2.054   2.385   3.847
    5X2IT   C13  162   2.155   2.284   3.868
    5X2IT   C10  163   2.173   2.195   3.744
    5X2IT    C9  164   2.283   2.093   3.759
    5X2IT    C4  165   2.377   2.109   3.660
    5X2IT    C5  166   2.500   2.023   3.647
    5X2IT    O1  167   2.578   2.043   3.552
    5X2IT    C6  168   2.519   1.922   3.747
    5X2IT   C12  169   2.641   1.832   3.740
    5X2IT    C7  170   2.424   1.905   3.846
    5X2IT    C8  171   2.299   1.992   3.858
    5X2IT    O2  172   2.222   1.971   3.953
    5X2IT    N3  173   2.432   1.812   3.943
    5X2IT   H15  174   2.509   1.748   3.951
    5X2IT   H16  175   2.356   1.810   4.012
    5X2IT    N2  176   2.342   2.205   3.571
    5X2IT    C3  177   2.431   2.297   3.497
    5X2IT    C2  178   2.383   2.433   3.544
    5X2IT    H2  179   2.405   2.522   3.485
    5X2IT    N1  180   2.379   2.443   3.692
    5X2IT   H14  181   2.381   2.542   3.719
    5X2IT    C1  182   2.254   2.418   3.617
    5X2IT    H1  183   2.176   2.492   3.613
    5X2IT   C11  184   2.215   2.271   3.612
    5X2IT    O3  185   2.117   2.265   3.511
    5X2IT   C15  186   2.088   2.135   3.456
    6X2IT   H18  187   3.310   1.884   2.554
    6X2IT    N4  188   3.255   1.804   2.577
    6X2IT   H17  189   3.156   1.819   2.591
    6X2IT   C14  190   3.297   1.683   2.528
    6X2IT    O5  191   3.409   1.661   2.484
    6X2IT    O4  192   3.199   1.590   2.541
    6X2IT   C13  193   3.232   1.456   2.499
    6X2IT   C10  194   3.306   1.379   2.610
    6X2IT    C9  195   3.337   1.236   2.573
    6X2IT    C4  196   3.279   1.150   2.664
    6X2IT    C5  197   3.290   1.000   2.656
    6X2IT    O1  198   3.239   0.930   2.745
    6X2IT    C6  199   3.362   0.947   2.543
    6X2IT   C12  200   3.376   0.796   2.529
    6X2IT    C7  201   3.420   1.033   2.452
    6X2IT    C8  202   3.409   1.185   2.462
    6X2IT    O2  203   3.461   1.253   2.372
    6X2IT    N3  204   3.490   0.993   2.345
    6X2IT   H15  205   3.506   0.896   2.323
    6X2IT   H16  206   3.527   1.066   2.284
    6X2IT    N2  207   3.219   1.216   2.767
    6X2IT    C3  208   3.099   1.176   2.842
    6X2IT    C2  209   3.005   1.292   2.816
    6X2IT    H2  210   2.921   1.310   2.883
    6X2IT    N1  211   2.990   1.321   2.671
    6X2IT   H14  212   2.904   1.373   2.655
    6X2IT    C1  213   3.080   1.404   2.754
    6X2IT    H1  214   3.057   1.508   2.773
    6X2IT   C11  215   3.226   1.363   2.745
    6X2IT    O3  216   3.287   1.430   2.854
    6X2IT   C15  217   3.416   1.382   2.896
    7X2IT   H18  218   3.151   0.813   4.142
    7X2IT    N4  219   3.232   0.865   4.170
    7X2IT   H17  220   3.272   0.928   4.102
    7X2IT   C14  221   3.242   0.895   4.303
    7X2IT    O5  222   3.178   0.842   4.392
    7X2IT    O4  223   3.338   0.990   4.322
    7X2IT   C13  224   3.364   1.028   4.459
    7X2IT   C10  225   3.462   0.929   4.526
    7X2IT    C9  226   3.497   0.969   4.668
    7X2IT    C4  227   3.634   0.985   4.680
    7X2IT    C5  228   3.703   1.025   4.807
    7X2IT    O1  229   3.826   1.033   4.810
    7X2IT    C6  230   3.618   1.050   4.921
    7X2IT   C12  231   3.680   1.091   5.053
    7X2IT    C7  232   3.481   1.033   4.909
    7X2IT    C8  233   3.412   0.992   4.779
    7X2IT    O2  234   3.288   0.984   4.779
    7X2IT    N3  235   3.394   1.052   5.010
    7X2IT   H15  236   3.422   1.082   5.102
    7X2IT   H16  237   3.295   1.038   4.989
    7X2IT    N2  238   3.699   0.953   4.565
    7X2IT    C3  239   3.823   1.013   4.512
    7X2IT    C2  240   3.777   1.067   4.377
    7X2IT    H2  241   3.850   1.087   4.300
    7X2IT    N1  242   3.657   1.152   4.389
    7X2IT   H14  243   3.650   1.213   4.307
    7X2IT    C1  244   3.643   1.012   4.345
    7X2IT    H1  245   3.611   0.989   4.245
    7X2IT   C11  246   3.603   0.918   4.458
    7X2IT    O3  247   3.628   0.789   4.404
    7X2IT   C15  248   3.637   0.680   4.498
    8X2IT   H18  249   4.123   0.756   2.726
    8X2IT    N4  250   4.059   0.689   2.687
    8X2IT   H17  251   3.968   0.680   2.732
    8X2IT   C14  252   4.069   0.665   2.553
    8X2IT    O5  253   4.165   0.696   2.484
    8X2IT    O4  254   3.959   0.598   2.509
    8X2IT   C13  255   3.959   0.560   2.370
    8X2IT   C10  256   4.037   0.429   2.347
    8X2IT    C9  257   4.034   0.382   2.204
    8X2IT    C4  258   3.980   0.255   2.196
    8X2IT    C5  259   3.961   0.179   2.068
    8X2IT    O1  260   3.915   0.064   2.071
    8X2IT    C6  261   4.001   0.247   1.947
    8X2IT   C12  262   3.985   0.176   1.814
    8X2IT    C7  263   4.056   0.373   1.955
    8X2IT    C8  264   4.075   0.449   2.086
    8X2IT    O2  265   4.121   0.564   2.081
    8X2IT    N3  266   4.097   0.443   1.848
    8X2IT   H15  267   4.090   0.409   1.754
    8X2IT   H16  268   4.135   0.537   1.865
    8X2IT    N2  269   3.952   0.203   2.319
    8X2IT    C3  270   3.843   0.112   2.357
    8X2IT    C2  271   3.768   0.194   2.461
    8X2IT    H2  272   3.702   0.144   2.532
    8X2IT    N1  273   3.733   0.329   2.412
    8X2IT   H14  274   3.655   0.367   2.467
    8X2IT    C1  275   3.850   0.311   2.501
    8X2IT    H1  276   3.850   0.352   2.601
    8X2IT   C11  277   3.982   0.303   2.425
    8X2IT    O3  278   4.073   0.253   2.522
    8X2IT   C15  279   4.196   0.199   2.472
    9X2IT   H18  280   4.231   4.079   0.514
    9X2IT    N4  281   4.308   4.016   0.531
    9X2IT   H17  282   4.377   4.007   0.458
    9X2IT   C14  283   4.346   4.000   0.661
    9X2IT    O5  284   4.279   4.032   0.758
    9X2IT    O4  285   4.467   3.938   0.667
    9X2IT   C13  286   4.517   3.909   0.799
    9X2IT   C10  287   4.458   3.777   0.854
    9X2IT    C9  288   4.513   3.739   0.989
    9X2IT    C4  289   4.572   3.614   0.983
    9X2IT    C5  290   4.638   3.547   1.100
    9X2IT    O1  291   4.685   3.433   1.087
    9X2IT    C6  292   4.640   3.621   1.224
    9X2IT   C12  293   4.705   3.559   1.346
    9X2IT    C7  294   4.580   3.745   1.230
    9X2IT    C8  295   4.513   3.813   1.110
    9X2IT    O2  296   4.467   3.927   1.126
    9X2IT    N3  297   4.576   3.821   1.341
    9X2IT   H15  298   4.617   3.793   1.429
    9X2IT   H16  299   4.530   3.912   1.334
    9X2IT    N2  300   4.557   3.556   0.861
    9X2IT    C3  301   4.650   3.466   0.792
    9X2IT    C2  302   4.681   3.543   0.664
    9X2IT    H2  303   4.720   3.490   0.577
    9X2IT    N1  304   4.725   3.682   0.691
    9X2IT   H14  305   4.776   3.718   0.611
    9X2IT    C1  306   4.585   3.656   0.650
    9X2IT    H1  307   4.548   3.690   0.555
    9X2IT   C11  308   4.488   3.649   0.767
    9X2IT    O3  309   4.371   3.591   0.712
    9X2IT   C15  310   4.276   3.536   0.804
   10X2IT   H18  311   1.196   1.640   3.664
   10X2IT    N4  312   1.202   1.556   3.720
   10X2IT   H17  313   1.199   1.468   3.671
   10X2IT   C14  314   1.272   1.566   3.837
   10X2IT    O5  315   1.303   1.670   3.891
   10X2IT    O4  316   1.297   1.441   3.886
   10X2IT   C13  317   1.365   1.435   4.013
   10X2IT   C10  318   1.267   1.451   4.130
   10X2IT    C9  319   1.333   1.439   4.265
   10X2IT    C4  320   1.275   1.336   4.338
   10X2IT    C5  321   1.318   1.297   4.476
   10X2IT    O1  322   1.257   1.206   4.535
   10X2IT    C6  323   1.428   1.370   4.533
   10X2IT   C12  324   1.477   1.335   4.672
   10X2IT    C7  325   1.486   1.473   4.461
   10X2IT    C8  326   1.440   1.513   4.320
   10X2IT    O2  327   1.502   1.604   4.263
   10X2IT    N3  328   1.587   1.548   4.506
   10X2IT   H15  329   1.631   1.535   4.595
   10X2IT   H16  330   1.623   1.621   4.443
   10X2IT    N2  331   1.170   1.281   4.272
   10X2IT    C3  332   1.125   1.141   4.276
   10X2IT    C2  333   1.136   1.100   4.130
   10X2IT    H2  334   1.080   1.014   4.093
   10X2IT    N1  335   1.269   1.130   4.073
   10X2IT   H14  336   1.285   1.072   3.990
   10X2IT    C1  337   1.156   1.221   4.046
   10X2IT    H1  338   1.116   1.231   3.946
   10X2IT   C11  339   1.153   1.342   4.138
   10X2IT    O3  340   1.023   1.396   4.119
   10X2IT   C15  341   0.976   1.487   4.219
   11X2IT   H18  342   2.325   2.906   5.110
   11X2IT    N4  343   2.355   2.822   5.065
   11X2IT   H17  344   2.388   2.747   5.123
   11X2IT   C14  345   2.293   2.792   4.946
   11X2IT    O5  346   2.227   2.869   4.880
   11X2IT    O4  347   2.319   2.662   4.912
   11X2IT   C13  348   2.266   2.618   4.785
   11X2IT   C10  349   2.357   2.659   4.668
   11X2IT    C9  350   2.308   2.608   4.534
   11X2IT    C4  351   2.404   2.529   4.475
   11X2IT    C5  352   2.387   2.463   4.341
   11X2IT    O1  353   2.481   2.397   4.294
   11X2IT    C6  354   2.260   2.482   4.275
   11X2IT   C12  355   2.236   2.417   4.141
   11X2IT    C7  356   2.164   2.561   4.335
   11X2IT    C8  357   2.183   2.629   4.471
   11X2IT    O2  358   2.089   2.695   4.516
   11X2IT    N3  359   2.044   2.586   4.280
   11X2IT   H15  360   2.014   2.548   4.192
   11X2IT   H16  361   1.980   2.646   4.334
   11X2IT    N2  362   2.519   2.526   4.547
   11X2IT    C3  363   2.614   2.414   4.560
   11X2IT    C2  364   2.612   2.387   4.710
   11X2IT    H2  365   2.694   2.333   4.757
   11X2IT    N1  366   2.474   2.369   4.762
   11X2IT   H14  367   2.478   2.318   4.850
   11X2IT    C1  368   2.542   2.499   4.779
   11X2IT    H1  369   2.570   2.534   4.878
   11X2IT   C11  370   2.504   2.602   4.674
   11X2IT    O3  371   2.602   2.703   4.688
   11X2IT   C15  372   2.616   2.795   4.579
   12X2IT   H18  373  -0.108   4.014   2.888
   12X2IT    N4  374  -0.104   4.023   2.788
   12X2IT   H17  375  -0.184   4.063   2.742
   12X2IT   C14  376   0.020   4.042   2.733
   12X2IT    O5  377   0.126   4.021   2.790
   12X2IT    O4  378   0.008   4.083   2.604
   12X2IT   C13  379   0.131   4.100   2.531
   12X2IT   C10  380   0.183   3.967   2.474
   12X2IT    C9  381   0.308   3.982   2.391
   12X2IT    C4  382   0.287   3.934   2.263
   12X2IT    C5  383   0.391   3.935   2.155
   12X2IT    O1  384   0.364   3.886   2.044
   12X2IT    C6  385   0.519   3.993   2.189
   12X2IT   C12  386   0.628   3.997   2.085
   12X2IT    C7  387   0.540   4.040   2.317
   12X2IT    C8  388   0.433   4.037   2.427
   12X2IT    O2  389   0.462   4.086   2.537
   12X2IT    N3  390   0.656   4.093   2.359
   12X2IT   H15  391   0.736   4.104   2.299
   12X2IT   H16  392   0.660   4.126   2.456
   12X2IT    N2  393   0.164   3.879   2.249
   12X2IT    C3  394   0.078   3.878   2.129
   12X2IT    C2  395  -0.046   3.951   2.178
   12X2IT    H2  396  -0.141   3.938   2.125
   12X2IT    N1  397  -0.014   4.081   2.240
   12X2IT   H14  398  -0.098   4.140   2.239
   12X2IT    C1  399  -0.042   3.964   2.326
   12X2IT    H1  400  -0.130   3.960   2.388
   12X2IT   C11  401   0.085   3.894   2.375
   12X2IT    O3  402   0.038   3.769   2.424
   12X2IT   C15  403   0.136   3.666   2.441
   13X2IT   H18  404   0.661   0.408   3.441
   13X2IT    N4  405   0.580   0.448   3.485
   13X2IT   H17  406   0.542   0.532   3.444
   13X2IT   C14  407   0.495   0.360   3.547
   13X2IT    O5  408   0.523   0.245   3.577
   13X2IT    O4  409   0.376   0.421   3.575
   13X2IT   C13  410   0.279   0.342   3.647
   13X2IT   C10  411   0.306   0.345   3.798
   13X2IT    C9  412   0.202   0.269   3.878
   13X2IT    C4  413   0.142   0.353   3.970
   13X2IT    C5  414   0.033   0.310   4.064
   13X2IT    O1  415  -0.012   0.391   4.146
   13X2IT    C6  416  -0.010   0.172   4.054
   13X2IT   C12  417  -0.119   0.122   4.146
   13X2IT    C7  418   0.051   0.088   3.963
   13X2IT    C8  419   0.162   0.134   3.867
   13X2IT    O2  420   0.206   0.051   3.786
   13X2IT    N3  421   0.019  -0.041   3.947
   13X2IT   H15  422  -0.053  -0.086   4.000
   13X2IT   H16  423   0.069  -0.093   3.875
   13X2IT    N2  424   0.197   0.477   3.970
   13X2IT    C3  425   0.131   0.606   3.996
   13X2IT    C2  426   0.154   0.681   3.866
   13X2IT    H2  427   0.147   0.790   3.865
   13X2IT    N1  428   0.113   0.604   3.748
   13X2IT   H14  429   0.097   0.667   3.669
   13X2IT    C1  430   0.255   0.609   3.785
   13X2IT    H1  431   0.327   0.659   3.722
   13X2IT   C11  432   0.302   0.488   3.865
   13X2IT    O3  433   0.427   0.528   3.918
   13X2IT   C15  434   0.478   0.451   4.028
   14X2IT   H18  435   3.210   2.998   0.288
   14X2IT    N4  436   3.120   3.043   0.291
   14X2IT   H17  437   3.103   3.107   0.368
   14X2IT   C14  438   3.059   3.064   0.171
   14X2IT    O5  439   3.090   3.012   0.066
   14X2IT    O4  440   2.954   3.151   0.187
   14X2IT   C13  441   2.876   3.179   0.069
   14X2IT   C10  442   2.770   3.070   0.046
   14X2IT    C9  443   2.681   3.098  -0.073
   14X2IT    C4  444   2.548   3.103  -0.034
   14X2IT    C5  445   2.434   3.130  -0.127
   14X2IT    O1  446   2.318   3.129  -0.083
   14X2IT    C6  447   2.468   3.156  -0.265
   14X2IT   C12  448   2.357   3.184  -0.364
   14X2IT    C7  449   2.600   3.150  -0.305
   14X2IT    C8  450   2.716   3.121  -0.208
   14X2IT    O2  451   2.831   3.123  -0.254
   14X2IT    N3  452   2.641   3.170  -0.431
   14X2IT   H15  453   2.578   3.192  -0.506
   14X2IT   H16  454   2.742   3.165  -0.448
   14X2IT    N2  455   2.533   3.073   0.098
   14X2IT    C3  456   2.433   3.126   0.192
   14X2IT    C2  457   2.521   3.191   0.299
   14X2IT    H2  458   2.480   3.210   0.398
   14X2IT    N1  459   2.620   3.284   0.240
   14X2IT   H14  460   2.651   3.350   0.312
   14X2IT    C1  461   2.662   3.148   0.279
   14X2IT    H1  462   2.731   3.133   0.361
   14X2IT   C11  463   2.666   3.051   0.162
   14X2IT    O3  464   2.674   2.924   0.224
   14X2IT   C15  465   2.641   2.810   0.144
   15X2IT   H18  466   3.585   1.872   2.999
   15X2IT    N4  467   3.509   1.937   3.012
   15X2IT   H17  468   3.420   1.898   3.039
   15X2IT   C14  469   3.543   2.062   3.053
   15X2IT    O5  470   3.655   2.110   3.049
   15X2IT    O4  471   3.432   2.129   3.096
   15X2IT   C13  472   3.451   2.266   3.136
   15X2IT   C10  473   3.451   2.361   3.015
   15X2IT    C9  474   3.464   2.507   3.054
   15X2IT    C4  475   3.356   2.579   3.007
   15X2IT    C5  476   3.338   2.726   3.029
   15X2IT    O1  477   3.240   2.783   2.980
   15X2IT    C6  478   3.439   2.793   3.107
   15X2IT   C12  479   3.427   2.942   3.133
   15X2IT    C7  480   3.548   2.721   3.153
   15X2IT    C8  481   3.566   2.571   3.129
   15X2IT    O2  482   3.665   2.515   3.179
   15X2IT    N3  483   3.648   2.775   3.225
   15X2IT   H15  484   3.651   2.871   3.251
   15X2IT   H16  485   3.723   2.711   3.255
   15X2IT    N2  486   3.273   2.503   2.932
   15X2IT    C3  487   3.127   2.514   2.920
   15X2IT    C2  488   3.080   2.377   2.968
   15X2IT    H2  489   2.980   2.341   2.941
   15X2IT    N1  490   3.137   2.342   3.100
   15X2IT   H14  491   3.078   2.271   3.145
   15X2IT    C1  492   3.196   2.285   2.978
   15X2IT    H1  493   3.189   2.179   2.957
   15X2IT   C11  494   3.319   2.361   2.930
   15X2IT    O3  495   3.339   2.314   2.798
   15X2IT   C15  496   3.423   2.393   2.712
   16X2IT   H18  497   3.157   0.313   1.701
   16X2IT    N4  498   3.087   0.339   1.767
   16X2IT   H17  499   3.096   0.304   1.861
   16X2IT   C14  500   3.027   0.460   1.747
   16X2IT    O5  501   3.032   0.525   1.644
   16X2IT    O4  502   2.957   0.497   1.859
   16X2IT   C13  503   2.884   0.620   1.850
   16X2IT   C10  504   2.747   0.599   1.783
   16X2IT    C9  505   2.663   0.725   1.778
   16X2IT    C4  506   2.542   0.705   1.843
   16X2IT    C5  507   2.436   0.810   1.857
   16X2IT    O1  508   2.330   0.782   1.913
   16X2IT    C6  509   2.466   0.940   1.801
   16X2IT   C12  510   2.364   1.051   1.812
   16X2IT    C7  511   2.586   0.960   1.736
   16X2IT    C8  512   2.693   0.851   1.721
   16X2IT    O2  513   2.800   0.882   1.664
   16X2IT    N3  514   2.622   1.076   1.679
   16X2IT   H15  515   2.565   1.158   1.681
   16X2IT   H16  516   2.715   1.080   1.635
   16X2IT    N2  517   2.528   0.577   1.885
   16X2IT    C3  518   2.458   0.528   2.005
   16X2IT    C2  519   2.569   0.458   2.081
   16X2IT    H2  520   2.544   0.384   2.157
   16X2IT    N1  521   2.688   0.544   2.099
   16X2IT   H14  522   2.744   0.509   2.177
   16X2IT    C1  523   2.687   0.442   1.992
   16X2IT    H1  524   2.753   0.356   1.997
   16X2IT   C11  525   2.651   0.498   1.856
   16X2IT    O3  526   2.623   0.383   1.778
   16X2IT   C15  527   2.549   0.403   1.657
   17X2IT   H18  528   2.095   4.101   3.897
   17X2IT    N4  529   2.166   4.151   3.948
   17X2IT   H17  530   2.181   4.248   3.922
   17X2IT   C14  531   2.187   4.112   4.077
   17X2IT    O5  532   2.148   4.007   4.126
   17X2IT    O4  533   2.261   4.206   4.143
   17X2IT   C13  534   2.297   4.176   4.279
   17X2IT   C10  535   2.422   4.086   4.286
   17X2IT    C9  536   2.467   4.057   4.427
   17X2IT    C4  537   2.597   4.100   4.445
   17X2IT    C5  538   2.672   4.087   4.575
   17X2IT    O1  539   2.790   4.124   4.581
   17X2IT    C6  540   2.600   4.029   4.685
   17X2IT   C12  541   2.669   4.013   4.819
   17X2IT    C7  542   2.470   3.986   4.667
   17X2IT    C8  543   2.395   3.999   4.534
   17X2IT    O2  544   2.277   3.961   4.530
   17X2IT    N3  545   2.395   3.929   4.763
   17X2IT   H15  546   2.428   3.915   4.857
   17X2IT   H16  547   2.300   3.902   4.739
   17X2IT    N2  548   2.652   4.147   4.330
   17X2IT    C3  549   2.751   4.255   4.315
   17X2IT    C2  550   2.676   4.355   4.228
   17X2IT    H2  551   2.732   4.430   4.172
   17X2IT    N1  552   2.543   4.389   4.283
   17X2IT   H14  553   2.512   4.478   4.244
   17X2IT    C1  554   2.554   4.291   4.173
   17X2IT    H1  555   2.515   4.314   4.075
   17X2IT   C11  556   2.552   4.147   4.220
   17X2IT    O3  557   2.596   4.073   4.108
   17X2IT   C15  558   2.642   3.939   4.132
   18X2IT   H18  559   4.888   1.483   1.311
   18X2IT    N4  560   4.872   1.434   1.225
   18X2IT   H17  561   4.901   1.338   1.220
   18X2IT   C14  562   4.765   1.475   1.150
   18X2IT    O5  563   4.705   1.580   1.165
   18X2IT    O4  564   4.737   1.382   1.054
   18X2IT   C13  565   4.630   1.415   0.963
   18X2IT   C10  566   4.679   1.506   0.849
   18X2IT    C9  567   4.571   1.537   0.747
   18X2IT    C4  568   4.610   1.495   0.621
   18X2IT    C5  569   4.526   1.511   0.498
   18X2IT    O1  570   4.571   1.474   0.388
   18X2IT    C6  571   4.395   1.569   0.516
   18X2IT   C12  572   4.305   1.587   0.396
   18X2IT    C7  573   4.356   1.611   0.642
   18X2IT    C8  574   4.443   1.595   0.767
   18X2IT    O2  575   4.396   1.633   0.875
   18X2IT    N3  576   4.238   1.668   0.668
   18X2IT   H15  577   4.167   1.683   0.598
   18X2IT   H16  578   4.218   1.693   0.765
   18X2IT    N2  579   4.737   1.447   0.621
   18X2IT    C3  580   4.793   1.340   0.537
   18X2IT    C2  581   4.839   1.238   0.640
   18X2IT    H2  582   4.913   1.163   0.613
   18X2IT    N1  583   4.732   1.204   0.736
   18X2IT   H14  584   4.753   1.114   0.780
   18X2IT    C1  585   4.836   1.300   0.775
   18X2IT    H1  586   4.908   1.276   0.853
   18X2IT   C11  587   4.793   1.445   0.759
   18X2IT    O3  588   4.914   1.518   0.768
   18X2IT   C15  589   4.914   1.653   0.719
   19X2IT   H18  590   4.279   2.560   1.871
   19X2IT    N4  591   4.310   2.464   1.869
   19X2IT   H17  592   4.254   2.398   1.818
   19X2IT   C14  593   4.445   2.444   1.877
   19X2IT    O5  594   4.527   2.528   1.912
   19X2IT    O4  595   4.475   2.315   1.843
   19X2IT   C13  596   4.614   2.278   1.853
   19X2IT   C10  597   4.652   2.239   1.997
   19X2IT    C9  598   4.795   2.192   2.011
   19X2IT    C4  599   4.799   2.064   2.063
   19X2IT    C5  600   4.926   1.988   2.088
   19X2IT    O1  601   4.920   1.875   2.138
   19X2IT    C6  602   5.049   2.054   2.052
   19X2IT   C12  603   5.181   1.982   2.074
   19X2IT    C7  604   5.045   2.182   2.001
   19X2IT    C8  605   4.915   2.259   1.976
   19X2IT    O2  606   4.923   2.372   1.926
   19X2IT    N3  607   5.154   2.252   1.966
   19X2IT   H15  608   5.248   2.215   1.974
   19X2IT   H16  609   5.140   2.346   1.928
   19X2IT    N2  610   4.675   2.019   2.096
   19X2IT    C3  611   4.625   1.881   2.090
   19X2IT    C2  612   4.509   1.893   1.992
   19X2IT    H2  613   4.431   1.817   1.992
   19X2IT    N1  614   4.548   1.959   1.866
   19X2IT   H14  615   4.480   1.935   1.793
   19X2IT    C1  616   4.477   2.036   1.970
   19X2IT    H1  617   4.377   2.073   1.954
   19X2IT   C11  618   4.571   2.118   2.058
   19X2IT    O3  619   4.491   2.156   2.169
   19X2IT   C15  620   4.559   2.200   2.286
   20X2IT   H18  621   0.127   1.468   1.269
   20X2IT    N4  622   0.203   1.456   1.205
   20X2IT   H17  623   0.285   1.409   1.239
   20X2IT   C14  624   0.169   1.444   1.073
   20X2IT    O5  625   0.061   1.473   1.025
   20X2IT    O4  626   0.276   1.398   1.002
   20X2IT   C13  627   0.258   1.386   0.859
   20X2IT   C10  628   0.281   1.521   0.788
   20X2IT    C9  629   0.269   1.511   0.638
   20X2IT    C4  630   0.386   1.553   0.578
   20X2IT    C5  631   0.408   1.556   0.430
   20X2IT    O1  632   0.516   1.599   0.385
   20X2IT    C6  633   0.300   1.508   0.348
   20X2IT   C12  634   0.316   1.507   0.197
   20X2IT    C7  635   0.182   1.467   0.407
   20X2IT    C8  636   0.161   1.465   0.559
   20X2IT    O2  637   0.053   1.422   0.602
   20X2IT    N3  638   0.076   1.422   0.339
   20X2IT   H15  639   0.074   1.415   0.239
   20X2IT   H16  640  -0.006   1.393   0.394
   20X2IT    N2  641   0.476   1.600   0.669
   20X2IT    C3  642   0.623   1.591   0.663
   20X2IT    C2  643   0.655   1.512   0.789
   20X2IT    H2  644   0.756   1.516   0.832
   20X2IT    N1  645   0.578   1.386   0.798
   20X2IT   H14  646   0.625   1.321   0.861
   20X2IT    C1  647   0.535   1.504   0.875
   20X2IT    H1  648   0.539   1.504   0.983
   20X2IT   C11  649   0.424   1.583   0.808
   20X2IT    O3  650   0.421   1.706   0.878
   20X2IT   C15  651   0.355   1.816   0.815
   21X2IT   H18  652   3.851   0.079   4.435
   21X2IT    N4  653   3.755   0.107   4.429
   21X2IT   H17  654   3.709   0.134   4.515
   21X2IT   C14  655   3.715   0.166   4.312
   21X2IT    O5  656   3.778   0.162   4.208
   21X2IT    O4  657   3.594   0.225   4.329
   21X2IT   C13  658   3.536   0.286   4.211
   21X2IT   C10  659   3.463   0.182   4.124
   21X2IT    C9  660   3.396   0.243   4.003
   21X2IT    C4  661   3.260   0.215   4.005
   21X2IT    C5  662   3.164   0.262   3.900
   21X2IT    O1  663   3.045   0.229   3.908
   21X2IT    C6  664   3.218   0.343   3.793
   21X2IT   C12  665   3.126   0.393   3.684
   21X2IT    C7  666   3.354   0.369   3.791
   21X2IT    C8  667   3.452   0.321   3.898
   21X2IT    O2  668   3.571   0.354   3.889
   21X2IT    N3  669   3.414   0.442   3.695
   21X2IT   H15  670   3.365   0.483   3.618
   21X2IT   H16  671   3.515   0.457   3.704
   21X2IT    N2  672   3.226   0.135   4.109
   21X2IT    C3  673   3.100   0.134   4.185
   21X2IT    C2  674   3.149   0.163   4.327
   21X2IT    H2  675   3.086   0.137   4.412
   21X2IT    N1  676   3.234   0.284   4.333
   21X2IT   H14  677   3.235   0.320   4.429
   21X2IT    C1  678   3.296   0.150   4.332
   21X2IT    H1  679   3.349   0.113   4.419
   21X2IT   C11  680   3.345   0.107   4.195
   21X2IT    O3  681   3.368  -0.032   4.209
   21X2IT   C15  682   3.377  -0.110   4.088
   22X2IT   H18  683   0.798   1.587   1.419
   22X2IT    N4  684   0.818   1.638   1.335
   22X2IT   H17  685   0.844   1.583   1.254
   22X2IT   C14  686   0.751   1.756   1.317
   22X2IT    O5  687   0.692   1.817   1.404
   22X2IT    O4  688   0.764   1.797   1.187
   22X2IT   C13  689   0.704   1.924   1.155
   22X2IT   C10  690   0.796   2.041   1.192
   22X2IT    C9  691   0.740   2.176   1.153
   22X2IT    C4  692   0.826   2.241   1.068
   22X2IT    C5  693   0.800   2.377   1.010
   22X2IT    O1  694   0.886   2.430   0.937
   22X2IT    C6  695   0.674   2.439   1.044
   22X2IT   C12  696   0.641   2.576   0.989
   22X2IT    C7  697   0.588   2.374   1.130
   22X2IT    C8  698   0.616   2.236   1.189
   22X2IT    O2  699   0.530   2.185   1.262
   22X2IT    N3  700   0.470   2.424   1.170
   22X2IT   H15  701   0.435   2.513   1.139
   22X2IT   H16  702   0.413   2.366   1.232
   22X2IT    N2  703   0.942   2.172   1.049
   22X2IT    C3  704   1.025   2.166   0.928
   22X2IT    C2  705   1.023   2.018   0.894
   22X2IT    H2  706   1.101   1.976   0.830
   22X2IT    N1  707   0.885   1.964   0.887
   22X2IT   H14  708   0.885   1.878   0.832
   22X2IT    C1  709   0.966   1.942   1.009
   22X2IT    H1  710   1.000   1.843   1.036
   22X2IT   C11  711   0.936   2.041   1.120
   22X2IT    O3  712   1.044   2.026   1.210
   22X2IT   C15  713   1.066   2.131   1.305
   23X2IT   H18  714   5.286   4.433   5.016
   23X2IT    N4  715   5.189   4.421   5.040
   23X2IT   H17  716   5.168   4.404   5.137
   23X2IT   C14  717   5.098   4.488   4.963
   23X2IT    O5  718   5.121   4.537   4.854
   23X2IT    O4  719   4.976   4.488   5.024
   23X2IT   C13  720   4.868   4.549   4.951
   23X2IT   C10  721   4.807   4.452   4.849
   23X2IT    C9  722   4.689   4.510   4.775
   23X2IT    C4  723   4.577   4.431   4.794
   23X2IT    C5  724   4.442   4.462   4.735
   23X2IT    O1  725   4.348   4.383   4.754
   23X2IT    C6  726   4.431   4.582   4.657
   23X2IT   C12  727   4.298   4.619   4.595
   23X2IT    C7  728   4.544   4.660   4.637
   23X2IT    C8  729   4.681   4.628   4.697
   23X2IT    O2  730   4.773   4.708   4.676
   23X2IT    N3  731   4.544   4.773   4.564
   23X2IT   H15  732   4.462   4.810   4.519
   23X2IT   H16  733   4.633   4.824   4.557
   23X2IT    N2  734   4.604   4.320   4.866
   23X2IT    C3  735   4.517   4.249   4.961
   23X2IT    C2  736   4.597   4.257   5.090
   23X2IT    H2  737   4.576   4.186   5.171
   23X2IT    N1  738   4.638   4.395   5.122
   23X2IT   H14  739   4.659   4.402   5.222
   23X2IT    C1  740   4.735   4.302   5.060
   23X2IT    H1  741   4.822   4.268   5.115
   23X2IT   C11  742   4.747   4.319   4.910
   23X2IT    O3  743   4.815   4.203   4.867
   23X2IT   C15  744   4.808   4.171   4.728
   24X2IT   H18  745   5.318  -0.178   3.512
   24X2IT    N4  746   5.286  -0.084   3.494
   24X2IT   H17  747   5.338  -0.030   3.427
   24X2IT   C14  748   5.152  -0.062   3.508
   24X2IT    O5  749   5.074  -0.137   3.565
   24X2IT    O4  750   5.118   0.058   3.452
   24X2IT   C13  751   4.980   0.098   3.464
   24X2IT   C10  752   4.953   0.164   3.600
   24X2IT    C9  753   4.811   0.213   3.615
   24X2IT    C4  754   4.810   0.349   3.641
   24X2IT    C5  755   4.685   0.430   3.660
   24X2IT    O1  756   4.694   0.551   3.687
   24X2IT    C6  757   4.560   0.360   3.646
   24X2IT   C12  758   4.430   0.435   3.664
   24X2IT    C7  759   4.561   0.224   3.621
   24X2IT    C8  760   4.689   0.142   3.603
   24X2IT    O2  761   4.678   0.021   3.576
   24X2IT    N3  762   4.450   0.149   3.609
   24X2IT   H15  763   4.357   0.187   3.616
   24X2IT   H16  764   4.462   0.050   3.589
   24X2IT    N2  765   4.935   0.399   3.655
   24X2IT    C3  766   4.984   0.533   3.619
   24X2IT    C2  767   5.093   0.502   3.517
   24X2IT    H2  768   5.170   0.576   3.496
   24X2IT    N1  769   5.046   0.412   3.410
   24X2IT   H14  770   5.107   0.421   3.328
   24X2IT    C1  771   5.124   0.356   3.522
   24X2IT    H1  772   5.223   0.316   3.506
   24X2IT   C11  773   5.037   0.294   3.630
   24X2IT    O3  774   5.126   0.278   3.740
   24X2IT   C15  775   5.066   0.258   3.869
   25X2IT   H18  776   1.817   3.107   2.003
   25X2IT    N4  777   1.726   3.113   2.043
   25X2IT   H17  778   1.657   3.046   2.011
   25X2IT   C14  779   1.718   3.161   2.171
   25X2IT    O5  780   1.807   3.221   2.229
   25X2IT    O4  781   1.594   3.135   2.223
   25X2IT   C13  782   1.569   3.186   2.355
   25X2IT   C10  783   1.527   3.334   2.352
   25X2IT    C9  784   1.493   3.389   2.489
   25X2IT    C4  785   1.364   3.437   2.490
   25X2IT    C5  786   1.298   3.498   2.611
   25X2IT    O1  787   1.183   3.542   2.602
   25X2IT    C6  788   1.377   3.502   2.732
   25X2IT   C12  789   1.316   3.562   2.857
   25X2IT    C7  790   1.507   3.455   2.730
   25X2IT    C8  791   1.572   3.394   2.606
   25X2IT    O2  792   1.688   3.350   2.617
   25X2IT    N3  793   1.588   3.456   2.837
   25X2IT   H15  794   1.560   3.491   2.927
   25X2IT   H16  795   1.682   3.417   2.824
   25X2IT    N2  796   1.305   3.430   2.368
   25X2IT    C3  797   1.163   3.407   2.336
   25X2IT    C2  798   1.170   3.279   2.253
   25X2IT    H2  799   1.087   3.253   2.188
   25X2IT    N1  800   1.245   3.172   2.321
   25X2IT   H14  801   1.219   3.081   2.282
   25X2IT    C1  802   1.310   3.252   2.215
   25X2IT    H1  803   1.339   3.206   2.121
   25X2IT   C11  804   1.396   3.365   2.270
   25X2IT    O3  805   1.420   3.447   2.157
   25X2IT   C15  806   1.465   3.581   2.182
   26X2IT   H18  807   4.218   3.348   4.975
   26X2IT    N4  808   4.314   3.322   4.984
   26X2IT   H17  809   4.369   3.372   5.053
   26X2IT   C14  810   4.345   3.192   4.956
   26X2IT    O5  811   4.273   3.114   4.896
   26X2IT    O4  812   4.470   3.163   5.002
   26X2IT   C13  813   4.519   3.030   4.974
   26X2IT   C10  814   4.579   3.021   4.832
   26X2IT    C9  815   4.638   2.885   4.801
   26X2IT    C4  816   4.771   2.898   4.768
   26X2IT    C5  817   4.860   2.782   4.733
   26X2IT    O1  818   4.978   2.803   4.700
   26X2IT    C6  819   4.800   2.651   4.737
   26X2IT   C12  820   4.883   2.529   4.703
   26X2IT    C7  821   4.666   2.639   4.770
   26X2IT    C8  822   4.576   2.758   4.805
   26X2IT    O2  823   4.459   2.735   4.837
   26X2IT    N3  824   4.600   2.522   4.775
   26X2IT   H15  825   4.644   2.433   4.757
   26X2IT   H16  826   4.502   2.524   4.802
   26X2IT    N2  827   4.811   3.027   4.764
   26X2IT    C3  828   4.943   3.083   4.797
   26X2IT    C2  829   4.910   3.179   4.911
   26X2IT    H2  830   4.979   3.259   4.935
   26X2IT    N1  831   4.831   3.115   5.018
   26X2IT   H14  832   4.840   3.169   5.104
   26X2IT    C1  833   4.763   3.198   4.917
   26X2IT    H1  834   4.717   3.292   4.945
   26X2IT   C11  835   4.700   3.118   4.804
   26X2IT    O3  836   4.672   3.215   4.705
   26X2IT   C15  837   4.648   3.167   4.572
   27X2IT   H18  838   3.399   1.571  -0.212
   27X2IT    N4  839   3.374   1.660  -0.172
   27X2IT   H17  840   3.420   1.742  -0.208
   27X2IT   C14  841   3.245   1.670  -0.126
   27X2IT    O5  842   3.171   1.576  -0.104
   27X2IT    O4  843   3.215   1.801  -0.103
   27X2IT   C13  844   3.084   1.827  -0.047
   27X2IT   C10  845   3.084   1.811   0.106
   27X2IT    C9  846   2.951   1.844   0.169
   27X2IT    C4  847   2.966   1.945   0.262
   27X2IT    C5  848   2.853   2.002   0.343
   27X2IT    O1  849   2.876   2.090   0.427
   27X2IT    C6  850   2.721   1.949   0.316
   27X2IT   C12  851   2.603   2.002   0.393
   27X2IT    C7  852   2.706   1.847   0.223
   27X2IT    C8  853   2.823   1.789   0.143
   27X2IT    O2  854   2.797   1.701   0.059
   27X2IT    N3  855   2.589   1.790   0.193
   27X2IT   H15  856   2.502   1.818   0.236
   27X2IT   H16  857   2.589   1.717   0.122
   27X2IT    N2  858   3.096   1.980   0.278
   27X2IT    C3  859   3.150   2.113   0.310
   27X2IT    C2  860   3.239   2.141   0.190
   27X2IT    H2  861   3.319   2.216   0.197
   27X2IT    N1  862   3.168   2.123   0.061
   27X2IT   H14  863   3.217   2.174  -0.012
   27X2IT    C1  864   3.257   2.016   0.111
   27X2IT    H1  865   3.349   1.992   0.059
   27X2IT   C11  866   3.183   1.905   0.184
   27X2IT    O3  867   3.285   1.834   0.251
   27X2IT   C15  868   3.245   1.747   0.358
   28X2IT   H18  869   4.163   4.259   1.488
   28X2IT    N4  870   4.131   4.166   1.507
   28X2IT   H17  871   4.143   4.097   1.434
   28X2IT   C14  872   4.136   4.125   1.637
   28X2IT    O5  873   4.148   4.199   1.734
   28X2IT    O4  874   4.120   3.990   1.645
   28X2IT   C13  875   4.116   3.933   1.778
   28X2IT   C10  876   3.975   3.944   1.839
   28X2IT    C9  877   3.966   3.880   1.976
   28X2IT    C4  878   3.869   3.781   1.975
   28X2IT    C5  879   3.834   3.697   2.095
   28X2IT    O1  880   3.743   3.613   2.086
   28X2IT    C6  881   3.910   3.721   2.215
   28X2IT   C12  882   3.881   3.639   2.339
   28X2IT    C7  883   4.007   3.820   2.215
   28X2IT    C8  884   4.041   3.906   2.093
   28X2IT    O2  885   4.132   3.989   2.104
   28X2IT    N3  886   4.081   3.851   2.323
   28X2IT   H15  887   4.074   3.803   2.411
   28X2IT   H16  888   4.151   3.925   2.311
   28X2IT    N2  889   3.803   3.775   1.856
   28X2IT    C3  890   3.747   3.656   1.791
   28X2IT    C2  891   3.823   3.653   1.659
   28X2IT    H2  892   3.783   3.597   1.574
   28X2IT    N1  893   3.970   3.660   1.678
   28X2IT   H14  894   4.017   3.623   1.595
   28X2IT    C1  895   3.895   3.781   1.641
   28X2IT    H1  896   3.910   3.828   1.544
   28X2IT   C11  897   3.861   3.871   1.759
   28X2IT    O3  898   3.764   3.960   1.708
   28X2IT   C15  899   3.684   4.031   1.804
   29X2IT   H18  900   0.951   2.980   1.696
   29X2IT    N4  901   0.980   2.886   1.714
   29X2IT   H17  902   1.065   2.854   1.669
   29X2IT   C14  903   0.947   2.834   1.837
   29X2IT    O5  904   0.864   2.881   1.912
   29X2IT    O4  905   1.018   2.720   1.860
   29X2IT   C13  906   0.989   2.651   1.983
   29X2IT   C10  907   0.866   2.560   1.968
   29X2IT    C9  908   0.836   2.480   2.093
   29X2IT    C4  909   0.837   2.345   2.064
   29X2IT    C5  910   0.812   2.237   2.166
   29X2IT    O1  911   0.811   2.118   2.131
   29X2IT    C6  912   0.788   2.281   2.302
   29X2IT   C12  913   0.762   2.178   2.410
   29X2IT    C7  914   0.786   2.417   2.330
   29X2IT    C8  915   0.811   2.525   2.225
   29X2IT    O2  916   0.811   2.643   2.262
   29X2IT    N3  917   0.763   2.467   2.452
   29X2IT   H15  918   0.747   2.410   2.533
   29X2IT   H16  919   0.765   2.569   2.462
   29X2IT    N2  920   0.856   2.320   1.932
   29X2IT    C3  921   0.926   2.207   1.870
   29X2IT    C2  922   1.037   2.276   1.793
   29X2IT    H2  923   1.086   2.224   1.710
   29X2IT    N1  924   1.115   2.369   1.877
   29X2IT   H14  925   1.206   2.386   1.834
   29X2IT    C1  926   1.010   2.422   1.788
   29X2IT    H1  927   1.036   2.484   1.703
   29X2IT   C11  928   0.878   2.448   1.858
   29X2IT    O3  929   0.785   2.464   1.752
   29X2IT   C15  930   0.646   2.451   1.784
   30X2IT   H18  931   1.807   2.595   0.420
   30X2IT    N4  932   1.784   2.679   0.370
   30X2IT   H17  933   1.847   2.709   0.298
   30X2IT   C14  934   1.650   2.707   0.358
   30X2IT    O5  935   1.561   2.656   0.423
   30X2IT    O4  936   1.632   2.804   0.264
   30X2IT   C13  937   1.496   2.849   0.245
   30X2IT   C10  938   1.457   2.955   0.349
   30X2IT    C9  939   1.317   3.010   0.328
   30X2IT    C4  940   1.322   3.147   0.312
   30X2IT    C5  941   1.201   3.233   0.288
   30X2IT    O1  942   1.214   3.356   0.278
   30X2IT    C6  943   1.074   3.164   0.279
   30X2IT   C12  944   0.948   3.245   0.255
   30X2IT    C7  945   1.070   3.027   0.297
   30X2IT    C8  946   1.194   2.941   0.322
   30X2IT    O2  947   1.178   2.819   0.332
   30X2IT    N3  948   0.956   2.955   0.293
   30X2IT   H15  949   0.866   2.996   0.275
   30X2IT   H16  950   0.965   2.854   0.306
   30X2IT    N2  951   1.448   3.196   0.327
   30X2IT    C3  952   1.509   3.311   0.258
   30X2IT    C2  953   1.628   3.247   0.188
   30X2IT    H2  954   1.711   3.309   0.156
   30X2IT    N1  955   1.588   3.130   0.107
   30X2IT   H14  956   1.659   3.112   0.036
   30X2IT    C1  957   1.648   3.110   0.240
   30X2IT    H1  958   1.746   3.064   0.251
   30X2IT   C11  959   1.545   3.086   0.349
   30X2IT    O3  960   1.618   3.103   0.470
   30X2IT   C15  961   1.542   3.125   0.589
   31X2IT   H18  962   2.574   0.243   4.647
   31X2IT    N4  963   2.524   0.330   4.643
   31X2IT   H17  964   2.423   0.324   4.640
   31X2IT   C14  965   2.583   0.437   4.704
   31X2IT    O5  966   2.700   0.443   4.738
   31X2IT    O4  967   2.492   0.538   4.719
   31X2IT   C13  968   2.542   0.660   4.777
   31X2IT   C10  969   2.610   0.749   4.670
   31X2IT    C9  970   2.657   0.881   4.725
   31X2IT    C4  971   2.598   0.986   4.656
   31X2IT    C5  972   2.624   1.131   4.686
   31X2IT    O1  973   2.569   1.218   4.616
   31X2IT    C6  974   2.712   1.160   4.796
   31X2IT   C12  975   2.742   1.304   4.831
   31X2IT    C7  976   2.772   1.055   4.864
   31X2IT    C8  977   2.746   0.908   4.832
   31X2IT    O2  978   2.802   0.823   4.903
   31X2IT    N3  979   2.857   1.072   4.966
   31X2IT   H15  980   2.884   1.163   5.002
   31X2IT   H16  981   2.894   0.988   5.011
   31X2IT    N2  982   2.522   0.942   4.553
   31X2IT    C3  983   2.398   1.002   4.500
   31X2IT    C2  984   2.297   0.890   4.520
   31X2IT    H2  985   2.204   0.890   4.462
   31X2IT    N1  986   2.296   0.839   4.659
   31X2IT   H14  987   2.207   0.792   4.677
   31X2IT    C1  988   2.368   0.764   4.554
   31X2IT    H1  989   2.334   0.667   4.522
   31X2IT   C11  990   2.517   0.793   4.550
   31X2IT    O3  991   2.560   0.741   4.426
   31X2IT   C15  992   2.687   0.785   4.376
   32X2IT   H18  993   3.722   0.635   3.084
   32X2IT    N4  994   3.744   0.725   3.045
   32X2IT   H17  995   3.675   0.767   2.985
   32X2IT   C14  996   3.825   0.805   3.121
   32X2IT    O5  997   3.893   0.768   3.214
   32X2IT    O4  998   3.821   0.933   3.072
   32X2IT   C13  999   3.908   1.028   3.138
   32X2IT   C10 1000   4.051   1.021   3.083
   32X2IT    C9 1001   4.143   1.124   3.144
   32X2IT    C4 1002   4.197   1.205   3.046
   32X2IT    C5 1003   4.292   1.318   3.073
   32X2IT    O1 1004   4.338   1.383   2.978
   32X2IT    C6 1005   4.324   1.344   3.211
   32X2IT   C12 1006   4.419   1.457   3.245
   32X2IT    C7 1007   4.271   1.262   3.310
   32X2IT    C8 1008   4.175   1.147   3.281
   32X2IT    O2 1009   4.130   1.083   3.377
   32X2IT    N3 1010   4.297   1.277   3.440
   32X2IT   H15 1011   4.356   1.349   3.477
   32X2IT   H16 1012   4.251   1.212   3.505
   32X2IT    N2 1013   4.160   1.165   2.921
   32X2IT    C3 1014   4.137   1.249   2.803
   32X2IT    C2 1015   3.992   1.218   2.770
   32X2IT    H2 1016   3.954   1.238   2.669
   32X2IT    N1 1017   3.903   1.236   2.887
   32X2IT   H14 1018   3.806   1.249   2.854
   32X2IT    C1 1019   3.947   1.100   2.848
   32X2IT    H1 1020   3.876   1.028   2.810
   32X2IT   C11 1021   4.066   1.050   2.929
   32X2IT    O3 1022   4.112   0.938   2.856
   32X2IT   C15 1023   4.245   0.893   2.884
   33X2IT   H18 1024   2.955   3.020   3.001
   33X2IT    N4 1025   2.895   3.045   3.077
   33X2IT   H17 1026   2.895   2.986   3.159
   33X2IT   C14 1027   2.870   3.179   3.093
   33X2IT    O5 1028   2.891   3.265   3.009
   33X2IT    O4 1029   2.813   3.202   3.215
   33X2IT   C13 1030   2.776   3.338   3.243
   33X2IT   C10 1031   2.638   3.372   3.184
   33X2IT    C9 1032   2.591   3.512   3.217
   33X2IT    C4 1033   2.470   3.507   3.283
   33X2IT    C5 1034   2.396   3.629   3.331
   33X2IT    O1 1035   2.286   3.616   3.387
   33X2IT    C6 1036   2.460   3.756   3.308
   33X2IT   C12 1037   2.391   3.883   3.354
   33X2IT    C7 1038   2.581   3.761   3.241
   33X2IT    C8 1039   2.654   3.636   3.192
   33X2IT    O2 1040   2.764   3.651   3.136
   33X2IT    N3 1041   2.647   3.874   3.213
   33X2IT   H15 1042   2.613   3.965   3.240
   33X2IT   H16 1043   2.736   3.865   3.164
   33X2IT    N2 1044   2.422   3.381   3.293
   33X2IT    C3 1045   2.342   3.323   3.402
   33X2IT    C2 1046   2.430   3.208   3.449
   33X2IT    H2 1047   2.386   3.126   3.506
   33X2IT    N1 1048   2.568   3.252   3.479
   33X2IT   H14 1049   2.613   3.185   3.542
   33X2IT    C1 1050   2.539   3.186   3.351
   33X2IT    H1 1051   2.579   3.088   3.329
   33X2IT   C11 1052   2.518   3.283   3.236
   33X2IT    O3 1053   2.460   3.204   3.134
   33X2IT   C15 1054   2.393   3.273   3.027
   34X2IT   H18 1055   1.736   3.607   0.959
   34X2IT    N4 1056   1.768   3.626   0.866
   34X2IT   H17 1057   1.842   3.568   0.830
   34X2IT   C14 1058   1.674   3.676   0.779
   34X2IT    O5 1059   1.567   3.724   0.811
   34X2IT    O4 1060   1.721   3.667   0.651
   34X2IT   C13 1061   1.635   3.722   0.549
   34X2IT   C10 1062   1.655   3.874   0.535
   34X2IT    C9 1063   1.572   3.935   0.424
   34X2IT    C4 1064   1.654   4.000   0.334
   34X2IT    C5 1065   1.604   4.070   0.211
   34X2IT    O1 1066   1.684   4.129   0.137
   34X2IT    C6 1067   1.462   4.066   0.188
   34X2IT   C12 1068   1.404   4.134   0.065
   34X2IT    C7 1069   1.380   4.002   0.279
   34X2IT    C8 1070   1.432   3.931   0.404
   34X2IT    O2 1071   1.350   3.873   0.477
   34X2IT    N3 1072   1.246   3.994   0.267
   34X2IT   H15 1073   1.196   4.033   0.189
   34X2IT   H16 1074   1.195   3.943   0.339
   34X2IT    N2 1075   1.784   3.999   0.373
   34X2IT    C3 1076   1.904   3.993   0.288
   34X2IT    C2 1077   1.971   3.865   0.334
   34X2IT    H2 1078   2.077   3.849   0.315
   34X2IT    N1 1079   1.878   3.750   0.333
   34X2IT   H14 1080   1.932   3.663   0.331
   34X2IT    C1 1081   1.907   3.819   0.460
   34X2IT    H1 1082   1.961   3.769   0.539
   34X2IT   C11 1083   1.801   3.921   0.499
   34X2IT    O3 1084   1.862   3.997   0.601
   34X2IT   C15 1085   1.803   4.125   0.631
   35X2IT   H18 1086   0.304   0.988   3.627
   35X2IT    N4 1087   0.364   0.937   3.566
   35X2IT   H17 1088   0.449   0.899   3.606
   35X2IT   C14 1089   0.304   0.870   3.462
   35X2IT    O5 1090   0.191   0.890   3.422
   35X2IT    O4 1091   0.392   0.781   3.407
   35X2IT   C13 1092   0.344   0.708   3.292
   35X2IT   C10 1093   0.361   0.790   3.163
   35X2IT    C9 1094   0.318   0.715   3.039
   35X2IT    C4 1095   0.423   0.707   2.949
   35X2IT    C5 1096   0.415   0.637   2.817
   35X2IT    O1 1097   0.514   0.638   2.741
   35X2IT    C6 1098   0.290   0.574   2.785
   35X2IT   C12 1099   0.275   0.501   2.652
   35X2IT    C7 1100   0.185   0.582   2.874
   35X2IT    C8 1101   0.194   0.654   3.008
   35X2IT    O2 1102   0.094   0.652   3.082
   35X2IT    N3 1103   0.064   0.528   2.852
   35X2IT   H15 1104   0.041   0.476   2.769
   35X2IT   H16 1105  -0.007   0.539   2.925
   35X2IT    N2 1106   0.532   0.776   2.992
   35X2IT    C3 1107   0.674   0.744   2.970
   35X2IT    C2 1108   0.727   0.727   3.112
   35X2IT    H2 1109   0.833   0.736   3.131
   35X2IT    N1 1110   0.645   0.633   3.191
   35X2IT   H14 1111   0.700   0.598   3.270
   35X2IT    C1 1112   0.625   0.778   3.208
   35X2IT    H1 1113   0.651   0.827   3.301
   35X2IT   C11 1114   0.508   0.833   3.128
   35X2IT    O3 1115   0.527   0.973   3.130
   35X2IT   C15 1116   0.456   1.050   3.033
   36X2IT   H18 1117   3.474   5.154   3.309
   36X2IT    N4 1118   3.563   5.180   3.269
   36X2IT   H17 1119   3.613   5.256   3.313
   36X2IT   C14 1120   3.634   5.080   3.209
   36X2IT    O5 1121   3.588   4.972   3.176
   36X2IT    O4 1122   3.763   5.120   3.188
   36X2IT   C13 1123   3.848   5.026   3.119
   36X2IT   C10 1124   3.830   5.035   2.967
   36X2IT    C9 1125   3.922   4.943   2.890
   36X2IT    C4 1126   4.000   5.016   2.803
   36X2IT    C5 1127   4.104   4.956   2.712
   36X2IT    O1 1128   4.167   5.029   2.634
   36X2IT    C6 1129   4.123   4.813   2.722
   36X2IT   C12 1130   4.226   4.746   2.634
   36X2IT    C7 1131   4.044   4.740   2.809
   36X2IT    C8 1132   3.938   4.803   2.900
   36X2IT    O2 1133   3.876   4.728   2.978
   36X2IT    N3 1134   4.053   4.607   2.824
   36X2IT   H15 1135   4.118   4.550   2.773
   36X2IT   H16 1136   3.990   4.563   2.892
   36X2IT    N2 1137   3.967   5.148   2.802
   36X2IT    C3 1138   4.056   5.264   2.781
   36X2IT    C2 1139   4.039   5.341   2.912
   36X2IT    H2 1140   4.065   5.447   2.915
   36X2IT    N1 1141   4.062   5.256   3.031
   36X2IT   H14 1142   4.084   5.315   3.111
   36X2IT    C1 1143   3.924   5.286   2.987
   36X2IT    H1 1144   3.859   5.348   3.048
   36X2IT   C11 1145   3.861   5.176   2.903
   36X2IT    O3 1146   3.747   5.237   2.845
   36X2IT   C15 1147   3.689   5.172   2.731
   37X2IT   H18 1148   5.018   4.265   0.348
   37X2IT    N4 1149   5.015   4.178   0.298
   37X2IT   H17 1150   5.104   4.133   0.279
   37X2IT   C14 1151   4.904   4.101   0.317
   37X2IT    O5 1152   4.799   4.139   0.365
   37X2IT    O4 1153   4.927   3.975   0.270
   37X2IT   C13 1154   4.815   3.883   0.277
   37X2IT   C10 1155   4.720   3.901   0.158
   37X2IT    C9 1156   4.606   3.802   0.158
   37X2IT    C4 1157   4.606   3.728   0.041
   37X2IT    C5 1158   4.507   3.620   0.010
   37X2IT    O1 1159   4.513   3.562  -0.099
   37X2IT    C6 1160   4.407   3.593   0.111
   37X2IT   C12 1161   4.304   3.485   0.085
   37X2IT    C7 1162   4.406   3.668   0.227
   37X2IT    C8 1163   4.508   3.778   0.257
   37X2IT    O2 1164   4.500   3.836   0.367
   37X2IT    N3 1165   4.317   3.651   0.326
   37X2IT   H15 1166   4.244   3.582   0.323
   37X2IT   H16 1167   4.326   3.711   0.408
   37X2IT    N2 1168   4.703   3.769  -0.045
   37X2IT    C3 1169   4.780   3.688  -0.140
   37X2IT    C2 1170   4.923   3.710  -0.093
   37X2IT    H2 1171   5.006   3.691  -0.161
   37X2IT    N1 1172   4.939   3.684   0.052
   37X2IT   H14 1173   5.038   3.665   0.072
   37X2IT    C1 1174   4.926   3.823   0.004
   37X2IT    H1 1175   5.009   3.892   0.011
   37X2IT   C11 1176   4.785   3.878   0.016
   37X2IT    O3 1177   4.786   3.995  -0.064
   37X2IT   C15 1178   4.660   4.048  -0.104
   38X2IT   H18 1179   2.151   1.520   5.349
   38X2IT    N4 1180   2.213   1.581   5.299
   38X2IT   H17 1181   2.310   1.581   5.328
   38X2IT   C14 1182   2.183   1.605   5.168
   38X2IT    O5 1183   2.075   1.583   5.116
   38X2IT    O4 1184   2.290   1.662   5.105
   38X2IT   C13 1185   2.270   1.700   4.968
   38X2IT   C10 1186   2.201   1.837   4.956
   38X2IT    C9 1187   2.185   1.884   4.813
   38X2IT    C4 1188   2.248   2.005   4.795
   38X2IT    C5 1189   2.251   2.079   4.664
   38X2IT    O1 1190   2.307   2.190   4.658
   38X2IT    C6 1191   2.187   2.015   4.552
   38X2IT   C12 1192   2.187   2.084   4.417
   38X2IT    C7 1193   2.123   1.894   4.571
   38X2IT    C8 1194   2.119   1.820   4.705
   38X2IT    O2 1195   2.063   1.710   4.709
   38X2IT    N3 1196   2.059   1.828   4.473
   38X2IT   H15 1197   2.053   1.861   4.379
   38X2IT   H16 1198   2.016   1.738   4.498
   38X2IT    N2 1199   2.299   2.054   4.911
   38X2IT    C3 1200   2.421   2.135   4.929
   38X2IT    C2 1201   2.505   2.047   5.020
   38X2IT    H2 1202   2.586   2.092   5.079
   38X2IT    N1 1203   2.519   1.909   4.968
   38X2IT   H14 1204   2.601   1.865   5.011
   38X2IT    C1 1205   2.421   1.938   5.075
   38X2IT    H1 1206   2.434   1.897   5.174
   38X2IT   C11 1207   2.279   1.957   5.022
   38X2IT    O3 1208   2.210   2.015   5.131
   38X2IT   C15 1209   2.086   2.081   5.102
   39X2IT   H18 1210   0.870   1.406   1.505
   39X2IT    N4 1211   0.880   1.324   1.562
   39X2IT   H17 1212   0.933   1.247   1.523
   39X2IT   C14 1213   0.881   1.343   1.697
   39X2IT    O5 1214   0.843   1.444   1.754
   39X2IT    O4 1215   0.925   1.230   1.760
   39X2IT   C13 1216   0.924   1.233   1.904
   39X2IT   C10 1217   0.785   1.199   1.961
   39X2IT    C9 1218   0.783   1.194   2.112
   39X2IT    C4 1219   0.740   1.070   2.155
   39X2IT    C5 1220   0.727   1.031   2.299
   39X2IT    O1 1221   0.684   0.918   2.329
   39X2IT    C6 1222   0.764   1.131   2.396
   39X2IT   C12 1223   0.753   1.099   2.544
   39X2IT    C7 1224   0.806   1.256   2.353
   39X2IT    C8 1225   0.818   1.294   2.206
   39X2IT    O2 1226   0.861   1.407   2.178
   39X2IT    N3 1227   0.841   1.355   2.436
   39X2IT   H15 1228   0.840   1.347   2.536
   39X2IT   H16 1229   0.872   1.443   2.393
   39X2IT    N2 1230   0.704   0.989   2.051
   39X2IT    C3 1231   0.717   0.843   2.042
   39X2IT    C2 1232   0.808   0.827   1.920
   39X2IT    H2 1233   0.810   0.732   1.867
   39X2IT    N1 1234   0.931   0.908   1.930
   39X2IT   H14 1235   1.002   0.870   1.868
   39X2IT    C1 1236   0.818   0.956   1.849
   39X2IT    H1 1237   0.827   0.964   1.741
   39X2IT   C11 1238   0.730   1.057   1.921
   39X2IT    O3 1239   0.613   1.064   1.841
   39X2IT   C15 1240   0.495   1.120   1.902
   40X2IT   H18 1241   0.496   5.001   4.667
   40X2IT    N4 1242   0.591   4.971   4.660
   40X2IT   H17 1243   0.628   4.914   4.735
   40X2IT   C14 1244   0.639   4.952   4.533
   40X2IT    O5 1245   0.586   4.994   4.431
   40X2IT    O4 1246   0.756   4.882   4.537
   40X2IT   C13 1247   0.821   4.860   4.410
   40X2IT   C10 1248   0.906   4.981   4.369
   40X2IT    C9 1249   0.982   4.959   4.240
   40X2IT    C4 1250   1.117   4.976   4.261
   40X2IT    C5 1251   1.221   4.960   4.153
   40X2IT    O1 1252   1.340   4.981   4.180
   40X2IT    C6 1253   1.173   4.923   4.022
   40X2IT   C12 1254   1.273   4.905   3.909
   40X2IT    C7 1255   1.038   4.907   4.001
   40X2IT    C8 1256   0.933   4.924   4.111
   40X2IT    O2 1257   0.814   4.904   4.082
   40X2IT    N3 1258   0.984   4.875   3.883
   40X2IT   H15 1259   1.038   4.858   3.800
   40X2IT   H16 1260   0.882   4.864   3.879
   40X2IT    N2 1261   1.145   5.015   4.387
   40X2IT    C3 1262   1.263   4.982   4.469
   40X2IT    C2 1263   1.201   4.911   4.588
   40X2IT    H2 1264   1.257   4.904   4.682
   40X2IT    N1 1265   1.111   4.801   4.548
   40X2IT   H14 1266   1.100   4.736   4.626
   40X2IT    C1 1267   1.054   4.932   4.587
   40X2IT    H1 1268   0.995   4.942   4.678
   40X2IT   C11 1269   1.020   5.021   4.469
   40X2IT    O3 1270   1.001   5.149   4.527
   40X2IT   C15 1271   1.006   5.262   4.439
   41X2IT   H18 1272   4.700   3.891   2.871
   41X2IT    N4 1273   4.679   3.906   2.774
   41X2IT   H17 1274   4.681   3.826   2.713
   41X2IT   C14 1275   4.592   4.008   2.746
   41X2IT    O5 1276   4.561   4.097   2.824
   41X2IT    O4 1277   4.548   3.998   2.618
   41X2IT   C13 1278   4.460   4.104   2.572
   41X2IT   C10 1279   4.539   4.227   2.526
   41X2IT    C9 1280   4.451   4.337   2.471
   41X2IT    C4 1281   4.488   4.367   2.341
   41X2IT    C5 1282   4.420   4.471   2.257
   41X2IT    O1 1283   4.461   4.493   2.142
   41X2IT    C6 1284   4.309   4.540   2.317
   41X2IT   C12 1285   4.235   4.646   2.238
   41X2IT    C7 1286   4.273   4.511   2.448
   41X2IT    C8 1287   4.344   4.405   2.533
   41X2IT    O2 1288   4.301   4.384   2.647
   41X2IT    N3 1289   4.173   4.571   2.513
   41X2IT   H15 1290   4.114   4.642   2.471
   41X2IT   H16 1291   4.154   4.541   2.609
   41X2IT    N2 1292   4.597   4.296   2.301
   41X2IT    C3 1293   4.627   4.246   2.166
   41X2IT    C2 1294   4.636   4.096   2.188
   41X2IT    H2 1295   4.690   4.034   2.116
   41X2IT    N1 1296   4.517   4.042   2.257
   41X2IT   H14 1297   4.510   3.942   2.240
   41X2IT    C1 1298   4.641   4.068   2.334
   41X2IT    H1 1299   4.697   3.986   2.377
   41X2IT   C11 1300   4.640   4.201   2.407
   41X2IT    O3 1301   4.775   4.221   2.444
   41X2IT   C15 1302   4.814   4.354   2.480
   42X2IT   H18 1303   0.122   2.090   3.830
   42X2IT    N4 1304   0.210   2.067   3.787
   42X2IT   H17 1305   0.289   2.127   3.809
   42X2IT   C14 1306   0.233   1.935   3.759
   42X2IT    O5 1307   0.147   1.849   3.755
   42X2IT    O4 1308   0.365   1.915   3.731
   42X2IT   C13 1309   0.402   1.781   3.693
   42X2IT   C10 1310   0.376   1.756   3.543
   42X2IT    C9 1311   0.421   1.619   3.498
   42X2IT    C4 1312   0.513   1.630   3.396
   42X2IT    C5 1313   0.578   1.513   3.328
   42X2IT    O1 1314   0.657   1.532   3.235
   42X2IT    C6 1315   0.542   1.382   3.378
   42X2IT   C12 1316   0.604   1.259   3.314
   42X2IT    C7 1317   0.449   1.371   3.479
   42X2IT    C8 1318   0.383   1.491   3.546
   42X2IT    O2 1319   0.304   1.470   3.640
   42X2IT    N3 1320   0.408   1.254   3.530
   42X2IT   H15 1321   0.442   1.165   3.499
   42X2IT   H16 1322   0.339   1.257   3.606
   42X2IT    N2 1323   0.532   1.759   3.358
   42X2IT    C3 1324   0.656   1.821   3.309
   42X2IT    C2 1325   0.681   1.930   3.412
   42X2IT    H2 1326   0.745   2.015   3.387
   42X2IT    N1 1327   0.679   1.878   3.551
   42X2IT   H14 1328   0.729   1.943   3.612
   42X2IT    C1 1329   0.560   1.947   3.496
   42X2IT    H1 1330   0.528   2.042   3.536
   42X2IT   C11 1331   0.454   1.851   3.445
   42X2IT    O3 1332   0.367   1.934   3.369
   42X2IT   C15 1333   0.280   1.869   3.276
   43X2IT   H18 1334   2.704   3.466   2.487
   43X2IT    N4 1335   2.779   3.442   2.425
   43X2IT   H17 1336   2.871   3.432   2.466
   43X2IT   C14 1337   2.746   3.368   2.315
   43X2IT    O5 1338   2.633   3.352   2.273
   43X2IT    O4 1339   2.859   3.317   2.257
   43X2IT   C13 1340   2.839   3.242   2.136
   43X2IT   C10 1341   2.829   3.335   2.013
   43X2IT    C9 1342   2.816   3.259   1.883
   43X2IT    C4 1343   2.919   3.293   1.797
   43X2IT    C5 1344   2.936   3.236   1.660
   43X2IT    O1 1345   3.029   3.275   1.588
   43X2IT    C6 1346   2.839   3.137   1.619
   43X2IT   C12 1347   2.851   3.074   1.481
   43X2IT    C7 1348   2.736   3.103   1.704
   43X2IT    C8 1349   2.719   3.163   1.844
   43X2IT    O2 1350   2.625   3.123   1.914
   43X2IT    N3 1351   2.640   3.014   1.674
   43X2IT   H15 1352   2.637   2.964   1.587
   43X2IT   H16 1353   2.569   2.996   1.746
   43X2IT    N2 1354   2.998   3.390   1.849
   43X2IT    C3 1355   3.143   3.409   1.830
   43X2IT    C2 1356   3.196   3.400   1.972
   43X2IT    H2 1357   3.294   3.442   1.996
   43X2IT    N1 1358   3.149   3.278   2.042
   43X2IT   H14 1359   3.212   3.257   2.120
   43X2IT    C1 1360   3.082   3.407   2.068
   43X2IT    H1 1361   3.090   3.454   2.165
   43X2IT   C11 1362   2.955   3.426   1.987
   43X2IT    O3 1363   2.926   3.564   2.000
   43X2IT   C15 1364   2.835   3.621   1.905
   44X2IT   H18 1365   3.867   1.676   0.164
   44X2IT    N4 1366   3.887   1.766   0.204
   44X2IT   H17 1367   3.843   1.846   0.160
   44X2IT   C14 1368   3.912   1.770   0.338
   44X2IT    O5 1369   3.940   1.674   0.407
   44X2IT    O4 1370   3.905   1.899   0.383
   44X2IT   C13 1371   3.936   1.919   0.522
   44X2IT   C10 1372   4.088   1.929   0.545
   44X2IT    C9 1373   4.125   1.957   0.689
   44X2IT    C4 1374   4.199   2.073   0.698
   44X2IT    C5 1375   4.251   2.130   0.827
   44X2IT    O1 1376   4.320   2.233   0.824
   44X2IT    C6 1377   4.216   2.059   0.947
   44X2IT   C12 1378   4.265   2.111   1.081
   44X2IT    C7 1379   4.143   1.942   0.939
   44X2IT    C8 1380   4.091   1.885   0.806
   44X2IT    O2 1381   4.023   1.781   0.811
   44X2IT    N3 1382   4.108   1.868   1.045
   44X2IT   H15 1383   4.132   1.892   1.139
   44X2IT   H16 1384   4.052   1.784   1.027
   44X2IT    N2 1385   4.226   2.125   0.576
   44X2IT    C3 1386   4.240   2.267   0.539
   44X2IT    C2 1387   4.131   2.284   0.434
   44X2IT    H2 1388   4.135   2.367   0.364
   44X2IT    N1 1389   3.999   2.236   0.482
   44X2IT   H14 1390   3.925   2.280   0.427
   44X2IT    C1 1391   4.080   2.151   0.394
   44X2IT    H1 1392   4.047   2.128   0.293
   44X2IT   C11 1393   4.161   2.046   0.468
   44X2IT    O3 1394   4.254   1.999   0.372
   44X2IT   C15 1395   4.368   1.928   0.422
   45X2IT   H18 1396   3.742   2.108   1.651
   45X2IT    N4 1397   3.727   2.196   1.699
   45X2IT   H17 1398   3.788   2.272   1.675
   45X2IT   C14 1399   3.599   2.223   1.738
   45X2IT    O5 1400   3.509   2.141   1.746
   45X2IT    O4 1401   3.587   2.354   1.772
   45X2IT   C13 1402   3.459   2.396   1.822
   45X2IT   C10 1403   3.444   2.365   1.973
   45X2IT    C9 1404   3.313   2.414   2.030
   45X2IT    C4 1405   3.336   2.502   2.135
   45X2IT    C5 1406   3.228   2.569   2.213
   45X2IT    O1 1407   3.258   2.644   2.308
   45X2IT    C6 1408   3.092   2.541   2.173
   45X2IT   C12 1409   2.978   2.606   2.249
   45X2IT    C7 1410   3.069   2.452   2.070
   45X2IT    C8 1411   3.180   2.384   1.991
   45X2IT    O2 1412   3.148   2.309   1.897
   45X2IT    N3 1413   2.946   2.418   2.027
   45X2IT   H15 1414   2.862   2.456   2.067
   45X2IT   H16 1415   2.941   2.353   1.948
   45X2IT    N2 1416   3.469   2.514   2.162
   45X2IT    C3 1417   3.540   2.633   2.211
   45X2IT    C2 1418   3.642   2.657   2.100
   45X2IT    H2 1419   3.731   2.716   2.121
   45X2IT    N1 1420   3.579   2.662   1.966
   45X2IT   H14 1421   3.641   2.712   1.902
   45X2IT    C1 1422   3.646   2.538   2.011
   45X2IT    H1 1423   3.737   2.504   1.962
   45X2IT   C11 1424   3.550   2.434   2.066
   45X2IT    O3 1425   3.634   2.342   2.132
   45X2IT   C15 1426   3.573   2.253   2.227
   46X2IT   H18 1427   3.480  -0.230   1.362
   46X2IT    N4 1428   3.407  -0.169   1.330
   46X2IT   H17 1429   3.350  -0.125   1.401
   46X2IT   C14 1430   3.429  -0.103   1.213
   46X2IT    O5 1431   3.515  -0.132   1.131
   46X2IT    O4 1432   3.338  -0.003   1.198
   46X2IT   C13 1433   3.345   0.072   1.075
   46X2IT   C10 1434   3.270  -0.000   0.961
   46X2IT    C9 1435   3.269   0.078   0.832
   46X2IT    C4 1436   3.139   0.102   0.791
   46X2IT    C5 1437   3.103   0.178   0.667
   46X2IT    O1 1438   2.983   0.191   0.636
   46X2IT    C6 1439   3.212   0.231   0.589
   46X2IT   C12 1440   3.182   0.309   0.463
   46X2IT    C7 1441   3.342   0.206   0.629
   46X2IT    C8 1442   3.378   0.128   0.756
   46X2IT    O2 1443   3.498   0.115   0.784
   46X2IT    N3 1444   3.450   0.249   0.562
   46X2IT   H15 1445   3.445   0.304   0.478
   46X2IT   H16 1446   3.542   0.226   0.602
   46X2IT    N2 1447   3.048   0.042   0.873
   46X2IT    C3 1448   2.914   0.089   0.908
   46X2IT    C2 1449   2.923   0.102   1.060
   46X2IT    H2 1450   2.832   0.103   1.120
   46X2IT    N1 1451   3.040   0.183   1.102
   46X2IT   H14 1452   3.024   0.219   1.197
   46X2IT    C1 1453   3.047   0.036   1.107
   46X2IT    H1 1454   3.054  -0.015   1.202
   46X2IT   C11 1455   3.117  -0.025   0.987
   46X2IT    O3 1456   3.084  -0.163   0.994
   46X2IT   C15 1457   3.102  -0.241   0.875
   47X2IT   H18 1458   0.456   2.198  -0.241
   47X2IT    N4 1459   0.507   2.266  -0.187
   47X2IT   H17 1460   0.463   2.356  -0.174
   47X2IT   C14 1461   0.590   2.217  -0.090
   47X2IT    O5 1462   0.628   2.101  -0.082
   47X2IT    O4 1463   0.627   2.318  -0.006
   47X2IT   C13 1464   0.721   2.282   0.098
   47X2IT   C10 1465   0.866   2.284   0.046
   47X2IT    C9 1466   0.968   2.254   0.154
   47X2IT    C4 1467   1.057   2.358   0.165
   47X2IT    C5 1468   1.171   2.361   0.263
   47X2IT    O1 1469   1.249   2.458   0.264
   47X2IT    C6 1470   1.182   2.248   0.352
   47X2IT   C12 1471   1.295   2.244   0.454
   47X2IT    C7 1472   1.093   2.143   0.340
   47X2IT    C8 1473   0.978   2.141   0.239
   47X2IT    O2 1474   0.902   2.043   0.240
   47X2IT    N3 1475   1.097   2.033   0.416
   47X2IT   H15 1476   1.165   2.018   0.489
   47X2IT   H16 1477   1.025   1.962   0.400
   47X2IT    N2 1478   1.036   2.455   0.072
   47X2IT    C3 1479   1.057   2.600   0.085
   47X2IT    C2 1480   0.917   2.655   0.060
   47X2IT    H2 1481   0.904   2.759   0.030
   47X2IT    N1 1482   0.815   2.590   0.146
   47X2IT   H14 1483   0.733   2.651   0.152
   47X2IT    C1 1484   0.830   2.547   0.005
   47X2IT    H1 1485   0.752   2.565  -0.067
   47X2IT   C11 1486   0.916   2.422  -0.010
   47X2IT    O3 1487   0.946   2.418  -0.149
   47X2IT   C15 1488   1.055   2.335  -0.189
   48X2IT   H18 1489   1.061   4.293   4.606
   48X2IT    N4 1490   1.058   4.232   4.526
   48X2IT   H17 1491   1.022   4.139   4.540
   48X2IT   C14 1492   1.041   4.293   4.405
   48X2IT    O5 1493   1.056   4.412   4.383
   48X2IT    O4 1494   1.007   4.200   4.310
   48X2IT   C13 1495   0.992   4.249   4.175
   48X2IT   C10 1496   1.128   4.259   4.104
   48X2IT    C9 1497   1.116   4.303   3.960
   48X2IT    C4 1498   1.171   4.208   3.876
   48X2IT    C5 1499   1.175   4.220   3.726
   48X2IT    O1 1500   1.231   4.132   3.659
   48X2IT    C6 1501   1.114   4.338   3.670
   48X2IT   C12 1502   1.114   4.357   3.519
   48X2IT    C7 1503   1.059   4.433   3.754
   48X2IT    C8 1504   1.056   4.420   3.906
   48X2IT    O2 1505   1.001   4.509   3.971
   48X2IT    N3 1506   1.001   4.546   3.711
   48X2IT   H15 1507   0.992   4.570   3.613
   48X2IT   H16 1508   0.962   4.609   3.782
   48X2IT    N2 1509   1.229   4.106   3.945
   48X2IT    C3 1510   1.239   3.965   3.906
   48X2IT    C2 1511   1.165   3.895   4.020
   48X2IT    H2 1512   1.182   3.789   4.039
   48X2IT    N1 1513   1.031   3.953   4.044
   48X2IT   H14 1514   0.973   3.885   4.093
   48X2IT    C1 1515   1.143   3.992   4.131
   48X2IT    H1 1516   1.145   3.963   4.235
   48X2IT   C11 1517   1.208   4.124   4.091
   48X2IT    O3 1518   1.330   4.125   4.163
   48X2IT   C15 1519   1.431   4.216   4.118
   49X2IT   H18 1520   3.600   1.373   4.201
   49X2IT    N4 1521   3.664   1.403   4.130
   49X2IT   H17 1522   3.761   1.413   4.156
   49X2IT   C14 1523   3.633   1.369   4.001
   49X2IT    O5 1524   3.523   1.330   3.963
   49X2IT    O4 1525   3.741   1.390   3.920
   49X2IT   C13 1526   3.720   1.364   3.779
   49X2IT   C10 1527   3.656   1.485   3.709
   49X2IT    C9 1528   3.640   1.464   3.560
   49X2IT    C4 1529   3.707   1.563   3.490
   49X2IT    C5 1530   3.711   1.572   3.341
   49X2IT    O1 1531   3.771   1.667   3.287
   49X2IT    C6 1532   3.644   1.468   3.268
   49X2IT   C12 1533   3.645   1.471   3.116
   49X2IT    C7 1534   3.576   1.369   3.337
   49X2IT    C8 1535   3.571   1.362   3.490
   49X2IT    O2 1536   3.511   1.266   3.542
   49X2IT    N3 1537   3.509   1.269   3.278
   49X2IT   H15 1538   3.503   1.258   3.179
   49X2IT   H16 1539   3.463   1.201   3.340
   49X2IT    N2 1540   3.761   1.656   3.573
   49X2IT    C3 1541   3.885   1.733   3.555
   49X2IT    C2 1542   3.968   1.691   3.676
   49X2IT    H2 1543   4.050   1.754   3.709
   49X2IT    N1 1544   3.977   1.544   3.690
   49X2IT   H14 1545   4.058   1.520   3.748
   49X2IT    C1 1546   3.880   1.619   3.772
   49X2IT    H1 1547   3.893   1.626   3.880
   49X2IT   C11 1548   3.739   1.619   3.716
   49X2IT    O3 1549   3.673   1.721   3.788
   49X2IT   C15 1550   3.550   1.771   3.733
   50X2IT   H18 1551   4.100   4.157   3.071
   50X2IT    N4 1552   4.168   4.112   3.129
   50X2IT   H17 1553   4.251   4.075   3.084
   50X2IT   C14 1554   4.177   4.157   3.258
   50X2IT    O5 1555   4.093   4.225   3.314
   50X2IT    O4 1556   4.291   4.110   3.316
   50X2IT   C13 1557   4.311   4.144   3.455
   50X2IT   C10 1558   4.235   4.047   3.548
   50X2IT    C9 1559   4.259   4.075   3.694
   50X2IT    C4 1560   4.311   3.963   3.756
   50X2IT    C5 1561   4.347   3.958   3.902
   50X2IT    O1 1562   4.390   3.852   3.950
   50X2IT    C6 1563   4.328   4.078   3.978
   50X2IT   C12 1564   4.362   4.080   4.126
   50X2IT    C7 1565   4.274   4.190   3.916
   50X2IT    C8 1566   4.237   4.194   3.768
   50X2IT    O2 1567   4.194   4.301   3.722
   50X2IT    N3 1568   4.250   4.306   3.979
   50X2IT   H15 1569   4.271   4.321   4.076
   50X2IT   H16 1570   4.212   4.383   3.923
   50X2IT    N2 1571   4.319   3.857   3.672
   50X2IT    C3 1572   4.420   3.750   3.671
   50X2IT    C2 1573   4.481   3.764   3.532
   50X2IT    H2 1574   4.534   3.680   3.487
   50X2IT    N1 1575   4.525   3.903   3.504
   50X2IT   H14 1576   4.594   3.902   3.428
   50X2IT    C1 1577   4.396   3.855   3.450
   50X2IT    H1 1578   4.382   3.842   3.344
   50X2IT   C11 1579   4.276   3.895   3.535
   50X2IT    O3 1580   4.171   3.814   3.487
   50X2IT   C15 1581   4.056   3.800   3.572
   51X2IT   H18 1582   0.118   3.445   3.222
   51X2IT    N4 1583   0.194   3.385   3.247
   51X2IT   H17 1584   0.175   3.313   3.315
   51X2IT   C14 1585   0.288   3.363   3.151
   51X2IT    O5 1586   0.303   3.430   3.050
   51X2IT    O4 1587   0.367   3.258   3.186
   51X2IT   C13 1588   0.476   3.227   3.096
   51X2IT   C10 1589   0.599   3.316   3.124
   51X2IT    C9 1590   0.717   3.282   3.037
   51X2IT    C4 1591   0.827   3.249   3.115
   51X2IT    C5 1592   0.960   3.210   3.060
   51X2IT    O1 1593   1.054   3.185   3.138
   51X2IT    C6 1594   0.972   3.203   2.916
   51X2IT   C12 1595   1.104   3.164   2.854
   51X2IT    C7 1596   0.863   3.237   2.838
   51X2IT    C8 1597   0.727   3.278   2.895
   51X2IT    O2 1598   0.635   3.302   2.816
   51X2IT    N3 1599   0.864   3.236   2.704
   51X2IT   H15 1600   0.945   3.210   2.650
   51X2IT   H16 1601   0.777   3.262   2.656
   51X2IT    N2 1602   0.801   3.264   3.247
   51X2IT    C3 1603   0.854   3.186   3.360
   51X2IT    C2 1604   0.727   3.129   3.422
   51X2IT    H2 1605   0.729   3.093   3.525
   51X2IT    N1 1606   0.642   3.060   3.323
   51X2IT   H14 1607   0.579   2.996   3.371
   51X2IT    C1 1608   0.609   3.198   3.365
   51X2IT    H1 1609   0.519   3.218   3.423
   51X2IT   C11 1610   0.659   3.305   3.269
   51X2IT    O3 1611   0.649   3.425   3.343
   51X2IT   C15 1612   0.723   3.538   3.294
   52X2IT   H18 1613   3.161   0.585   1.458
   52X2IT    N4 1614   3.208   0.607   1.372
   52X2IT   H17 1615   3.308   0.616   1.375
   52X2IT   C14 1616   3.149   0.562   1.257
   52X2IT    O5 1617   3.034   0.524   1.247
   52X2IT    O4 1618   3.237   0.572   1.153
   52X2IT   C13 1619   3.187   0.534   1.023
   52X2IT   C10 1620   3.110   0.650   0.957
   52X2IT    C9 1621   3.061   0.616   0.817
   52X2IT    C4 1622   3.113   0.706   0.726
   52X2IT    C5 1623   3.085   0.701   0.579
   52X2IT    O1 1624   3.132   0.789   0.504
   52X2IT    C6 1625   3.001   0.593   0.532
   52X2IT   C12 1626   2.969   0.582   0.385
   52X2IT    C7 1627   2.949   0.504   0.624
   52X2IT    C8 1628   2.978   0.510   0.774
   52X2IT    O2 1629   2.929   0.422   0.847
   52X2IT    N3 1630   2.869   0.401   0.591
   52X2IT   H15 1631   2.842   0.381   0.496
   52X2IT   H16 1632   2.838   0.340   0.667
   52X2IT    N2 1633   3.185   0.804   0.786
   52X2IT    C3 1634   3.303   0.875   0.733
   52X2IT    C2 1635   3.410   0.841   0.838
   52X2IT    H2 1636   3.498   0.904   0.846
   52X2IT    N1 1637   3.420   0.696   0.863
   52X2IT   H14 1638   3.511   0.675   0.904
   52X2IT    C1 1639   3.344   0.782   0.957
   52X2IT    H1 1640   3.380   0.798   1.058
   52X2IT   C11 1641   3.194   0.781   0.933
   52X2IT    O3 1642   3.147   0.891   1.007
   52X2IT   C15 1643   3.016   0.940   0.975
   53X2IT   H18 1644   0.101   4.106   1.147
   53X2IT    N4 1645   0.115   4.025   1.089
   53X2IT   H17 1646   0.074   4.027   0.997
   53X2IT   C14 1647   0.230   3.954   1.109
   53X2IT    O5 1648   0.302   3.963   1.207
   53X2IT    O4 1649   0.249   3.867   1.006
   53X2IT   C13 1650   0.364   3.780   1.017
   53X2IT   C10 1651   0.333   3.656   1.103
   53X2IT    C9 1652   0.448   3.559   1.112
   53X2IT    C4 1653   0.410   3.435   1.065
   53X2IT    C5 1654   0.501   3.315   1.059
   53X2IT    O1 1655   0.457   3.207   1.020
   53X2IT    C6 1656   0.637   3.336   1.102
   53X2IT   C12 1657   0.735   3.220   1.098
   53X2IT    C7 1658   0.675   3.460   1.150
   53X2IT    C8 1659   0.581   3.581   1.156
   53X2IT    O2 1660   0.628   3.689   1.196
   53X2IT    N3 1661   0.799   3.489   1.193
   53X2IT   H15 1662   0.874   3.422   1.194
   53X2IT   H16 1663   0.817   3.585   1.225
   53X2IT    N2 1664   0.278   3.431   1.033
   53X2IT    C3 1665   0.213   3.352   0.927
   53X2IT    C2 1666   0.150   3.461   0.841
   53X2IT    H2 1667   0.068   3.435   0.774
   53X2IT    N1 1668   0.247   3.565   0.802
   53X2IT   H14 1669   0.212   3.614   0.719
   53X2IT    C1 1670   0.154   3.590   0.914
   53X2IT    H1 1671   0.076   3.665   0.905
   53X2IT   C11 1672   0.216   3.565   1.050
   53X2IT    O3 1673   0.105   3.561   1.138
   53X2IT   C15 1674   0.125   3.502   1.267
   54X2IT   H18 1675   1.331   4.564   0.498
   54X2IT    N4 1676   1.376   4.570   0.587
   54X2IT   H17 1677   1.451   4.637   0.597
   54X2IT   C14 1678   1.299   4.540   0.696
   54X2IT    O5 1679   1.192   4.482   0.692
   54X2IT    O4 1680   1.362   4.581   0.810
   54X2IT   C13 1681   1.294   4.550   0.934
   54X2IT   C10 1682   1.325   4.406   0.980
   54X2IT    C9 1683   1.262   4.372   1.113
   54X2IT    C4 1684   1.359   4.334   1.203
   54X2IT    C5 1685   1.331   4.294   1.345
   54X2IT    O1 1686   1.424   4.257   1.418
   54X2IT    C6 1687   1.193   4.300   1.387
   54X2IT   C12 1688   1.157   4.261   1.530
   54X2IT    C7 1689   1.096   4.337   1.297
   54X2IT    C8 1690   1.126   4.376   1.152
   54X2IT    O2 1691   1.031   4.412   1.080
   54X2IT    N3 1692   0.965   4.343   1.326
   54X2IT   H15 1693   0.928   4.322   1.417
   54X2IT   H16 1694   0.902   4.373   1.251
   54X2IT    N2 1695   1.483   4.329   1.147
   54X2IT    C3 1696   1.612   4.358   1.210
   54X2IT    C2 1697   1.664   4.474   1.124
   54X2IT    H2 1698   1.771   4.497   1.124
   54X2IT    N1 1699   1.565   4.583   1.112
   54X2IT   H14 1700   1.613   4.669   1.086
   54X2IT    C1 1701   1.581   4.486   1.002
   54X2IT    H1 1702   1.621   4.516   0.906
   54X2IT   C11 1703   1.477   4.374   1.005
   54X2IT    O3 1704   1.529   4.277   0.916
   54X2IT   C15 1705   1.475   4.144   0.926
   55X2IT   H18 1706   1.367   0.579   4.879
   55X2IT    N4 1707   1.289   0.633   4.912
   55X2IT   H17 1708   1.285   0.652   5.011
   55X2IT   C14 1709   1.238   0.724   4.824
   55X2IT    O5 1710   1.259   0.727   4.704
   55X2IT    O4 1711   1.155   0.811   4.891
   55X2IT   C13 1712   1.088   0.909   4.809
   55X2IT   C10 1713   0.961   0.852   4.745
   55X2IT    C9 1714   0.883   0.954   4.665
   55X2IT    C4 1715   0.754   0.965   4.713
   55X2IT    C5 1716   0.651   1.059   4.657
   55X2IT    O1 1717   0.537   1.060   4.705
   55X2IT    C6 1718   0.694   1.142   4.547
   55X2IT   C12 1719   0.595   1.239   4.486
   55X2IT    C7 1720   0.822   1.130   4.498
   55X2IT    C8 1721   0.926   1.034   4.556
   55X2IT    O2 1722   1.040   1.034   4.507
   55X2IT    N3 1723   0.870   1.202   4.395
   55X2IT   H15 1724   0.816   1.272   4.347
   55X2IT   H16 1725   0.967   1.186   4.368
   55X2IT    N2 1726   0.729   0.877   4.813
   55X2IT    C3 1727   0.642   0.894   4.930
   55X2IT    C2 1728   0.739   0.877   5.046
   55X2IT    H2 1729   0.701   0.852   5.145
   55X2IT    N1 1730   0.858   0.965   5.033
   55X2IT   H14 1731   0.901   0.977   5.125
   55X2IT    C1 1732   0.867   0.822   4.995
   55X2IT    H1 1733   0.929   0.754   5.052
   55X2IT   C11 1734   0.852   0.798   4.846
   55X2IT    O3 1735   0.830   0.659   4.835
   55X2IT   C15 1736   0.774   0.611   4.712
   56X2IT   H18 1737   2.890   4.542   2.053
   56X2IT    N4 1738   2.943   4.608   2.108
   56X2IT   H17 1739   2.965   4.697   2.066
   56X2IT   C14 1740   2.926   4.601   2.243
   56X2IT    O5 1741   2.875   4.507   2.303
   56X2IT    O4 1742   2.978   4.712   2.303
   56X2IT   C13 1743   2.973   4.716   2.447
   56X2IT   C10 1744   3.090   4.639   2.509
   56X2IT    C9 1745   3.092   4.646   2.660
   56X2IT    C4 1746   3.212   4.701   2.704
   56X2IT    C5 1747   3.246   4.723   2.848
   56X2IT    O1 1748   3.357   4.769   2.879
   56X2IT    C6 1749   3.145   4.687   2.945
   56X2IT   C12 1750   3.173   4.707   3.092
   56X2IT    C7 1751   3.026   4.631   2.901
   56X2IT    C8 1752   2.993   4.609   2.754
   56X2IT    O2 1753   2.881   4.562   2.726
   56X2IT    N3 1754   2.927   4.593   2.983
   56X2IT   H15 1755   2.931   4.603   3.083
   56X2IT   H16 1756   2.843   4.555   2.940
   56X2IT    N2 1757   3.297   4.725   2.601
   56X2IT    C3 1758   3.396   4.833   2.590
   56X2IT    C2 1759   3.350   4.905   2.464
   56X2IT    H2 1760   3.420   4.969   2.409
   56X2IT    N1 1761   3.207   4.941   2.469
   56X2IT   H14 1762   3.188   5.017   2.403
   56X2IT    C1 1763   3.249   4.822   2.393
   56X2IT    H1 1764   3.240   4.819   2.285
   56X2IT   C11 1765   3.234   4.692   2.471
   56X2IT    O3 1766   3.309   4.599   2.397
   56X2IT   C15 1767   3.346   4.477   2.463
   57X2IT   H18 1768   1.878   2.783   4.843
   57X2IT    N4 1769   1.799   2.749   4.792
   57X2IT   H17 1770   1.739   2.817   4.749
   57X2IT   C14 1771   1.812   2.626   4.734
   57X2IT    O5 1772   1.899   2.545   4.761
   57X2IT    O4 1773   1.711   2.605   4.645
   57X2IT   C13 1774   1.709   2.476   4.580
   57X2IT   C10 1775   1.640   2.370   4.668
   57X2IT    C9 1776   1.629   2.235   4.601
   57X2IT    C4 1777   1.497   2.196   4.593
   57X2IT    C5 1778   1.451   2.067   4.532
   57X2IT    O1 1779   1.330   2.039   4.533
   57X2IT    C6 1780   1.553   1.983   4.475
   57X2IT   C12 1781   1.514   1.852   4.411
   57X2IT    C7 1782   1.686   2.022   4.483
   57X2IT    C8 1783   1.731   2.153   4.547
   57X2IT    O2 1784   1.852   2.180   4.545
   57X2IT    N3 1785   1.788   1.949   4.435
   57X2IT   H15 1786   1.776   1.861   4.388
   57X2IT   H16 1787   1.882   1.989   4.445
   57X2IT    N2 1788   1.414   2.284   4.656
   57X2IT    C3 1789   1.276   2.319   4.619
   57X2IT    C2 1790   1.286   2.469   4.593
   57X2IT    H2 1791   1.197   2.531   4.596
   57X2IT    N1 1792   1.395   2.502   4.498
   57X2IT   H14 1793   1.377   2.594   4.457
   57X2IT    C1 1794   1.417   2.519   4.643
   57X2IT    H1 1795   1.430   2.617   4.686
   57X2IT   C11 1796   1.490   2.402   4.706
   57X2IT    O3 1797   1.472   2.421   4.845
   57X2IT   C15 1798   1.495   2.308   4.931
   58X2IT   H18 1799   3.687   4.548   4.458
   58X2IT    N4 1800   3.706   4.482   4.530
   58X2IT   H17 1801   3.804   4.466   4.552
   58X2IT   C14 1802   3.613   4.471   4.630
   58X2IT    O5 1803   3.498   4.512   4.623
   58X2IT    O4 1804   3.666   4.402   4.735
   58X2IT   C13 1805   3.576   4.377   4.845
   58X2IT   C10 1806   3.490   4.252   4.820
   58X2IT    C9 1807   3.399   4.218   4.936
   58X2IT    C4 1808   3.425   4.089   4.980
   58X2IT    C5 1809   3.353   4.024   5.095
   58X2IT    O1 1810   3.381   3.907   5.126
   58X2IT    C6 1811   3.254   4.104   5.163
   58X2IT   C12 1812   3.178   4.045   5.279
   58X2IT    C7 1813   3.227   4.232   5.117
   58X2IT    C8 1814   3.300   4.297   5.000
   58X2IT    O2 1815   3.271   4.414   4.970
   58X2IT    N3 1816   3.135   4.313   5.172
   58X2IT   H15 1817   3.079   4.287   5.252
   58X2IT   H16 1818   3.125   4.406   5.131
   58X2IT    N2 1819   3.518   4.026   4.904
   58X2IT    C3 1820   3.618   3.927   4.946
   58X2IT    C2 1821   3.749   3.996   4.908
   58X2IT    H2 1822   3.839   3.937   4.896
   58X2IT    N1 1823   3.758   4.133   4.963
   58X2IT   H14 1824   3.856   4.162   4.966
   58X2IT    C1 1825   3.720   4.113   4.821
   58X2IT    H1 1826   3.785   4.145   4.741
   58X2IT   C11 1827   3.570   4.118   4.798
   58X2IT    O3 1828   3.553   4.064   4.668
   58X2IT   C15 1829   3.422   4.020   4.632
   59X2IT   H18 1830   2.456   4.507   4.033
   59X2IT    N4 1831   2.397   4.465   3.964
   59X2IT   H17 1832   2.304   4.438   3.994
   59X2IT   C14 1833   2.417   4.503   3.835
   59X2IT    O5 1834   2.516   4.560   3.793
   59X2IT    O4 1835   2.312   4.462   3.757
   59X2IT   C13 1836   2.323   4.490   3.616
   59X2IT   C10 1837   2.405   4.382   3.544
   59X2IT    C9 1838   2.413   4.404   3.394
   59X2IT    C4 1839   2.363   4.293   3.327
   59X2IT    C5 1840   2.355   4.282   3.178
   59X2IT    O1 1841   2.312   4.178   3.127
   59X2IT    C6 1842   2.401   4.397   3.102
   59X2IT   C12 1843   2.395   4.392   2.951
   59X2IT    C7 1844   2.452   4.506   3.169
   59X2IT    C8 1845   2.460   4.516   3.322
   59X2IT    O2 1846   2.503   4.621   3.371
   59X2IT    N3 1847   2.498   4.616   3.108
   59X2IT   H15 1848   2.498   4.628   3.008
   59X2IT   H16 1849   2.532   4.692   3.167
   59X2IT    N2 1850   2.329   4.193   3.413
   59X2IT    C3 1851   2.220   4.095   3.398
   59X2IT    C2 1852   2.135   4.123   3.522
   59X2IT    H2 1853   2.066   4.047   3.558
   59X2IT    N1 1854   2.100   4.266   3.535
   59X2IT   H14 1855   2.018   4.275   3.596
   59X2IT    C1 1856   2.211   4.210   3.615
   59X2IT    H1 1857   2.204   4.202   3.723
   59X2IT   C11 1858   2.348   4.236   3.554
   59X2IT    O3 1859   2.434   4.148   3.624
   59X2IT   C15 1860   2.562   4.120   3.565
   60X2IT   H18 1861   1.788   1.741   2.526
   60X2IT    N4 1862   1.738   1.741   2.438
   60X2IT   H17 1863   1.638   1.748   2.443
   60X2IT   C14 1864   1.804   1.794   2.331
   60X2IT    O5 1865   1.924   1.815   2.326
   60X2IT    O4 1866   1.717   1.816   2.229
   60X2IT   C13 1867   1.774   1.866   2.106
   60X2IT   C10 1868   1.831   1.752   2.020
   60X2IT    C9 1869   1.885   1.799   1.887
   60X2IT    C4 1870   1.821   1.735   1.783
   60X2IT    C5 1871   1.850   1.759   1.638
   60X2IT    O1 1872   1.790   1.694   1.552
   60X2IT    C6 1873   1.950   1.859   1.609
   60X2IT   C12 1874   1.985   1.889   1.464
   60X2IT    C7 1875   2.016   1.922   1.713
   60X2IT    C8 1876   1.985   1.896   1.860
   60X2IT    O2 1877   2.047   1.962   1.945
   60X2IT    N3 1878   2.111   2.015   1.695
   60X2IT   H15 1879   2.142   2.046   1.605
   60X2IT   H16 1880   2.152   2.057   1.779
   60X2IT    N2 1881   1.733   1.641   1.828
   60X2IT    C3 1882   1.605   1.601   1.767
   60X2IT    C2 1883   1.505   1.633   1.877
   60X2IT    H2 1884   1.407   1.585   1.877
   60X2IT    N1 1885   1.519   1.772   1.926
   60X2IT   H14 1886   1.432   1.800   1.972
   60X2IT    C1 1887   1.578   1.661   2.004
   60X2IT    H1 1888   1.540   1.635   2.101
   60X2IT   C11 1889   1.727   1.642   1.977
   60X2IT    O3 1890   1.755   1.514   2.032
   60X2IT   C15 1891   1.877   1.451   1.989
   61X2IT   H18 1892   1.433   3.378   1.411
   61X2IT    N4 1893   1.435   3.362   1.312
   61X2IT   H17 1894   1.512   3.307   1.275
   61X2IT   C14 1895   1.314   3.355   1.249
   61X2IT    O5 1896   1.208   3.394   1.296
   61X2IT    O4 1897   1.329   3.303   1.124
   61X2IT   C13 1898   1.209   3.296   1.043
   61X2IT   C10 1899   1.181   3.430   0.974
   61X2IT    C9 1900   1.060   3.425   0.882
   61X2IT    C4 1901   1.097   3.460   0.754
   61X2IT    C5 1902   1.001   3.464   0.638
   61X2IT    O1 1903   1.042   3.500   0.526
   61X2IT    C6 1904   0.864   3.427   0.666
   61X2IT   C12 1905   0.763   3.429   0.554
   61X2IT    C7 1906   0.828   3.393   0.795
   61X2IT    C8 1907   0.926   3.390   0.912
   61X2IT    O2 1908   0.884   3.354   1.023
   61X2IT    N3 1909   0.703   3.359   0.831
   61X2IT   H15 1910   0.627   3.354   0.766
   61X2IT   H16 1911   0.688   3.334   0.929
   61X2IT    N2 1912   1.227   3.497   0.745
   61X2IT    C3 1913   1.320   3.477   0.633
   61X2IT    C2 1914   1.429   3.393   0.696
   61X2IT    H2 1915   1.528   3.389   0.649
   61X2IT    N1 1916   1.376   3.273   0.764
   61X2IT   H14 1917   1.450   3.203   0.774
   61X2IT    C1 1918   1.413   3.392   0.843
   61X2IT    H1 1919   1.496   3.389   0.912
   61X2IT   C11 1920   1.295   3.481   0.877
   61X2IT    O3 1921   1.354   3.602   0.921
   61X2IT   C15 1922   1.270   3.719   0.924
   62X2IT   H18 1923   2.939   1.848   1.378
   62X2IT    N4 1924   3.035   1.871   1.362
   62X2IT   H17 1925   3.091   1.897   1.442
   62X2IT   C14 1926   3.096   1.808   1.256
   62X2IT    O5 1927   3.038   1.749   1.167
   62X2IT    O4 1928   3.231   1.824   1.264
   62X2IT   C13 1929   3.308   1.768   1.156
   62X2IT   C10 1930   3.313   1.863   1.035
   62X2IT    C9 1931   3.399   1.811   0.922
   62X2IT    C4 1932   3.500   1.901   0.893
   62X2IT    C5 1933   3.603   1.879   0.786
   62X2IT    O1 1934   3.688   1.967   0.765
   62X2IT    C6 1935   3.595   1.755   0.713
   62X2IT   C12 1936   3.697   1.727   0.604
   62X2IT    C7 1937   3.494   1.666   0.741
   62X2IT    C8 1938   3.389   1.689   0.850
   62X2IT    O2 1939   3.304   1.600   0.870
   62X2IT    N3 1940   3.477   1.549   0.678
   62X2IT   H15 1941   3.539   1.517   0.605
   62X2IT   H16 1942   3.399   1.490   0.708
   62X2IT    N2 1943   3.490   2.014   0.967
   62X2IT    C3 1944   3.599   2.099   1.017
   62X2IT    C2 1945   3.578   2.093   1.168
   62X2IT    H2 1946   3.621   2.170   1.232
   62X2IT    N1 1947   3.568   1.954   1.218
   62X2IT   H14 1948   3.589   1.952   1.318
   62X2IT    C1 1949   3.445   2.033   1.197
   62X2IT    H1 1950   3.384   2.063   1.281
   62X2IT   C11 1951   3.377   2.004   1.064
   62X2IT    O3 1952   3.285   2.111   1.049
   62X2IT   C15 1953   3.233   2.134   0.917
   63X2IT   H18 1954   2.887   5.024   1.504
   63X2IT    N4 1955   2.965   4.975   1.545
   63X2IT   H17 1956   3.014   5.022   1.620
   63X2IT   C14 1957   2.959   4.839   1.545
   63X2IT    O5 1958   2.884   4.772   1.476
   63X2IT    O4 1959   3.054   4.788   1.629
   63X2IT   C13 1960   3.064   4.644   1.634
   63X2IT   C10 1961   3.150   4.590   1.519
   63X2IT    C9 1962   3.169   4.440   1.525
   63X2IT    C4 1963   3.303   4.408   1.532
   63X2IT    C5 1964   3.357   4.268   1.539
   63X2IT    O1 1965   3.479   4.250   1.541
   63X2IT    C6 1966   3.259   4.162   1.543
   63X2IT   C12 1967   3.306   4.018   1.551
   63X2IT    C7 1968   3.124   4.193   1.535
   63X2IT    C8 1969   3.072   4.337   1.526
   63X2IT    O2 1970   2.949   4.353   1.524
   63X2IT    N3 1971   3.026   4.102   1.535
   63X2IT   H15 1972   3.043   4.003   1.543
   63X2IT   H16 1973   2.930   4.136   1.531
   63X2IT    N2 1974   3.382   4.519   1.523
   63X2IT    C3 1975   3.512   4.543   1.587
   63X2IT    C2 1976   3.484   4.666   1.672
   63X2IT    H2 1977   3.567   4.728   1.706
   63X2IT    N1 1978   3.365   4.649   1.758
   63X2IT   H14 1979   3.369   4.716   1.835
   63X2IT    C1 1980   3.354   4.725   1.632
   63X2IT    H1 1981   3.334   4.831   1.632
   63X2IT   C11 1982   3.299   4.642   1.516
   63X2IT    O3 1983   3.328   4.720   1.401
   63X2IT   C15 1984   3.323   4.653   1.275
   64X2IT   H18 1985   0.672   4.762   2.781
   64X2IT    N4 1986   0.679   4.841   2.721
   64X2IT   H17 1987   0.724   4.924   2.758
   64X2IT   C14 1988   0.689   4.815   2.587
   64X2IT    O5 1989   0.662   4.709   2.534
   64X2IT    O4 1990   0.728   4.928   2.520
   64X2IT   C13 1991   0.736   4.917   2.377
   64X2IT   C10 1992   0.598   4.938   2.311
   64X2IT    C9 1993   0.603   4.935   2.160
   64X2IT    C4 1994   0.555   5.053   2.108
   64X2IT    C5 1995   0.547   5.083   1.961
   64X2IT    O1 1996   0.498   5.191   1.923
   64X2IT    C6 1997   0.596   4.981   1.872
   64X2IT   C12 1998   0.591   5.005   1.722
   64X2IT    C7 1999   0.644   4.862   1.924
   64X2IT    C8 2000   0.651   4.833   2.074
   64X2IT    O2 2001   0.700   4.724   2.110
   64X2IT    N3 2002   0.690   4.761   1.849
   64X2IT   H15 2003   0.695   4.764   1.748
   64X2IT   H16 2004   0.724   4.678   1.898
   64X2IT    N2 2005   0.508   5.136   2.205
   64X2IT    C3 2006   0.511   5.283   2.207
   64X2IT    C2 2007   0.593   5.312   2.332
   64X2IT    H2 2008   0.586   5.410   2.379
   64X2IT    N1 2009   0.722   5.240   2.332
   64X2IT   H14 2010   0.787   5.286   2.396
   64X2IT    C1 2011   0.608   5.188   2.411
   64X2IT    H1 2012   0.612   5.187   2.519
   64X2IT   C11 2013   0.531   5.078   2.340
   64X2IT    O3 2014   0.411   5.067   2.414
   64X2IT   C15 2015   0.301   5.000   2.350
   65X2IT   H18 2016   1.034   1.010   0.096
   65X2IT    N4 2017   1.070   0.924   0.133
   65X2IT   H17 2018   1.064   0.843   0.074
   65X2IT   C14 2019   1.174   0.935   0.222
   65X2IT    O5 2020   1.207   1.037   0.280
   65X2IT    O4 2021   1.232   0.813   0.240
   65X2IT   C13 2022   1.340   0.807   0.336
   65X2IT   C10 2023   1.286   0.792   0.479
   65X2IT    C9 2024   1.395   0.778   0.583
   65X2IT    C4 2025   1.381   0.660   0.653
   65X2IT    C5 2026   1.473   0.615   0.762
   65X2IT    O1 2027   1.450   0.509   0.822
   65X2IT    C6 2028   1.585   0.702   0.791
   65X2IT   C12 2029   1.682   0.663   0.900
   65X2IT    C7 2030   1.599   0.821   0.722
   65X2IT    C8 2031   1.503   0.866   0.611
   65X2IT    O2 2032   1.528   0.972   0.553
   65X2IT    N3 2033   1.698   0.909   0.744
   65X2IT   H15 2034   1.771   0.894   0.811
   65X2IT   H16 2035   1.699   0.993   0.685
   65X2IT    N2 2036   1.268   0.593   0.616
   65X2IT    C3 2037   1.248   0.447   0.611
   65X2IT    C2 2038   1.214   0.424   0.465
   65X2IT    H2 2039   1.162   0.333   0.435
   65X2IT    N1 2040   1.315   0.484   0.374
   65X2IT   H14 2041   1.309   0.439   0.282
   65X2IT    C1 2042   1.187   0.555   0.399
   65X2IT    H1 2043   1.114   0.567   0.320
   65X2IT   C11 2044   1.198   0.663   0.505
   65X2IT    O3 2045   1.064   0.693   0.538
   65X2IT   C15 2046   1.041   0.763   0.661
   66X2IT   H18 2047   1.375   0.181   0.985
   66X2IT    N4 2048   1.291   0.230   0.960
   66X2IT   H17 2049   1.250   0.208   0.870
   66X2IT   C14 2050   1.210   0.269   1.062
   66X2IT    O5 2051   1.242   0.274   1.180
   66X2IT    O4 2052   1.088   0.307   1.013
   66X2IT   C13 2053   0.993   0.357   1.110
   66X2IT   C10 2054   1.017   0.506   1.139
   66X2IT    C9 2055   0.916   0.565   1.235
   66X2IT    C4 2056   0.850   0.671   1.176
   66X2IT    C5 2057   0.742   0.751   1.243
   66X2IT    O1 2058   0.692   0.848   1.184
   66X2IT    C6 2059   0.705   0.710   1.376
   66X2IT   C12 2060   0.597   0.786   1.450
   66X2IT    C7 2061   0.771   0.604   1.435
   66X2IT    C8 2062   0.882   0.524   1.366
   66X2IT    O2 2063   0.931   0.428   1.427
   66X2IT    N3 2064   0.745   0.560   1.559
   66X2IT   H15 2065   0.674   0.600   1.618
   66X2IT   H16 2066   0.799   0.479   1.593
   66X2IT    N2 2067   0.900   0.700   1.053
   66X2IT    C3 2068   0.828   0.752   0.936
   66X2IT    C2 2069   0.850   0.643   0.832
   66X2IT    H2 2070   0.838   0.665   0.726
   66X2IT    N1 2071   0.814   0.509   0.884
   66X2IT   H14 2072   0.797   0.446   0.805
   66X2IT    C1 2073   0.956   0.550   0.881
   66X2IT    H1 2074   1.026   0.501   0.815
   66X2IT   C11 2075   1.006   0.602   1.015
   66X2IT    O3 2076   1.128   0.666   0.983
   66X2IT   C15 2077   1.181   0.758   1.079
   67X2IT   H18 2078   4.218   0.181   0.524
   67X2IT    N4 2079   4.201   0.256   0.588
   67X2IT   H17 2080   4.146   0.334   0.554
   67X2IT   C14 2081   4.193   0.222   0.721
   67X2IT    O5 2082   4.232   0.117   0.769
   67X2IT    O4 2083   4.139   0.325   0.792
   67X2IT   C13 2084   4.130   0.306   0.935
   67X2IT   C10 2085   4.264   0.340   1.004
   67X2IT    C9 2086   4.257   0.328   1.154
   67X2IT    C4 2087   4.290   0.449   1.213
   67X2IT    C5 2088   4.292   0.472   1.362
   67X2IT    O1 2089   4.327   0.582   1.406
   67X2IT    C6 2090   4.254   0.360   1.445
   67X2IT   C12 2091   4.254   0.377   1.595
   67X2IT    C7 2092   4.222   0.239   1.386
   67X2IT    C8 2093   4.221   0.217   1.234
   67X2IT    O2 2094   4.186   0.106   1.192
   67X2IT    N3 2095   4.188   0.129   1.455
   67X2IT   H15 2096   4.181   0.127   1.555
   67X2IT   H16 2097   4.164   0.046   1.401
   67X2IT    N2 2098   4.328   0.542   1.122
   67X2IT    C3 2099   4.307   0.688   1.127
   67X2IT    C2 2100   4.224   0.713   1.002
   67X2IT    H2 2101   4.220   0.813   0.959
   67X2IT    N1 2102   4.105   0.625   0.995
   67X2IT   H14 2103   4.035   0.667   0.933
   67X2IT    C1 2104   4.225   0.592   0.917
   67X2IT    H1 2105   4.223   0.596   0.808
   67X2IT   C11 2106   4.314   0.488   0.984
   67X2IT    O3 2107   4.436   0.496   0.912
   67X2IT   C15 2108   4.552   0.439   0.974
   68X2IT   H18 2109   5.192   0.790   2.537
   68X2IT    N4 2110   5.194   0.876   2.486
   68X2IT   H17 2111   5.250   0.879   2.403
   68X2IT   C14 2112   5.081   0.953   2.493
   68X2IT    O5 2113   4.992   0.940   2.575
   68X2IT    O4 2114   5.085   1.050   2.397
   68X2IT   C13 2115   4.975   1.143   2.396
   68X2IT   C10 2116   4.997   1.257   2.498
   68X2IT    C9 2117   4.887   1.361   2.495
   68X2IT    C4 2118   4.940   1.486   2.468
   68X2IT    C5 2119   4.858   1.611   2.458
   68X2IT    O1 2120   4.914   1.719   2.437
   68X2IT    C6 2121   4.715   1.596   2.475
   68X2IT   C12 2122   4.627   1.719   2.465
   68X2IT    C7 2123   4.662   1.472   2.502
   68X2IT    C8 2124   4.747   1.345   2.514
   68X2IT    O2 2125   4.689   1.237   2.535
   68X2IT    N3 2126   4.532   1.448   2.521
   68X2IT   H15 2127   4.462   1.520   2.515
   68X2IT   H16 2128   4.503   1.352   2.540
   68X2IT    N2 2129   5.075   1.483   2.460
   68X2IT    C3 2130   5.162   1.565   2.375
   68X2IT    C2 2131   5.234   1.460   2.291
   68X2IT    H2 2132   5.328   1.485   2.242
   68X2IT    N1 2133   5.140   1.367   2.226
   68X2IT   H14 2134   5.186   1.322   2.146
   68X2IT    C1 2135   5.210   1.326   2.349
   68X2IT    H1 2136   5.284   1.247   2.347
   68X2IT   C11 2137   5.126   1.344   2.475
   68X2IT    O3 2138   5.220   1.332   2.581
   68X2IT   C15 2139   5.180   1.382   2.709
   69X2IT   H18 2140   4.716   0.709   3.973
   69X2IT    N4 2141   4.674   0.739   3.886
   69X2IT   H17 2142   4.580   0.777   3.892
   69X2IT   C14 2143   4.758   0.784   3.789
   69X2IT    O5 2144   4.879   0.766   3.787
   69X2IT    O4 2145   4.688   0.849   3.692
   69X2IT   C13 2146   4.764   0.896   3.579
   69X2IT   C10 2147   4.786   0.785   3.475
   69X2IT    C9 2148   4.860   0.832   3.352
   69X2IT    C4 2149   4.783   0.809   3.239
   69X2IT    C5 2150   4.827   0.845   3.100
   69X2IT    O1 2151   4.753   0.817   3.004
   69X2IT    C6 2152   4.954   0.911   3.087
   69X2IT   C12 2153   5.004   0.951   2.950
   69X2IT    C7 2154   5.031   0.933   3.200
   69X2IT    C8 2155   4.986   0.895   3.341
   69X2IT    O2 2156   5.061   0.924   3.436
   69X2IT    N3 2157   5.152   0.992   3.198
   69X2IT   H15 2158   5.195   1.025   3.114
   69X2IT   H16 2159   5.199   1.005   3.288
   69X2IT    N2 2160   4.669   0.742   3.268
   69X2IT    C3 2161   4.538   0.755   3.201
   69X2IT    C2 2162   4.448   0.799   3.315
   69X2IT    H2 2163   4.340   0.786   3.308
   69X2IT    N1 2164   4.502   0.917   3.387
   69X2IT   H14 2165   4.426   0.964   3.437
   69X2IT    C1 2166   4.519   0.783   3.444
   69X2IT    H1 2167   4.469   0.755   3.536
   69X2IT   C11 2168   4.655   0.722   3.415
   69X2IT    O3 2169   4.640   0.585   3.448
   69X2IT   C15 2170   4.737   0.493   3.395
   70X2IT   H18 2171   2.975   3.931   0.867
   70X2IT    N4 2172   3.019   4.004   0.815
   70X2IT   H17 2173   3.118   3.994   0.795
   70X2IT   C14 2174   2.940   4.073   0.727
   70X2IT    O5 2175   2.818   4.071   0.726
   70X2IT    O4 2176   3.018   4.147   0.643
   70X2IT   C13 2177   2.947   4.230   0.548
   70X2IT   C10 2178   2.904   4.364   0.612
   70X2IT    C9 2179   2.836   4.456   0.514
   70X2IT    C4 2180   2.904   4.576   0.506
   70X2IT    C5 2181   2.863   4.691   0.418
   70X2IT    O1 2182   2.928   4.796   0.420
   70X2IT    C6 2183   2.747   4.669   0.335
   70X2IT   C12 2184   2.701   4.780   0.243
   70X2IT    C7 2185   2.678   4.550   0.343
   70X2IT    C8 2186   2.721   4.435   0.434
   70X2IT    O2 2187   2.654   4.330   0.431
   70X2IT    N3 2188   2.569   4.522   0.271
   70X2IT   H15 2189   2.528   4.585   0.205
   70X2IT   H16 2190   2.527   4.429   0.284
   70X2IT    N2 2191   3.007   4.582   0.594
   70X2IT    C3 2192   3.136   4.651   0.578
   70X2IT    C2 2193   3.236   4.536   0.589
   70X2IT    H2 2194   3.340   4.557   0.614
   70X2IT    N1 2195   3.203   4.424   0.498
   70X2IT   H14 2196   3.287   4.368   0.482
   70X2IT    C1 2197   3.166   4.415   0.640
   70X2IT    H1 2198   3.214   4.343   0.705
   70X2IT   C11 2199   3.021   4.453   0.667
   70X2IT    O3 2200   3.016   4.470   0.808
   70X2IT   C15 2201   2.904   4.543   0.860
   71X2IT   H18 2202   4.450   1.889   3.745
   71X2IT    N4 2203   4.359   1.932   3.741
   71X2IT   H17 2204   4.287   1.883   3.689
   71X2IT   C14 2205   4.323   2.008   3.848
   71X2IT    O5 2206   4.399   2.051   3.933
   71X2IT    O4 2207   4.189   2.034   3.844
   71X2IT   C13 2208   4.137   2.120   3.948
   71X2IT   C10 2209   4.157   2.268   3.913
   71X2IT    C9 2210   4.098   2.362   4.017
   71X2IT    C4 2211   4.005   2.445   3.958
   71X2IT    C5 2212   3.927   2.550   4.033
   71X2IT    O1 2213   3.848   2.623   3.971
   71X2IT    C6 2214   3.951   2.558   4.175
   71X2IT   C12 2215   3.875   2.661   4.256
   71X2IT    C7 2216   4.044   2.475   4.233
   71X2IT    C8 2217   4.124   2.370   4.156
   71X2IT    O2 2218   4.202   2.298   4.219
   71X2IT    N3 2219   4.075   2.477   4.364
   71X2IT   H15 2220   4.030   2.539   4.430
   71X2IT   H16 2221   4.144   2.410   4.397
   71X2IT    N2 2222   3.998   2.428   3.823
   71X2IT    C3 2223   3.880   2.441   3.736
   71X2IT    C2 2224   3.869   2.301   3.676
   71X2IT    H2 2225   3.813   2.287   3.583
   71X2IT    N1 2226   3.869   2.195   3.779
   71X2IT   H14 2227   3.827   2.110   3.740
   71X2IT    C1 2228   3.993   2.225   3.705
   71X2IT    H1 2229   4.035   2.152   3.637
   71X2IT   C11 2230   4.088   2.317   3.780
   71X2IT    O3 2231   4.181   2.359   3.682
   71X2IT   C15 2232   4.259   2.475   3.712
   72SOL     OW 2233   0.230   0.628   0.113
   72SOL    HW1 2234   0.137   0.626   0.150
   72SOL    HW2 2235   0.231   0.589   0.021
   73SOL     OW 2236   0.225   0.275   0.996
   73SOL    HW1 2237   0.260   0.258   1.088
   73SOL    HW2 2238   0.137   0.230   0.984
   74SOL     OW 2239   0.019   0.368   0.647
   74SOL    HW1 2240  -0.063   0.411   0.686
   74SOL    HW2 2241  -0.009   0.295   0.584
   75SOL     OW 2242   0.569   1.275   1.165
   75SOL    HW1 2243   0.476   1.268   1.128
   75SOL    HW2 2244   0.580   1.364   1.209
   76SOL     OW 2245   1.555   1.511   0.703
   76SOL    HW1 2246   1.498   1.495   0.784
   76SOL    HW2 2247   1.496   1.521   0.623
   77SOL     OW 2248   1.755   0.607   0.231
   77SOL    HW1 2249   1.743   0.594   0.132
   77SOL    HW2 2250   1.725   0.526   0.280
   78SOL     OW 2251   0.768   1.144   1.023
   78SOL    HW1 2252   0.690   1.161   1.083
   78SOL    HW2 2253   0.802   1.231   0.987
   79SOL     OW 2254   0.685   1.012   0.665
   79SOL    HW1 2255   0.754   0.996   0.735
   79SOL    HW2 2256   0.612   1.069   0.703
   80SOL     OW 2257   1.460   1.505   1.339
   80SOL    HW1 2258   1.484   1.599   1.365
   80SOL    HW2 2259   1.444   1.451   1.421
   81SOL     OW 2260   0.438   0.392   1.499
   81SOL    HW1 2261   0.520   0.336   1.508
   81SOL    HW2 2262   0.357   0.334   1.503
   82SOL     OW 2263   0.231   1.713   0.483
   82SOL    HW1 2264   0.265   1.790   0.537
   82SOL    HW2 2265   0.275   1.713   0.393
   83SOL     OW 2266   1.127   1.341   1.690
   83SOL    HW1 2267   1.174   1.341   1.778
   83SOL    HW2 2268   1.079   1.254   1.679
   84SOL     OW 2269   0.240   1.091   0.886
   84SOL    HW1 2270   0.254   1.007   0.938
   84SOL    HW2 2271   0.185   1.155   0.941
   85SOL     OW 2272   0.606   0.964   0.123
   85SOL    HW1 2273   0.613   1.048   0.069
   85SOL    HW2 2274   0.652   0.977   0.211
   86SOL     OW 2275   1.594   0.114   1.480
   86SOL    HW1 2276   1.576   0.181   1.408
   86SOL    HW2 2277   1.591   0.160   1.569
   87SOL     OW 2278   0.122   0.643   0.563
   87SOL    HW1 2279   0.077   0.555   0.580
   87SOL    HW2 2280   0.121   0.697   0.647
   88SOL     OW 2281   1.842   1.767   0.359
   88SOL    HW1 2282   1.896   1.738   0.439
   88SOL    HW2 2283   1.872   1.857   0.330
   89SOL     OW 2284   0.027   1.596   0.117
   89SOL    HW1 2285   0.008   1.500   0.138
   89SOL    HW2 2286  -0.006   1.654   0.192
   90SOL     OW 2287   1.641   1.108   0.432
   90SOL    HW1 2288   1.727   1.110   0.380
   90SOL    HW2 2289   1.655   1.155   0.520
   91SOL     OW 2290   0.113   0.737   1.597
   91SOL    HW1 2291   0.201   0.724   1.642
   91SOL    HW2 2292   0.100   0.834   1.575
   92SOL     OW 2293   1.293   1.228   1.423
   92SOL    HW1 2294   1.330   1.155   1.365
   92SOL    HW2 2295   1.345   1.233   1.508
   93SOL     OW 2296   0.809   0.004   0.502
   93SOL    HW1 2297   0.849   0.095   0.493
   93SOL    HW2 2298   0.709   0.012   0.508
   94SOL     OW 2299   0.197   0.976   1.264
   94SOL    HW1 2300   0.286   0.931   1.250
   94SOL    HW2 2301   0.124   0.911   1.245
   95SOL     OW 2302   1.525   0.999   0.190
   95SOL    HW1 2303   1.462   0.923   0.203
   95SOL    HW2 2304   1.573   1.017   0.276
   96SOL     OW 2305   1.187   1.792   1.616
   96SOL    HW1 2306   1.211   1.852   1.540
   96SOL    HW2 2307   1.194   1.697   1.586
   97SOL     OW 2308   0.317   0.251   1.801
   97SOL    HW1 2309   0.388   0.322   1.807
   97SOL    HW2 2310   0.229   0.290   1.829
   98SOL     OW 2311   1.466   1.417   0.953
   98SOL    HW1 2312   1.407   1.423   1.033
   98SOL    HW2 2313   1.451   1.329   0.907
   99SOL     OW 2314   1.667   1.714   0.572
   99SOL    HW1 2315   1.626   1.691   0.484
   99SOL    HW2 2316   1.649   1.640   0.637
  100SOL     OW 2317   0.598   0.729   0.270
  100SOL    HW1 2318   0.622   0.798   0.202
  100SOL    HW2 2319   0.520   0.762   0.324
  101SOL     OW 2320   1.576   1.662   0.307
  101SOL    HW1 2321   1.665   1.708   0.310
  101SOL    HW2 2322   1.555   1.638   0.212
  102SOL     OW 2323   1.394   0.469   1.674
  102SOL    HW1 2324   1.374   0.512   1.762
  102SOL    HW2 2325   1.472   0.407   1.683
  103SOL     OW 2326   0.973   0.890   1.572
  103SOL    HW1 2327   1.019   0.806   1.543
  103SOL    HW2 2328   0.917   0.924   1.497
  104SOL     OW 2329   0.076   0.811   0.789
  104SOL    HW1 2330   0.175   0.799   0.798
  104SOL    HW2 2331   0.052   0.906   0.810
  105SOL     OW 2332   0.130   1.821   1.571
  105SOL    HW1 2333   0.120   1.806   1.670
  105SOL    HW2 2334   0.044   1.857   1.535
  106SOL     OW 2335   0.865   0.348   0.195
  106SOL    HW1 2336   0.924   0.411   0.146
  106SOL    HW2 2337   0.884   0.254   0.166
  107SOL     OW 2338   1.719   0.585   1.831
  107SOL    HW1 2339   1.693   0.674   1.795
  107SOL    HW2 2340   1.717   0.517   1.758
  108SOL     OW 2341   1.362   1.144   0.545
  108SOL    HW1 2342   1.445   1.115   0.497
  108SOL    HW2 2343   1.313   1.211   0.489
  109SOL     OW 2344   0.550   0.196   0.885
  109SOL    HW1 2345   0.545   0.191   0.985
  109SOL    HW2 2346   0.552   0.292   0.856
  110SOL     OW 2347   1.008   1.456   0.477
  110SOL    HW1 2348   0.962   1.528   0.425
  110SOL    HW2 2349   1.004   1.476   0.575
  111SOL     OW 2350   1.227   1.550   1.506
  111SOL    HW1 2351   1.233   1.473   1.570
  111SOL    HW2 2352   1.175   1.524   1.426
  112SOL     OW 2353   0.321   0.943   0.242
  112SOL    HW1 2354   0.403   0.982   0.200
  112SOL    HW2 2355   0.294   0.861   0.193
  113SOL     OW 2356   0.461   1.266   1.727
  113SOL    HW1 2357   0.411   1.267   1.641
  113SOL    HW2 2358   0.398   1.248   1.803
  114SOL     OW 2359   1.111   1.776   0.237
  114SOL    HW1 2360   1.051   1.714   0.287
  114SOL    HW2 2361   1.142   1.732   0.152
  115SOL     OW 2362   0.202   0.285   1.498
  115SOL    HW1 2363   0.122   0.345   1.485
  115SOL    HW2 2364   0.192   0.236   1.584
  116SOL     OW 2365   1.632   1.377   0.081
  116SOL    HW1 2366   1.600   1.471   0.071
  116SOL    HW2 2367   1.556   1.314   0.069
  117SOL     OW 2368   1.400   0.107   0.426
  117SOL    HW1 2369   1.376   0.070   0.336
  117SOL    HW2 2370   1.499   0.123   0.430
  118SOL     OW 2371   0.249   1.785   1.241
  118SOL    HW1 2372   0.306   1.720   1.291
  118SOL    HW2 2373   0.233   1.752   1.148
  119SOL     OW 2374   0.940   1.698   0.904
  119SOL    HW1 2375   1.020   1.641   0.925
  119SOL    HW2 2376   0.891   1.658   0.827
  120SOL     OW 2377   0.382   0.700   0.480
  120SOL    HW1 2378   0.427   0.610   0.477
  120SOL    HW2 2379   0.288   0.689   0.513
  121SOL     OW 2380   1.547   0.222   1.729
  121SOL    HW1 2381   1.542   0.259   1.821
  121SOL    HW2 2382   1.475   0.153   1.717
  122SOL     OW 2383   0.614   0.122   0.117
  122SOL    HW1 2384   0.712   0.100   0.124
  122SOL    HW2 2385   0.583   0.105   0.024
  123SOL     OW 2386   0.781   0.264   1.749
  123SOL    HW1 2387   0.848   0.203   1.792
  123SOL    HW2 2388   0.708   0.283   1.814
  124SOL     OW 2389   1.351   0.590   1.433
  124SOL    HW1 2390   1.379   0.547   1.518
  124SOL    HW2 2391   1.376   0.686   1.434
  125SOL     OW 2392   0.539   0.064   0.512
  125SOL    HW1 2393   0.458   0.065   0.570
  125SOL    HW2 2394   0.542   0.147   0.457
  126SOL     OW 2395   1.434   1.188   0.041
  126SOL    HW1 2396   1.466   1.112   0.098
  126SOL    HW2 2397   1.342   1.215   0.071
  127SOL     OW 2398   0.297   0.035   0.171
  127SOL    HW1 2399   0.346   0.119   0.150
  127SOL    HW2 2400   0.359  -0.030   0.216
  128SOL     OW 2401   0.935   0.236   0.480
  128SOL    HW1 2402   0.887   0.277   0.402
  128SOL    HW2 2403   1.034   0.234   0.461
  129SOL     OW 2404   1.076   0.683   1.464
  129SOL    HW1 2405   0.996   0.622   1.467
  129SOL    HW2 2406   1.157   0.630   1.440
  130SOL     OW 2407   1.227   1.570   0.793
  130SOL    HW1 2408   1.248   1.644   0.728
  130SOL    HW2 2409   1.295   1.570   0.866
  131SOL     OW 2410   0.459   1.152   0.741
  131SOL    HW1 2411   0.388   1.125   0.806
  131SOL    HW2 2412   0.433   1.124   0.648
  132SOL     OW 2413   1.271   1.797   0.591
  132SOL    HW1 2414   1.315   1.861   0.527
  132SOL    HW2 2415   1.221   1.849   0.661
  133SOL     OW 2416   1.032   0.549   0.016
  133SOL    HW1 2417   0.991   0.631  -0.023
  133SOL    HW2 2418   1.096   0.575   0.089
  134SOL     OW 2419   0.078   0.556   1.386
  134SOL    HW1 2420   0.170   0.555   1.345
  134SOL    HW2 2421   0.072   0.630   1.453
  135SOL     OW 2422   0.561   0.222   1.147
  135SOL    HW1 2423   0.599   0.138   1.184
  135SOL    HW2 2424   0.473   0.241   1.191
  136SOL     OW 2425   0.866   0.454   0.642
  136SOL    HW1 2426   0.834   0.526   0.580
  136SOL    HW2 2427   0.890   0.373   0.589
  137SOL     OW 2428   1.017   0.039   0.753
  137SOL    HW1 2429   0.945   0.044   0.684
  137SOL    HW2 2430   0.993  -0.030   0.822
  138SOL     OW 2431   1.429   1.173   0.867
  138SOL    HW1 2432   1.374   1.089   0.860
  138SOL    HW2 2433   1.455   1.202   0.775
  139SOL     OW 2434   1.466   0.590   0.992
  139SOL    HW1 2435   1.436   0.495   0.999
  139SOL    HW2 2436   1.539   0.606   1.058
  140SOL     OW 2437   1.857   0.833   0.377
  140SOL    HW1 2438   1.899   0.769   0.441
  140SOL    HW2 2439   1.819   0.782   0.299
  141SOL     OW 2440   1.664   1.280   0.657
  141SOL    HW1 2441   1.763   1.288   0.671
  141SOL    HW2 2442   1.619   1.364   0.688
  142SOL     OW 2443   1.390   0.575   0.078
  142SOL    HW1 2444   1.336   0.554   0.159
  142SOL    HW2 2445   1.481   0.534   0.087
  143SOL     OW 2446   0.527   0.256   0.328
  143SOL    HW1 2447   0.554   0.197   0.253
  143SOL    HW2 2448   0.527   0.351   0.297
  144SOL     OW 2449   1.754   1.223   1.588
  144SOL    HW1 2450   1.845   1.184   1.575
  144SOL    HW2 2451   1.762   1.319   1.612
  145SOL     OW 2452   1.064   1.347   1.340
  145SOL    HW1 2453   0.984   1.324   1.395
  145SOL    HW2 2454   1.147   1.321   1.389
  146SOL     OW 2455   1.111   1.195   1.100
  146SOL    HW1 2456   1.071   1.239   1.181
  146SOL    HW2 2457   1.070   1.232   1.017
  147SOL     OW 2458   1.638   1.099   1.079
  147SOL    HW1 2459   1.643   1.180   1.138
  147SOL    HW2 2460   1.552   1.101   1.028
  148SOL     OW 2461   0.915   0.089   1.402
  148SOL    HW1 2462   0.940   0.069   1.307
  148SOL    HW2 2463   0.987   0.145   1.444
  149SOL     OW 2464   0.705   1.050   0.368
  149SOL    HW1 2465   0.691   1.057   0.467
  149SOL    HW2 2466   0.789   0.999   0.350
  150SOL     OW 2467   0.410   0.813   1.251
  150SOL    HW1 2468   0.496   0.825   1.301
  150SOL    HW2 2469   0.368   0.726   1.278
  151SOL     OW 2470   0.367   1.100   0.501
  151SOL    HW1 2471   0.360   1.183   0.445
  151SOL    HW2 2472   0.371   1.020   0.441
  152SOL     OW 2473   0.566   0.537   0.865
  152SOL    HW1 2474   0.578   0.603   0.791
  152SOL    HW2 2475   0.612   0.571   0.948
  153SOL     OW 2476   1.252   1.348   0.388
  153SOL    HW1 2477   1.302   1.425   0.428
  153SOL    HW2 2478   1.157   1.350   0.420
  154SOL     OW 2479   1.272   1.445   1.142
  154SOL    HW1 2480   1.319   1.458   1.229
  154SOL    HW2 2481   1.206   1.371   1.151
  155SOL     OW 2482   1.582   0.639   0.472
  155SOL    HW1 2483   1.551   0.700   0.545
  155SOL    HW2 2484   1.632   0.691   0.403
  156SOL     OW 2485   1.587   0.779   1.670
  156SOL    HW1 2486   1.495   0.817   1.665
  156SOL    HW2 2487   1.647   0.826   1.605
  157SOL     OW 2488   1.013   0.105   1.770
  157SOL    HW1 2489   1.019   0.190   1.718
  157SOL    HW2 2490   1.045   0.029   1.713
  158SOL     OW 2491   0.573   0.870   1.029
  158SOL    HW1 2492   0.617   0.959   1.020
  158SOL    HW2 2493   0.510   0.870   1.106
  159SOL     OW 2494   1.360   0.862   1.045
  159SOL    HW1 2495   1.285   0.862   0.979
  159SOL    HW2 2496   1.397   0.770   1.054
  160SOL     OW 2497   0.307   0.213   1.231
  160SOL    HW1 2498   0.284   0.250   1.321
  160SOL    HW2 2499   0.277   0.118   1.225
  161SOL     OW 2500   1.728   0.935   1.854
  161SOL    HW1 2501   1.682   0.928   1.765
  161SOL    HW2 2502   1.666   0.979   1.920
  162SOL     OW 2503   0.307   0.063   0.618
  162SOL    HW1 2504   0.296   0.157   0.651
  162SOL    HW2 2505   0.302   0.000   0.695
  163SOL     OW 2506   1.622   0.367   0.374
  163SOL    HW1 2507   1.624   0.291   0.438
  163SOL    HW2 2508   1.574   0.444   0.414
  164SOL     OW 2509   0.980   1.573   1.700
  164SOL    HW1 2510   0.960   1.617   1.612
  164SOL    HW2 2511   1.019   1.482   1.684
  165SOL     OW 2512   1.859   1.518   1.605
  165SOL    HW1 2513   1.873   1.545   1.510
  165SOL    HW2 2514   1.942   1.540   1.658
  166SOL     OW 2515   0.350   0.898   1.804
  166SOL    HW1 2516   0.426   0.942   1.852
  166SOL    HW2 2517   0.385   0.851   1.722
  167SOL     OW 2518   1.540   0.274   0.125
  167SOL    HW1 2519   1.479   0.199   0.148
  167SOL    HW2 2520   1.562   0.326   0.208
  168SOL     OW 2521   1.303   0.838   0.042
  168SOL    HW1 2522   1.337   0.745   0.057
  168SOL    HW2 2523   1.321   0.865  -0.053
  169SOL     OW 2524   1.068   1.333   0.849
  169SOL    HW1 2525   1.075   1.249   0.794
  169SOL    HW2 2526   1.130   1.402   0.813
  170SOL     OW 2527   0.319   0.810   0.949
  170SOL    HW1 2528   0.412   0.846   0.954
  170SOL    HW2 2529   0.313   0.725   1.001
  171SOL     OW 2530   0.339   0.509   1.006
  171SOL    HW1 2531   0.287   0.426   0.989
  171SOL    HW2 2532   0.416   0.514   0.942
  172SOL     OW 2533   1.138   0.380   1.678
  172SOL    HW1 2534   1.093   0.443   1.742
  172SOL    HW2 2535   1.231   0.411   1.661
  173SOL     OW 2536   1.160   0.207   1.477
  173SOL    HW1 2537   1.160   0.271   1.554
  173SOL    HW2 2538   1.188   0.255   1.394
  174SOL     OW 2539   0.088   1.801   0.927
  174SOL    HW1 2540   0.046   1.715   0.900
  174SOL    HW2 2541   0.182   1.804   0.893
  175SOL     OW 2542   0.040   0.544   1.114
  175SOL    HW1 2543   0.125   0.511   1.073
  175SOL    HW2 2544   0.053   0.559   1.212
  176SOL     OW 2545   0.189   0.520   1.722
  176SOL    HW1 2546   0.248   0.480   1.652
  176SOL    HW2 2547   0.131   0.591   1.681
  177SOL     OW 2548   1.369   0.950   1.660
  177SOL    HW1 2549   1.408   1.039   1.680
  177SOL    HW2 2550   1.379   0.930   1.563
  178SOL     OW 2551   0.815   0.572   0.325
  178SOL    HW1 2552   0.822   0.483   0.279
  178SOL    HW2 2553   0.721   0.606   0.317
  179SOL     OW 2554   1.657   0.604   1.206
  179SOL    HW1 2555   1.619   0.535   1.268
  179SOL    HW2 2556   1.739   0.568   1.162
  180SOL     OW 2557   0.252   1.564   1.744
  180SOL    HW1 2558   0.222   1.621   1.820
  180SOL    HW2 2559   0.245   1.467   1.770
  181SOL     OW 2560   0.671   0.464   1.269
  181SOL    HW1 2561   0.637   0.375   1.239
  181SOL    HW2 2562   0.697   0.518   1.189
  182SOL     OW 2563   0.473   0.500   0.191
  182SOL    HW1 2564   0.534   0.580   0.195
  182SOL    HW2 2565   0.378   0.531   0.198
  183SOL     OW 2566   0.159   1.137   1.466
  183SOL    HW1 2567   0.181   1.076   1.542
  183SOL    HW2 2568   0.169   1.088   1.380
  184SOL     OW 2569   1.347   1.059   1.234
  184SOL    HW1 2570   1.371   0.996   1.160
  184SOL    HW2 2571   1.257   1.099   1.216
  185SOL     OW 2572   1.759   1.747   1.154
  185SOL    HW1 2573   1.820   1.777   1.081
  185SOL    HW2 2574   1.721   1.658   1.132
  186SOL     OW 2575   1.252   1.731   1.128
  186SOL    HW1 2576   1.336   1.736   1.074
  186SOL    HW2 2577   1.229   1.635   1.146
  187SOL     OW 2578   0.083   1.258   1.022
  187SOL    HW1 2579   0.078   1.257   1.122
  187SOL    HW2 2580   0.000   1.217   0.984
  188SOL     OW 2581   0.688   1.662   1.716
  188SOL    HW1 2582   0.632   1.743   1.725
  188SOL    HW2 2583   0.740   1.666   1.630
  189SOL     OW 2584   0.903   0.086   0.133
  189SOL    HW1 2585   0.954   0.087   0.047
  189SOL    HW2 2586   0.959   0.044   0.204
  190SOL     OW 2587   1.726   0.135   0.523
  190SOL    HW1 2588   1.799   0.118   0.456
  190SOL    HW2 2589   1.695   0.048   0.561
  191SOL     OW 2590   1.388   1.573   0.477
  191SOL    HW1 2591   1.455   1.585   0.403
  191SOL    HW2 2592   1.348   1.662   0.500
  192SOL     OW 2593   0.130   1.794   1.851
  192SOL    HW1 2594   0.089   1.720   1.904
  192SOL    HW2 2595   0.194   1.845   1.909
  193SOL     OW 2596   0.672   1.616   0.154
  193SOL    HW1 2597   0.681   1.626   0.055
  193SOL    HW2 2598   0.632   1.527   0.175
  194SOL     OW 2599   1.650   1.720   1.394
  194SOL    HW1 2600   1.703   1.730   1.310
  194SOL    HW2 2601   1.623   1.810   1.428
  195SOL     OW 2602   1.841   0.175   0.963
  195SOL    HW1 2603   1.880   0.090   0.927
  195SOL    HW2 2604   1.743   0.177   0.944
  196SOL     OW 2605   0.263   0.326   0.720
  196SOL    HW1 2606   0.184   0.377   0.686
  196SOL    HW2 2607   0.254   0.311   0.818
  197SOL     OW 2608   1.194   1.612   0.031
  197SOL    HW1 2609   1.200   1.519   0.068
  197SOL    HW2 2610   1.135   1.612  -0.049
  198SOL     OW 2611   0.822   1.002   1.372
  198SOL    HW1 2612   0.862   1.001   1.280
  198SOL    HW2 2613   0.832   1.094   1.412
  199SOL     OW 2614   1.504   1.607   0.044
  199SOL    HW1 2615   1.412   1.644   0.051
  199SOL    HW2 2616   1.542   1.627  -0.046
  200SOL     OW 2617   0.372   1.288   1.490
  200SOL    HW1 2618   0.359   1.381   1.456
  200SOL    HW2 2619   0.288   1.236   1.477
  201SOL     OW 2620   1.614   1.292   1.289
  201SOL    HW1 2621   1.674   1.295   1.369
  201SOL    HW2 2622   1.539   1.356   1.302
  202SOL     OW 2623   1.039   1.098   0.696
  202SOL    HW1 2624   0.969   1.051   0.750
  202SOL    HW2 2625   1.098   1.030   0.653
  203SOL     OW 2626   1.709   0.385   1.381
  203SOL    HW1 2627   1.782   0.454   1.385
  203SOL    HW2 2628   1.737   0.310   1.322
  204SOL     OW 2629   0.105   1.013   1.726
  204SOL    HW1 2630   0.028   0.980   1.780
  204SOL    HW2 2631   0.190   0.983   1.768
  205SOL     OW 2632   0.672   0.203   1.489
  205SOL    HW1 2633   0.762   0.187   1.449
  205SOL    HW2 2634   0.680   0.208   1.588
  206SOL     OW 2635   0.075   0.345   0.033
  206SOL    HW1 2636  -0.017   0.317   0.004
  206SOL    HW2 2637   0.106   0.422  -0.023
  207SOL     OW 2638   1.440   0.856   1.398
  207SOL    HW1 2639   1.383   0.908   1.335
  207SOL    HW2 2640   1.536   0.868   1.374
  208SOL     OW 2641   0.072   0.166   0.318
  208SOL    HW1 2642   0.055   0.249   0.264
  208SOL    HW2 2643   0.162   0.129   0.296
  209SOL     OW 2644   1.183   1.335   0.119
  209SOL    HW1 2645   1.084   1.324   0.121
  209SOL    HW2 2646   1.217   1.350   0.212
  210SOL     OW 2647   1.493   1.767   0.959
  210SOL    HW1 2648   1.526   1.831   0.890
  210SOL    HW2 2649   1.559   1.761   1.034
  211SOL     OW 2650   1.450   1.220   1.633
  211SOL    HW1 2651   1.441   1.210   1.732
  211SOL    HW2 2652   1.546   1.213   1.607
  212SOL     OW 2653   0.390   1.741   1.560
  212SOL    HW1 2654   0.299   1.782   1.558
  212SOL    HW2 2655   0.383   1.647   1.592
  213SOL     OW 2656   1.674   0.883   1.254
  213SOL    HW1 2657   1.647   0.794   1.217
  213SOL    HW2 2658   1.675   0.951   1.181
  214SOL     OW 2659   0.594   0.745   0.652
  214SOL    HW1 2660   0.644   0.830   0.633
  214SOL    HW2 2661   0.506   0.747   0.604
  215SOL     OW 2662   1.777   0.342   1.642
  215SOL    HW1 2663   1.760   0.373   1.548
  215SOL    HW2 2664   1.693   0.305   1.680
  216SOL     OW 2665   1.730   0.934   1.517
  216SOL    HW1 2666   1.768   1.025   1.532
  216SOL    HW2 2667   1.722   0.917   1.418
  217SOL     OW 2668   0.859   1.374   0.016
  217SOL    HW1 2669   0.813   1.389   0.104
  217SOL    HW2 2670   0.903   1.459  -0.014
  218SOL     OW 2671   0.661   1.790   0.953
  218SOL    HW1 2672   0.615   1.878   0.940
  218SOL    HW2 2673   0.760   1.802   0.946
  219SOL     OW 2674   1.861   1.569   0.851
  219SOL    HW1 2675   1.790   1.557   0.781
  219SOL    HW2 2676   1.862   1.490   0.911
  220SOL     OW 2677   0.221   1.314   1.844
  220SOL    HW1 2678   0.156   1.241   1.823
  220SOL    HW2 2679   0.225   1.328   1.942
  221SOL     OW 2680   0.079   1.240   0.653
  221SOL    HW1 2681   0.078   1.193   0.741
  221SOL    HW2 2682   0.161   1.212   0.602
  222SOL     OW 2683   0.672   1.391   1.624
  222SOL    HW1 2684   0.594   1.341   1.662
  222SOL    HW2 2685   0.669   1.486   1.655
  223SOL     OW 2686   1.824   0.192   1.227
  223SOL    HW1 2687   1.820   0.102   1.271
  223SOL    HW2 2688   1.827   0.181   1.128
  224SOL     OW 2689   0.428   0.424   0.520
  224SOL    HW1 2690   0.458   0.352   0.458
  224SOL    HW2 2691   0.389   0.384   0.603
  225SOL     OW 2692   1.705   1.487   1.104
  225SOL    HW1 2693   1.612   1.462   1.077
  225SOL    HW2 2694   1.731   1.437   1.186
  226SOL     OW 2695   0.317   0.547   1.280
  226SOL    HW1 2696   0.355   0.488   1.352
  226SOL    HW2 2697   0.357   0.521   1.192
  227SOL     OW 2698   1.001   0.034   1.154
  227SOL    HW1 2699   0.938  -0.038   1.123
  227SOL    HW2 2700   1.094  -0.002   1.154
  228SOL     OW 2701   0.770   1.330   0.301
  228SOL    HW1 2702   0.724   1.243   0.318
  228SOL    HW2 2703   0.861   1.327   0.342
  229SOL     OW 2704   0.618   1.567   1.284
  229SOL    HW1 2705   0.613   1.649   1.341
  229SOL    HW2 2706   0.707   1.564   1.239
  230SOL     OW 2707   1.352   0.052   0.168
  230SOL    HW1 2708   1.387   0.011   0.084
  230SOL    HW2 2709   1.262   0.014   0.188
  231SOL     OW 2710   1.593   0.221   0.882
  231SOL    HW1 2711   1.509   0.220   0.936
  231SOL    HW2 2712   1.595   0.304   0.826
  232SOL     OW 2713   0.039   1.077   0.300
  232SOL    HW1 2714   0.138   1.066   0.291
  232SOL    HW2 2715  -0.001   0.991   0.332
  233SOL     OW 2716   0.875   1.646   0.337
  233SOL    HW1 2717   0.798   1.611   0.283
  233SOL    HW2 2718   0.843   1.717   0.399
  234SOL     OW 2719   0.230   0.628   1.975
  234SOL    HW1 2720   0.137   0.626   2.012
  234SOL    HW2 2721   0.231   0.589   1.883
  235SOL     OW 2722   0.225   0.275   2.858
  235SOL    HW1 2723   0.260   0.258   2.950
  235SOL    HW2 2724   0.137   0.230   2.846
  236SOL     OW 2725   0.019   0.368   2.509
  236SOL    HW1 2726  -0.063   0.411   2.548
  236SOL    HW2 2727  -0.009   0.295   2.446
  237SOL     OW 2728   0.569   1.275   3.027
  237SOL    HW1 2729   0.476   1.268   2.990
  237SOL    HW2 2730   0.580   1.364   3.071
  238SOL     OW 2731   1.555   1.511   2.565
  238SOL    HW1 2732   1.498   1.495   2.646
  238SOL    HW2 2733   1.496   1.521   2.485
  239SOL     OW 2734   1.135   0.703   2.579
  239SOL    HW1 2735   1.192   0.781   2.554
  239SOL    HW2 2736   1.075   0.729   2.655
  240SOL     OW 2737   1.755   0.607   2.093
  240SOL    HW1 2738   1.743   0.594   1.994
  240SOL    HW2 2739   1.725   0.526   2.142
  241SOL     OW 2740   0.768   1.144   2.885
  241SOL    HW1 2741   0.690   1.161   2.945
  241SOL    HW2 2742   0.802   1.231   2.849
  242SOL     OW 2743   0.850   0.798   3.685
  242SOL    HW1 2744   0.846   0.874   3.750
  242SOL    HW2 2745   0.872   0.834   3.594
  243SOL     OW 2746   0.686   1.161   3.665
  243SOL    HW1 2747   0.746   1.240   3.679
  243SOL    HW2 2748   0.600   1.192   3.624
  244SOL     OW 2749   0.335   1.435   2.923
  244SOL    HW1 2750   0.257   1.404   2.870
  244SOL    HW2 2751   0.393   1.493   2.866
  245SOL     OW 2752   1.460   1.505   3.201
  245SOL    HW1 2753   1.484   1.599   3.227
  245SOL    HW2 2754   1.444   1.451   3.283
  246SOL     OW 2755   0.438   0.392   3.361
  246SOL    HW1 2756   0.520   0.336   3.370
  246SOL    HW2 2757   0.357   0.334   3.365
  247SOL     OW 2758   1.603   0.447   2.599
  247SOL    HW1 2759   1.529   0.493   2.549
  247SOL    HW2 2760   1.654   0.515   2.652
  248SOL     OW 2761   0.231   1.713   2.345
  248SOL    HW1 2762   0.265   1.790   2.399
  248SOL    HW2 2763   0.275   1.713   2.255
  249SOL     OW 2764   0.240   1.091   2.748
  249SOL    HW1 2765   0.254   1.007   2.800
  249SOL    HW2 2766   0.185   1.155   2.803
  250SOL     OW 2767   1.594   0.114   3.342
  250SOL    HW1 2768   1.576   0.181   3.270
  250SOL    HW2 2769   1.591   0.160   3.431
  251SOL     OW 2770   0.027   1.596   1.979
  251SOL    HW1 2771   0.008   1.500   2.000
  251SOL    HW2 2772  -0.006   1.654   2.054
  252SOL     OW 2773   1.689   0.922   2.474
  252SOL    HW1 2774   1.784   0.893   2.482
  252SOL    HW2 2775   1.681   0.987   2.399
  253SOL     OW 2776   1.641   1.108   2.294
  253SOL    HW1 2777   1.727   1.110   2.242
  253SOL    HW2 2778   1.655   1.155   2.382
  254SOL     OW 2779   0.613   1.365   2.588
  254SOL    HW1 2780   0.564   1.278   2.597
  254SOL    HW2 2781   0.590   1.408   2.501
  255SOL     OW 2782   1.293   1.228   3.285
  255SOL    HW1 2783   1.330   1.155   3.227
  255SOL    HW2 2784   1.345   1.233   3.370
  256SOL     OW 2785   1.525   0.999   2.052
  256SOL    HW1 2786   1.462   0.923   2.065
  256SOL    HW2 2787   1.573   1.017   2.138
  257SOL     OW 2788   1.187   1.792   3.478
  257SOL    HW1 2789   1.211   1.852   3.402
  257SOL    HW2 2790   1.194   1.697   3.448
  258SOL     OW 2791   1.466   1.417   2.815
  258SOL    HW1 2792   1.407   1.423   2.895
  258SOL    HW2 2793   1.451   1.329   2.769
  259SOL     OW 2794   1.281   0.345   2.806
  259SOL    HW1 2795   1.195   0.295   2.793
  259SOL    HW2 2796   1.343   0.291   2.862
  260SOL     OW 2797   1.394   0.469   3.536
  260SOL    HW1 2798   1.374   0.512   3.624
  260SOL    HW2 2799   1.472   0.407   3.545
  261SOL     OW 2800   0.973   0.890   3.434
  261SOL    HW1 2801   1.019   0.806   3.405
  261SOL    HW2 2802   0.917   0.924   3.359
  262SOL     OW 2803   0.991   0.410   3.104
  262SOL    HW1 2804   0.914   0.444   3.158
  262SOL    HW2 2805   0.957   0.359   3.025
  263SOL     OW 2806   1.041   0.701   2.291
  263SOL    HW1 2807   1.067   0.697   2.387
  263SOL    HW2 2808   0.956   0.650   2.277
  264SOL     OW 2809   0.130   1.821   3.433
  264SOL    HW1 2810   0.120   1.806   3.532
  264SOL    HW2 2811   0.044   1.857   3.397
  265SOL     OW 2812   0.865   0.348   2.057
  265SOL    HW1 2813   0.924   0.411   2.008
  265SOL    HW2 2814   0.884   0.254   2.028
  266SOL     OW 2815   1.719   0.585   3.693
  266SOL    HW1 2816   1.693   0.674   3.657
  266SOL    HW2 2817   1.717   0.517   3.620
  267SOL     OW 2818   1.362   1.144   2.407
  267SOL    HW1 2819   1.445   1.115   2.359
  267SOL    HW2 2820   1.313   1.211   2.351
  268SOL     OW 2821   0.550   0.196   2.747
  268SOL    HW1 2822   0.545   0.191   2.847
  268SOL    HW2 2823   0.552   0.292   2.718
  269SOL     OW 2824   0.351   1.801   2.715
  269SOL    HW1 2825   0.401   1.715   2.721
  269SOL    HW2 2826   0.416   1.878   2.712
  270SOL     OW 2827   1.795   1.066   2.735
  270SOL    HW1 2828   1.733   1.051   2.659
  270SOL    HW2 2829   1.743   1.077   2.820
  271SOL     OW 2830   1.227   1.550   3.368
  271SOL    HW1 2831   1.233   1.473   3.432
  271SOL    HW2 2832   1.175   1.524   3.288
  272SOL     OW 2833   0.321   0.943   2.104
  272SOL    HW1 2834   0.403   0.982   2.062
  272SOL    HW2 2835   0.294   0.861   2.055
  273SOL     OW 2836   1.458   0.735   2.590
  273SOL    HW1 2837   1.453   0.670   2.665
  273SOL    HW2 2838   1.538   0.794   2.603
  274SOL     OW 2839   1.111   1.776   2.099
  274SOL    HW1 2840   1.051   1.714   2.149
  274SOL    HW2 2841   1.142   1.732   2.014
  275SOL     OW 2842   1.632   1.377   1.943
  275SOL    HW1 2843   1.600   1.471   1.933
  275SOL    HW2 2844   1.556   1.314   1.931
  276SOL     OW 2845   0.464   1.743   2.185
  276SOL    HW1 2846   0.497   1.782   2.271
  276SOL    HW2 2847   0.540   1.736   2.120
  277SOL     OW 2848   1.400   0.107   2.288
  277SOL    HW1 2849   1.376   0.070   2.198
  277SOL    HW2 2850   1.499   0.123   2.292
  278SOL     OW 2851   0.249   1.785   3.103
  278SOL    HW1 2852   0.306   1.720   3.153
  278SOL    HW2 2853   0.233   1.752   3.010
  279SOL     OW 2854   0.940   1.698   2.766
  279SOL    HW1 2855   1.020   1.641   2.787
  279SOL    HW2 2856   0.891   1.658   2.689
  280SOL     OW 2857   0.382   0.700   2.342
  280SOL    HW1 2858   0.427   0.610   2.339
  280SOL    HW2 2859   0.288   0.689   2.375
  281SOL     OW 2860   1.547   0.222   3.591
  281SOL    HW1 2861   1.542   0.259   3.683
  281SOL    HW2 2862   1.475   0.153   3.579
  282SOL     OW 2863   0.781   0.264   3.611
  282SOL    HW1 2864   0.848   0.203   3.654
  282SOL    HW2 2865   0.708   0.283   3.676
  283SOL     OW 2866   0.888   1.514   3.057
  283SOL    HW1 2867   0.865   1.489   2.963
  283SOL    HW2 2868   0.949   1.445   3.096
  284SOL     OW 2869   1.351   0.590   3.295
  284SOL    HW1 2870   1.379   0.547   3.380
  284SOL    HW2 2871   1.376   0.686   3.296
  285SOL     OW 2872   0.803   1.402   2.786
  285SOL    HW1 2873   0.893   1.416   2.744
  285SOL    HW2 2874   0.732   1.404   2.715
  286SOL     OW 2875   0.922   0.503   2.761
  286SOL    HW1 2876   0.897   0.494   2.665
  286SOL    HW2 2877   0.970   0.421   2.792
  287SOL     OW 2878   1.434   1.188   1.903
  287SOL    HW1 2879   1.466   1.112   1.960
  287SOL    HW2 2880   1.342   1.215   1.933
  288SOL     OW 2881   0.297   0.035   2.033
  288SOL    HW1 2882   0.346   0.119   2.012
  288SOL    HW2 2883   0.359  -0.030   2.078
  289SOL     OW 2884   0.935   0.236   2.342
  289SOL    HW1 2885   0.887   0.277   2.264
  289SOL    HW2 2886   1.034   0.234   2.323
  290SOL     OW 2887   1.076   0.683   3.326
  290SOL    HW1 2888   0.996   0.622   3.329
  290SOL    HW2 2889   1.157   0.630   3.302
  291SOL     OW 2890   1.227   1.570   2.655
  291SOL    HW1 2891   1.248   1.644   2.590
  291SOL    HW2 2892   1.295   1.570   2.728
  292SOL     OW 2893   0.459   1.152   2.603
  292SOL    HW1 2894   0.388   1.125   2.668
  292SOL    HW2 2895   0.433   1.124   2.510
  293SOL     OW 2896   1.271   1.797   2.453
  293SOL    HW1 2897   1.315   1.861   2.389
  293SOL    HW2 2898   1.221   1.849   2.523
  294SOL     OW 2899   1.032   0.549   1.878
  294SOL    HW1 2900   0.991   0.631   1.839
  294SOL    HW2 2901   1.096   0.575   1.951
  295SOL     OW 2902   0.078   0.556   3.248
  295SOL    HW1 2903   0.170   0.555   3.207
  295SOL    HW2 2904   0.072   0.630   3.315
  296SOL     OW 2905   0.561   0.222   3.009
  296SOL    HW1 2906   0.599   0.138   3.046
  296SOL    HW2 2907   0.473   0.241   3.053
  297SOL     OW 2908   0.866   0.454   2.504
  297SOL    HW1 2909   0.834   0.526   2.442
  297SOL    HW2 2910   0.890   0.373   2.451
  298SOL     OW 2911   1.017   0.039   2.615
  298SOL    HW1 2912   0.945   0.044   2.546
  298SOL    HW2 2913   0.993  -0.030   2.684
  299SOL     OW 2914   1.429   1.173   2.729
  299SOL    HW1 2915   1.374   1.089   2.722
  299SOL    HW2 2916   1.455   1.202   2.637
  300SOL     OW 2917   1.466   0.590   2.854
  300SOL    HW1 2918   1.436   0.495   2.861
  300SOL    HW2 2919   1.539   0.606   2.920
  301SOL     OW 2920   1.857   0.833   2.239
  301SOL    HW1 2921   1.899   0.769   2.303
  301SOL    HW2 2922   1.819   0.782   2.161
  302SOL     OW 2923   0.488   1.385   2.036
  302SOL    HW1 2924   0.401   1.370   2.083
  302SOL    HW2 2925   0.471   1.411   1.941
  303SOL     OW 2926   1.664   1.280   2.519
  303SOL    HW1 2927   1.763   1.288   2.533
  303SOL    HW2 2928   1.619   1.364   2.550
  304SOL     OW 2929   1.390   0.575   1.940
  304SOL    HW1 2930   1.336   0.554   2.021
  304SOL    HW2 2931   1.481   0.534   1.949
  305SOL     OW 2932   1.754   1.223   3.450
  305SOL    HW1 2933   1.845   1.184   3.437
  305SOL    HW2 2934   1.762   1.319   3.474
  306SOL     OW 2935   1.064   1.347   3.202
  306SOL    HW1 2936   0.984   1.324   3.257
  306SOL    HW2 2937   1.147   1.321   3.251
  307SOL     OW 2938   1.592   1.629   3.487
  307SOL    HW1 2939   1.619   1.663   3.397
  307SOL    HW2 2940   1.671   1.591   3.533
  308SOL     OW 2941   1.111   1.195   2.962
  308SOL    HW1 2942   1.071   1.239   3.043
  308SOL    HW2 2943   1.070   1.232   2.879
  309SOL     OW 2944   1.638   1.099   2.941
  309SOL    HW1 2945   1.643   1.180   3.000
  309SOL    HW2 2946   1.552   1.101   2.890
  310SOL     OW 2947   0.915   0.089   3.264
  310SOL    HW1 2948   0.940   0.069   3.169
  310SOL    HW2 2949   0.987   0.145   3.306
  311SOL     OW 2950   0.980   1.116   3.581
  311SOL    HW1 2951   0.881   1.122   3.591
  311SOL    HW2 2952   1.003   1.036   3.525
  312SOL     OW 2953   1.274   0.386   3.124
  312SOL    HW1 2954   1.295   0.460   3.188
  312SOL    HW2 2955   1.185   0.403   3.081
  313SOL     OW 2956   0.064   1.564   3.193
  313SOL    HW1 2957   0.018   1.646   3.159
  313SOL    HW2 2958   0.162   1.583   3.202
  314SOL     OW 2959   0.367   1.100   2.363
  314SOL    HW1 2960   0.360   1.183   2.307
  314SOL    HW2 2961   0.371   1.020   2.303
  315SOL     OW 2962   1.252   1.348   2.250
  315SOL    HW1 2963   1.302   1.425   2.290
  315SOL    HW2 2964   1.157   1.350   2.282
  316SOL     OW 2965   1.272   1.445   3.004
  316SOL    HW1 2966   1.319   1.458   3.091
  316SOL    HW2 2967   1.206   1.371   3.013
  317SOL     OW 2968   1.582   0.639   2.334
  317SOL    HW1 2969   1.551   0.700   2.407
  317SOL    HW2 2970   1.632   0.691   2.265
  318SOL     OW 2971   0.354   1.510   3.191
  318SOL    HW1 2972   0.333   1.466   3.104
  318SOL    HW2 2973   0.451   1.536   3.194
  319SOL     OW 2974   1.587   0.779   3.532
  319SOL    HW1 2975   1.495   0.817   3.527
  319SOL    HW2 2976   1.647   0.826   3.467
  320SOL     OW 2977   1.013   0.105   3.632
  320SOL    HW1 2978   1.019   0.190   3.580
  320SOL    HW2 2979   1.045   0.029   3.575
  321SOL     OW 2980   0.504   0.050   3.602
  321SOL    HW1 2981   0.462  -0.007   3.532
  321SOL    HW2 2982   0.438   0.119   3.634
  322SOL     OW 2983   1.360   0.862   2.907
  322SOL    HW1 2984   1.285   0.862   2.841
  322SOL    HW2 2985   1.397   0.770   2.916
  323SOL     OW 2986   1.209   0.525   2.137
  323SOL    HW1 2987   1.222   0.441   2.191
  323SOL    HW2 2988   1.180   0.599   2.197
  324SOL     OW 2989   0.307   0.213   3.093
  324SOL    HW1 2990   0.284   0.250   3.183
  324SOL    HW2 2991   0.277   0.118   3.087
  325SOL     OW 2992   0.037   1.310   3.144
  325SOL    HW1 2993   0.090   1.261   3.212
  325SOL    HW2 2994   0.059   1.408   3.149
  326SOL     OW 2995   1.728   0.935   3.716
  326SOL    HW1 2996   1.682   0.928   3.627
  326SOL    HW2 2997   1.666   0.979   3.782
  327SOL     OW 2998   1.622   0.367   2.236
  327SOL    HW1 2999   1.624   0.291   2.300
  327SOL    HW2 3000   1.574   0.444   2.276
  328SOL     OW 3001   1.023   0.766   2.828
  328SOL    HW1 3002   1.038   0.787   2.924
  328SOL    HW2 3003   0.993   0.671   2.819
  329SOL     OW 3004   0.980   1.573   3.562
  329SOL    HW1 3005   0.960   1.617   3.474
  329SOL    HW2 3006   1.019   1.482   3.546
  330SOL     OW 3007   1.859   1.518   3.467
  330SOL    HW1 3008   1.873   1.545   3.372
  330SOL    HW2 3009   1.942   1.540   3.520
  331SOL     OW 3010   1.540   0.274   1.987
  331SOL    HW1 3011   1.479   0.199   2.010
  331SOL    HW2 3012   1.562   0.326   2.070
  332SOL     OW 3013   1.303   0.838   1.904
  332SOL    HW1 3014   1.337   0.745   1.919
  332SOL    HW2 3015   1.321   0.865   1.809
  333SOL     OW 3016   1.068   1.333   2.711
  333SOL    HW1 3017   1.075   1.249   2.656
  333SOL    HW2 3018   1.130   1.402   2.675
  334SOL     OW 3019   1.138   0.380   3.540
  334SOL    HW1 3020   1.093   0.443   3.604
  334SOL    HW2 3021   1.231   0.411   3.523
  335SOL     OW 3022   1.160   0.207   3.339
  335SOL    HW1 3023   1.160   0.271   3.416
  335SOL    HW2 3024   1.188   0.255   3.256
  336SOL     OW 3025   0.088   1.801   2.789
  336SOL    HW1 3026   0.046   1.715   2.762
  336SOL    HW2 3027   0.182   1.804   2.755
  337SOL     OW 3028   0.504   1.568   2.772
  337SOL    HW1 3029   0.570   1.642   2.781
  337SOL    HW2 3030   0.548   1.489   2.730
  338SOL     OW 3031   1.369   0.950   3.522
  338SOL    HW1 3032   1.408   1.039   3.542
  338SOL    HW2 3033   1.379   0.930   3.425
  339SOL     OW 3034   0.815   0.572   2.187
  339SOL    HW1 3035   0.822   0.483   2.141
  339SOL    HW2 3036   0.721   0.606   2.179
  340SOL     OW 3037   1.657   0.604   3.068
  340SOL    HW1 3038   1.619   0.535   3.130
  340SOL    HW2 3039   1.739   0.568   3.024
  341SOL     OW 3040   0.671   0.464   3.131
  341SOL    HW1 3041   0.637   0.375   3.101
  341SOL    HW2 3042   0.697   0.518   3.051
  342SOL     OW 3043   0.930   1.678   3.327
  342SOL    HW1 3044   0.906   1.660   3.232
  342SOL    HW2 3045   0.960   1.772   3.337
  343SOL     OW 3046   0.473   0.500   2.053
  343SOL    HW1 3047   0.534   0.580   2.057
  343SOL    HW2 3048   0.378   0.531   2.060
  344SOL     OW 3049   1.347   1.059   3.096
  344SOL    HW1 3050   1.371   0.996   3.022
  344SOL    HW2 3051   1.257   1.099   3.078
  345SOL     OW 3052   1.302   0.855   2.171
  345SOL    HW1 3053   1.216   0.824   2.213
  345SOL    HW2 3054   1.298   0.841   2.072
  346SOL     OW 3055   1.759   1.747   3.016
  346SOL    HW1 3056   1.820   1.777   2.943
  346SOL    HW2 3057   1.721   1.658   2.994
  347SOL     OW 3058   1.252   1.731   2.990
  347SOL    HW1 3059   1.336   1.736   2.936
  347SOL    HW2 3060   1.229   1.635   3.008
  348SOL     OW 3061   0.083   1.258   2.884
  348SOL    HW1 3062   0.078   1.257   2.984
  348SOL    HW2 3063   0.000   1.217   2.846
  349SOL     OW 3064   1.726   0.135   2.385
  349SOL    HW1 3065   1.799   0.118   2.318
  349SOL    HW2 3066   1.695   0.048   2.423
  350SOL     OW 3067   1.388   1.573   2.339
  350SOL    HW1 3068   1.455   1.585   2.265
  350SOL    HW2 3069   1.348   1.662   2.362
  351SOL     OW 3070   1.280   0.927   2.534
  351SOL    HW1 3071   1.340   0.846   2.536
  351SOL    HW2 3072   1.320   0.996   2.474
  352SOL     OW 3073   0.672   1.616   2.016
  352SOL    HW1 3074   0.681   1.626   1.917
  352SOL    HW2 3075   0.632   1.527   2.037
  353SOL     OW 3076   1.650   1.720   3.256
  353SOL    HW1 3077   1.703   1.730   3.172
  353SOL    HW2 3078   1.623   1.810   3.290
  354SOL     OW 3079   1.841   0.175   2.825
  354SOL    HW1 3080   1.880   0.090   2.789
  354SOL    HW2 3081   1.743   0.177   2.806
  355SOL     OW 3082   0.263   0.326   2.582
  355SOL    HW1 3083   0.184   0.377   2.548
  355SOL    HW2 3084   0.254   0.311   2.680
  356SOL     OW 3085   1.194   1.612   1.893
  356SOL    HW1 3086   1.200   1.519   1.930
  356SOL    HW2 3087   1.135   1.612   1.813
  357SOL     OW 3088   0.822   1.002   3.234
  357SOL    HW1 3089   0.862   1.001   3.142
  357SOL    HW2 3090   0.832   1.094   3.274
  358SOL     OW 3091   0.916   0.910   2.153
  358SOL    HW1 3092   0.979   0.948   2.085
  358SOL    HW2 3093   0.956   0.827   2.192
  359SOL     OW 3094   1.614   1.292   3.151
  359SOL    HW1 3095   1.674   1.295   3.231
  359SOL    HW2 3096   1.539   1.356   3.164
  360SOL     OW 3097   1.039   1.098   2.558
  360SOL    HW1 3098   0.969   1.051   2.612
  360SOL    HW2 3099   1.098   1.030   2.515
  361SOL     OW 3100   1.014   0.236   2.833
  361SOL    HW1 3101   1.006   0.200   2.740
  361SOL    HW2 3102   1.012   0.160   2.898
  362SOL     OW 3103   0.590   1.487   2.353
  362SOL    HW1 3104   0.632   1.429   2.283
  362SOL    HW2 3105   0.546   1.566   2.309
  363SOL     OW 3106   1.709   0.385   3.243
  363SOL    HW1 3107   1.782   0.454   3.247
  363SOL    HW2 3108   1.737   0.310   3.184
  364SOL     OW 3109   0.672   0.203   3.351
  364SOL    HW1 3110   0.762   0.187   3.311
  364SOL    HW2 3111   0.680   0.208   3.450
  365SOL     OW 3112   0.075   0.345   1.895
  365SOL    HW1 3113  -0.017   0.317   1.866
  365SOL    HW2 3114   0.106   0.422   1.839
  366SOL     OW 3115   1.440   0.856   3.260
  366SOL    HW1 3116   1.383   0.908   3.197
  366SOL    HW2 3117   1.536   0.868   3.236
  367SOL     OW 3118   0.072   0.166   2.180
  367SOL    HW1 3119   0.055   0.249   2.126
  367SOL    HW2 3120   0.162   0.129   2.158
  368SOL     OW 3121   1.183   1.335   1.981
  368SOL    HW1 3122   1.084   1.324   1.983
  368SOL    HW2 3123   1.217   1.350   2.074
  369SOL     OW 3124   1.493   1.767   2.821
  369SOL    HW1 3125   1.526   1.831   2.752
  369SOL    HW2 3126   1.559   1.761   2.896
  370SOL     OW 3127   0.716   0.565   3.570
  370SOL    HW1 3128   0.735   0.630   3.644
  370SOL    HW2 3129   0.776   0.485   3.579
  371SOL     OW 3130   1.450   1.220   3.495
  371SOL    HW1 3131   1.441   1.210   3.594
  371SOL    HW2 3132   1.546   1.213   3.469
  372SOL     OW 3133   1.674   0.883   3.116
  372SOL    HW1 3134   1.647   0.794   3.079
  372SOL    HW2 3135   1.675   0.951   3.043
  373SOL     OW 3136   1.225   0.325   2.311
  373SOL    HW1 3137   1.290   0.251   2.300
  373SOL    HW2 3138   1.245   0.375   2.395
  374SOL     OW 3139   0.594   0.745   2.514
  374SOL    HW1 3140   0.644   0.830   2.495
  374SOL    HW2 3141   0.506   0.747   2.466
  375SOL     OW 3142   1.777   0.342   3.504
  375SOL    HW1 3143   1.760   0.373   3.410
  375SOL    HW2 3144   1.693   0.305   3.542
  376SOL     OW 3145   1.730   0.934   3.379
  376SOL    HW1 3146   1.768   1.025   3.394
  376SOL    HW2 3147   1.722   0.917   3.280
  377SOL     OW 3148   0.661   1.790   2.815
  377SOL    HW1 3149   0.615   1.878   2.802
  377SOL    HW2 3150   0.760   1.802   2.808
  378SOL     OW 3151   0.859   0.956   2.723
  378SOL    HW1 3152   0.913   0.887   2.771
  378SOL    HW2 3153   0.827   1.025   2.789
  379SOL     OW 3154   1.861   1.569   2.713
  379SOL    HW1 3155   1.790   1.557   2.643
  379SOL    HW2 3156   1.862   1.490   2.773
  380SOL     OW 3157   0.221   1.314   3.706
  380SOL    HW1 3158   0.156   1.241   3.685
  380SOL    HW2 3159   0.225   1.328   3.804
  381SOL     OW 3160   1.824   0.192   3.089
  381SOL    HW1 3161   1.820   0.102   3.133
  381SOL    HW2 3162   1.827   0.181   2.990
  382SOL     OW 3163   0.428   0.424   2.382
  382SOL    HW1 3164   0.458   0.352   2.320
  382SOL    HW2 3165   0.389   0.384   2.465
  383SOL     OW 3166   1.705   1.487   2.966
  383SOL    HW1 3167   1.612   1.462   2.939
  383SOL    HW2 3168   1.731   1.437   3.048
  384SOL     OW 3169   0.317   0.547   3.142
  384SOL    HW1 3170   0.355   0.488   3.214
  384SOL    HW2 3171   0.357   0.521   3.054
  385SOL     OW 3172   0.812   1.586   2.549
  385SOL    HW1 3173   0.844   1.596   2.455
  385SOL    HW2 3174   0.733   1.524   2.551
  386SOL     OW 3175   1.424   0.214   2.974
  386SOL    HW1 3176   1.476   0.149   3.029
  386SOL    HW2 3177   1.375   0.277   3.035
  387SOL     OW 3178   1.001   0.034   3.016
  387SOL    HW1 3179   0.938  -0.038   2.985
  387SOL    HW2 3180   1.094  -0.002   3.016
  388SOL     OW 3181   1.352   0.052   2.030
  388SOL    HW1 3182   1.387   0.011   1.946
  388SOL    HW2 3183   1.262   0.014   2.050
  389SOL     OW 3184   1.300   0.453   2.553
  389SOL    HW1 3185   1.241   0.533   2.557
  389SOL    HW2 3186   1.315   0.418   2.646
  390SOL     OW 3187   1.593   0.221   2.744
  390SOL    HW1 3188   1.509   0.220   2.798
  390SOL    HW2 3189   1.595   0.304   2.688
  391SOL     OW 3190   0.039   1.077   2.162
  391SOL    HW1 3191   0.138   1.066   2.153
  391SOL    HW2 3192  -0.001   0.991   2.194
  392SOL     OW 3193   0.875   1.646   2.199
  392SOL    HW1 3194   0.798   1.611   2.145
  392SOL    HW2 3195   0.843   1.717   2.261
  393SOL     OW 3196   0.225   0.275   4.720
  393SOL    HW1 3197   0.260   0.258   4.812
  393SOL    HW2 3198   0.137   0.230   4.708
  394SOL     OW 3199   0.019   0.368   4.371
  394SOL    HW1 3200  -0.063   0.411   4.410
  394SOL    HW2 3201  -0.009   0.295   4.308
  395SOL     OW 3202   0.569   1.275   4.889
  395SOL    HW1 3203   0.476   1.268   4.852
  395SOL    HW2 3204   0.580   1.364   4.933
  396SOL     OW 3205   1.135   0.703   4.441
  396SOL    HW1 3206   1.192   0.781   4.416
  396SOL    HW2 3207   1.075   0.729   4.517
  397SOL     OW 3208   1.755   0.607   3.955
  397SOL    HW1 3209   1.743   0.594   3.856
  397SOL    HW2 3210   1.725   0.526   4.004
  398SOL     OW 3211   0.335   1.435   4.785
  398SOL    HW1 3212   0.257   1.404   4.732
  398SOL    HW2 3213   0.393   1.493   4.728
  399SOL     OW 3214   1.603   0.447   4.461
  399SOL    HW1 3215   1.529   0.493   4.411
  399SOL    HW2 3216   1.654   0.515   4.514
  400SOL     OW 3217   0.231   1.713   4.207
  400SOL    HW1 3218   0.265   1.790   4.261
  400SOL    HW2 3219   0.275   1.713   4.117
  401SOL     OW 3220   0.230   1.434   4.262
  401SOL    HW1 3221   0.204   1.530   4.262
  401SOL    HW2 3222   0.159   1.380   4.307
  402SOL     OW 3223   0.240   1.091   4.610
  402SOL    HW1 3224   0.254   1.007   4.662
  402SOL    HW2 3225   0.185   1.155   4.665
  403SOL     OW 3226   0.620   1.786   5.163
  403SOL    HW1 3227   0.528   1.769   5.198
  403SOL    HW2 3228   0.648   1.878   5.189
  404SOL     OW 3229   0.606   0.964   3.847
  404SOL    HW1 3230   0.613   1.048   3.793
  404SOL    HW2 3231   0.652   0.977   3.935
  405SOL     OW 3232   0.122   0.643   4.287
  405SOL    HW1 3233   0.077   0.555   4.304
  405SOL    HW2 3234   0.121   0.697   4.371
  406SOL     OW 3235   1.842   1.767   4.083
  406SOL    HW1 3236   1.896   1.738   4.163
  406SOL    HW2 3237   1.872   1.857   4.054
  407SOL     OW 3238   0.027   1.596   3.841
  407SOL    HW1 3239   0.008   1.500   3.862
  407SOL    HW2 3240  -0.006   1.654   3.916
  408SOL     OW 3241   1.689   0.922   4.336
  408SOL    HW1 3242   1.784   0.893   4.344
  408SOL    HW2 3243   1.681   0.987   4.261
  409SOL     OW 3244   1.641   1.108   4.156
  409SOL    HW1 3245   1.727   1.110   4.104
  409SOL    HW2 3246   1.655   1.155   4.244
  410SOL     OW 3247   0.809   0.004   4.226
  410SOL    HW1 3248   0.849   0.095   4.217
  410SOL    HW2 3249   0.709   0.012   4.232
  411SOL     OW 3250   0.197   0.976   4.988
  411SOL    HW1 3251   0.286   0.931   4.974
  411SOL    HW2 3252   0.124   0.911   4.969
  412SOL     OW 3253   1.525   0.999   3.914
  412SOL    HW1 3254   1.462   0.923   3.927
  412SOL    HW2 3255   1.573   1.017   4.000
  413SOL     OW 3256   0.598   0.729   3.994
  413SOL    HW1 3257   0.622   0.798   3.926
  413SOL    HW2 3258   0.520   0.762   4.048
  414SOL     OW 3259   1.281   0.345   4.668
  414SOL    HW1 3260   1.195   0.295   4.655
  414SOL    HW2 3261   1.343   0.291   4.724
  415SOL     OW 3262   1.576   1.662   4.031
  415SOL    HW1 3263   1.665   1.708   4.034
  415SOL    HW2 3264   1.555   1.638   3.936
  416SOL     OW 3265   0.991   0.410   4.966
  416SOL    HW1 3266   0.914   0.444   5.020
  416SOL    HW2 3267   0.957   0.359   4.887
  417SOL     OW 3268   1.041   0.701   4.153
  417SOL    HW1 3269   1.067   0.697   4.249
  417SOL    HW2 3270   0.956   0.650   4.139
  418SOL     OW 3271   0.076   0.811   4.513
  418SOL    HW1 3272   0.175   0.799   4.522
  418SOL    HW2 3273   0.052   0.906   4.534
  419SOL     OW 3274   0.130   1.821   5.295
  419SOL    HW1 3275   0.120   1.806   5.394
  419SOL    HW2 3276   0.044   1.857   5.259
  420SOL     OW 3277   0.865   0.348   3.919
  420SOL    HW1 3278   0.924   0.411   3.870
  420SOL    HW2 3279   0.884   0.254   3.890
  421SOL     OW 3280   1.362   1.144   4.269
  421SOL    HW1 3281   1.445   1.115   4.221
  421SOL    HW2 3282   1.313   1.211   4.213
  422SOL     OW 3283   0.550   0.196   4.609
  422SOL    HW1 3284   0.545   0.191   4.709
  422SOL    HW2 3285   0.552   0.292   4.580
  423SOL     OW 3286   0.351   1.801   4.577
  423SOL    HW1 3287   0.401   1.715   4.583
  423SOL    HW2 3288   0.416   1.878   4.574
  424SOL     OW 3289   1.795   1.066   4.597
  424SOL    HW1 3290   1.733   1.051   4.521
  424SOL    HW2 3291   1.743   1.077   4.682
  425SOL     OW 3292   0.321   0.943   3.966
  425SOL    HW1 3293   0.403   0.982   3.924
  425SOL    HW2 3294   0.294   0.861   3.917
  426SOL     OW 3295   1.458   0.735   4.452
  426SOL    HW1 3296   1.453   0.670   4.527
  426SOL    HW2 3297   1.538   0.794   4.465
  427SOL     OW 3298   1.111   1.776   3.961
  427SOL    HW1 3299   1.051   1.714   4.011
  427SOL    HW2 3300   1.142   1.732   3.876
  428SOL     OW 3301   1.632   1.377   3.805
  428SOL    HW1 3302   1.600   1.471   3.795
  428SOL    HW2 3303   1.556   1.314   3.793
  429SOL     OW 3304   0.464   1.743   4.047
  429SOL    HW1 3305   0.497   1.782   4.133
  429SOL    HW2 3306   0.540   1.736   3.982
  430SOL     OW 3307   1.400   0.107   4.150
  430SOL    HW1 3308   1.376   0.070   4.060
  430SOL    HW2 3309   1.499   0.123   4.154
  431SOL     OW 3310   0.249   1.785   4.965
  431SOL    HW1 3311   0.306   1.720   5.015
  431SOL    HW2 3312   0.233   1.752   4.872
  432SOL     OW 3313   0.940   1.698   4.628
  432SOL    HW1 3314   1.020   1.641   4.649
  432SOL    HW2 3315   0.891   1.658   4.551
  433SOL     OW 3316   0.382   0.700   4.204
  433SOL    HW1 3317   0.427   0.610   4.201
  433SOL    HW2 3318   0.288   0.689   4.237
  434SOL     OW 3319   0.614   0.122   3.841
  434SOL    HW1 3320   0.712   0.100   3.848
  434SOL    HW2 3321   0.583   0.105   3.748
  435SOL     OW 3322   0.803   1.402   4.648
  435SOL    HW1 3323   0.893   1.416   4.606
  435SOL    HW2 3324   0.732   1.404   4.577
  436SOL     OW 3325   0.922   0.503   4.623
  436SOL    HW1 3326   0.897   0.494   4.527
  436SOL    HW2 3327   0.970   0.421   4.654
  437SOL     OW 3328   0.539   0.064   4.236
  437SOL    HW1 3329   0.458   0.065   4.294
  437SOL    HW2 3330   0.542   0.147   4.181
  438SOL     OW 3331   1.434   1.188   3.765
  438SOL    HW1 3332   1.466   1.112   3.822
  438SOL    HW2 3333   1.342   1.215   3.795
  439SOL     OW 3334   0.935   0.236   4.204
  439SOL    HW1 3335   0.887   0.277   4.126
  439SOL    HW2 3336   1.034   0.234   4.185
  440SOL     OW 3337   1.227   1.570   4.517
  440SOL    HW1 3338   1.248   1.644   4.452
  440SOL    HW2 3339   1.295   1.570   4.590
  441SOL     OW 3340   1.271   1.797   4.315
  441SOL    HW1 3341   1.315   1.861   4.251
  441SOL    HW2 3342   1.221   1.849   4.385
  442SOL     OW 3343   1.032   0.549   3.740
  442SOL    HW1 3344   0.991   0.631   3.701
  442SOL    HW2 3345   1.096   0.575   3.813
  443SOL     OW 3346   0.561   0.222   4.871
  443SOL    HW1 3347   0.599   0.138   4.908
  443SOL    HW2 3348   0.473   0.241   4.915
  444SOL     OW 3349   0.866   0.454   4.366
  444SOL    HW1 3350   0.834   0.526   4.304
  444SOL    HW2 3351   0.890   0.373   4.313
  445SOL     OW 3352   1.429   1.173   4.591
  445SOL    HW1 3353   1.374   1.089   4.584
  445SOL    HW2 3354   1.455   1.202   4.499
  446SOL     OW 3355   1.466   0.590   4.716
  446SOL    HW1 3356   1.436   0.495   4.723
  446SOL    HW2 3357   1.539   0.606   4.782
  447SOL     OW 3358   1.857   0.833   4.101
  447SOL    HW1 3359   1.899   0.769   4.165
  447SOL    HW2 3360   1.819   0.782   4.023
  448SOL     OW 3361   0.488   1.385   3.898
  448SOL    HW1 3362   0.401   1.370   3.945
  448SOL    HW2 3363   0.471   1.411   3.803
  449SOL     OW 3364   1.664   1.280   4.381
  449SOL    HW1 3365   1.763   1.288   4.395
  449SOL    HW2 3366   1.619   1.364   4.412
  450SOL     OW 3367   1.390   0.575   3.802
  450SOL    HW1 3368   1.336   0.554   3.883
  450SOL    HW2 3369   1.481   0.534   3.811
  451SOL     OW 3370   1.111   1.195   4.824
  451SOL    HW1 3371   1.071   1.239   4.905
  451SOL    HW2 3372   1.070   1.232   4.741
  452SOL     OW 3373   1.638   1.099   4.803
  452SOL    HW1 3374   1.643   1.180   4.862
  452SOL    HW2 3375   1.552   1.101   4.752
  453SOL     OW 3376   0.705   1.050   4.092
  453SOL    HW1 3377   0.691   1.057   4.191
  453SOL    HW2 3378   0.789   0.999   4.074
  454SOL     OW 3379   0.410   0.813   4.975
  454SOL    HW1 3380   0.496   0.825   5.025
  454SOL    HW2 3381   0.368   0.726   5.002
  455SOL     OW 3382   1.274   0.386   4.986
  455SOL    HW1 3383   1.295   0.460   5.050
  455SOL    HW2 3384   1.185   0.403   4.943
  456SOL     OW 3385   0.367   1.100   4.225
  456SOL    HW1 3386   0.360   1.183   4.169
  456SOL    HW2 3387   0.371   1.020   4.165
  457SOL     OW 3388   0.566   0.537   4.589
  457SOL    HW1 3389   0.578   0.603   4.515
  457SOL    HW2 3390   0.612   0.571   4.672
  458SOL     OW 3391   1.272   1.445   4.866
  458SOL    HW1 3392   1.319   1.458   4.953
  458SOL    HW2 3393   1.206   1.371   4.875
  459SOL     OW 3394   1.582   0.639   4.196
  459SOL    HW1 3395   1.551   0.700   4.269
  459SOL    HW2 3396   1.632   0.691   4.127
  460SOL     OW 3397   0.354   1.510   5.053
  460SOL    HW1 3398   0.333   1.466   4.966
  460SOL    HW2 3399   0.451   1.536   5.056
  461SOL     OW 3400   1.209   0.525   3.999
  461SOL    HW1 3401   1.222   0.441   4.053
  461SOL    HW2 3402   1.180   0.599   4.059
  462SOL     OW 3403   0.307   0.213   4.955
  462SOL    HW1 3404   0.284   0.250   5.045
  462SOL    HW2 3405   0.277   0.118   4.949
  463SOL     OW 3406   0.037   1.310   5.006
  463SOL    HW1 3407   0.090   1.261   5.074
  463SOL    HW2 3408   0.059   1.408   5.011
  464SOL     OW 3409   0.307   0.063   4.342
  464SOL    HW1 3410   0.296   0.157   4.375
  464SOL    HW2 3411   0.302   0.000   4.419
  465SOL     OW 3412   1.622   0.367   4.098
  465SOL    HW1 3413   1.624   0.291   4.162
  465SOL    HW2 3414   1.574   0.444   4.138
  466SOL     OW 3415   1.540   0.274   3.849
  466SOL    HW1 3416   1.479   0.199   3.872
  466SOL    HW2 3417   1.562   0.326   3.932
  467SOL     OW 3418   1.303   0.838   3.766
  467SOL    HW1 3419   1.337   0.745   3.781
  467SOL    HW2 3420   1.321   0.865   3.671
  468SOL     OW 3421   1.068   1.333   4.573
  468SOL    HW1 3422   1.075   1.249   4.518
  468SOL    HW2 3423   1.130   1.402   4.537
  469SOL     OW 3424   0.319   0.810   4.673
  469SOL    HW1 3425   0.412   0.846   4.678
  469SOL    HW2 3426   0.313   0.725   4.725
  470SOL     OW 3427   0.339   0.509   4.730
  470SOL    HW1 3428   0.287   0.426   4.713
  470SOL    HW2 3429   0.416   0.514   4.666
  471SOL     OW 3430   1.160   0.207   5.201
  471SOL    HW1 3431   1.160   0.271   5.278
  471SOL    HW2 3432   1.188   0.255   5.118
  472SOL     OW 3433   0.008   1.326   3.924
  472SOL    HW1 3434  -0.085   1.347   3.893
  472SOL    HW2 3435   0.018   1.227   3.937
  473SOL     OW 3436   0.088   1.801   4.651
  473SOL    HW1 3437   0.046   1.715   4.624
  473SOL    HW2 3438   0.182   1.804   4.617
  474SOL     OW 3439   0.504   1.568   4.634
  474SOL    HW1 3440   0.570   1.642   4.643
  474SOL    HW2 3441   0.548   1.489   4.592
  475SOL     OW 3442   0.040   0.544   4.838
  475SOL    HW1 3443   0.125   0.511   4.797
  475SOL    HW2 3444   0.053   0.559   4.936
  476SOL     OW 3445   0.815   0.572   4.049
  476SOL    HW1 3446   0.822   0.483   4.003
  476SOL    HW2 3447   0.721   0.606   4.041
  477SOL     OW 3448   1.657   0.604   4.930
  477SOL    HW1 3449   1.619   0.535   4.992
  477SOL    HW2 3450   1.739   0.568   4.886
  478SOL     OW 3451   0.671   0.464   4.993
  478SOL    HW1 3452   0.637   0.375   4.963
  478SOL    HW2 3453   0.697   0.518   4.913
  479SOL     OW 3454   0.930   1.678   5.189
  479SOL    HW1 3455   0.906   1.660   5.094
  479SOL    HW2 3456   0.960   1.772   5.199
  480SOL     OW 3457   1.347   1.059   4.958
  480SOL    HW1 3458   1.371   0.996   4.884
  480SOL    HW2 3459   1.257   1.099   4.940
  481SOL     OW 3460   1.302   0.855   4.033
  481SOL    HW1 3461   1.216   0.824   4.075
  481SOL    HW2 3462   1.298   0.841   3.934
  482SOL     OW 3463   1.759   1.747   4.878
  482SOL    HW1 3464   1.820   1.777   4.805
  482SOL    HW2 3465   1.721   1.658   4.856
  483SOL     OW 3466   1.252   1.731   4.852
  483SOL    HW1 3467   1.336   1.736   4.798
  483SOL    HW2 3468   1.229   1.635   4.870
  484SOL     OW 3469   0.083   1.258   4.746
  484SOL    HW1 3470   0.078   1.257   4.846
  484SOL    HW2 3471   0.000   1.217   4.708
  485SOL     OW 3472   1.726   0.135   4.247
  485SOL    HW1 3473   1.799   0.118   4.180
  485SOL    HW2 3474   1.695   0.048   4.285
  486SOL     OW 3475   1.280   0.927   4.396
  486SOL    HW1 3476   1.340   0.846   4.398
  486SOL    HW2 3477   1.320   0.996   4.336
  487SOL     OW 3478   0.672   1.616   3.878
  487SOL    HW1 3479   0.681   1.626   3.779
  487SOL    HW2 3480   0.632   1.527   3.899
  488SOL     OW 3481   1.650   1.720   5.118
  488SOL    HW1 3482   1.703   1.730   5.034
  488SOL    HW2 3483   1.623   1.810   5.152
  489SOL     OW 3484   1.841   0.175   4.687
  489SOL    HW1 3485   1.880   0.090   4.651
  489SOL    HW2 3486   1.743   0.177   4.668
  490SOL     OW 3487   0.263   0.326   4.444
  490SOL    HW1 3488   0.184   0.377   4.410
  490SOL    HW2 3489   0.254   0.311   4.542
  491SOL     OW 3490   0.916   0.910   4.015
  491SOL    HW1 3491   0.979   0.948   3.947
  491SOL    HW2 3492   0.956   0.827   4.054
  492SOL     OW 3493   1.504   1.607   3.768
  492SOL    HW1 3494   1.412   1.644   3.775
  492SOL    HW2 3495   1.542   1.627   3.678
  493SOL     OW 3496   1.014   0.236   4.695
  493SOL    HW1 3497   1.006   0.200   4.602
  493SOL    HW2 3498   1.012   0.160   4.760
  494SOL     OW 3499   0.590   1.487   4.215
  494SOL    HW1 3500   0.632   1.429   4.145
  494SOL    HW2 3501   0.546   1.566   4.171
  495SOL     OW 3502   1.709   0.385   5.105
  495SOL    HW1 3503   1.782   0.454   5.109
  495SOL    HW2 3504   1.737   0.310   5.046
  496SOL     OW 3505   0.255   1.348   4.014
  496SOL    HW1 3506   0.159   1.349   3.987
  496SOL    HW2 3507   0.267   1.401   4.098
  497SOL     OW 3508   1.493   1.767   4.683
  497SOL    HW1 3509   1.526   1.831   4.614
  497SOL    HW2 3510   1.559   1.761   4.758
  498SOL     OW 3511   1.450   1.220   5.357
  498SOL    HW1 3512   1.441   1.210   5.456
  498SOL    HW2 3513   1.546   1.213   5.331
  499SOL     OW 3514   1.674   0.883   4.978
  499SOL    HW1 3515   1.647   0.794   4.941
  499SOL    HW2 3516   1.675   0.951   4.905
  500SOL     OW 3517   1.225   0.325   4.173
  500SOL    HW1 3518   1.290   0.251   4.162
  500SOL    HW2 3519   1.245   0.375   4.257
  501SOL     OW 3520   0.594   0.745   4.376
  501SOL    HW1 3521   0.644   0.830   4.357
  501SOL    HW2 3522   0.506   0.747   4.328
  502SOL     OW 3523   1.730   0.934   5.241
  502SOL    HW1 3524   1.768   1.025   5.256
  502SOL    HW2 3525   1.722   0.917   5.142
  503SOL     OW 3526   0.859   1.374   3.740
  503SOL    HW1 3527   0.813   1.389   3.828
  503SOL    HW2 3528   0.903   1.459   3.710
  504SOL     OW 3529   0.661   1.790   4.677
  504SOL    HW1 3530   0.615   1.878   4.664
  504SOL    HW2 3531   0.760   1.802   4.670
  505SOL     OW 3532   1.083   0.984   3.811
  505SOL    HW1 3533   1.060   1.037   3.729
  505SOL    HW2 3534   1.164   0.928   3.792
  506SOL     OW 3535   1.861   1.569   4.575
  506SOL    HW1 3536   1.790   1.557   4.505
  506SOL    HW2 3537   1.862   1.490   4.635
  507SOL     OW 3538   0.079   1.240   4.377
  507SOL    HW1 3539   0.078   1.193   4.465
  507SOL    HW2 3540   0.161   1.212   4.326
  508SOL     OW 3541   1.824   0.192   4.951
  508SOL    HW1 3542   1.820   0.102   4.995
  508SOL    HW2 3543   1.827   0.181   4.852
  509SOL     OW 3544   0.428   0.424   4.244
  509SOL    HW1 3545   0.458   0.352   4.182
  509SOL    HW2 3546   0.389   0.384   4.327
  510SOL     OW 3547   1.705   1.487   4.828
  510SOL    HW1 3548   1.612   1.462   4.801
  510SOL    HW2 3549   1.731   1.437   4.910
  511SOL     OW 3550   0.812   1.586   4.411
  511SOL    HW1 3551   0.844   1.596   4.317
  511SOL    HW2 3552   0.733   1.524   4.413
  512SOL     OW 3553   1.424   0.214   4.836
  512SOL    HW1 3554   1.476   0.149   4.891
  512SOL    HW2 3555   1.375   0.277   4.897
  513SOL     OW 3556   1.001   0.034   4.878
  513SOL    HW1 3557   0.938  -0.038   4.847
  513SOL    HW2 3558   1.094  -0.002   4.878
  514SOL     OW 3559   0.770   1.330   4.025
  514SOL    HW1 3560   0.724   1.243   4.042
  514SOL    HW2 3561   0.861   1.327   4.066
  515SOL     OW 3562   1.352   0.052   3.892
  515SOL    HW1 3563   1.387   0.011   3.808
  515SOL    HW2 3564   1.262   0.014   3.912
  516SOL     OW 3565   1.300   0.453   4.415
  516SOL    HW1 3566   1.241   0.533   4.419
  516SOL    HW2 3567   1.315   0.418   4.508
  517SOL     OW 3568   1.593   0.221   4.606
  517SOL    HW1 3569   1.509   0.220   4.660
  517SOL    HW2 3570   1.595   0.304   4.550
  518SOL     OW 3571   0.039   1.077   4.024
  518SOL    HW1 3572   0.138   1.066   4.015
  518SOL    HW2 3573  -0.001   0.991   4.056
  519SOL     OW 3574   0.875   1.646   4.061
  519SOL    HW1 3575   0.798   1.611   4.007
  519SOL    HW2 3576   0.843   1.717   4.123
  520SOL     OW 3577   0.230   2.490   0.113
  520SOL    HW1 3578   0.137   2.488   0.150
  520SOL    HW2 3579   0.231   2.451   0.021
  521SOL     OW 3580   0.225   2.137   0.996
  521SOL    HW1 3581   0.260   2.120   1.088
  521SOL    HW2 3582   0.137   2.092   0.984
  522SOL     OW 3583   0.019   2.230   0.647
  522SOL    HW1 3584  -0.063   2.273   0.686
  522SOL    HW2 3585  -0.009   2.157   0.584
  523SOL     OW 3586   1.135   2.565   0.717
  523SOL    HW1 3587   1.192   2.643   0.692
  523SOL    HW2 3588   1.075   2.591   0.793
  524SOL     OW 3589   1.755   2.469   0.231
  524SOL    HW1 3590   1.743   2.456   0.132
  524SOL    HW2 3591   1.725   2.388   0.280
  525SOL     OW 3592   0.768   3.006   1.023
  525SOL    HW1 3593   0.690   3.023   1.083
  525SOL    HW2 3594   0.802   3.093   0.987
  526SOL     OW 3595   0.685   2.874   0.665
  526SOL    HW1 3596   0.754   2.858   0.735
  526SOL    HW2 3597   0.612   2.931   0.703
  527SOL     OW 3598   0.686   3.023   1.803
  527SOL    HW1 3599   0.746   3.102   1.817
  527SOL    HW2 3600   0.600   3.054   1.762
  528SOL     OW 3601   0.438   2.254   1.499
  528SOL    HW1 3602   0.520   2.198   1.508
  528SOL    HW2 3603   0.357   2.196   1.503
  529SOL     OW 3604   1.603   2.309   0.737
  529SOL    HW1 3605   1.529   2.355   0.687
  529SOL    HW2 3606   1.654   2.377   0.790
  530SOL     OW 3607   0.231   3.575   0.483
  530SOL    HW1 3608   0.265   3.652   0.537
  530SOL    HW2 3609   0.275   3.575   0.393
  531SOL     OW 3610   1.127   3.203   1.690
  531SOL    HW1 3611   1.174   3.203   1.778
  531SOL    HW2 3612   1.079   3.116   1.679
  532SOL     OW 3613   0.230   3.296   0.538
  532SOL    HW1 3614   0.204   3.392   0.538
  532SOL    HW2 3615   0.159   3.242   0.583
  533SOL     OW 3616   0.240   2.953   0.886
  533SOL    HW1 3617   0.254   2.869   0.938
  533SOL    HW2 3618   0.185   3.017   0.941
  534SOL     OW 3619   0.620   3.648   1.439
  534SOL    HW1 3620   0.528   3.631   1.474
  534SOL    HW2 3621   0.648   3.740   1.465
  535SOL     OW 3622   0.606   2.826   0.123
  535SOL    HW1 3623   0.613   2.910   0.069
  535SOL    HW2 3624   0.652   2.839   0.211
  536SOL     OW 3625   1.594   1.976   1.480
  536SOL    HW1 3626   1.576   2.043   1.408
  536SOL    HW2 3627   1.591   2.022   1.569
  537SOL     OW 3628   0.122   2.505   0.563
  537SOL    HW1 3629   0.077   2.417   0.580
  537SOL    HW2 3630   0.121   2.559   0.647
  538SOL     OW 3631   0.027   3.458   0.117
  538SOL    HW1 3632   0.008   3.362   0.138
  538SOL    HW2 3633  -0.006   3.516   0.192
  539SOL     OW 3634   1.689   2.784   0.612
  539SOL    HW1 3635   1.784   2.755   0.620
  539SOL    HW2 3636   1.681   2.849   0.537
  540SOL     OW 3637   0.113   2.599   1.597
  540SOL    HW1 3638   0.201   2.586   1.642
  540SOL    HW2 3639   0.100   2.696   1.575
  541SOL     OW 3640   1.293   3.090   1.423
  541SOL    HW1 3641   1.330   3.017   1.365
  541SOL    HW2 3642   1.345   3.095   1.508
  542SOL     OW 3643   0.809   1.866   0.502
  542SOL    HW1 3644   0.849   1.957   0.493
  542SOL    HW2 3645   0.709   1.874   0.508
  543SOL     OW 3646   0.197   2.838   1.264
  543SOL    HW1 3647   0.286   2.793   1.250
  543SOL    HW2 3648   0.124   2.773   1.245
  544SOL     OW 3649   1.187   3.654   1.616
  544SOL    HW1 3650   1.211   3.714   1.540
  544SOL    HW2 3651   1.194   3.559   1.586
  545SOL     OW 3652   0.317   2.113   1.801
  545SOL    HW1 3653   0.388   2.184   1.807
  545SOL    HW2 3654   0.229   2.152   1.829
  546SOL     OW 3655   1.281   2.207   0.944
  546SOL    HW1 3656   1.195   2.157   0.931
  546SOL    HW2 3657   1.343   2.153   1.000
  547SOL     OW 3658   1.576   3.524   0.307
  547SOL    HW1 3659   1.665   3.570   0.310
  547SOL    HW2 3660   1.555   3.500   0.212
  548SOL     OW 3661   0.807   2.467   1.465
  548SOL    HW1 3662   0.760   2.464   1.554
  548SOL    HW2 3663   0.756   2.412   1.399
  549SOL     OW 3664   1.394   2.331   1.674
  549SOL    HW1 3665   1.374   2.374   1.762
  549SOL    HW2 3666   1.472   2.269   1.683
  550SOL     OW 3667   0.973   2.752   1.572
  550SOL    HW1 3668   1.019   2.668   1.543
  550SOL    HW2 3669   0.917   2.786   1.497
  551SOL     OW 3670   1.041   2.563   0.429
  551SOL    HW1 3671   1.067   2.559   0.525
  551SOL    HW2 3672   0.956   2.512   0.415
  552SOL     OW 3673   0.076   2.673   0.789
  552SOL    HW1 3674   0.175   2.661   0.798
  552SOL    HW2 3675   0.052   2.768   0.810
  553SOL     OW 3676   0.130   3.683   1.571
  553SOL    HW1 3677   0.120   3.668   1.670
  553SOL    HW2 3678   0.044   3.719   1.535
  554SOL     OW 3679   1.719   2.447   1.831
  554SOL    HW1 3680   1.693   2.536   1.795
  554SOL    HW2 3681   1.717   2.379   1.758
  555SOL     OW 3682   0.550   2.058   0.885
  555SOL    HW1 3683   0.545   2.053   0.985
  555SOL    HW2 3684   0.552   2.154   0.856
  556SOL     OW 3685   1.795   2.928   0.873
  556SOL    HW1 3686   1.733   2.913   0.797
  556SOL    HW2 3687   1.743   2.939   0.958
  557SOL     OW 3688   0.321   2.805   0.242
  557SOL    HW1 3689   0.403   2.844   0.200
  557SOL    HW2 3690   0.294   2.723   0.193
  558SOL     OW 3691   1.458   2.597   0.728
  558SOL    HW1 3692   1.453   2.532   0.803
  558SOL    HW2 3693   1.538   2.656   0.741
  559SOL     OW 3694   0.461   3.128   1.727
  559SOL    HW1 3695   0.411   3.129   1.641
  559SOL    HW2 3696   0.398   3.110   1.803
  560SOL     OW 3697   1.111   3.638   0.237
  560SOL    HW1 3698   1.051   3.576   0.287
  560SOL    HW2 3699   1.142   3.594   0.152
  561SOL     OW 3700   0.202   2.147   1.498
  561SOL    HW1 3701   0.122   2.207   1.485
  561SOL    HW2 3702   0.192   2.098   1.584
  562SOL     OW 3703   0.464   3.605   0.323
  562SOL    HW1 3704   0.497   3.644   0.409
  562SOL    HW2 3705   0.540   3.598   0.258
  563SOL     OW 3706   1.400   1.969   0.426
  563SOL    HW1 3707   1.376   1.932   0.336
  563SOL    HW2 3708   1.499   1.985   0.430
  564SOL     OW 3709   0.382   2.562   0.480
  564SOL    HW1 3710   0.427   2.472   0.477
  564SOL    HW2 3711   0.288   2.551   0.513
  565SOL     OW 3712   1.547   2.084   1.729
  565SOL    HW1 3713   1.542   2.121   1.821
  565SOL    HW2 3714   1.475   2.015   1.717
  566SOL     OW 3715   0.781   2.126   1.749
  566SOL    HW1 3716   0.848   2.065   1.792
  566SOL    HW2 3717   0.708   2.145   1.814
  567SOL     OW 3718   1.351   2.452   1.433
  567SOL    HW1 3719   1.379   2.409   1.518
  567SOL    HW2 3720   1.376   2.548   1.434
  568SOL     OW 3721   0.539   1.926   0.512
  568SOL    HW1 3722   0.458   1.927   0.570
  568SOL    HW2 3723   0.542   2.009   0.457
  569SOL     OW 3724   1.434   3.050   0.041
  569SOL    HW1 3725   1.466   2.974   0.098
  569SOL    HW2 3726   1.342   3.077   0.071
  570SOL     OW 3727   0.297   1.897   0.171
  570SOL    HW1 3728   0.346   1.981   0.150
  570SOL    HW2 3729   0.359   1.832   0.216
  571SOL     OW 3730   1.076   2.545   1.464
  571SOL    HW1 3731   0.996   2.484   1.467
  571SOL    HW2 3732   1.157   2.492   1.440
  572SOL     OW 3733   0.459   3.014   0.741
  572SOL    HW1 3734   0.388   2.987   0.806
  572SOL    HW2 3735   0.433   2.986   0.648
  573SOL     OW 3736   1.271   3.659   0.591
  573SOL    HW1 3737   1.315   3.723   0.527
  573SOL    HW2 3738   1.221   3.711   0.661
  574SOL     OW 3739   0.078   2.418   1.386
  574SOL    HW1 3740   0.170   2.417   1.345
  574SOL    HW2 3741   0.072   2.492   1.453
  575SOL     OW 3742   0.866   2.316   0.642
  575SOL    HW1 3743   0.834   2.388   0.580
  575SOL    HW2 3744   0.890   2.235   0.589
  576SOL     OW 3745   1.429   3.035   0.867
  576SOL    HW1 3746   1.374   2.951   0.860
  576SOL    HW2 3747   1.455   3.064   0.775
  577SOL     OW 3748   1.466   2.452   0.992
  577SOL    HW1 3749   1.436   2.357   0.999
  577SOL    HW2 3750   1.539   2.468   1.058
  578SOL     OW 3751   0.488   3.247   0.174
  578SOL    HW1 3752   0.401   3.232   0.221
  578SOL    HW2 3753   0.471   3.273   0.079
  579SOL     OW 3754   0.527   2.118   0.328
  579SOL    HW1 3755   0.554   2.059   0.253
  579SOL    HW2 3756   0.527   2.213   0.297
  580SOL     OW 3757   1.754   3.085   1.588
  580SOL    HW1 3758   1.845   3.046   1.575
  580SOL    HW2 3759   1.762   3.181   1.612
  581SOL     OW 3760   1.064   3.209   1.340
  581SOL    HW1 3761   0.984   3.186   1.395
  581SOL    HW2 3762   1.147   3.183   1.389
  582SOL     OW 3763   1.592   3.491   1.625
  582SOL    HW1 3764   1.619   3.525   1.535
  582SOL    HW2 3765   1.671   3.453   1.671
  583SOL     OW 3766   1.111   3.057   1.100
  583SOL    HW1 3767   1.071   3.101   1.181
  583SOL    HW2 3768   1.070   3.094   1.017
  584SOL     OW 3769   1.638   2.961   1.079
  584SOL    HW1 3770   1.643   3.042   1.138
  584SOL    HW2 3771   1.552   2.963   1.028
  585SOL     OW 3772   0.915   1.951   1.402
  585SOL    HW1 3773   0.940   1.931   1.307
  585SOL    HW2 3774   0.987   2.007   1.444
  586SOL     OW 3775   0.705   2.912   0.368
  586SOL    HW1 3776   0.691   2.919   0.467
  586SOL    HW2 3777   0.789   2.861   0.350
  587SOL     OW 3778   0.410   2.675   1.251
  587SOL    HW1 3779   0.496   2.687   1.301
  587SOL    HW2 3780   0.368   2.588   1.278
  588SOL     OW 3781   1.274   2.248   1.262
  588SOL    HW1 3782   1.295   2.322   1.326
  588SOL    HW2 3783   1.185   2.265   1.219
  589SOL     OW 3784   0.367   2.962   0.501
  589SOL    HW1 3785   0.360   3.045   0.445
  589SOL    HW2 3786   0.371   2.882   0.441
  590SOL     OW 3787   0.354   3.372   1.329
  590SOL    HW1 3788   0.333   3.328   1.242
  590SOL    HW2 3789   0.451   3.398   1.332
  591SOL     OW 3790   0.402   2.613   1.598
  591SOL    HW1 3791   0.470   2.668   1.551
  591SOL    HW2 3792   0.442   2.525   1.625
  592SOL     OW 3793   1.587   2.641   1.670
  592SOL    HW1 3794   1.495   2.679   1.665
  592SOL    HW2 3795   1.647   2.688   1.605
  593SOL     OW 3796   1.013   1.967   1.770
  593SOL    HW1 3797   1.019   2.052   1.718
  593SOL    HW2 3798   1.045   1.891   1.713
  594SOL     OW 3799   0.504   1.912   1.740
  594SOL    HW1 3800   0.462   1.855   1.670
  594SOL    HW2 3801   0.438   1.981   1.772
  595SOL     OW 3802   1.360   2.724   1.045
  595SOL    HW1 3803   1.285   2.724   0.979
  595SOL    HW2 3804   1.397   2.632   1.054
  596SOL     OW 3805   0.307   2.075   1.231
  596SOL    HW1 3806   0.284   2.112   1.321
  596SOL    HW2 3807   0.277   1.980   1.225
  597SOL     OW 3808   0.037   3.172   1.282
  597SOL    HW1 3809   0.090   3.123   1.350
  597SOL    HW2 3810   0.059   3.270   1.287
  598SOL     OW 3811   1.728   2.797   1.854
  598SOL    HW1 3812   1.682   2.790   1.765
  598SOL    HW2 3813   1.666   2.841   1.920
  599SOL     OW 3814   1.622   2.229   0.374
  599SOL    HW1 3815   1.624   2.153   0.438
  599SOL    HW2 3816   1.574   2.306   0.414
  600SOL     OW 3817   0.980   3.435   1.700
  600SOL    HW1 3818   0.960   3.479   1.612
  600SOL    HW2 3819   1.019   3.344   1.684
  601SOL     OW 3820   1.859   3.380   1.605
  601SOL    HW1 3821   1.873   3.407   1.510
  601SOL    HW2 3822   1.942   3.402   1.658
  602SOL     OW 3823   0.350   2.760   1.804
  602SOL    HW1 3824   0.426   2.804   1.852
  602SOL    HW2 3825   0.385   2.713   1.722
  603SOL     OW 3826   1.540   2.136   0.125
  603SOL    HW1 3827   1.479   2.061   0.148
  603SOL    HW2 3828   1.562   2.188   0.208
  604SOL     OW 3829   1.303   2.700   0.042
  604SOL    HW1 3830   1.337   2.607   0.057
  604SOL    HW2 3831   1.321   2.727  -0.053
  605SOL     OW 3832   1.068   3.195   0.849
  605SOL    HW1 3833   1.075   3.111   0.794
  605SOL    HW2 3834   1.130   3.264   0.813
  606SOL     OW 3835   0.319   2.672   0.949
  606SOL    HW1 3836   0.412   2.708   0.954
  606SOL    HW2 3837   0.313   2.587   1.001
  607SOL     OW 3838   0.339   2.371   1.006
  607SOL    HW1 3839   0.287   2.288   0.989
  607SOL    HW2 3840   0.416   2.376   0.942
  608SOL     OW 3841   0.008   3.188   0.200
  608SOL    HW1 3842  -0.085   3.209   0.169
  608SOL    HW2 3843   0.018   3.089   0.213
  609SOL     OW 3844   1.002   2.658   1.238
  609SOL    HW1 3845   1.043   2.626   1.324
  609SOL    HW2 3846   0.906   2.631   1.235
  610SOL     OW 3847   0.040   2.406   1.114
  610SOL    HW1 3848   0.125   2.373   1.073
  610SOL    HW2 3849   0.053   2.421   1.212
  611SOL     OW 3850   0.189   2.382   1.722
  611SOL    HW1 3851   0.248   2.342   1.652
  611SOL    HW2 3852   0.131   2.453   1.681
  612SOL     OW 3853   1.369   2.812   1.660
  612SOL    HW1 3854   1.408   2.901   1.680
  612SOL    HW2 3855   1.379   2.792   1.563
  613SOL     OW 3856   0.815   2.434   0.325
  613SOL    HW1 3857   0.822   2.345   0.279
  613SOL    HW2 3858   0.721   2.468   0.317
  614SOL     OW 3859   1.657   2.466   1.206
  614SOL    HW1 3860   1.619   2.397   1.268
  614SOL    HW2 3861   1.739   2.430   1.162
  615SOL     OW 3862   0.252   3.426   1.744
  615SOL    HW1 3863   0.222   3.483   1.820
  615SOL    HW2 3864   0.245   3.329   1.770
  616SOL     OW 3865   0.930   3.540   1.465
  616SOL    HW1 3866   0.906   3.522   1.370
  616SOL    HW2 3867   0.960   3.634   1.475
  617SOL     OW 3868   0.473   2.362   0.191
  617SOL    HW1 3869   0.534   2.442   0.195
  617SOL    HW2 3870   0.378   2.393   0.198
  618SOL     OW 3871   0.159   2.999   1.466
  618SOL    HW1 3872   0.181   2.938   1.542
  618SOL    HW2 3873   0.169   2.950   1.380
  619SOL     OW 3874   1.347   2.921   1.234
  619SOL    HW1 3875   1.371   2.858   1.160
  619SOL    HW2 3876   1.257   2.961   1.216
  620SOL     OW 3877   1.759   3.609   1.154
  620SOL    HW1 3878   1.820   3.639   1.081
  620SOL    HW2 3879   1.721   3.520   1.132
  621SOL     OW 3880   0.083   3.120   1.022
  621SOL    HW1 3881   0.078   3.119   1.122
  621SOL    HW2 3882   0.000   3.079   0.984
  622SOL     OW 3883   0.688   3.524   1.716
  622SOL    HW1 3884   0.632   3.605   1.725
  622SOL    HW2 3885   0.740   3.528   1.630
  623SOL     OW 3886   1.726   1.997   0.523
  623SOL    HW1 3887   1.799   1.980   0.456
  623SOL    HW2 3888   1.695   1.910   0.561
  624SOL     OW 3889   0.130   3.656   1.851
  624SOL    HW1 3890   0.089   3.582   1.904
  624SOL    HW2 3891   0.194   3.707   1.909
  625SOL     OW 3892   1.280   2.789   0.672
  625SOL    HW1 3893   1.340   2.708   0.674
  625SOL    HW2 3894   1.320   2.858   0.612
  626SOL     OW 3895   0.830   3.135   1.422
  626SOL    HW1 3896   0.825   3.168   1.517
  626SOL    HW2 3897   0.744   3.154   1.376
  627SOL     OW 3898   0.672   3.478   0.154
  627SOL    HW1 3899   0.681   3.488   0.055
  627SOL    HW2 3900   0.632   3.389   0.175
  628SOL     OW 3901   1.650   3.582   1.394
  628SOL    HW1 3902   1.703   3.592   1.310
  628SOL    HW2 3903   1.623   3.672   1.428
  629SOL     OW 3904   1.841   2.037   0.963
  629SOL    HW1 3905   1.880   1.952   0.927
  629SOL    HW2 3906   1.743   2.039   0.944
  630SOL     OW 3907   0.263   2.188   0.720
  630SOL    HW1 3908   0.184   2.239   0.686
  630SOL    HW2 3909   0.254   2.173   0.818
  631SOL     OW 3910   1.194   3.474   0.031
  631SOL    HW1 3911   1.200   3.381   0.068
  631SOL    HW2 3912   1.135   3.474  -0.049
  632SOL     OW 3913   0.822   2.864   1.372
  632SOL    HW1 3914   0.862   2.863   1.280
  632SOL    HW2 3915   0.832   2.956   1.412
  633SOL     OW 3916   1.504   3.469   0.044
  633SOL    HW1 3917   1.412   3.506   0.051
  633SOL    HW2 3918   1.542   3.489  -0.046
  634SOL     OW 3919   0.372   3.150   1.490
  634SOL    HW1 3920   0.359   3.243   1.456
  634SOL    HW2 3921   0.288   3.098   1.477
  635SOL     OW 3922   1.039   2.960   0.696
  635SOL    HW1 3923   0.969   2.913   0.750
  635SOL    HW2 3924   1.098   2.892   0.653
  636SOL     OW 3925   0.590   3.349   0.491
  636SOL    HW1 3926   0.632   3.291   0.421
  636SOL    HW2 3927   0.546   3.428   0.447
  637SOL     OW 3928   1.709   2.247   1.381
  637SOL    HW1 3929   1.782   2.316   1.385
  637SOL    HW2 3930   1.737   2.172   1.322
  638SOL     OW 3931   0.255   3.210   0.290
  638SOL    HW1 3932   0.159   3.211   0.263
  638SOL    HW2 3933   0.267   3.263   0.374
  639SOL     OW 3934   0.105   2.875   1.726
  639SOL    HW1 3935   0.028   2.842   1.780
  639SOL    HW2 3936   0.190   2.845   1.768
  640SOL     OW 3937   0.672   2.065   1.489
  640SOL    HW1 3938   0.762   2.049   1.449
  640SOL    HW2 3939   0.680   2.070   1.588
  641SOL     OW 3940   0.075   2.207   0.033
  641SOL    HW1 3941  -0.017   2.179   0.004
  641SOL    HW2 3942   0.106   2.284  -0.023
  642SOL     OW 3943   1.440   2.718   1.398
  642SOL    HW1 3944   1.383   2.770   1.335
  642SOL    HW2 3945   1.536   2.730   1.374
  643SOL     OW 3946   0.072   2.028   0.318
  643SOL    HW1 3947   0.055   2.111   0.264
  643SOL    HW2 3948   0.162   1.991   0.296
  644SOL     OW 3949   0.613   2.704   1.431
  644SOL    HW1 3950   0.669   2.785   1.414
  644SOL    HW2 3951   0.672   2.624   1.434
  645SOL     OW 3952   1.450   3.082   1.633
  645SOL    HW1 3953   1.441   3.072   1.732
  645SOL    HW2 3954   1.546   3.075   1.607
  646SOL     OW 3955   0.390   3.603   1.560
  646SOL    HW1 3956   0.299   3.644   1.558
  646SOL    HW2 3957   0.383   3.509   1.592
  647SOL     OW 3958   1.674   2.745   1.254
  647SOL    HW1 3959   1.647   2.656   1.217
  647SOL    HW2 3960   1.675   2.813   1.181
  648SOL     OW 3961   0.594   2.607   0.652
  648SOL    HW1 3962   0.644   2.692   0.633
  648SOL    HW2 3963   0.506   2.609   0.604
  649SOL     OW 3964   1.777   2.204   1.642
  649SOL    HW1 3965   1.760   2.235   1.548
  649SOL    HW2 3966   1.693   2.167   1.680
  650SOL     OW 3967   1.730   2.796   1.517
  650SOL    HW1 3968   1.768   2.887   1.532
  650SOL    HW2 3969   1.722   2.779   1.418
  651SOL     OW 3970   0.859   3.236   0.016
  651SOL    HW1 3971   0.813   3.251   0.104
  651SOL    HW2 3972   0.903   3.321  -0.014
  652SOL     OW 3973   0.661   3.652   0.953
  652SOL    HW1 3974   0.615   3.740   0.940
  652SOL    HW2 3975   0.760   3.664   0.946
  653SOL     OW 3976   0.859   2.818   0.861
  653SOL    HW1 3977   0.913   2.749   0.909
  653SOL    HW2 3978   0.827   2.887   0.927
  654SOL     OW 3979   1.083   2.846   0.087
  654SOL    HW1 3980   1.060   2.899   0.005
  654SOL    HW2 3981   1.164   2.790   0.068
  655SOL     OW 3982   0.221   3.176   1.844
  655SOL    HW1 3983   0.156   3.103   1.823
  655SOL    HW2 3984   0.225   3.190   1.942
  656SOL     OW 3985   0.079   3.102   0.653
  656SOL    HW1 3986   0.078   3.055   0.741
  656SOL    HW2 3987   0.161   3.074   0.602
  657SOL     OW 3988   0.672   3.253   1.624
  657SOL    HW1 3989   0.594   3.203   1.662
  657SOL    HW2 3990   0.669   3.348   1.655
  658SOL     OW 3991   1.824   2.054   1.227
  658SOL    HW1 3992   1.820   1.964   1.271
  658SOL    HW2 3993   1.827   2.043   1.128
  659SOL     OW 3994   0.428   2.286   0.520
  659SOL    HW1 3995   0.458   2.214   0.458
  659SOL    HW2 3996   0.389   2.246   0.603
  660SOL     OW 3997   1.705   3.349   1.104
  660SOL    HW1 3998   1.612   3.324   1.077
  660SOL    HW2 3999   1.731   3.299   1.186
  661SOL     OW 4000   1.424   2.076   1.112
  661SOL    HW1 4001   1.476   2.011   1.167
  661SOL    HW2 4002   1.375   2.139   1.173
  662SOL     OW 4003   1.352   1.914   0.168
  662SOL    HW1 4004   1.387   1.873   0.084
  662SOL    HW2 4005   1.262   1.876   0.188
  663SOL     OW 4006   1.300   2.315   0.691
  663SOL    HW1 4007   1.241   2.395   0.695
  663SOL    HW2 4008   1.315   2.280   0.784
  664SOL     OW 4009   1.593   2.083   0.882
  664SOL    HW1 4010   1.509   2.082   0.936
  664SOL    HW2 4011   1.595   2.166   0.826
  665SOL     OW 4012   0.039   2.939   0.300
  665SOL    HW1 4013   0.138   2.928   0.291
  665SOL    HW2 4014  -0.001   2.853   0.332
  666SOL     OW 4015   0.875   3.508   0.337
  666SOL    HW1 4016   0.798   3.473   0.283
  666SOL    HW2 4017   0.843   3.579   0.399
  667SOL     OW 4018   0.230   2.490   1.975
  667SOL    HW1 4019   0.137   2.488   2.012
  667SOL    HW2 4020   0.231   2.451   1.883
  668SOL     OW 4021   0.225   2.137   2.858
  668SOL    HW1 4022   0.260   2.120   2.950
  668SOL    HW2 4023   0.137   2.092   2.846
  669SOL     OW 4024   0.019   2.230   2.509
  669SOL    HW1 4025  -0.063   2.273   2.548
  669SOL    HW2 4026  -0.009   2.157   2.446
  670SOL     OW 4027   1.135   2.565   2.579
  670SOL    HW1 4028   1.192   2.643   2.554
  670SOL    HW2 4029   1.075   2.591   2.655
  671SOL     OW 4030   1.755   2.469   2.093
  671SOL    HW1 4031   1.743   2.456   1.994
  671SOL    HW2 4032   1.725   2.388   2.142
  672SOL     OW 4033   0.850   2.660   3.685
  672SOL    HW1 4034   0.846   2.736   3.750
  672SOL    HW2 4035   0.872   2.696   3.594
  673SOL     OW 4036   0.685   2.874   2.527
  673SOL    HW1 4037   0.754   2.858   2.597
  673SOL    HW2 4038   0.612   2.931   2.565
  674SOL     OW 4039   0.686   3.023   3.665
  674SOL    HW1 4040   0.746   3.102   3.679
  674SOL    HW2 4041   0.600   3.054   3.624
  675SOL     OW 4042   0.335   3.297   2.923
  675SOL    HW1 4043   0.257   3.266   2.870
  675SOL    HW2 4044   0.393   3.355   2.866
  676SOL     OW 4045   1.460   3.367   3.201
  676SOL    HW1 4046   1.484   3.461   3.227
  676SOL    HW2 4047   1.444   3.313   3.283
  677SOL     OW 4048   0.438   2.254   3.361
  677SOL    HW1 4049   0.520   2.198   3.370
  677SOL    HW2 4050   0.357   2.196   3.365
  678SOL     OW 4051   1.603   2.309   2.599
  678SOL    HW1 4052   1.529   2.355   2.549
  678SOL    HW2 4053   1.654   2.377   2.652
  679SOL     OW 4054   1.127   3.203   3.552
  679SOL    HW1 4055   1.174   3.203   3.640
  679SOL    HW2 4056   1.079   3.116   3.541
  680SOL     OW 4057   0.230   3.296   2.400
  680SOL    HW1 4058   0.204   3.392   2.400
  680SOL    HW2 4059   0.159   3.242   2.445
  681SOL     OW 4060   0.240   2.953   2.748
  681SOL    HW1 4061   0.254   2.869   2.800
  681SOL    HW2 4062   0.185   3.017   2.803
  682SOL     OW 4063   0.606   2.826   1.985
  682SOL    HW1 4064   0.613   2.910   1.931
  682SOL    HW2 4065   0.652   2.839   2.073
  683SOL     OW 4066   1.594   1.976   3.342
  683SOL    HW1 4067   1.576   2.043   3.270
  683SOL    HW2 4068   1.591   2.022   3.431
  684SOL     OW 4069   0.122   2.505   2.425
  684SOL    HW1 4070   0.077   2.417   2.442
  684SOL    HW2 4071   0.121   2.559   2.509
  685SOL     OW 4072   1.842   3.629   2.221
  685SOL    HW1 4073   1.896   3.600   2.301
  685SOL    HW2 4074   1.872   3.719   2.192
  686SOL     OW 4075   0.027   3.458   1.979
  686SOL    HW1 4076   0.008   3.362   2.000
  686SOL    HW2 4077  -0.006   3.516   2.054
  687SOL     OW 4078   1.689   2.784   2.474
  687SOL    HW1 4079   1.784   2.755   2.482
  687SOL    HW2 4080   1.681   2.849   2.399
  688SOL     OW 4081   1.641   2.970   2.294
  688SOL    HW1 4082   1.727   2.972   2.242
  688SOL    HW2 4083   1.655   3.017   2.382
  689SOL     OW 4084   0.113   2.599   3.459
  689SOL    HW1 4085   0.201   2.586   3.504
  689SOL    HW2 4086   0.100   2.696   3.437
  690SOL     OW 4087   0.613   3.227   2.588
  690SOL    HW1 4088   0.564   3.140   2.597
  690SOL    HW2 4089   0.590   3.270   2.501
  691SOL     OW 4090   1.293   3.090   3.285
  691SOL    HW1 4091   1.330   3.017   3.227
  691SOL    HW2 4092   1.345   3.095   3.370
  692SOL     OW 4093   0.809   1.866   2.364
  692SOL    HW1 4094   0.849   1.957   2.355
  692SOL    HW2 4095   0.709   1.874   2.370
  693SOL     OW 4096   0.197   2.838   3.126
  693SOL    HW1 4097   0.286   2.793   3.112
  693SOL    HW2 4098   0.124   2.773   3.107
  694SOL     OW 4099   1.525   2.861   2.052
  694SOL    HW1 4100   1.462   2.785   2.065
  694SOL    HW2 4101   1.573   2.879   2.138
  695SOL     OW 4102   1.187   3.654   3.478
  695SOL    HW1 4103   1.211   3.714   3.402
  695SOL    HW2 4104   1.194   3.559   3.448
  696SOL     OW 4105   1.466   3.279   2.815
  696SOL    HW1 4106   1.407   3.285   2.895
  696SOL    HW2 4107   1.451   3.191   2.769
  697SOL     OW 4108   1.667   3.576   2.434
  697SOL    HW1 4109   1.626   3.553   2.346
  697SOL    HW2 4110   1.649   3.502   2.499
  698SOL     OW 4111   0.598   2.591   2.132
  698SOL    HW1 4112   0.622   2.660   2.064
  698SOL    HW2 4113   0.520   2.624   2.186
  699SOL     OW 4114   1.281   2.207   2.806
  699SOL    HW1 4115   1.195   2.157   2.793
  699SOL    HW2 4116   1.343   2.153   2.862
  700SOL     OW 4117   0.807   2.467   3.327
  700SOL    HW1 4118   0.760   2.464   3.416
  700SOL    HW2 4119   0.756   2.412   3.261
  701SOL     OW 4120   1.394   2.331   3.536
  701SOL    HW1 4121   1.374   2.374   3.624
  701SOL    HW2 4122   1.472   2.269   3.545
  702SOL     OW 4123   0.973   2.752   3.434
  702SOL    HW1 4124   1.019   2.668   3.405
  702SOL    HW2 4125   0.917   2.786   3.359
  703SOL     OW 4126   0.991   2.272   3.104
  703SOL    HW1 4127   0.914   2.306   3.158
  703SOL    HW2 4128   0.957   2.221   3.025
  704SOL     OW 4129   0.076   2.673   2.651
  704SOL    HW1 4130   0.175   2.661   2.660
  704SOL    HW2 4131   0.052   2.768   2.672
  705SOL     OW 4132   0.130   3.683   3.433
  705SOL    HW1 4133   0.120   3.668   3.532
  705SOL    HW2 4134   0.044   3.719   3.397
  706SOL     OW 4135   1.719   2.447   3.693
  706SOL    HW1 4136   1.693   2.536   3.657
  706SOL    HW2 4137   1.717   2.379   3.620
  707SOL     OW 4138   0.550   2.058   2.747
  707SOL    HW1 4139   0.545   2.053   2.847
  707SOL    HW2 4140   0.552   2.154   2.718
  708SOL     OW 4141   0.351   3.663   2.715
  708SOL    HW1 4142   0.401   3.577   2.721
  708SOL    HW2 4143   0.416   3.740   2.712
  709SOL     OW 4144   1.795   2.928   2.735
  709SOL    HW1 4145   1.733   2.913   2.659
  709SOL    HW2 4146   1.743   2.939   2.820
  710SOL     OW 4147   1.227   3.412   3.368
  710SOL    HW1 4148   1.233   3.335   3.432
  710SOL    HW2 4149   1.175   3.386   3.288
  711SOL     OW 4150   0.321   2.805   2.104
  711SOL    HW1 4151   0.403   2.844   2.062
  711SOL    HW2 4152   0.294   2.723   2.055
  712SOL     OW 4153   1.458   2.597   2.590
  712SOL    HW1 4154   1.453   2.532   2.665
  712SOL    HW2 4155   1.538   2.656   2.603
  713SOL     OW 4156   0.461   3.128   3.589
  713SOL    HW1 4157   0.411   3.129   3.503
  713SOL    HW2 4158   0.398   3.110   3.665
  714SOL     OW 4159   1.111   3.638   2.099
  714SOL    HW1 4160   1.051   3.576   2.149
  714SOL    HW2 4161   1.142   3.594   2.014
  715SOL     OW 4162   0.202   2.147   3.360
  715SOL    HW1 4163   0.122   2.207   3.347
  715SOL    HW2 4164   0.192   2.098   3.446
  716SOL     OW 4165   1.632   3.239   1.943
  716SOL    HW1 4166   1.600   3.333   1.933
  716SOL    HW2 4167   1.556   3.176   1.931
  717SOL     OW 4168   0.464   3.605   2.185
  717SOL    HW1 4169   0.497   3.644   2.271
  717SOL    HW2 4170   0.540   3.598   2.120
  718SOL     OW 4171   1.400   1.969   2.288
  718SOL    HW1 4172   1.376   1.932   2.198
  718SOL    HW2 4173   1.499   1.985   2.292
  719SOL     OW 4174   0.249   3.647   3.103
  719SOL    HW1 4175   0.306   3.582   3.153
  719SOL    HW2 4176   0.233   3.614   3.010
  720SOL     OW 4177   0.940   3.560   2.766
  720SOL    HW1 4178   1.020   3.503   2.787
  720SOL    HW2 4179   0.891   3.520   2.689
  721SOL     OW 4180   0.382   2.562   2.342
  721SOL    HW1 4181   0.427   2.472   2.339
  721SOL    HW2 4182   0.288   2.551   2.375
  722SOL     OW 4183   1.547   2.084   3.591
  722SOL    HW1 4184   1.542   2.121   3.683
  722SOL    HW2 4185   1.475   2.015   3.579
  723SOL     OW 4186   0.614   1.984   1.979
  723SOL    HW1 4187   0.712   1.962   1.986
  723SOL    HW2 4188   0.583   1.967   1.886
  724SOL     OW 4189   0.781   2.126   3.611
  724SOL    HW1 4190   0.848   2.065   3.654
  724SOL    HW2 4191   0.708   2.145   3.676
  725SOL     OW 4192   1.351   2.452   3.295
  725SOL    HW1 4193   1.379   2.409   3.380
  725SOL    HW2 4194   1.376   2.548   3.296
  726SOL     OW 4195   0.922   2.365   2.761
  726SOL    HW1 4196   0.897   2.356   2.665
  726SOL    HW2 4197   0.970   2.283   2.792
  727SOL     OW 4198   0.539   1.926   2.374
  727SOL    HW1 4199   0.458   1.927   2.432
  727SOL    HW2 4200   0.542   2.009   2.319
  728SOL     OW 4201   1.434   3.050   1.903
  728SOL    HW1 4202   1.466   2.974   1.960
  728SOL    HW2 4203   1.342   3.077   1.933
  729SOL     OW 4204   0.297   1.897   2.033
  729SOL    HW1 4205   0.346   1.981   2.012
  729SOL    HW2 4206   0.359   1.832   2.078
  730SOL     OW 4207   1.076   2.545   3.326
  730SOL    HW1 4208   0.996   2.484   3.329
  730SOL    HW2 4209   1.157   2.492   3.302
  731SOL     OW 4210   0.459   3.014   2.603
  731SOL    HW1 4211   0.388   2.987   2.668
  731SOL    HW2 4212   0.433   2.986   2.510
  732SOL     OW 4213   1.271   3.659   2.453
  732SOL    HW1 4214   1.315   3.723   2.389
  732SOL    HW2 4215   1.221   3.711   2.523
  733SOL     OW 4216   0.078   2.418   3.248
  733SOL    HW1 4217   0.170   2.417   3.207
  733SOL    HW2 4218   0.072   2.492   3.315
  734SOL     OW 4219   0.561   2.084   3.009
  734SOL    HW1 4220   0.599   2.000   3.046
  734SOL    HW2 4221   0.473   2.103   3.053
  735SOL     OW 4222   1.017   1.901   2.615
  735SOL    HW1 4223   0.945   1.906   2.546
  735SOL    HW2 4224   0.993   1.832   2.684
  736SOL     OW 4225   1.429   3.035   2.729
  736SOL    HW1 4226   1.374   2.951   2.722
  736SOL    HW2 4227   1.455   3.064   2.637
  737SOL     OW 4228   1.466   2.452   2.854
  737SOL    HW1 4229   1.436   2.357   2.861
  737SOL    HW2 4230   1.539   2.468   2.920
  738SOL     OW 4231   1.857   2.695   2.239
  738SOL    HW1 4232   1.899   2.631   2.303
  738SOL    HW2 4233   1.819   2.644   2.161
  739SOL     OW 4234   0.488   3.247   2.036
  739SOL    HW1 4235   0.401   3.232   2.083
  739SOL    HW2 4236   0.471   3.273   1.941
  740SOL     OW 4237   1.664   3.142   2.519
  740SOL    HW1 4238   1.763   3.150   2.533
  740SOL    HW2 4239   1.619   3.226   2.550
  741SOL     OW 4240   1.390   2.437   1.940
  741SOL    HW1 4241   1.336   2.416   2.021
  741SOL    HW2 4242   1.481   2.396   1.949
  742SOL     OW 4243   0.527   2.118   2.190
  742SOL    HW1 4244   0.554   2.059   2.115
  742SOL    HW2 4245   0.527   2.213   2.159
  743SOL     OW 4246   1.754   3.085   3.450
  743SOL    HW1 4247   1.845   3.046   3.437
  743SOL    HW2 4248   1.762   3.181   3.474
  744SOL     OW 4249   1.592   3.491   3.487
  744SOL    HW1 4250   1.619   3.525   3.397
  744SOL    HW2 4251   1.671   3.453   3.533
  745SOL     OW 4252   1.638   2.961   2.941
  745SOL    HW1 4253   1.643   3.042   3.000
  745SOL    HW2 4254   1.552   2.963   2.890
  746SOL     OW 4255   0.915   1.951   3.264
  746SOL    HW1 4256   0.940   1.931   3.169
  746SOL    HW2 4257   0.987   2.007   3.306
  747SOL     OW 4258   0.980   2.978   3.581
  747SOL    HW1 4259   0.881   2.984   3.591
  747SOL    HW2 4260   1.003   2.898   3.525
  748SOL     OW 4261   0.705   2.912   2.230
  748SOL    HW1 4262   0.691   2.919   2.329
  748SOL    HW2 4263   0.789   2.861   2.212
  749SOL     OW 4264   0.410   2.675   3.113
  749SOL    HW1 4265   0.496   2.687   3.163
  749SOL    HW2 4266   0.368   2.588   3.140
  750SOL     OW 4267   1.274   2.248   3.124
  750SOL    HW1 4268   1.295   2.322   3.188
  750SOL    HW2 4269   1.185   2.265   3.081
  751SOL     OW 4270   0.367   2.962   2.363
  751SOL    HW1 4271   0.360   3.045   2.307
  751SOL    HW2 4272   0.371   2.882   2.303
  752SOL     OW 4273   0.566   2.399   2.727
  752SOL    HW1 4274   0.578   2.465   2.653
  752SOL    HW2 4275   0.612   2.433   2.810
  753SOL     OW 4276   1.272   3.307   3.004
  753SOL    HW1 4277   1.319   3.320   3.091
  753SOL    HW2 4278   1.206   3.233   3.013
  754SOL     OW 4279   1.582   2.501   2.334
  754SOL    HW1 4280   1.551   2.562   2.407
  754SOL    HW2 4281   1.632   2.553   2.265
  755SOL     OW 4282   0.402   2.613   3.460
  755SOL    HW1 4283   0.470   2.668   3.413
  755SOL    HW2 4284   0.442   2.525   3.487
  756SOL     OW 4285   1.587   2.641   3.532
  756SOL    HW1 4286   1.495   2.679   3.527
  756SOL    HW2 4287   1.647   2.688   3.467
  757SOL     OW 4288   1.013   1.967   3.632
  757SOL    HW1 4289   1.019   2.052   3.580
  757SOL    HW2 4290   1.045   1.891   3.575
  758SOL     OW 4291   0.573   2.732   2.891
  758SOL    HW1 4292   0.617   2.821   2.882
  758SOL    HW2 4293   0.510   2.732   2.968
  759SOL     OW 4294   1.360   2.724   2.907
  759SOL    HW1 4295   1.285   2.724   2.841
  759SOL    HW2 4296   1.397   2.632   2.916
  760SOL     OW 4297   1.209   2.387   2.137
  760SOL    HW1 4298   1.222   2.303   2.191
  760SOL    HW2 4299   1.180   2.461   2.197
  761SOL     OW 4300   0.307   2.075   3.093
  761SOL    HW1 4301   0.284   2.112   3.183
  761SOL    HW2 4302   0.277   1.980   3.087
  762SOL     OW 4303   0.037   3.172   3.144
  762SOL    HW1 4304   0.090   3.123   3.212
  762SOL    HW2 4305   0.059   3.270   3.149
  763SOL     OW 4306   0.732   2.496   2.926
  763SOL    HW1 4307   0.791   2.470   2.850
  763SOL    HW2 4308   0.704   2.592   2.915
  764SOL     OW 4309   1.728   2.797   3.716
  764SOL    HW1 4310   1.682   2.790   3.627
  764SOL    HW2 4311   1.666   2.841   3.782
  765SOL     OW 4312   0.307   1.925   2.480
  765SOL    HW1 4313   0.296   2.019   2.513
  765SOL    HW2 4314   0.302   1.862   2.557
  766SOL     OW 4315   1.622   2.229   2.236
  766SOL    HW1 4316   1.624   2.153   2.300
  766SOL    HW2 4317   1.574   2.306   2.276
  767SOL     OW 4318   1.023   2.628   2.828
  767SOL    HW1 4319   1.038   2.649   2.924
  767SOL    HW2 4320   0.993   2.533   2.819
  768SOL     OW 4321   0.980   3.435   3.562
  768SOL    HW1 4322   0.960   3.479   3.474
  768SOL    HW2 4323   1.019   3.344   3.546
  769SOL     OW 4324   1.859   3.380   3.467
  769SOL    HW1 4325   1.873   3.407   3.372
  769SOL    HW2 4326   1.942   3.402   3.520
  770SOL     OW 4327   0.350   2.760   3.666
  770SOL    HW1 4328   0.426   2.804   3.714
  770SOL    HW2 4329   0.385   2.713   3.584
  771SOL     OW 4330   1.540   2.136   1.987
  771SOL    HW1 4331   1.479   2.061   2.010
  771SOL    HW2 4332   1.562   2.188   2.070
  772SOL     OW 4333   1.303   2.700   1.904
  772SOL    HW1 4334   1.337   2.607   1.919
  772SOL    HW2 4335   1.321   2.727   1.809
  773SOL     OW 4336   0.319   2.672   2.811
  773SOL    HW1 4337   0.412   2.708   2.816
  773SOL    HW2 4338   0.313   2.587   2.863
  774SOL     OW 4339   0.339   2.371   2.868
  774SOL    HW1 4340   0.287   2.288   2.851
  774SOL    HW2 4341   0.416   2.376   2.804
  775SOL     OW 4342   1.138   2.242   3.540
  775SOL    HW1 4343   1.093   2.305   3.604
  775SOL    HW2 4344   1.231   2.273   3.523
  776SOL     OW 4345   1.160   2.069   3.339
  776SOL    HW1 4346   1.160   2.133   3.416
  776SOL    HW2 4347   1.188   2.117   3.256
  777SOL     OW 4348   0.008   3.188   2.062
  777SOL    HW1 4349  -0.085   3.209   2.031
  777SOL    HW2 4350   0.018   3.089   2.075
  778SOL     OW 4351   0.088   3.663   2.789
  778SOL    HW1 4352   0.046   3.577   2.762
  778SOL    HW2 4353   0.182   3.666   2.755
  779SOL     OW 4354   1.002   2.658   3.100
  779SOL    HW1 4355   1.043   2.626   3.186
  779SOL    HW2 4356   0.906   2.631   3.097
  780SOL     OW 4357   0.040   2.406   2.976
  780SOL    HW1 4358   0.125   2.373   2.935
  780SOL    HW2 4359   0.053   2.421   3.074
  781SOL     OW 4360   0.189   2.382   3.584
  781SOL    HW1 4361   0.248   2.342   3.514
  781SOL    HW2 4362   0.131   2.453   3.543
  782SOL     OW 4363   1.369   2.812   3.522
  782SOL    HW1 4364   1.408   2.901   3.542
  782SOL    HW2 4365   1.379   2.792   3.425
  783SOL     OW 4366   1.657   2.466   3.068
  783SOL    HW1 4367   1.619   2.397   3.130
  783SOL    HW2 4368   1.739   2.430   3.024
  784SOL     OW 4369   0.252   3.426   3.606
  784SOL    HW1 4370   0.222   3.483   3.682
  784SOL    HW2 4371   0.245   3.329   3.632
  785SOL     OW 4372   0.671   2.326   3.131
  785SOL    HW1 4373   0.637   2.237   3.101
  785SOL    HW2 4374   0.697   2.380   3.051
  786SOL     OW 4375   0.930   3.540   3.327
  786SOL    HW1 4376   0.906   3.522   3.232
  786SOL    HW2 4377   0.960   3.634   3.337
  787SOL     OW 4378   0.473   2.362   2.053
  787SOL    HW1 4379   0.534   2.442   2.057
  787SOL    HW2 4380   0.378   2.393   2.060
  788SOL     OW 4381   0.159   2.999   3.328
  788SOL    HW1 4382   0.181   2.938   3.404
  788SOL    HW2 4383   0.169   2.950   3.242
  789SOL     OW 4384   1.347   2.921   3.096
  789SOL    HW1 4385   1.371   2.858   3.022
  789SOL    HW2 4386   1.257   2.961   3.078
  790SOL     OW 4387   1.302   2.717   2.171
  790SOL    HW1 4388   1.216   2.686   2.213
  790SOL    HW2 4389   1.298   2.703   2.072
  791SOL     OW 4390   1.759   3.609   3.016
  791SOL    HW1 4391   1.820   3.639   2.943
  791SOL    HW2 4392   1.721   3.520   2.994
  792SOL     OW 4393   0.083   3.120   2.884
  792SOL    HW1 4394   0.078   3.119   2.984
  792SOL    HW2 4395   0.000   3.079   2.846
  793SOL     OW 4396   0.688   3.524   3.578
  793SOL    HW1 4397   0.632   3.605   3.587
  793SOL    HW2 4398   0.740   3.528   3.492
  794SOL     OW 4399   1.726   1.997   2.385
  794SOL    HW1 4400   1.799   1.980   2.318
  794SOL    HW2 4401   1.695   1.910   2.423
  795SOL     OW 4402   0.130   3.656   3.713
  795SOL    HW1 4403   0.089   3.582   3.766
  795SOL    HW2 4404   0.194   3.707   3.771
  796SOL     OW 4405   1.280   2.789   2.534
  796SOL    HW1 4406   1.340   2.708   2.536
  796SOL    HW2 4407   1.320   2.858   2.474
  797SOL     OW 4408   0.672   3.478   2.016
  797SOL    HW1 4409   0.681   3.488   1.917
  797SOL    HW2 4410   0.632   3.389   2.037
  798SOL     OW 4411   1.650   3.582   3.256
  798SOL    HW1 4412   1.703   3.592   3.172
  798SOL    HW2 4413   1.623   3.672   3.290
  799SOL     OW 4414   1.841   2.037   2.825
  799SOL    HW1 4415   1.880   1.952   2.789
  799SOL    HW2 4416   1.743   2.039   2.806
  800SOL     OW 4417   0.263   2.188   2.582
  800SOL    HW1 4418   0.184   2.239   2.548
  800SOL    HW2 4419   0.254   2.173   2.680
  801SOL     OW 4420   1.194   3.474   1.893
  801SOL    HW1 4421   1.200   3.381   1.930
  801SOL    HW2 4422   1.135   3.474   1.813
  802SOL     OW 4423   0.822   2.864   3.234
  802SOL    HW1 4424   0.862   2.863   3.142
  802SOL    HW2 4425   0.832   2.956   3.274
  803SOL     OW 4426   0.916   2.772   2.153
  803SOL    HW1 4427   0.979   2.810   2.085
  803SOL    HW2 4428   0.956   2.689   2.192
  804SOL     OW 4429   1.504   3.469   1.906
  804SOL    HW1 4430   1.412   3.506   1.913
  804SOL    HW2 4431   1.542   3.489   1.816
  805SOL     OW 4432   1.614   3.154   3.151
  805SOL    HW1 4433   1.674   3.157   3.231
  805SOL    HW2 4434   1.539   3.218   3.164
  806SOL     OW 4435   1.039   2.960   2.558
  806SOL    HW1 4436   0.969   2.913   2.612
  806SOL    HW2 4437   1.098   2.892   2.515
  807SOL     OW 4438   1.014   2.098   2.833
  807SOL    HW1 4439   1.006   2.062   2.740
  807SOL    HW2 4440   1.012   2.022   2.898
  808SOL     OW 4441   0.590   3.349   2.353
  808SOL    HW1 4442   0.632   3.291   2.283
  808SOL    HW2 4443   0.546   3.428   2.309
  809SOL     OW 4444   1.709   2.247   3.243
  809SOL    HW1 4445   1.782   2.316   3.247
  809SOL    HW2 4446   1.737   2.172   3.184
  810SOL     OW 4447   0.255   3.210   2.152
  810SOL    HW1 4448   0.159   3.211   2.125
  810SOL    HW2 4449   0.267   3.263   2.236
  811SOL     OW 4450   0.105   2.875   3.588
  811SOL    HW1 4451   0.028   2.842   3.642
  811SOL    HW2 4452   0.190   2.845   3.630
  812SOL     OW 4453   1.440   2.718   3.260
  812SOL    HW1 4454   1.383   2.770   3.197
  812SOL    HW2 4455   1.536   2.730   3.236
  813SOL     OW 4456   0.613   2.704   3.293
  813SOL    HW1 4457   0.669   2.785   3.276
  813SOL    HW2 4458   0.672   2.624   3.296
  814SOL     OW 4459   0.716   2.427   3.570
  814SOL    HW1 4460   0.735   2.492   3.644
  814SOL    HW2 4461   0.776   2.347   3.579
  815SOL     OW 4462   1.450   3.082   3.495
  815SOL    HW1 4463   1.441   3.072   3.594
  815SOL    HW2 4464   1.546   3.075   3.469
  816SOL     OW 4465   0.390   3.603   3.422
  816SOL    HW1 4466   0.299   3.644   3.420
  816SOL    HW2 4467   0.383   3.509   3.454
  817SOL     OW 4468   1.674   2.745   3.116
  817SOL    HW1 4469   1.647   2.656   3.079
  817SOL    HW2 4470   1.675   2.813   3.043
  818SOL     OW 4471   1.225   2.187   2.311
  818SOL    HW1 4472   1.290   2.113   2.300
  818SOL    HW2 4473   1.245   2.237   2.395
  819SOL     OW 4474   0.594   2.607   2.514
  819SOL    HW1 4475   0.644   2.692   2.495
  819SOL    HW2 4476   0.506   2.609   2.466
  820SOL     OW 4477   1.777   2.204   3.504
  820SOL    HW1 4478   1.760   2.235   3.410
  820SOL    HW2 4479   1.693   2.167   3.542
  821SOL     OW 4480   1.730   2.796   3.379
  821SOL    HW1 4481   1.768   2.887   3.394
  821SOL    HW2 4482   1.722   2.779   3.280
  822SOL     OW 4483   0.859   3.236   1.878
  822SOL    HW1 4484   0.813   3.251   1.966
  822SOL    HW2 4485   0.903   3.321   1.848
  823SOL     OW 4486   0.661   3.652   2.815
  823SOL    HW1 4487   0.615   3.740   2.802
  823SOL    HW2 4488   0.760   3.664   2.808
  824SOL     OW 4489   0.859   2.818   2.723
  824SOL    HW1 4490   0.913   2.749   2.771
  824SOL    HW2 4491   0.827   2.887   2.789
  825SOL     OW 4492   0.221   3.176   3.706
  825SOL    HW1 4493   0.156   3.103   3.685
  825SOL    HW2 4494   0.225   3.190   3.804
  826SOL     OW 4495   0.079   3.102   2.515
  826SOL    HW1 4496   0.078   3.055   2.603
  826SOL    HW2 4497   0.161   3.074   2.464
  827SOL     OW 4498   1.824   2.054   3.089
  827SOL    HW1 4499   1.820   1.964   3.133
  827SOL    HW2 4500   1.827   2.043   2.990
  828SOL     OW 4501   0.428   2.286   2.382
  828SOL    HW1 4502   0.458   2.214   2.320
  828SOL    HW2 4503   0.389   2.246   2.465
  829SOL     OW 4504   1.705   3.349   2.966
  829SOL    HW1 4505   1.612   3.324   2.939
  829SOL    HW2 4506   1.731   3.299   3.048
  830SOL     OW 4507   0.317   2.409   3.142
  830SOL    HW1 4508   0.355   2.350   3.214
  830SOL    HW2 4509   0.357   2.383   3.054
  831SOL     OW 4510   0.812   3.448   2.549
  831SOL    HW1 4511   0.844   3.458   2.455
  831SOL    HW2 4512   0.733   3.386   2.551
  832SOL     OW 4513   1.424   2.076   2.974
  832SOL    HW1 4514   1.476   2.011   3.029
  832SOL    HW2 4515   1.375   2.139   3.035
  833SOL     OW 4516   1.001   1.896   3.016
  833SOL    HW1 4517   0.938   1.824   2.985
  833SOL    HW2 4518   1.094   1.860   3.016
  834SOL     OW 4519   0.770   3.192   2.163
  834SOL    HW1 4520   0.724   3.105   2.180
  834SOL    HW2 4521   0.861   3.189   2.204
  835SOL     OW 4522   1.300   2.315   2.553
  835SOL    HW1 4523   1.241   2.395   2.557
  835SOL    HW2 4524   1.315   2.280   2.646
  836SOL     OW 4525   1.593   2.083   2.744
  836SOL    HW1 4526   1.509   2.082   2.798
  836SOL    HW2 4527   1.595   2.166   2.688
  837SOL     OW 4528   0.039   2.939   2.162
  837SOL    HW1 4529   0.138   2.928   2.153
  837SOL    HW2 4530  -0.001   2.853   2.194
  838SOL     OW 4531   0.875   3.508   2.199
  838SOL    HW1 4532   0.798   3.473   2.145
  838SOL    HW2 4533   0.843   3.579   2.261
  839SOL     OW 4534   0.230   2.490   3.837
  839SOL    HW1 4535   0.137   2.488   3.874
  839SOL    HW2 4536   0.231   2.451   3.745
  840SOL     OW 4537   0.225   2.137   4.720
  840SOL    HW1 4538   0.260   2.120   4.812
  840SOL    HW2 4539   0.137   2.092   4.708
  841SOL     OW 4540   0.019   2.230   4.371
  841SOL    HW1 4541  -0.063   2.273   4.410
  841SOL    HW2 4542  -0.009   2.157   4.308
  842SOL     OW 4543   0.569   3.137   4.889
  842SOL    HW1 4544   0.476   3.130   4.852
  842SOL    HW2 4545   0.580   3.226   4.933
  843SOL     OW 4546   1.555   3.373   4.427
  843SOL    HW1 4547   1.498   3.357   4.508
  843SOL    HW2 4548   1.496   3.383   4.347
  844SOL     OW 4549   1.135   2.565   4.441
  844SOL    HW1 4550   1.192   2.643   4.416
  844SOL    HW2 4551   1.075   2.591   4.517
  845SOL     OW 4552   0.768   3.006   4.747
  845SOL    HW1 4553   0.690   3.023   4.807
  845SOL    HW2 4554   0.802   3.093   4.711
  846SOL     OW 4555   0.685   2.874   4.389
  846SOL    HW1 4556   0.754   2.858   4.459
  846SOL    HW2 4557   0.612   2.931   4.427
  847SOL     OW 4558   0.335   3.297   4.785
  847SOL    HW1 4559   0.257   3.266   4.732
  847SOL    HW2 4560   0.393   3.355   4.728
  848SOL     OW 4561   0.231   3.575   4.207
  848SOL    HW1 4562   0.265   3.652   4.261
  848SOL    HW2 4563   0.275   3.575   4.117
  849SOL     OW 4564   0.230   3.296   4.262
  849SOL    HW1 4565   0.204   3.392   4.262
  849SOL    HW2 4566   0.159   3.242   4.307
  850SOL     OW 4567   0.240   2.953   4.610
  850SOL    HW1 4568   0.254   2.869   4.662
  850SOL    HW2 4569   0.185   3.017   4.665
  851SOL     OW 4570   0.620   3.648   5.163
  851SOL    HW1 4571   0.528   3.631   5.198
  851SOL    HW2 4572   0.648   3.740   5.189
  852SOL     OW 4573   0.606   2.826   3.847
  852SOL    HW1 4574   0.613   2.910   3.793
  852SOL    HW2 4575   0.652   2.839   3.935
  853SOL     OW 4576   0.122   2.505   4.287
  853SOL    HW1 4577   0.077   2.417   4.304
  853SOL    HW2 4578   0.121   2.559   4.371
  854SOL     OW 4579   1.842   3.629   4.083
  854SOL    HW1 4580   1.896   3.600   4.163
  854SOL    HW2 4581   1.872   3.719   4.054
  855SOL     OW 4582   0.027   3.458   3.841
  855SOL    HW1 4583   0.008   3.362   3.862
  855SOL    HW2 4584  -0.006   3.516   3.916
  856SOL     OW 4585   1.689   2.784   4.336
  856SOL    HW1 4586   1.784   2.755   4.344
  856SOL    HW2 4587   1.681   2.849   4.261
  857SOL     OW 4588   1.641   2.970   4.156
  857SOL    HW1 4589   1.727   2.972   4.104
  857SOL    HW2 4590   1.655   3.017   4.244
  858SOL     OW 4591   0.613   3.227   4.450
  858SOL    HW1 4592   0.564   3.140   4.459
  858SOL    HW2 4593   0.590   3.270   4.363
  859SOL     OW 4594   0.809   1.866   4.226
  859SOL    HW1 4595   0.849   1.957   4.217
  859SOL    HW2 4596   0.709   1.874   4.232
  860SOL     OW 4597   0.197   2.838   4.988
  860SOL    HW1 4598   0.286   2.793   4.974
  860SOL    HW2 4599   0.124   2.773   4.969
  861SOL     OW 4600   1.525   2.861   3.914
  861SOL    HW1 4601   1.462   2.785   3.927
  861SOL    HW2 4602   1.573   2.879   4.000
  862SOL     OW 4603   1.466   3.279   4.677
  862SOL    HW1 4604   1.407   3.285   4.757
  862SOL    HW2 4605   1.451   3.191   4.631
  863SOL     OW 4606   1.667   3.576   4.296
  863SOL    HW1 4607   1.626   3.553   4.208
  863SOL    HW2 4608   1.649   3.502   4.361
  864SOL     OW 4609   0.598   2.591   3.994
  864SOL    HW1 4610   0.622   2.660   3.926
  864SOL    HW2 4611   0.520   2.624   4.048
  865SOL     OW 4612   1.576   3.524   4.031
  865SOL    HW1 4613   1.665   3.570   4.034
  865SOL    HW2 4614   1.555   3.500   3.936
  866SOL     OW 4615   1.041   2.563   4.153
  866SOL    HW1 4616   1.067   2.559   4.249
  866SOL    HW2 4617   0.956   2.512   4.139
  867SOL     OW 4618   0.076   2.673   4.513
  867SOL    HW1 4619   0.175   2.661   4.522
  867SOL    HW2 4620   0.052   2.768   4.534
  868SOL     OW 4621   0.130   3.683   5.295
  868SOL    HW1 4622   0.120   3.668   5.394
  868SOL    HW2 4623   0.044   3.719   5.259
  869SOL     OW 4624   0.865   2.210   3.919
  869SOL    HW1 4625   0.924   2.273   3.870
  869SOL    HW2 4626   0.884   2.116   3.890
  870SOL     OW 4627   1.362   3.006   4.269
  870SOL    HW1 4628   1.445   2.977   4.221
  870SOL    HW2 4629   1.313   3.073   4.213
  871SOL     OW 4630   0.550   2.058   4.609
  871SOL    HW1 4631   0.545   2.053   4.709
  871SOL    HW2 4632   0.552   2.154   4.580
  872SOL     OW 4633   1.008   3.318   4.201
  872SOL    HW1 4634   0.962   3.390   4.149
  872SOL    HW2 4635   1.004   3.338   4.299
  873SOL     OW 4636   0.351   3.663   4.577
  873SOL    HW1 4637   0.401   3.577   4.583
  873SOL    HW2 4638   0.416   3.740   4.574
  874SOL     OW 4639   1.795   2.928   4.597
  874SOL    HW1 4640   1.733   2.913   4.521
  874SOL    HW2 4641   1.743   2.939   4.682
  875SOL     OW 4642   0.321   2.805   3.966
  875SOL    HW1 4643   0.403   2.844   3.924
  875SOL    HW2 4644   0.294   2.723   3.917
  876SOL     OW 4645   1.111   3.638   3.961
  876SOL    HW1 4646   1.051   3.576   4.011
  876SOL    HW2 4647   1.142   3.594   3.876
  877SOL     OW 4648   1.632   3.239   3.805
  877SOL    HW1 4649   1.600   3.333   3.795
  877SOL    HW2 4650   1.556   3.176   3.793
  878SOL     OW 4651   0.464   3.605   4.047
  878SOL    HW1 4652   0.497   3.644   4.133
  878SOL    HW2 4653   0.540   3.598   3.982
  879SOL     OW 4654   1.400   1.969   4.150
  879SOL    HW1 4655   1.376   1.932   4.060
  879SOL    HW2 4656   1.499   1.985   4.154
  880SOL     OW 4657   0.249   3.647   4.965
  880SOL    HW1 4658   0.306   3.582   5.015
  880SOL    HW2 4659   0.233   3.614   4.872
  881SOL     OW 4660   0.940   3.560   4.628
  881SOL    HW1 4661   1.020   3.503   4.649
  881SOL    HW2 4662   0.891   3.520   4.551
  882SOL     OW 4663   0.382   2.562   4.204
  882SOL    HW1 4664   0.427   2.472   4.201
  882SOL    HW2 4665   0.288   2.551   4.237
  883SOL     OW 4666   0.614   1.984   3.841
  883SOL    HW1 4667   0.712   1.962   3.848
  883SOL    HW2 4668   0.583   1.967   3.748
  884SOL     OW 4669   0.803   3.264   4.648
  884SOL    HW1 4670   0.893   3.278   4.606
  884SOL    HW2 4671   0.732   3.266   4.577
  885SOL     OW 4672   0.922   2.365   4.623
  885SOL    HW1 4673   0.897   2.356   4.527
  885SOL    HW2 4674   0.970   2.283   4.654
  886SOL     OW 4675   0.539   1.926   4.236
  886SOL    HW1 4676   0.458   1.927   4.294
  886SOL    HW2 4677   0.542   2.009   4.181
  887SOL     OW 4678   1.434   3.050   3.765
  887SOL    HW1 4679   1.466   2.974   3.822
  887SOL    HW2 4680   1.342   3.077   3.795
  888SOL     OW 4681   0.935   2.098   4.204
  888SOL    HW1 4682   0.887   2.139   4.126
  888SOL    HW2 4683   1.034   2.096   4.185
  889SOL     OW 4684   1.227   3.432   4.517
  889SOL    HW1 4685   1.248   3.506   4.452
  889SOL    HW2 4686   1.295   3.432   4.590
  890SOL     OW 4687   0.459   3.014   4.465
  890SOL    HW1 4688   0.388   2.987   4.530
  890SOL    HW2 4689   0.433   2.986   4.372
  891SOL     OW 4690   1.271   3.659   4.315
  891SOL    HW1 4691   1.315   3.723   4.251
  891SOL    HW2 4692   1.221   3.711   4.385
  892SOL     OW 4693   1.032   2.411   3.740
  892SOL    HW1 4694   0.991   2.493   3.701
  892SOL    HW2 4695   1.096   2.437   3.813
  893SOL     OW 4696   0.866   2.316   4.366
  893SOL    HW1 4697   0.834   2.388   4.304
  893SOL    HW2 4698   0.890   2.235   4.313
  894SOL     OW 4699   1.017   1.901   4.477
  894SOL    HW1 4700   0.945   1.906   4.408
  894SOL    HW2 4701   0.993   1.832   4.546
  895SOL     OW 4702   1.429   3.035   4.591
  895SOL    HW1 4703   1.374   2.951   4.584
  895SOL    HW2 4704   1.455   3.064   4.499
  896SOL     OW 4705   1.857   2.695   4.101
  896SOL    HW1 4706   1.899   2.631   4.165
  896SOL    HW2 4707   1.819   2.644   4.023
  897SOL     OW 4708   0.488   3.247   3.898
  897SOL    HW1 4709   0.401   3.232   3.945
  897SOL    HW2 4710   0.471   3.273   3.803
  898SOL     OW 4711   1.664   3.142   4.381
  898SOL    HW1 4712   1.763   3.150   4.395
  898SOL    HW2 4713   1.619   3.226   4.412
  899SOL     OW 4714   1.390   2.437   3.802
  899SOL    HW1 4715   1.336   2.416   3.883
  899SOL    HW2 4716   1.481   2.396   3.811
  900SOL     OW 4717   0.527   2.118   4.052
  900SOL    HW1 4718   0.554   2.059   3.977
  900SOL    HW2 4719   0.527   2.213   4.021
  901SOL     OW 4720   1.111   3.057   4.824
  901SOL    HW1 4721   1.071   3.101   4.905
  901SOL    HW2 4722   1.070   3.094   4.741
  902SOL     OW 4723   1.638   2.961   4.803
  902SOL    HW1 4724   1.643   3.042   4.862
  902SOL    HW2 4725   1.552   2.963   4.752
  903SOL     OW 4726   0.705   2.912   4.092
  903SOL    HW1 4727   0.691   2.919   4.191
  903SOL    HW2 4728   0.789   2.861   4.074
  904SOL     OW 4729   0.410   2.675   4.975
  904SOL    HW1 4730   0.496   2.687   5.025
  904SOL    HW2 4731   0.368   2.588   5.002
  905SOL     OW 4732   0.367   2.962   4.225
  905SOL    HW1 4733   0.360   3.045   4.169
  905SOL    HW2 4734   0.371   2.882   4.165
  906SOL     OW 4735   0.566   2.399   4.589
  906SOL    HW1 4736   0.578   2.465   4.515
  906SOL    HW2 4737   0.612   2.433   4.672
  907SOL     OW 4738   1.252   3.210   4.112
  907SOL    HW1 4739   1.302   3.287   4.152
  907SOL    HW2 4740   1.157   3.212   4.144
  908SOL     OW 4741   1.272   3.307   4.866
  908SOL    HW1 4742   1.319   3.320   4.953
  908SOL    HW2 4743   1.206   3.233   4.875
  909SOL     OW 4744   1.582   2.501   4.196
  909SOL    HW1 4745   1.551   2.562   4.269
  909SOL    HW2 4746   1.632   2.553   4.127
  910SOL     OW 4747   0.354   3.372   5.053
  910SOL    HW1 4748   0.333   3.328   4.966
  910SOL    HW2 4749   0.451   3.398   5.056
  911SOL     OW 4750   0.573   2.732   4.753
  911SOL    HW1 4751   0.617   2.821   4.744
  911SOL    HW2 4752   0.510   2.732   4.830
  912SOL     OW 4753   1.209   2.387   3.999
  912SOL    HW1 4754   1.222   2.303   4.053
  912SOL    HW2 4755   1.180   2.461   4.059
  913SOL     OW 4756   0.307   2.075   4.955
  913SOL    HW1 4757   0.284   2.112   5.045
  913SOL    HW2 4758   0.277   1.980   4.949
  914SOL     OW 4759   0.037   3.172   5.006
  914SOL    HW1 4760   0.090   3.123   5.074
  914SOL    HW2 4761   0.059   3.270   5.011
  915SOL     OW 4762   0.732   2.496   4.788
  915SOL    HW1 4763   0.791   2.470   4.712
  915SOL    HW2 4764   0.704   2.592   4.777
  916SOL     OW 4765   0.307   1.925   4.342
  916SOL    HW1 4766   0.296   2.019   4.375
  916SOL    HW2 4767   0.302   1.862   4.419
  917SOL     OW 4768   1.622   2.229   4.098
  917SOL    HW1 4769   1.624   2.153   4.162
  917SOL    HW2 4770   1.574   2.306   4.138
  918SOL     OW 4771   1.023   2.628   4.690
  918SOL    HW1 4772   1.038   2.649   4.786
  918SOL    HW2 4773   0.993   2.533   4.681
  919SOL     OW 4774   1.540   2.136   3.849
  919SOL    HW1 4775   1.479   2.061   3.872
  919SOL    HW2 4776   1.562   2.188   3.932
  920SOL     OW 4777   1.303   2.700   3.766
  920SOL    HW1 4778   1.337   2.607   3.781
  920SOL    HW2 4779   1.321   2.727   3.671
  921SOL     OW 4780   1.068   3.195   4.573
  921SOL    HW1 4781   1.075   3.111   4.518
  921SOL    HW2 4782   1.130   3.264   4.537
  922SOL     OW 4783   0.319   2.672   4.673
  922SOL    HW1 4784   0.412   2.708   4.678
  922SOL    HW2 4785   0.313   2.587   4.725
  923SOL     OW 4786   0.339   2.371   4.730
  923SOL    HW1 4787   0.287   2.288   4.713
  923SOL    HW2 4788   0.416   2.376   4.666
  924SOL     OW 4789   1.160   2.069   5.201
  924SOL    HW1 4790   1.160   2.133   5.278
  924SOL    HW2 4791   1.188   2.117   5.118
  925SOL     OW 4792   0.088   3.663   4.651
  925SOL    HW1 4793   0.046   3.577   4.624
  925SOL    HW2 4794   0.182   3.666   4.617
  926SOL     OW 4795   0.504   3.430   4.634
  926SOL    HW1 4796   0.570   3.504   4.643
  926SOL    HW2 4797   0.548   3.351   4.592
  927SOL     OW 4798   0.040   2.406   4.838
  927SOL    HW1 4799   0.125   2.373   4.797
  927SOL    HW2 4800   0.053   2.421   4.936
  928SOL     OW 4801   0.815   2.434   4.049
  928SOL    HW1 4802   0.822   2.345   4.003
  928SOL    HW2 4803   0.721   2.468   4.041
  929SOL     OW 4804   0.930   3.540   5.189
  929SOL    HW1 4805   0.906   3.522   5.094
  929SOL    HW2 4806   0.960   3.634   5.199
  930SOL     OW 4807   0.473   2.362   3.915
  930SOL    HW1 4808   0.534   2.442   3.919
  930SOL    HW2 4809   0.378   2.393   3.922
  931SOL     OW 4810   1.347   2.921   4.958
  931SOL    HW1 4811   1.371   2.858   4.884
  931SOL    HW2 4812   1.257   2.961   4.940
  932SOL     OW 4813   1.302   2.717   4.033
  932SOL    HW1 4814   1.216   2.686   4.075
  932SOL    HW2 4815   1.298   2.703   3.934
  933SOL     OW 4816   1.759   3.609   4.878
  933SOL    HW1 4817   1.820   3.639   4.805
  933SOL    HW2 4818   1.721   3.520   4.856
  934SOL     OW 4819   1.252   3.593   4.852
  934SOL    HW1 4820   1.336   3.598   4.798
  934SOL    HW2 4821   1.229   3.497   4.870
  935SOL     OW 4822   0.083   3.120   4.746
  935SOL    HW1 4823   0.078   3.119   4.846
  935SOL    HW2 4824   0.000   3.079   4.708
  936SOL     OW 4825   1.726   1.997   4.247
  936SOL    HW1 4826   1.799   1.980   4.180
  936SOL    HW2 4827   1.695   1.910   4.285
  937SOL     OW 4828   1.388   3.435   4.201
  937SOL    HW1 4829   1.455   3.447   4.127
  937SOL    HW2 4830   1.348   3.524   4.224
  938SOL     OW 4831   0.672   3.478   3.878
  938SOL    HW1 4832   0.681   3.488   3.779
  938SOL    HW2 4833   0.632   3.389   3.899
  939SOL     OW 4834   1.650   3.582   5.118
  939SOL    HW1 4835   1.703   3.592   5.034
  939SOL    HW2 4836   1.623   3.672   5.152
  940SOL     OW 4837   1.841   2.037   4.687
  940SOL    HW1 4838   1.880   1.952   4.651
  940SOL    HW2 4839   1.743   2.039   4.668
  941SOL     OW 4840   0.263   2.188   4.444
  941SOL    HW1 4841   0.184   2.239   4.410
  941SOL    HW2 4842   0.254   2.173   4.542
  942SOL     OW 4843   1.194   3.474   3.755
  942SOL    HW1 4844   1.200   3.381   3.792
  942SOL    HW2 4845   1.135   3.474   3.675
  943SOL     OW 4846   0.916   2.772   4.015
  943SOL    HW1 4847   0.979   2.810   3.947
  943SOL    HW2 4848   0.956   2.689   4.054
  944SOL     OW 4849   1.504   3.469   3.768
  944SOL    HW1 4850   1.412   3.506   3.775
  944SOL    HW2 4851   1.542   3.489   3.678
  945SOL     OW 4852   1.039   2.960   4.420
  945SOL    HW1 4853   0.969   2.913   4.474
  945SOL    HW2 4854   1.098   2.892   4.377
  946SOL     OW 4855   1.014   2.098   4.695
  946SOL    HW1 4856   1.006   2.062   4.602
  946SOL    HW2 4857   1.012   2.022   4.760
  947SOL     OW 4858   0.590   3.349   4.215
  947SOL    HW1 4859   0.632   3.291   4.145
  947SOL    HW2 4860   0.546   3.428   4.171
  948SOL     OW 4861   1.709   2.247   5.105
  948SOL    HW1 4862   1.782   2.316   5.109
  948SOL    HW2 4863   1.737   2.172   5.046
  949SOL     OW 4864   0.255   3.210   4.014
  949SOL    HW1 4865   0.159   3.211   3.987
  949SOL    HW2 4866   0.267   3.263   4.098
  950SOL     OW 4867   0.072   2.028   4.042
  950SOL    HW1 4868   0.055   2.111   3.988
  950SOL    HW2 4869   0.162   1.991   4.020
  951SOL     OW 4870   1.183   3.197   3.843
  951SOL    HW1 4871   1.084   3.186   3.845
  951SOL    HW2 4872   1.217   3.212   3.936
  952SOL     OW 4873   1.493   3.629   4.683
  952SOL    HW1 4874   1.526   3.693   4.614
  952SOL    HW2 4875   1.559   3.623   4.758
  953SOL     OW 4876   1.674   2.745   4.978
  953SOL    HW1 4877   1.647   2.656   4.941
  953SOL    HW2 4878   1.675   2.813   4.905
  954SOL     OW 4879   1.225   2.187   4.173
  954SOL    HW1 4880   1.290   2.113   4.162
  954SOL    HW2 4881   1.245   2.237   4.257
  955SOL     OW 4882   0.594   2.607   4.376
  955SOL    HW1 4883   0.644   2.692   4.357
  955SOL    HW2 4884   0.506   2.609   4.328
  956SOL     OW 4885   0.859   3.236   3.740
  956SOL    HW1 4886   0.813   3.251   3.828
  956SOL    HW2 4887   0.903   3.321   3.710
  957SOL     OW 4888   0.661   3.652   4.677
  957SOL    HW1 4889   0.615   3.740   4.664
  957SOL    HW2 4890   0.760   3.664   4.670
  958SOL     OW 4891   0.859   2.818   4.585
  958SOL    HW1 4892   0.913   2.749   4.633
  958SOL    HW2 4893   0.827   2.887   4.651
  959SOL     OW 4894   1.083   2.846   3.811
  959SOL    HW1 4895   1.060   2.899   3.729
  959SOL    HW2 4896   1.164   2.790   3.792
  960SOL     OW 4897   1.861   3.431   4.575
  960SOL    HW1 4898   1.790   3.419   4.505
  960SOL    HW2 4899   1.862   3.352   4.635
  961SOL     OW 4900   0.079   3.102   4.377
  961SOL    HW1 4901   0.078   3.055   4.465
  961SOL    HW2 4902   0.161   3.074   4.326
  962SOL     OW 4903   1.824   2.054   4.951
  962SOL    HW1 4904   1.820   1.964   4.995
  962SOL    HW2 4905   1.827   2.043   4.852
  963SOL     OW 4906   0.428   2.286   4.244
  963SOL    HW1 4907   0.458   2.214   4.182
  963SOL    HW2 4908   0.389   2.246   4.327
  964SOL     OW 4909   1.705   3.349   4.828
  964SOL    HW1 4910   1.612   3.324   4.801
  964SOL    HW2 4911   1.731   3.299   4.910
  965SOL     OW 4912   0.812   3.448   4.411
  965SOL    HW1 4913   0.844   3.458   4.317
  965SOL    HW2 4914   0.733   3.386   4.413
  966SOL     OW 4915   1.424   2.076   4.836
  966SOL    HW1 4916   1.476   2.011   4.891
  966SOL    HW2 4917   1.375   2.139   4.897
  967SOL     OW 4918   1.001   1.896   4.878
  967SOL    HW1 4919   0.938   1.824   4.847
  967SOL    HW2 4920   1.094   1.860   4.878
  968SOL     OW 4921   0.770   3.192   4.025
  968SOL    HW1 4922   0.724   3.105   4.042
  968SOL    HW2 4923   0.861   3.189   4.066
  969SOL     OW 4924   1.352   1.914   3.892
  969SOL    HW1 4925   1.387   1.873   3.808
  969SOL    HW2 4926   1.262   1.876   3.912
  970SOL     OW 4927   0.875   3.508   4.061
  970SOL    HW1 4928   0.798   3.473   4.007
  970SOL    HW2 4929   0.843   3.579   4.123
  971SOL     OW 4930   0.019   4.092   0.647
  971SOL    HW1 4931  -0.063   4.135   0.686
  971SOL    HW2 4932  -0.009   4.019   0.584
  972SOL     OW 4933   0.569   4.999   1.165
  972SOL    HW1 4934   0.476   4.992   1.128
  972SOL    HW2 4935   0.580   5.088   1.209
  973SOL     OW 4936   1.555   5.235   0.703
  973SOL    HW1 4937   1.498   5.219   0.784
  973SOL    HW2 4938   1.496   5.245   0.623
  974SOL     OW 4939   1.755   4.331   0.231
  974SOL    HW1 4940   1.743   4.318   0.132
  974SOL    HW2 4941   1.725   4.250   0.280
  975SOL     OW 4942   0.768   4.868   1.023
  975SOL    HW1 4943   0.690   4.885   1.083
  975SOL    HW2 4944   0.802   4.955   0.987
  976SOL     OW 4945   0.850   4.522   1.823
  976SOL    HW1 4946   0.846   4.598   1.888
  976SOL    HW2 4947   0.872   4.558   1.732
  977SOL     OW 4948   0.685   4.736   0.665
  977SOL    HW1 4949   0.754   4.720   0.735
  977SOL    HW2 4950   0.612   4.793   0.703
  978SOL     OW 4951   0.335   5.159   1.061
  978SOL    HW1 4952   0.257   5.128   1.008
  978SOL    HW2 4953   0.393   5.217   1.004
  979SOL     OW 4954   0.438   4.116   1.499
  979SOL    HW1 4955   0.520   4.060   1.508
  979SOL    HW2 4956   0.357   4.058   1.503
  980SOL     OW 4957   1.603   4.171   0.737
  980SOL    HW1 4958   1.529   4.217   0.687
  980SOL    HW2 4959   1.654   4.239   0.790
  981SOL     OW 4960   0.240   4.815   0.886
  981SOL    HW1 4961   0.254   4.731   0.938
  981SOL    HW2 4962   0.185   4.879   0.941
  982SOL     OW 4963   0.606   4.688   0.123
  982SOL    HW1 4964   0.613   4.772   0.069
  982SOL    HW2 4965   0.652   4.701   0.211
  983SOL     OW 4966   1.594   3.838   1.480
  983SOL    HW1 4967   1.576   3.905   1.408
  983SOL    HW2 4968   1.591   3.884   1.569
  984SOL     OW 4969   0.122   4.367   0.563
  984SOL    HW1 4970   0.077   4.279   0.580
  984SOL    HW2 4971   0.121   4.421   0.647
  985SOL     OW 4972   1.689   4.646   0.612
  985SOL    HW1 4973   1.784   4.617   0.620
  985SOL    HW2 4974   1.681   4.711   0.537
  986SOL     OW 4975   1.641   4.832   0.432
  986SOL    HW1 4976   1.727   4.834   0.380
  986SOL    HW2 4977   1.655   4.879   0.520
  987SOL     OW 4978   0.113   4.461   1.597
  987SOL    HW1 4979   0.201   4.448   1.642
  987SOL    HW2 4980   0.100   4.558   1.575
  988SOL     OW 4981   1.293   4.952   1.423
  988SOL    HW1 4982   1.330   4.879   1.365
  988SOL    HW2 4983   1.345   4.957   1.508
  989SOL     OW 4984   0.809   3.728   0.502
  989SOL    HW1 4985   0.849   3.819   0.493
  989SOL    HW2 4986   0.709   3.736   0.508
  990SOL     OW 4987   0.197   4.700   1.264
  990SOL    HW1 4988   0.286   4.655   1.250
  990SOL    HW2 4989   0.124   4.635   1.245
  991SOL     OW 4990   1.525   4.723   0.190
  991SOL    HW1 4991   1.462   4.647   0.203
  991SOL    HW2 4992   1.573   4.741   0.276
  992SOL     OW 4993   0.317   3.975   1.801
  992SOL    HW1 4994   0.388   4.046   1.807
  992SOL    HW2 4995   0.229   4.014   1.829
  993SOL     OW 4996   0.598   4.453   0.270
  993SOL    HW1 4997   0.622   4.522   0.202
  993SOL    HW2 4998   0.520   4.486   0.324
  994SOL     OW 4999   1.281   4.069   0.944
  994SOL    HW1 5000   1.195   4.019   0.931
  994SOL    HW2 5001   1.343   4.015   1.000
  995SOL     OW 5002   1.394   4.193   1.674
  995SOL    HW1 5003   1.374   4.236   1.762
  995SOL    HW2 5004   1.472   4.131   1.683
  996SOL     OW 5005   0.973   4.614   1.572
  996SOL    HW1 5006   1.019   4.530   1.543
  996SOL    HW2 5007   0.917   4.648   1.497
  997SOL     OW 5008   0.991   4.134   1.242
  997SOL    HW1 5009   0.914   4.168   1.296
  997SOL    HW2 5010   0.957   4.083   1.163
  998SOL     OW 5011   1.041   4.425   0.429
  998SOL    HW1 5012   1.067   4.421   0.525
  998SOL    HW2 5013   0.956   4.374   0.415
  999SOL     OW 5014   0.076   4.535   0.789
  999SOL    HW1 5015   0.175   4.523   0.798
  999SOL    HW2 5016   0.052   4.630   0.810
 1000SOL     OW 5017   0.865   4.072   0.195
 1000SOL    HW1 5018   0.924   4.135   0.146
 1000SOL    HW2 5019   0.884   3.978   0.166
 1001SOL     OW 5020   1.719   4.309   1.831
 1001SOL    HW1 5021   1.693   4.398   1.795
 1001SOL    HW2 5022   1.717   4.241   1.758
 1002SOL     OW 5023   1.362   4.868   0.545
 1002SOL    HW1 5024   1.445   4.839   0.497
 1002SOL    HW2 5025   1.313   4.935   0.489
 1003SOL     OW 5026   0.550   3.920   0.885
 1003SOL    HW1 5027   0.545   3.915   0.985
 1003SOL    HW2 5028   0.552   4.016   0.856
 1004SOL     OW 5029   1.795   4.790   0.873
 1004SOL    HW1 5030   1.733   4.775   0.797
 1004SOL    HW2 5031   1.743   4.801   0.958
 1005SOL     OW 5032   0.321   4.667   0.242
 1005SOL    HW1 5033   0.403   4.706   0.200
 1005SOL    HW2 5034   0.294   4.585   0.193
 1006SOL     OW 5035   0.202   4.009   1.498
 1006SOL    HW1 5036   0.122   4.069   1.485
 1006SOL    HW2 5037   0.192   3.960   1.584
 1007SOL     OW 5038   1.632   5.101   0.081
 1007SOL    HW1 5039   1.600   5.195   0.071
 1007SOL    HW2 5040   1.556   5.038   0.069
 1008SOL     OW 5041   0.382   4.424   0.480
 1008SOL    HW1 5042   0.427   4.334   0.477
 1008SOL    HW2 5043   0.288   4.413   0.513
 1009SOL     OW 5044   1.547   3.946   1.729
 1009SOL    HW1 5045   1.542   3.983   1.821
 1009SOL    HW2 5046   1.475   3.877   1.717
 1010SOL     OW 5047   0.781   3.988   1.749
 1010SOL    HW1 5048   0.848   3.927   1.792
 1010SOL    HW2 5049   0.708   4.007   1.814
 1011SOL     OW 5050   0.803   5.126   0.924
 1011SOL    HW1 5051   0.893   5.140   0.882
 1011SOL    HW2 5052   0.732   5.128   0.853
 1012SOL     OW 5053   0.922   4.227   0.899
 1012SOL    HW1 5054   0.897   4.218   0.803
 1012SOL    HW2 5055   0.970   4.145   0.930
 1013SOL     OW 5056   0.539   3.788   0.512
 1013SOL    HW1 5057   0.458   3.789   0.570
 1013SOL    HW2 5058   0.542   3.871   0.457
 1014SOL     OW 5059   1.434   4.912   0.041
 1014SOL    HW1 5060   1.466   4.836   0.098
 1014SOL    HW2 5061   1.342   4.939   0.071
 1015SOL     OW 5062   0.297   3.759   0.171
 1015SOL    HW1 5063   0.346   3.843   0.150
 1015SOL    HW2 5064   0.359   3.694   0.216
 1016SOL     OW 5065   0.935   3.960   0.480
 1016SOL    HW1 5066   0.887   4.001   0.402
 1016SOL    HW2 5067   1.034   3.958   0.461
 1017SOL     OW 5068   0.459   4.876   0.741
 1017SOL    HW1 5069   0.388   4.849   0.806
 1017SOL    HW2 5070   0.433   4.848   0.648
 1018SOL     OW 5071   1.032   4.273   0.016
 1018SOL    HW1 5072   0.991   4.355  -0.023
 1018SOL    HW2 5073   1.096   4.299   0.089
 1019SOL     OW 5074   0.078   4.280   1.386
 1019SOL    HW1 5075   0.170   4.279   1.345
 1019SOL    HW2 5076   0.072   4.354   1.453
 1020SOL     OW 5077   0.561   3.946   1.147
 1020SOL    HW1 5078   0.599   3.862   1.184
 1020SOL    HW2 5079   0.473   3.965   1.191
 1021SOL     OW 5080   0.866   4.178   0.642
 1021SOL    HW1 5081   0.834   4.250   0.580
 1021SOL    HW2 5082   0.890   4.097   0.589
 1022SOL     OW 5083   1.017   3.763   0.753
 1022SOL    HW1 5084   0.945   3.768   0.684
 1022SOL    HW2 5085   0.993   3.694   0.822
 1023SOL     OW 5086   1.429   4.897   0.867
 1023SOL    HW1 5087   1.374   4.813   0.860
 1023SOL    HW2 5088   1.455   4.926   0.775
 1024SOL     OW 5089   1.857   4.557   0.377
 1024SOL    HW1 5090   1.899   4.493   0.441
 1024SOL    HW2 5091   1.819   4.506   0.299
 1025SOL     OW 5092   1.664   5.004   0.657
 1025SOL    HW1 5093   1.763   5.012   0.671
 1025SOL    HW2 5094   1.619   5.088   0.688
 1026SOL     OW 5095   0.527   3.980   0.328
 1026SOL    HW1 5096   0.554   3.921   0.253
 1026SOL    HW2 5097   0.527   4.075   0.297
 1027SOL     OW 5098   1.754   4.947   1.588
 1027SOL    HW1 5099   1.845   4.908   1.575
 1027SOL    HW2 5100   1.762   5.043   1.612
 1028SOL     OW 5101   1.638   4.823   1.079
 1028SOL    HW1 5102   1.643   4.904   1.138
 1028SOL    HW2 5103   1.552   4.825   1.028
 1029SOL     OW 5104   0.915   3.813   1.402
 1029SOL    HW1 5105   0.940   3.793   1.307
 1029SOL    HW2 5106   0.987   3.869   1.444
 1030SOL     OW 5107   0.980   4.840   1.719
 1030SOL    HW1 5108   0.881   4.846   1.729
 1030SOL    HW2 5109   1.003   4.760   1.663
 1031SOL     OW 5110   0.705   4.774   0.368
 1031SOL    HW1 5111   0.691   4.781   0.467
 1031SOL    HW2 5112   0.789   4.723   0.350
 1032SOL     OW 5113   0.410   4.537   1.251
 1032SOL    HW1 5114   0.496   4.549   1.301
 1032SOL    HW2 5115   0.368   4.450   1.278
 1033SOL     OW 5116   0.367   4.824   0.501
 1033SOL    HW1 5117   0.360   4.907   0.445
 1033SOL    HW2 5118   0.371   4.744   0.441
 1034SOL     OW 5119   0.566   4.261   0.865
 1034SOL    HW1 5120   0.578   4.327   0.791
 1034SOL    HW2 5121   0.612   4.295   0.948
 1035SOL     OW 5122   1.582   4.363   0.472
 1035SOL    HW1 5123   1.551   4.424   0.545
 1035SOL    HW2 5124   1.632   4.415   0.403
 1036SOL     OW 5125   0.402   4.475   1.598
 1036SOL    HW1 5126   0.470   4.530   1.551
 1036SOL    HW2 5127   0.442   4.387   1.625
 1037SOL     OW 5128   1.587   4.503   1.670
 1037SOL    HW1 5129   1.495   4.541   1.665
 1037SOL    HW2 5130   1.647   4.550   1.605
 1038SOL     OW 5131   1.013   3.829   1.770
 1038SOL    HW1 5132   1.019   3.914   1.718
 1038SOL    HW2 5133   1.045   3.753   1.713
 1039SOL     OW 5134   0.504   3.774   1.740
 1039SOL    HW1 5135   0.462   3.717   1.670
 1039SOL    HW2 5136   0.438   3.843   1.772
 1040SOL     OW 5137   0.573   4.594   1.029
 1040SOL    HW1 5138   0.617   4.683   1.020
 1040SOL    HW2 5139   0.510   4.594   1.106
 1041SOL     OW 5140   1.209   4.249   0.275
 1041SOL    HW1 5141   1.222   4.165   0.329
 1041SOL    HW2 5142   1.180   4.323   0.335
 1042SOL     OW 5143   0.037   5.034   1.282
 1042SOL    HW1 5144   0.090   4.985   1.350
 1042SOL    HW2 5145   0.059   5.132   1.287
 1043SOL     OW 5146   0.732   4.358   1.064
 1043SOL    HW1 5147   0.791   4.332   0.988
 1043SOL    HW2 5148   0.704   4.454   1.053
 1044SOL     OW 5149   1.728   4.659   1.854
 1044SOL    HW1 5150   1.682   4.652   1.765
 1044SOL    HW2 5151   1.666   4.703   1.920
 1045SOL     OW 5152   0.307   3.787   0.618
 1045SOL    HW1 5153   0.296   3.881   0.651
 1045SOL    HW2 5154   0.302   3.724   0.695
 1046SOL     OW 5155   1.859   5.242   1.605
 1046SOL    HW1 5156   1.873   5.269   1.510
 1046SOL    HW2 5157   1.942   5.264   1.658
 1047SOL     OW 5158   0.350   4.622   1.804
 1047SOL    HW1 5159   0.426   4.666   1.852
 1047SOL    HW2 5160   0.385   4.575   1.722
 1048SOL     OW 5161   1.303   4.562   0.042
 1048SOL    HW1 5162   1.337   4.469   0.057
 1048SOL    HW2 5163   1.321   4.589  -0.053
 1049SOL     OW 5164   0.319   4.534   0.949
 1049SOL    HW1 5165   0.412   4.570   0.954
 1049SOL    HW2 5166   0.313   4.449   1.001
 1050SOL     OW 5167   0.339   4.233   1.006
 1050SOL    HW1 5168   0.287   4.150   0.989
 1050SOL    HW2 5169   0.416   4.238   0.942
 1051SOL     OW 5170   1.138   4.104   1.678
 1051SOL    HW1 5171   1.093   4.167   1.742
 1051SOL    HW2 5172   1.231   4.135   1.661
 1052SOL     OW 5173   1.160   3.931   1.477
 1052SOL    HW1 5174   1.160   3.995   1.554
 1052SOL    HW2 5175   1.188   3.979   1.394
 1053SOL     OW 5176   0.008   5.050   0.200
 1053SOL    HW1 5177  -0.085   5.071   0.169
 1053SOL    HW2 5178   0.018   4.951   0.213
 1054SOL     OW 5179   0.040   4.268   1.114
 1054SOL    HW1 5180   0.125   4.235   1.073
 1054SOL    HW2 5181   0.053   4.283   1.212
 1055SOL     OW 5182   0.189   4.244   1.722
 1055SOL    HW1 5183   0.248   4.204   1.652
 1055SOL    HW2 5184   0.131   4.315   1.681
 1056SOL     OW 5185   1.369   4.674   1.660
 1056SOL    HW1 5186   1.408   4.763   1.680
 1056SOL    HW2 5187   1.379   4.654   1.563
 1057SOL     OW 5188   0.815   4.296   0.325
 1057SOL    HW1 5189   0.822   4.207   0.279
 1057SOL    HW2 5190   0.721   4.330   0.317
 1058SOL     OW 5191   0.671   4.188   1.269
 1058SOL    HW1 5192   0.637   4.099   1.239
 1058SOL    HW2 5193   0.697   4.242   1.189
 1059SOL     OW 5194   0.473   4.224   0.191
 1059SOL    HW1 5195   0.534   4.304   0.195
 1059SOL    HW2 5196   0.378   4.255   0.198
 1060SOL     OW 5197   0.159   4.861   1.466
 1060SOL    HW1 5198   0.181   4.800   1.542
 1060SOL    HW2 5199   0.169   4.812   1.380
 1061SOL     OW 5200   1.347   4.783   1.234
 1061SOL    HW1 5201   1.371   4.720   1.160
 1061SOL    HW2 5202   1.257   4.823   1.216
 1062SOL     OW 5203   1.302   4.579   0.309
 1062SOL    HW1 5204   1.216   4.548   0.351
 1062SOL    HW2 5205   1.298   4.565   0.210
 1063SOL     OW 5206   0.083   4.982   1.022
 1063SOL    HW1 5207   0.078   4.981   1.122
 1063SOL    HW2 5208   0.000   4.941   0.984
 1064SOL     OW 5209   0.903   3.810   0.133
 1064SOL    HW1 5210   0.954   3.811   0.047
 1064SOL    HW2 5211   0.959   3.768   0.204
 1065SOL     OW 5212   0.830   4.997   1.422
 1065SOL    HW1 5213   0.825   5.030   1.517
 1065SOL    HW2 5214   0.744   5.016   1.376
 1066SOL     OW 5215   1.841   3.899   0.963
 1066SOL    HW1 5216   1.880   3.814   0.927
 1066SOL    HW2 5217   1.743   3.901   0.944
 1067SOL     OW 5218   0.263   4.050   0.720
 1067SOL    HW1 5219   0.184   4.101   0.686
 1067SOL    HW2 5220   0.254   4.035   0.818
 1068SOL     OW 5221   0.822   4.726   1.372
 1068SOL    HW1 5222   0.862   4.725   1.280
 1068SOL    HW2 5223   0.832   4.818   1.412
 1069SOL     OW 5224   0.916   4.634   0.291
 1069SOL    HW1 5225   0.979   4.672   0.223
 1069SOL    HW2 5226   0.956   4.551   0.330
 1070SOL     OW 5227   0.372   5.012   1.490
 1070SOL    HW1 5228   0.359   5.105   1.456
 1070SOL    HW2 5229   0.288   4.960   1.477
 1071SOL     OW 5230   1.614   5.016   1.289
 1071SOL    HW1 5231   1.674   5.019   1.369
 1071SOL    HW2 5232   1.539   5.080   1.302
 1072SOL     OW 5233   1.039   4.822   0.696
 1072SOL    HW1 5234   0.969   4.775   0.750
 1072SOL    HW2 5235   1.098   4.754   0.653
 1073SOL     OW 5236   1.014   3.960   0.971
 1073SOL    HW1 5237   1.006   3.924   0.878
 1073SOL    HW2 5238   1.012   3.884   1.036
 1074SOL     OW 5239   1.709   4.109   1.381
 1074SOL    HW1 5240   1.782   4.178   1.385
 1074SOL    HW2 5241   1.737   4.034   1.322
 1075SOL     OW 5242   0.105   4.737   1.726
 1075SOL    HW1 5243   0.028   4.704   1.780
 1075SOL    HW2 5244   0.190   4.707   1.768
 1076SOL     OW 5245   0.672   3.927   1.489
 1076SOL    HW1 5246   0.762   3.911   1.449
 1076SOL    HW2 5247   0.680   3.932   1.588
 1077SOL     OW 5248   0.075   4.069   0.033
 1077SOL    HW1 5249  -0.017   4.041   0.004
 1077SOL    HW2 5250   0.106   4.146  -0.023
 1078SOL     OW 5251   1.440   4.580   1.398
 1078SOL    HW1 5252   1.383   4.632   1.335
 1078SOL    HW2 5253   1.536   4.592   1.374
 1079SOL     OW 5254   0.072   3.890   0.318
 1079SOL    HW1 5255   0.055   3.973   0.264
 1079SOL    HW2 5256   0.162   3.853   0.296
 1080SOL     OW 5257   0.613   4.566   1.431
 1080SOL    HW1 5258   0.669   4.647   1.414
 1080SOL    HW2 5259   0.672   4.486   1.434
 1081SOL     OW 5260   0.716   4.289   1.708
 1081SOL    HW1 5261   0.735   4.354   1.782
 1081SOL    HW2 5262   0.776   4.209   1.717
 1082SOL     OW 5263   1.450   4.944   1.633
 1082SOL    HW1 5264   1.441   4.934   1.732
 1082SOL    HW2 5265   1.546   4.937   1.607
 1083SOL     OW 5266   0.594   4.469   0.652
 1083SOL    HW1 5267   0.644   4.554   0.633
 1083SOL    HW2 5268   0.506   4.471   0.604
 1084SOL     OW 5269   1.777   4.066   1.642
 1084SOL    HW1 5270   1.760   4.097   1.548
 1084SOL    HW2 5271   1.693   4.029   1.680
 1085SOL     OW 5272   1.730   4.658   1.517
 1085SOL    HW1 5273   1.768   4.749   1.532
 1085SOL    HW2 5274   1.722   4.641   1.418
 1086SOL     OW 5275   0.859   4.680   0.861
 1086SOL    HW1 5276   0.913   4.611   0.909
 1086SOL    HW2 5277   0.827   4.749   0.927
 1087SOL     OW 5278   1.083   4.708   0.087
 1087SOL    HW1 5279   1.060   4.761   0.005
 1087SOL    HW2 5280   1.164   4.652   0.068
 1088SOL     OW 5281   0.079   4.964   0.653
 1088SOL    HW1 5282   0.078   4.917   0.741
 1088SOL    HW2 5283   0.161   4.936   0.602
 1089SOL     OW 5284   1.824   3.916   1.227
 1089SOL    HW1 5285   1.820   3.826   1.271
 1089SOL    HW2 5286   1.827   3.905   1.128
 1090SOL     OW 5287   0.428   4.148   0.520
 1090SOL    HW1 5288   0.458   4.076   0.458
 1090SOL    HW2 5289   0.389   4.108   0.603
 1091SOL     OW 5290   0.317   4.271   1.280
 1091SOL    HW1 5291   0.355   4.212   1.352
 1091SOL    HW2 5292   0.357   4.245   1.192
 1092SOL     OW 5293   1.424   3.938   1.112
 1092SOL    HW1 5294   1.476   3.873   1.167
 1092SOL    HW2 5295   1.375   4.001   1.173
 1093SOL     OW 5296   1.001   3.758   1.154
 1093SOL    HW1 5297   0.938   3.686   1.123
 1093SOL    HW2 5298   1.094   3.722   1.154
 1094SOL     OW 5299   0.770   5.054   0.301
 1094SOL    HW1 5300   0.724   4.967   0.318
 1094SOL    HW2 5301   0.861   5.051   0.342
 1095SOL     OW 5302   1.352   3.776   0.168
 1095SOL    HW1 5303   1.387   3.735   0.084
 1095SOL    HW2 5304   1.262   3.738   0.188
 1096SOL     OW 5305   1.300   4.177   0.691
 1096SOL    HW1 5306   1.241   4.257   0.695
 1096SOL    HW2 5307   1.315   4.142   0.784
 1097SOL     OW 5308   1.593   3.945   0.882
 1097SOL    HW1 5309   1.509   3.944   0.936
 1097SOL    HW2 5310   1.595   4.028   0.826
 1098SOL     OW 5311   0.039   4.801   0.300
 1098SOL    HW1 5312   0.138   4.790   0.291
 1098SOL    HW2 5313  -0.001   4.715   0.332
 1099SOL     OW 5314   0.230   4.352   1.975
 1099SOL    HW1 5315   0.137   4.350   2.012
 1099SOL    HW2 5316   0.231   4.313   1.883
 1100SOL     OW 5317   0.569   4.999   3.027
 1100SOL    HW1 5318   0.476   4.992   2.990
 1100SOL    HW2 5319   0.580   5.088   3.071
 1101SOL     OW 5320   1.555   5.235   2.565
 1101SOL    HW1 5321   1.498   5.219   2.646
 1101SOL    HW2 5322   1.496   5.245   2.485
 1102SOL     OW 5323   1.135   4.427   2.579
 1102SOL    HW1 5324   1.192   4.505   2.554
 1102SOL    HW2 5325   1.075   4.453   2.655
 1103SOL     OW 5326   1.755   4.331   2.093
 1103SOL    HW1 5327   1.743   4.318   1.994
 1103SOL    HW2 5328   1.725   4.250   2.142
 1104SOL     OW 5329   0.686   4.885   3.665
 1104SOL    HW1 5330   0.746   4.964   3.679
 1104SOL    HW2 5331   0.600   4.916   3.624
 1105SOL     OW 5332   0.335   5.159   2.923
 1105SOL    HW1 5333   0.257   5.128   2.870
 1105SOL    HW2 5334   0.393   5.217   2.866
 1106SOL     OW 5335   0.438   4.116   3.361
 1106SOL    HW1 5336   0.520   4.060   3.370
 1106SOL    HW2 5337   0.357   4.058   3.365
 1107SOL     OW 5338   1.603   4.171   2.599
 1107SOL    HW1 5339   1.529   4.217   2.549
 1107SOL    HW2 5340   1.654   4.239   2.652
 1108SOL     OW 5341   0.240   4.815   2.748
 1108SOL    HW1 5342   0.254   4.731   2.800
 1108SOL    HW2 5343   0.185   4.879   2.803
 1109SOL     OW 5344   1.594   3.838   3.342
 1109SOL    HW1 5345   1.576   3.905   3.270
 1109SOL    HW2 5346   1.591   3.884   3.431
 1110SOL     OW 5347   0.122   4.367   2.425
 1110SOL    HW1 5348   0.077   4.279   2.442
 1110SOL    HW2 5349   0.121   4.421   2.509
 1111SOL     OW 5350   1.689   4.646   2.474
 1111SOL    HW1 5351   1.784   4.617   2.482
 1111SOL    HW2 5352   1.681   4.711   2.399
 1112SOL     OW 5353   1.641   4.832   2.294
 1112SOL    HW1 5354   1.727   4.834   2.242
 1112SOL    HW2 5355   1.655   4.879   2.382
 1113SOL     OW 5356   0.113   4.461   3.459
 1113SOL    HW1 5357   0.201   4.448   3.504
 1113SOL    HW2 5358   0.100   4.558   3.437
 1114SOL     OW 5359   1.293   4.952   3.285
 1114SOL    HW1 5360   1.330   4.879   3.227
 1114SOL    HW2 5361   1.345   4.957   3.370
 1115SOL     OW 5362   0.809   3.728   2.364
 1115SOL    HW1 5363   0.849   3.819   2.355
 1115SOL    HW2 5364   0.709   3.736   2.370
 1116SOL     OW 5365   0.197   4.700   3.126
 1116SOL    HW1 5366   0.286   4.655   3.112
 1116SOL    HW2 5367   0.124   4.635   3.107
 1117SOL     OW 5368   1.525   4.723   2.052
 1117SOL    HW1 5369   1.462   4.647   2.065
 1117SOL    HW2 5370   1.573   4.741   2.138
 1118SOL     OW 5371   0.317   3.975   3.663
 1118SOL    HW1 5372   0.388   4.046   3.669
 1118SOL    HW2 5373   0.229   4.014   3.691
 1119SOL     OW 5374   1.466   5.141   2.815
 1119SOL    HW1 5375   1.407   5.147   2.895
 1119SOL    HW2 5376   1.451   5.053   2.769
 1120SOL     OW 5377   0.598   4.453   2.132
 1120SOL    HW1 5378   0.622   4.522   2.064
 1120SOL    HW2 5379   0.520   4.486   2.186
 1121SOL     OW 5380   1.281   4.069   2.806
 1121SOL    HW1 5381   1.195   4.019   2.793
 1121SOL    HW2 5382   1.343   4.015   2.862
 1122SOL     OW 5383   0.807   4.329   3.327
 1122SOL    HW1 5384   0.760   4.326   3.416
 1122SOL    HW2 5385   0.756   4.274   3.261
 1123SOL     OW 5386   1.394   4.193   3.536
 1123SOL    HW1 5387   1.374   4.236   3.624
 1123SOL    HW2 5388   1.472   4.131   3.545
 1124SOL     OW 5389   0.973   4.614   3.434
 1124SOL    HW1 5390   1.019   4.530   3.405
 1124SOL    HW2 5391   0.917   4.648   3.359
 1125SOL     OW 5392   0.991   4.134   3.104
 1125SOL    HW1 5393   0.914   4.168   3.158
 1125SOL    HW2 5394   0.957   4.083   3.025
 1126SOL     OW 5395   1.041   4.425   2.291
 1126SOL    HW1 5396   1.067   4.421   2.387
 1126SOL    HW2 5397   0.956   4.374   2.277
 1127SOL     OW 5398   0.076   4.535   2.651
 1127SOL    HW1 5399   0.175   4.523   2.660
 1127SOL    HW2 5400   0.052   4.630   2.672
 1128SOL     OW 5401   0.865   4.072   2.057
 1128SOL    HW1 5402   0.924   4.135   2.008
 1128SOL    HW2 5403   0.884   3.978   2.028
 1129SOL     OW 5404   1.719   4.309   3.693
 1129SOL    HW1 5405   1.693   4.398   3.657
 1129SOL    HW2 5406   1.717   4.241   3.620
 1130SOL     OW 5407   1.362   4.868   2.407
 1130SOL    HW1 5408   1.445   4.839   2.359
 1130SOL    HW2 5409   1.313   4.935   2.351
 1131SOL     OW 5410   0.550   3.920   2.747
 1131SOL    HW1 5411   0.545   3.915   2.847
 1131SOL    HW2 5412   0.552   4.016   2.718
 1132SOL     OW 5413   0.321   4.667   2.104
 1132SOL    HW1 5414   0.403   4.706   2.062
 1132SOL    HW2 5415   0.294   4.585   2.055
 1133SOL     OW 5416   0.202   4.009   3.360
 1133SOL    HW1 5417   0.122   4.069   3.347
 1133SOL    HW2 5418   0.192   3.960   3.446
 1134SOL     OW 5419   1.632   5.101   1.943
 1134SOL    HW1 5420   1.600   5.195   1.933
 1134SOL    HW2 5421   1.556   5.038   1.931
 1135SOL     OW 5422   1.400   3.831   2.288
 1135SOL    HW1 5423   1.376   3.794   2.198
 1135SOL    HW2 5424   1.499   3.847   2.292
 1136SOL     OW 5425   0.382   4.424   2.342
 1136SOL    HW1 5426   0.427   4.334   2.339
 1136SOL    HW2 5427   0.288   4.413   2.375
 1137SOL     OW 5428   1.547   3.946   3.591
 1137SOL    HW1 5429   1.542   3.983   3.683
 1137SOL    HW2 5430   1.475   3.877   3.579
 1138SOL     OW 5431   0.614   3.846   1.979
 1138SOL    HW1 5432   0.712   3.824   1.986
 1138SOL    HW2 5433   0.583   3.829   1.886
 1139SOL     OW 5434   0.781   3.988   3.611
 1139SOL    HW1 5435   0.848   3.927   3.654
 1139SOL    HW2 5436   0.708   4.007   3.676
 1140SOL     OW 5437   1.351   4.314   3.295
 1140SOL    HW1 5438   1.379   4.271   3.380
 1140SOL    HW2 5439   1.376   4.410   3.296
 1141SOL     OW 5440   0.803   5.126   2.786
 1141SOL    HW1 5441   0.893   5.140   2.744
 1141SOL    HW2 5442   0.732   5.128   2.715
 1142SOL     OW 5443   0.922   4.227   2.761
 1142SOL    HW1 5444   0.897   4.218   2.665
 1142SOL    HW2 5445   0.970   4.145   2.792
 1143SOL     OW 5446   0.539   3.788   2.374
 1143SOL    HW1 5447   0.458   3.789   2.432
 1143SOL    HW2 5448   0.542   3.871   2.319
 1144SOL     OW 5449   1.434   4.912   1.903
 1144SOL    HW1 5450   1.466   4.836   1.960
 1144SOL    HW2 5451   1.342   4.939   1.933
 1145SOL     OW 5452   0.935   3.960   2.342
 1145SOL    HW1 5453   0.887   4.001   2.264
 1145SOL    HW2 5454   1.034   3.958   2.323
 1146SOL     OW 5455   1.076   4.407   3.326
 1146SOL    HW1 5456   0.996   4.346   3.329
 1146SOL    HW2 5457   1.157   4.354   3.302
 1147SOL     OW 5458   1.227   5.294   2.655
 1147SOL    HW1 5459   1.248   5.368   2.590
 1147SOL    HW2 5460   1.295   5.294   2.728
 1148SOL     OW 5461   0.459   4.876   2.603
 1148SOL    HW1 5462   0.388   4.849   2.668
 1148SOL    HW2 5463   0.433   4.848   2.510
 1149SOL     OW 5464   1.032   4.273   1.878
 1149SOL    HW1 5465   0.991   4.355   1.839
 1149SOL    HW2 5466   1.096   4.299   1.951
 1150SOL     OW 5467   0.078   4.280   3.248
 1150SOL    HW1 5468   0.170   4.279   3.207
 1150SOL    HW2 5469   0.072   4.354   3.315
 1151SOL     OW 5470   0.561   3.946   3.009
 1151SOL    HW1 5471   0.599   3.862   3.046
 1151SOL    HW2 5472   0.473   3.965   3.053
 1152SOL     OW 5473   0.866   4.178   2.504
 1152SOL    HW1 5474   0.834   4.250   2.442
 1152SOL    HW2 5475   0.890   4.097   2.451
 1153SOL     OW 5476   1.017   3.763   2.615
 1153SOL    HW1 5477   0.945   3.768   2.546
 1153SOL    HW2 5478   0.993   3.694   2.684
 1154SOL     OW 5479   1.429   4.897   2.729
 1154SOL    HW1 5480   1.374   4.813   2.722
 1154SOL    HW2 5481   1.455   4.926   2.637
 1155SOL     OW 5482   1.857   4.557   2.239
 1155SOL    HW1 5483   1.899   4.493   2.303
 1155SOL    HW2 5484   1.819   4.506   2.161
 1156SOL     OW 5485   1.664   5.004   2.519
 1156SOL    HW1 5486   1.763   5.012   2.533
 1156SOL    HW2 5487   1.619   5.088   2.550
 1157SOL     OW 5488   1.390   4.299   1.940
 1157SOL    HW1 5489   1.336   4.278   2.021
 1157SOL    HW2 5490   1.481   4.258   1.949
 1158SOL     OW 5491   1.754   4.947   3.450
 1158SOL    HW1 5492   1.845   4.908   3.437
 1158SOL    HW2 5493   1.762   5.043   3.474
 1159SOL     OW 5494   0.915   3.813   3.264
 1159SOL    HW1 5495   0.940   3.793   3.169
 1159SOL    HW2 5496   0.987   3.869   3.306
 1160SOL     OW 5497   0.980   4.840   3.581
 1160SOL    HW1 5498   0.881   4.846   3.591
 1160SOL    HW2 5499   1.003   4.760   3.525
 1161SOL     OW 5500   0.410   4.537   3.113
 1161SOL    HW1 5501   0.496   4.549   3.163
 1161SOL    HW2 5502   0.368   4.450   3.140
 1162SOL     OW 5503   1.274   4.110   3.124
 1162SOL    HW1 5504   1.295   4.184   3.188
 1162SOL    HW2 5505   1.185   4.127   3.081
 1163SOL     OW 5506   0.566   4.261   2.727
 1163SOL    HW1 5507   0.578   4.327   2.653
 1163SOL    HW2 5508   0.612   4.295   2.810
 1164SOL     OW 5509   1.582   4.363   2.334
 1164SOL    HW1 5510   1.551   4.424   2.407
 1164SOL    HW2 5511   1.632   4.415   2.265
 1165SOL     OW 5512   0.402   4.475   3.460
 1165SOL    HW1 5513   0.470   4.530   3.413
 1165SOL    HW2 5514   0.442   4.387   3.487
 1166SOL     OW 5515   1.587   4.503   3.532
 1166SOL    HW1 5516   1.495   4.541   3.527
 1166SOL    HW2 5517   1.647   4.550   3.467
 1167SOL     OW 5518   1.013   3.829   3.632
 1167SOL    HW1 5519   1.019   3.914   3.580
 1167SOL    HW2 5520   1.045   3.753   3.575
 1168SOL     OW 5521   0.504   3.774   3.602
 1168SOL    HW1 5522   0.462   3.717   3.532
 1168SOL    HW2 5523   0.438   3.843   3.634
 1169SOL     OW 5524   0.573   4.594   2.891
 1169SOL    HW1 5525   0.617   4.683   2.882
 1169SOL    HW2 5526   0.510   4.594   2.968
 1170SOL     OW 5527   1.209   4.249   2.137
 1170SOL    HW1 5528   1.222   4.165   2.191
 1170SOL    HW2 5529   1.180   4.323   2.197
 1171SOL     OW 5530   0.307   3.937   3.093
 1171SOL    HW1 5531   0.284   3.974   3.183
 1171SOL    HW2 5532   0.277   3.842   3.087
 1172SOL     OW 5533   0.037   5.034   3.144
 1172SOL    HW1 5534   0.090   4.985   3.212
 1172SOL    HW2 5535   0.059   5.132   3.149
 1173SOL     OW 5536   0.732   4.358   2.926
 1173SOL    HW1 5537   0.791   4.332   2.850
 1173SOL    HW2 5538   0.704   4.454   2.915
 1174SOL     OW 5539   1.728   4.659   3.716
 1174SOL    HW1 5540   1.682   4.652   3.627
 1174SOL    HW2 5541   1.666   4.703   3.782
 1175SOL     OW 5542   1.622   4.091   2.236
 1175SOL    HW1 5543   1.624   4.015   2.300
 1175SOL    HW2 5544   1.574   4.168   2.276
 1176SOL     OW 5545   1.859   5.242   3.467
 1176SOL    HW1 5546   1.873   5.269   3.372
 1176SOL    HW2 5547   1.942   5.264   3.520
 1177SOL     OW 5548   0.350   4.622   3.666
 1177SOL    HW1 5549   0.426   4.666   3.714
 1177SOL    HW2 5550   0.385   4.575   3.584
 1178SOL     OW 5551   1.540   3.998   1.987
 1178SOL    HW1 5552   1.479   3.923   2.010
 1178SOL    HW2 5553   1.562   4.050   2.070
 1179SOL     OW 5554   1.303   4.562   1.904
 1179SOL    HW1 5555   1.337   4.469   1.919
 1179SOL    HW2 5556   1.321   4.589   1.809
 1180SOL     OW 5557   0.319   4.534   2.811
 1180SOL    HW1 5558   0.412   4.570   2.816
 1180SOL    HW2 5559   0.313   4.449   2.863
 1181SOL     OW 5560   0.339   4.233   2.868
 1181SOL    HW1 5561   0.287   4.150   2.851
 1181SOL    HW2 5562   0.416   4.238   2.804
 1182SOL     OW 5563   1.160   3.931   3.339
 1182SOL    HW1 5564   1.160   3.995   3.416
 1182SOL    HW2 5565   1.188   3.979   3.256
 1183SOL     OW 5566   0.008   5.050   2.062
 1183SOL    HW1 5567  -0.085   5.071   2.031
 1183SOL    HW2 5568   0.018   4.951   2.075
 1184SOL     OW 5569   0.040   4.268   2.976
 1184SOL    HW1 5570   0.125   4.235   2.935
 1184SOL    HW2 5571   0.053   4.283   3.074
 1185SOL     OW 5572   0.189   4.244   3.584
 1185SOL    HW1 5573   0.248   4.204   3.514
 1185SOL    HW2 5574   0.131   4.315   3.543
 1186SOL     OW 5575   1.369   4.674   3.522
 1186SOL    HW1 5576   1.408   4.763   3.542
 1186SOL    HW2 5577   1.379   4.654   3.425
 1187SOL     OW 5578   0.815   4.296   2.187
 1187SOL    HW1 5579   0.822   4.207   2.141
 1187SOL    HW2 5580   0.721   4.330   2.179
 1188SOL     OW 5581   0.671   4.188   3.131
 1188SOL    HW1 5582   0.637   4.099   3.101
 1188SOL    HW2 5583   0.697   4.242   3.051
 1189SOL     OW 5584   0.473   4.224   2.053
 1189SOL    HW1 5585   0.534   4.304   2.057
 1189SOL    HW2 5586   0.378   4.255   2.060
 1190SOL     OW 5587   0.159   4.861   3.328
 1190SOL    HW1 5588   0.181   4.800   3.404
 1190SOL    HW2 5589   0.169   4.812   3.242
 1191SOL     OW 5590   1.302   4.579   2.171
 1191SOL    HW1 5591   1.216   4.548   2.213
 1191SOL    HW2 5592   1.298   4.565   2.072
 1192SOL     OW 5593   0.083   4.982   2.884
 1192SOL    HW1 5594   0.078   4.981   2.984
 1192SOL    HW2 5595   0.000   4.941   2.846
 1193SOL     OW 5596   1.726   3.859   2.385
 1193SOL    HW1 5597   1.799   3.842   2.318
 1193SOL    HW2 5598   1.695   3.772   2.423
 1194SOL     OW 5599   1.280   4.651   2.534
 1194SOL    HW1 5600   1.340   4.570   2.536
 1194SOL    HW2 5601   1.320   4.720   2.474
 1195SOL     OW 5602   0.830   4.997   3.284
 1195SOL    HW1 5603   0.825   5.030   3.379
 1195SOL    HW2 5604   0.744   5.016   3.238
 1196SOL     OW 5605   1.841   3.899   2.825
 1196SOL    HW1 5606   1.880   3.814   2.789
 1196SOL    HW2 5607   1.743   3.901   2.806
 1197SOL     OW 5608   1.194   5.336   1.893
 1197SOL    HW1 5609   1.200   5.243   1.930
 1197SOL    HW2 5610   1.135   5.336   1.813
 1198SOL     OW 5611   0.822   4.726   3.234
 1198SOL    HW1 5612   0.862   4.725   3.142
 1198SOL    HW2 5613   0.832   4.818   3.274
 1199SOL     OW 5614   0.916   4.634   2.153
 1199SOL    HW1 5615   0.979   4.672   2.085
 1199SOL    HW2 5616   0.956   4.551   2.192
 1200SOL     OW 5617   1.614   5.016   3.151
 1200SOL    HW1 5618   1.674   5.019   3.231
 1200SOL    HW2 5619   1.539   5.080   3.164
 1201SOL     OW 5620   1.039   4.822   2.558
 1201SOL    HW1 5621   0.969   4.775   2.612
 1201SOL    HW2 5622   1.098   4.754   2.515
 1202SOL     OW 5623   1.014   3.960   2.833
 1202SOL    HW1 5624   1.006   3.924   2.740
 1202SOL    HW2 5625   1.012   3.884   2.898
 1203SOL     OW 5626   1.709   4.109   3.243
 1203SOL    HW1 5627   1.782   4.178   3.247
 1203SOL    HW2 5628   1.737   4.034   3.184
 1204SOL     OW 5629   0.105   4.737   3.588
 1204SOL    HW1 5630   0.028   4.704   3.642
 1204SOL    HW2 5631   0.190   4.707   3.630
 1205SOL     OW 5632   0.672   3.927   3.351
 1205SOL    HW1 5633   0.762   3.911   3.311
 1205SOL    HW2 5634   0.680   3.932   3.450
 1206SOL     OW 5635   0.075   4.069   1.895
 1206SOL    HW1 5636  -0.017   4.041   1.866
 1206SOL    HW2 5637   0.106   4.146   1.839
 1207SOL     OW 5638   1.440   4.580   3.260
 1207SOL    HW1 5639   1.383   4.632   3.197
 1207SOL    HW2 5640   1.536   4.592   3.236
 1208SOL     OW 5641   0.613   4.566   3.293
 1208SOL    HW1 5642   0.669   4.647   3.276
 1208SOL    HW2 5643   0.672   4.486   3.296
 1209SOL     OW 5644   0.716   4.289   3.570
 1209SOL    HW1 5645   0.735   4.354   3.644
 1209SOL    HW2 5646   0.776   4.209   3.579
 1210SOL     OW 5647   1.450   4.944   3.495
 1210SOL    HW1 5648   1.441   4.934   3.594
 1210SOL    HW2 5649   1.546   4.937   3.469
 1211SOL     OW 5650   1.225   4.049   2.311
 1211SOL    HW1 5651   1.290   3.975   2.300
 1211SOL    HW2 5652   1.245   4.099   2.395
 1212SOL     OW 5653   0.594   4.469   2.514
 1212SOL    HW1 5654   0.644   4.554   2.495
 1212SOL    HW2 5655   0.506   4.471   2.466
 1213SOL     OW 5656   1.777   4.066   3.504
 1213SOL    HW1 5657   1.760   4.097   3.410
 1213SOL    HW2 5658   1.693   4.029   3.542
 1214SOL     OW 5659   1.730   4.658   3.379
 1214SOL    HW1 5660   1.768   4.749   3.394
 1214SOL    HW2 5661   1.722   4.641   3.280
 1215SOL     OW 5662   0.859   4.680   2.723
 1215SOL    HW1 5663   0.913   4.611   2.771
 1215SOL    HW2 5664   0.827   4.749   2.789
 1216SOL     OW 5665   1.083   4.708   1.949
 1216SOL    HW1 5666   1.060   4.761   1.867
 1216SOL    HW2 5667   1.164   4.652   1.930
 1217SOL     OW 5668   0.079   4.964   2.515
 1217SOL    HW1 5669   0.078   4.917   2.603
 1217SOL    HW2 5670   0.161   4.936   2.464
 1218SOL     OW 5671   1.824   3.916   3.089
 1218SOL    HW1 5672   1.820   3.826   3.133
 1218SOL    HW2 5673   1.827   3.905   2.990
 1219SOL     OW 5674   0.317   4.271   3.142
 1219SOL    HW1 5675   0.355   4.212   3.214
 1219SOL    HW2 5676   0.357   4.245   3.054
 1220SOL     OW 5677   1.424   3.938   2.974
 1220SOL    HW1 5678   1.476   3.873   3.029
 1220SOL    HW2 5679   1.375   4.001   3.035
 1221SOL     OW 5680   1.001   3.758   3.016
 1221SOL    HW1 5681   0.938   3.686   2.985
 1221SOL    HW2 5682   1.094   3.722   3.016
 1222SOL     OW 5683   1.352   3.776   2.030
 1222SOL    HW1 5684   1.387   3.735   1.946
 1222SOL    HW2 5685   1.262   3.738   2.050
 1223SOL     OW 5686   1.300   4.177   2.553
 1223SOL    HW1 5687   1.241   4.257   2.557
 1223SOL    HW2 5688   1.315   4.142   2.646
 1224SOL     OW 5689   1.593   3.945   2.744
 1224SOL    HW1 5690   1.509   3.944   2.798
 1224SOL    HW2 5691   1.595   4.028   2.688
 1225SOL     OW 5692   0.039   4.801   2.162
 1225SOL    HW1 5693   0.138   4.790   2.153
 1225SOL    HW2 5694  -0.001   4.715   2.194
 1226SOL     OW 5695   0.230   4.352   3.837
 1226SOL    HW1 5696   0.137   4.350   3.874
 1226SOL    HW2 5697   0.231   4.313   3.745
 1227SOL     OW 5698   0.225   3.999   4.720
 1227SOL    HW1 5699   0.260   3.982   4.812
 1227SOL    HW2 5700   0.137   3.954   4.708
 1228SOL     OW 5701   0.019   4.092   4.371
 1228SOL    HW1 5702  -0.063   4.135   4.410
 1228SOL    HW2 5703  -0.009   4.019   4.308
 1229SOL     OW 5704   0.569   4.999   4.889
 1229SOL    HW1 5705   0.476   4.992   4.852
 1229SOL    HW2 5706   0.580   5.088   4.933
 1230SOL     OW 5707   1.555   5.235   4.427
 1230SOL    HW1 5708   1.498   5.219   4.508
 1230SOL    HW2 5709   1.496   5.245   4.347
 1231SOL     OW 5710   1.755   4.331   3.955
 1231SOL    HW1 5711   1.743   4.318   3.856
 1231SOL    HW2 5712   1.725   4.250   4.004
 1232SOL     OW 5713   0.335   5.159   4.785
 1232SOL    HW1 5714   0.257   5.128   4.732
 1232SOL    HW2 5715   0.393   5.217   4.728
 1233SOL     OW 5716   1.603   4.171   4.461
 1233SOL    HW1 5717   1.529   4.217   4.411
 1233SOL    HW2 5718   1.654   4.239   4.514
 1234SOL     OW 5719   0.240   4.815   4.610
 1234SOL    HW1 5720   0.254   4.731   4.662
 1234SOL    HW2 5721   0.185   4.879   4.665
 1235SOL     OW 5722   0.606   4.688   3.847
 1235SOL    HW1 5723   0.613   4.772   3.793
 1235SOL    HW2 5724   0.652   4.701   3.935
 1236SOL     OW 5725   0.122   4.367   4.287
 1236SOL    HW1 5726   0.077   4.279   4.304
 1236SOL    HW2 5727   0.121   4.421   4.371
 1237SOL     OW 5728   1.689   4.646   4.336
 1237SOL    HW1 5729   1.784   4.617   4.344
 1237SOL    HW2 5730   1.681   4.711   4.261
 1238SOL     OW 5731   1.641   4.832   4.156
 1238SOL    HW1 5732   1.727   4.834   4.104
 1238SOL    HW2 5733   1.655   4.879   4.244
 1239SOL     OW 5734   0.809   3.728   4.226
 1239SOL    HW1 5735   0.849   3.819   4.217
 1239SOL    HW2 5736   0.709   3.736   4.232
 1240SOL     OW 5737   0.197   4.700   4.988
 1240SOL    HW1 5738   0.286   4.655   4.974
 1240SOL    HW2 5739   0.124   4.635   4.969
 1241SOL     OW 5740   1.525   4.723   3.914
 1241SOL    HW1 5741   1.462   4.647   3.927
 1241SOL    HW2 5742   1.573   4.741   4.000
 1242SOL     OW 5743   1.466   5.141   4.677
 1242SOL    HW1 5744   1.407   5.147   4.757
 1242SOL    HW2 5745   1.451   5.053   4.631
 1243SOL     OW 5746   0.598   4.453   3.994
 1243SOL    HW1 5747   0.622   4.522   3.926
 1243SOL    HW2 5748   0.520   4.486   4.048
 1244SOL     OW 5749   1.281   4.069   4.668
 1244SOL    HW1 5750   1.195   4.019   4.655
 1244SOL    HW2 5751   1.343   4.015   4.724
 1245SOL     OW 5752   0.991   4.134   4.966
 1245SOL    HW1 5753   0.914   4.168   5.020
 1245SOL    HW2 5754   0.957   4.083   4.887
 1246SOL     OW 5755   0.076   4.535   4.513
 1246SOL    HW1 5756   0.175   4.523   4.522
 1246SOL    HW2 5757   0.052   4.630   4.534
 1247SOL     OW 5758   0.865   4.072   3.919
 1247SOL    HW1 5759   0.924   4.135   3.870
 1247SOL    HW2 5760   0.884   3.978   3.890
 1248SOL     OW 5761   0.550   3.920   4.609
 1248SOL    HW1 5762   0.545   3.915   4.709
 1248SOL    HW2 5763   0.552   4.016   4.580
 1249SOL     OW 5764   1.795   4.790   4.597
 1249SOL    HW1 5765   1.733   4.775   4.521
 1249SOL    HW2 5766   1.743   4.801   4.682
 1250SOL     OW 5767   0.321   4.667   3.966
 1250SOL    HW1 5768   0.403   4.706   3.924
 1250SOL    HW2 5769   0.294   4.585   3.917
 1251SOL     OW 5770   1.458   4.459   4.452
 1251SOL    HW1 5771   1.453   4.394   4.527
 1251SOL    HW2 5772   1.538   4.518   4.465
 1252SOL     OW 5773   1.632   5.101   3.805
 1252SOL    HW1 5774   1.600   5.195   3.795
 1252SOL    HW2 5775   1.556   5.038   3.793
 1253SOL     OW 5776   1.400   3.831   4.150
 1253SOL    HW1 5777   1.376   3.794   4.060
 1253SOL    HW2 5778   1.499   3.847   4.154
 1254SOL     OW 5779   0.382   4.424   4.204
 1254SOL    HW1 5780   0.427   4.334   4.201
 1254SOL    HW2 5781   0.288   4.413   4.237
 1255SOL     OW 5782   0.614   3.846   3.841
 1255SOL    HW1 5783   0.712   3.824   3.848
 1255SOL    HW2 5784   0.583   3.829   3.748
 1256SOL     OW 5785   0.539   3.788   4.236
 1256SOL    HW1 5786   0.458   3.789   4.294
 1256SOL    HW2 5787   0.542   3.871   4.181
 1257SOL     OW 5788   0.297   3.759   3.895
 1257SOL    HW1 5789   0.346   3.843   3.874
 1257SOL    HW2 5790   0.359   3.694   3.940
 1258SOL     OW 5791   1.227   5.294   4.517
 1258SOL    HW1 5792   1.248   5.368   4.452
 1258SOL    HW2 5793   1.295   5.294   4.590
 1259SOL     OW 5794   0.459   4.876   4.465
 1259SOL    HW1 5795   0.388   4.849   4.530
 1259SOL    HW2 5796   0.433   4.848   4.372
 1260SOL     OW 5797   0.561   3.946   4.871
 1260SOL    HW1 5798   0.599   3.862   4.908
 1260SOL    HW2 5799   0.473   3.965   4.915
 1261SOL     OW 5800   1.017   3.763   4.477
 1261SOL    HW1 5801   0.945   3.768   4.408
 1261SOL    HW2 5802   0.993   3.694   4.546
 1262SOL     OW 5803   1.429   4.897   4.591
 1262SOL    HW1 5804   1.374   4.813   4.584
 1262SOL    HW2 5805   1.455   4.926   4.499
 1263SOL     OW 5806   1.466   4.314   4.716
 1263SOL    HW1 5807   1.436   4.219   4.723
 1263SOL    HW2 5808   1.539   4.330   4.782
 1264SOL     OW 5809   1.857   4.557   4.101
 1264SOL    HW1 5810   1.899   4.493   4.165
 1264SOL    HW2 5811   1.819   4.506   4.023
 1265SOL     OW 5812   1.664   5.004   4.381
 1265SOL    HW1 5813   1.763   5.012   4.395
 1265SOL    HW2 5814   1.619   5.088   4.412
 1266SOL     OW 5815   1.390   4.299   3.802
 1266SOL    HW1 5816   1.336   4.278   3.883
 1266SOL    HW2 5817   1.481   4.258   3.811
 1267SOL     OW 5818   0.527   3.980   4.052
 1267SOL    HW1 5819   0.554   3.921   3.977
 1267SOL    HW2 5820   0.527   4.075   4.021
 1268SOL     OW 5821   1.638   4.823   4.803
 1268SOL    HW1 5822   1.643   4.904   4.862
 1268SOL    HW2 5823   1.552   4.825   4.752
 1269SOL     OW 5824   0.410   4.537   4.975
 1269SOL    HW1 5825   0.496   4.549   5.025
 1269SOL    HW2 5826   0.368   4.450   5.002
 1270SOL     OW 5827   0.367   4.824   4.225
 1270SOL    HW1 5828   0.360   4.907   4.169
 1270SOL    HW2 5829   0.371   4.744   4.165
 1271SOL     OW 5830   0.566   4.261   4.589
 1271SOL    HW1 5831   0.578   4.327   4.515
 1271SOL    HW2 5832   0.612   4.295   4.672
 1272SOL     OW 5833   1.582   4.363   4.196
 1272SOL    HW1 5834   1.551   4.424   4.269
 1272SOL    HW2 5835   1.632   4.415   4.127
 1273SOL     OW 5836   0.573   4.594   4.753
 1273SOL    HW1 5837   0.617   4.683   4.744
 1273SOL    HW2 5838   0.510   4.594   4.830
 1274SOL     OW 5839   1.360   4.586   4.769
 1274SOL    HW1 5840   1.285   4.586   4.703
 1274SOL    HW2 5841   1.397   4.494   4.778
 1275SOL     OW 5842   0.307   3.937   4.955
 1275SOL    HW1 5843   0.284   3.974   5.045
 1275SOL    HW2 5844   0.277   3.842   4.949
 1276SOL     OW 5845   0.037   5.034   5.006
 1276SOL    HW1 5846   0.090   4.985   5.074
 1276SOL    HW2 5847   0.059   5.132   5.011
 1277SOL     OW 5848   0.732   4.358   4.788
 1277SOL    HW1 5849   0.791   4.332   4.712
 1277SOL    HW2 5850   0.704   4.454   4.777
 1278SOL     OW 5851   0.307   3.787   4.342
 1278SOL    HW1 5852   0.296   3.881   4.375
 1278SOL    HW2 5853   0.302   3.724   4.419
 1279SOL     OW 5854   1.023   4.490   4.690
 1279SOL    HW1 5855   1.038   4.511   4.786
 1279SOL    HW2 5856   0.993   4.395   4.681
 1280SOL     OW 5857   1.540   3.998   3.849
 1280SOL    HW1 5858   1.479   3.923   3.872
 1280SOL    HW2 5859   1.562   4.050   3.932
 1281SOL     OW 5860   1.303   4.562   3.766
 1281SOL    HW1 5861   1.337   4.469   3.781
 1281SOL    HW2 5862   1.321   4.589   3.671
 1282SOL     OW 5863   0.319   4.534   4.673
 1282SOL    HW1 5864   0.412   4.570   4.678
 1282SOL    HW2 5865   0.313   4.449   4.725
 1283SOL     OW 5866   0.339   4.233   4.730
 1283SOL    HW1 5867   0.287   4.150   4.713
 1283SOL    HW2 5868   0.416   4.238   4.666
 1284SOL     OW 5869   1.002   4.520   4.962
 1284SOL    HW1 5870   1.043   4.488   5.048
 1284SOL    HW2 5871   0.906   4.493   4.959
 1285SOL     OW 5872   0.040   4.268   4.838
 1285SOL    HW1 5873   0.125   4.235   4.797
 1285SOL    HW2 5874   0.053   4.283   4.936
 1286SOL     OW 5875   0.815   4.296   4.049
 1286SOL    HW1 5876   0.822   4.207   4.003
 1286SOL    HW2 5877   0.721   4.330   4.041
 1287SOL     OW 5878   1.657   4.328   4.930
 1287SOL    HW1 5879   1.619   4.259   4.992
 1287SOL    HW2 5880   1.739   4.292   4.886
 1288SOL     OW 5881   0.671   4.188   4.993
 1288SOL    HW1 5882   0.637   4.099   4.963
 1288SOL    HW2 5883   0.697   4.242   4.913
 1289SOL     OW 5884   0.473   4.224   3.915
 1289SOL    HW1 5885   0.534   4.304   3.919
 1289SOL    HW2 5886   0.378   4.255   3.922
 1290SOL     OW 5887   1.347   4.783   4.958
 1290SOL    HW1 5888   1.371   4.720   4.884
 1290SOL    HW2 5889   1.257   4.823   4.940
 1291SOL     OW 5890   1.302   4.579   4.033
 1291SOL    HW1 5891   1.216   4.548   4.075
 1291SOL    HW2 5892   1.298   4.565   3.934
 1292SOL     OW 5893   0.083   4.982   4.746
 1292SOL    HW1 5894   0.078   4.981   4.846
 1292SOL    HW2 5895   0.000   4.941   4.708
 1293SOL     OW 5896   1.726   3.859   4.247
 1293SOL    HW1 5897   1.799   3.842   4.180
 1293SOL    HW2 5898   1.695   3.772   4.285
 1294SOL     OW 5899   1.280   4.651   4.396
 1294SOL    HW1 5900   1.340   4.570   4.398
 1294SOL    HW2 5901   1.320   4.720   4.336
 1295SOL     OW 5902   0.830   4.997   5.146
 1295SOL    HW1 5903   0.825   5.030   5.241
 1295SOL    HW2 5904   0.744   5.016   5.100
 1296SOL     OW 5905   1.841   3.899   4.687
 1296SOL    HW1 5906   1.880   3.814   4.651
 1296SOL    HW2 5907   1.743   3.901   4.668
 1297SOL     OW 5908   0.263   4.050   4.444
 1297SOL    HW1 5909   0.184   4.101   4.410
 1297SOL    HW2 5910   0.254   4.035   4.542
 1298SOL     OW 5911   1.194   5.336   3.755
 1298SOL    HW1 5912   1.200   5.243   3.792
 1298SOL    HW2 5913   1.135   5.336   3.675
 1299SOL     OW 5914   0.822   4.726   5.096
 1299SOL    HW1 5915   0.862   4.725   5.004
 1299SOL    HW2 5916   0.832   4.818   5.136
 1300SOL     OW 5917   1.014   3.960   4.695
 1300SOL    HW1 5918   1.006   3.924   4.602
 1300SOL    HW2 5919   1.012   3.884   4.760
 1301SOL     OW 5920   0.075   4.069   3.757
 1301SOL    HW1 5921  -0.017   4.041   3.728
 1301SOL    HW2 5922   0.106   4.146   3.701
 1302SOL     OW 5923   0.072   3.890   4.042
 1302SOL    HW1 5924   0.055   3.973   3.988
 1302SOL    HW2 5925   0.162   3.853   4.020
 1303SOL     OW 5926   1.450   4.944   5.357
 1303SOL    HW1 5927   1.441   4.934   5.456
 1303SOL    HW2 5928   1.546   4.937   5.331
 1304SOL     OW 5929   1.674   4.607   4.978
 1304SOL    HW1 5930   1.647   4.518   4.941
 1304SOL    HW2 5931   1.675   4.675   4.905
 1305SOL     OW 5932   0.594   4.469   4.376
 1305SOL    HW1 5933   0.644   4.554   4.357
 1305SOL    HW2 5934   0.506   4.471   4.328
 1306SOL     OW 5935   1.730   4.658   5.241
 1306SOL    HW1 5936   1.768   4.749   5.256
 1306SOL    HW2 5937   1.722   4.641   5.142
 1307SOL     OW 5938   0.859   4.680   4.585
 1307SOL    HW1 5939   0.913   4.611   4.633
 1307SOL    HW2 5940   0.827   4.749   4.651
 1308SOL     OW 5941   0.079   4.964   4.377
 1308SOL    HW1 5942   0.078   4.917   4.465
 1308SOL    HW2 5943   0.161   4.936   4.326
 1309SOL     OW 5944   1.824   3.916   4.951
 1309SOL    HW1 5945   1.820   3.826   4.995
 1309SOL    HW2 5946   1.827   3.905   4.852
 1310SOL     OW 5947   0.428   4.148   4.244
 1310SOL    HW1 5948   0.458   4.076   4.182
 1310SOL    HW2 5949   0.389   4.108   4.327
 1311SOL     OW 5950   1.424   3.938   4.836
 1311SOL    HW1 5951   1.476   3.873   4.891
 1311SOL    HW2 5952   1.375   4.001   4.897
 1312SOL     OW 5953   1.001   3.758   4.878
 1312SOL    HW1 5954   0.938   3.686   4.847
 1312SOL    HW2 5955   1.094   3.722   4.878
 1313SOL     OW 5956   1.352   3.776   3.892
 1313SOL    HW1 5957   1.387   3.735   3.808
 1313SOL    HW2 5958   1.262   3.738   3.912
 1314SOL     OW 5959   1.300   4.177   4.415
 1314SOL    HW1 5960   1.241   4.257   4.419
 1314SOL    HW2 5961   1.315   4.142   4.508
 1315SOL     OW 5962   1.593   3.945   4.606
 1315SOL    HW1 5963   1.509   3.944   4.660
 1315SOL    HW2 5964   1.595   4.028   4.550
 1316SOL     OW 5965   0.039   4.801   4.024
 1316SOL    HW1 5966   0.138   4.790   4.015
 1316SOL    HW2 5967  -0.001   4.715   4.056
 1317SOL     OW 5968   2.092   0.628   0.113
 1317SOL    HW1 5969   1.999   0.626   0.150
 1317SOL    HW2 5970   2.093   0.589   0.021
 1318SOL     OW 5971   2.087   0.275   0.996
 1318SOL    HW1 5972   2.122   0.258   1.088
 1318SOL    HW2 5973   1.999   0.230   0.984
 1319SOL     OW 5974   1.881   0.368   0.647
 1319SOL    HW1 5975   1.799   0.411   0.686
 1319SOL    HW2 5976   1.853   0.295   0.584
 1320SOL     OW 5977   2.431   1.275   1.165
 1320SOL    HW1 5978   2.338   1.268   1.128
 1320SOL    HW2 5979   2.442   1.364   1.209
 1321SOL     OW 5980   3.617   0.607   0.231
 1321SOL    HW1 5981   3.605   0.594   0.132
 1321SOL    HW2 5982   3.587   0.526   0.280
 1322SOL     OW 5983   2.630   1.144   1.023
 1322SOL    HW1 5984   2.552   1.161   1.083
 1322SOL    HW2 5985   2.664   1.231   0.987
 1323SOL     OW 5986   2.547   1.012   0.665
 1323SOL    HW1 5987   2.616   0.996   0.735
 1323SOL    HW2 5988   2.474   1.069   0.703
 1324SOL     OW 5989   2.197   1.435   1.061
 1324SOL    HW1 5990   2.119   1.404   1.008
 1324SOL    HW2 5991   2.255   1.493   1.004
 1325SOL     OW 5992   3.322   1.505   1.339
 1325SOL    HW1 5993   3.346   1.599   1.365
 1325SOL    HW2 5994   3.306   1.451   1.421
 1326SOL     OW 5995   2.300   0.392   1.499
 1326SOL    HW1 5996   2.382   0.336   1.508
 1326SOL    HW2 5997   2.219   0.334   1.503
 1327SOL     OW 5998   3.465   0.447   0.737
 1327SOL    HW1 5999   3.391   0.493   0.687
 1327SOL    HW2 6000   3.516   0.515   0.790
 1328SOL     OW 6001   2.093   1.713   0.483
 1328SOL    HW1 6002   2.127   1.790   0.537
 1328SOL    HW2 6003   2.137   1.713   0.393
 1329SOL     OW 6004   2.989   1.341   1.690
 1329SOL    HW1 6005   3.036   1.341   1.778
 1329SOL    HW2 6006   2.941   1.254   1.679
 1330SOL     OW 6007   2.092   1.434   0.538
 1330SOL    HW1 6008   2.066   1.530   0.538
 1330SOL    HW2 6009   2.021   1.380   0.583
 1331SOL     OW 6010   2.102   1.091   0.886
 1331SOL    HW1 6011   2.116   1.007   0.938
 1331SOL    HW2 6012   2.047   1.155   0.941
 1332SOL     OW 6013   2.482   1.786   1.439
 1332SOL    HW1 6014   2.390   1.769   1.474
 1332SOL    HW2 6015   2.510   1.878   1.465
 1333SOL     OW 6016   2.468   0.964   0.123
 1333SOL    HW1 6017   2.475   1.048   0.069
 1333SOL    HW2 6018   2.514   0.977   0.211
 1334SOL     OW 6019   3.456   0.114   1.480
 1334SOL    HW1 6020   3.438   0.181   1.408
 1334SOL    HW2 6021   3.453   0.160   1.569
 1335SOL     OW 6022   1.984   0.643   0.563
 1335SOL    HW1 6023   1.939   0.555   0.580
 1335SOL    HW2 6024   1.983   0.697   0.647
 1336SOL     OW 6025   3.704   1.767   0.359
 1336SOL    HW1 6026   3.758   1.738   0.439
 1336SOL    HW2 6027   3.734   1.857   0.330
 1337SOL     OW 6028   1.889   1.596   0.117
 1337SOL    HW1 6029   1.870   1.500   0.138
 1337SOL    HW2 6030   1.856   1.654   0.192
 1338SOL     OW 6031   3.551   0.922   0.612
 1338SOL    HW1 6032   3.646   0.893   0.620
 1338SOL    HW2 6033   3.543   0.987   0.537
 1339SOL     OW 6034   3.503   1.108   0.432
 1339SOL    HW1 6035   3.589   1.110   0.380
 1339SOL    HW2 6036   3.517   1.155   0.520
 1340SOL     OW 6037   1.975   0.737   1.597
 1340SOL    HW1 6038   2.063   0.724   1.642
 1340SOL    HW2 6039   1.962   0.834   1.575
 1341SOL     OW 6040   2.475   1.365   0.726
 1341SOL    HW1 6041   2.426   1.278   0.735
 1341SOL    HW2 6042   2.452   1.408   0.639
 1342SOL     OW 6043   3.155   1.228   1.423
 1342SOL    HW1 6044   3.192   1.155   1.365
 1342SOL    HW2 6045   3.207   1.233   1.508
 1343SOL     OW 6046   2.671   0.004   0.502
 1343SOL    HW1 6047   2.711   0.095   0.493
 1343SOL    HW2 6048   2.571   0.012   0.508
 1344SOL     OW 6049   2.059   0.976   1.264
 1344SOL    HW1 6050   2.148   0.931   1.250
 1344SOL    HW2 6051   1.986   0.911   1.245
 1345SOL     OW 6052   3.387   0.999   0.190
 1345SOL    HW1 6053   3.324   0.923   0.203
 1345SOL    HW2 6054   3.435   1.017   0.276
 1346SOL     OW 6055   2.179   0.251   1.801
 1346SOL    HW1 6056   2.250   0.322   1.807
 1346SOL    HW2 6057   2.091   0.290   1.829
 1347SOL     OW 6058   3.328   1.417   0.953
 1347SOL    HW1 6059   3.269   1.423   1.033
 1347SOL    HW2 6060   3.313   1.329   0.907
 1348SOL     OW 6061   2.460   0.729   0.270
 1348SOL    HW1 6062   2.484   0.798   0.202
 1348SOL    HW2 6063   2.382   0.762   0.324
 1349SOL     OW 6064   3.143   0.345   0.944
 1349SOL    HW1 6065   3.057   0.295   0.931
 1349SOL    HW2 6066   3.205   0.291   1.000
 1350SOL     OW 6067   3.438   1.662   0.307
 1350SOL    HW1 6068   3.527   1.708   0.310
 1350SOL    HW2 6069   3.417   1.638   0.212
 1351SOL     OW 6070   2.669   0.605   1.465
 1351SOL    HW1 6071   2.622   0.602   1.554
 1351SOL    HW2 6072   2.618   0.550   1.399
 1352SOL     OW 6073   3.256   0.469   1.674
 1352SOL    HW1 6074   3.236   0.512   1.762
 1352SOL    HW2 6075   3.334   0.407   1.683
 1353SOL     OW 6076   2.853   0.410   1.242
 1353SOL    HW1 6077   2.776   0.444   1.296
 1353SOL    HW2 6078   2.819   0.359   1.163
 1354SOL     OW 6079   1.938   0.811   0.789
 1354SOL    HW1 6080   2.037   0.799   0.798
 1354SOL    HW2 6081   1.914   0.906   0.810
 1355SOL     OW 6082   2.727   0.348   0.195
 1355SOL    HW1 6083   2.786   0.411   0.146
 1355SOL    HW2 6084   2.746   0.254   0.166
 1356SOL     OW 6085   3.581   0.585   1.831
 1356SOL    HW1 6086   3.555   0.674   1.795
 1356SOL    HW2 6087   3.579   0.517   1.758
 1357SOL     OW 6088   3.224   1.144   0.545
 1357SOL    HW1 6089   3.307   1.115   0.497
 1357SOL    HW2 6090   3.175   1.211   0.489
 1358SOL     OW 6091   2.412   0.196   0.885
 1358SOL    HW1 6092   2.407   0.191   0.985
 1358SOL    HW2 6093   2.414   0.292   0.856
 1359SOL     OW 6094   2.870   1.456   0.477
 1359SOL    HW1 6095   2.824   1.528   0.425
 1359SOL    HW2 6096   2.866   1.476   0.575
 1360SOL     OW 6097   2.213   1.801   0.853
 1360SOL    HW1 6098   2.263   1.715   0.859
 1360SOL    HW2 6099   2.278   1.878   0.850
 1361SOL     OW 6100   3.657   1.066   0.873
 1361SOL    HW1 6101   3.595   1.051   0.797
 1361SOL    HW2 6102   3.605   1.077   0.958
 1362SOL     OW 6103   3.089   1.550   1.506
 1362SOL    HW1 6104   3.095   1.473   1.570
 1362SOL    HW2 6105   3.037   1.524   1.426
 1363SOL     OW 6106   2.183   0.943   0.242
 1363SOL    HW1 6107   2.265   0.982   0.200
 1363SOL    HW2 6108   2.156   0.861   0.193
 1364SOL     OW 6109   2.323   1.266   1.727
 1364SOL    HW1 6110   2.273   1.267   1.641
 1364SOL    HW2 6111   2.260   1.248   1.803
 1365SOL     OW 6112   2.064   0.285   1.498
 1365SOL    HW1 6113   1.984   0.345   1.485
 1365SOL    HW2 6114   2.054   0.236   1.584
 1366SOL     OW 6115   3.494   1.377   0.081
 1366SOL    HW1 6116   3.462   1.471   0.071
 1366SOL    HW2 6117   3.418   1.314   0.069
 1367SOL     OW 6118   3.262   0.107   0.426
 1367SOL    HW1 6119   3.238   0.070   0.336
 1367SOL    HW2 6120   3.361   0.123   0.430
 1368SOL     OW 6121   2.111   1.785   1.241
 1368SOL    HW1 6122   2.168   1.720   1.291
 1368SOL    HW2 6123   2.095   1.752   1.148
 1369SOL     OW 6124   2.802   1.698   0.904
 1369SOL    HW1 6125   2.882   1.641   0.925
 1369SOL    HW2 6126   2.753   1.658   0.827
 1370SOL     OW 6127   2.244   0.700   0.480
 1370SOL    HW1 6128   2.289   0.610   0.477
 1370SOL    HW2 6129   2.150   0.689   0.513
 1371SOL     OW 6130   3.409   0.222   1.729
 1371SOL    HW1 6131   3.404   0.259   1.821
 1371SOL    HW2 6132   3.337   0.153   1.717
 1372SOL     OW 6133   2.476   0.122   0.117
 1372SOL    HW1 6134   2.574   0.100   0.124
 1372SOL    HW2 6135   2.445   0.105   0.024
 1373SOL     OW 6136   2.750   1.514   1.195
 1373SOL    HW1 6137   2.727   1.489   1.101
 1373SOL    HW2 6138   2.811   1.445   1.234
 1374SOL     OW 6139   2.665   1.402   0.924
 1374SOL    HW1 6140   2.755   1.416   0.882
 1374SOL    HW2 6141   2.594   1.404   0.853
 1375SOL     OW 6142   2.401   0.064   0.512
 1375SOL    HW1 6143   2.320   0.065   0.570
 1375SOL    HW2 6144   2.404   0.147   0.457
 1376SOL     OW 6145   2.159   0.035   0.171
 1376SOL    HW1 6146   2.208   0.119   0.150
 1376SOL    HW2 6147   2.221  -0.030   0.216
 1377SOL     OW 6148   2.938   0.683   1.464
 1377SOL    HW1 6149   2.858   0.622   1.467
 1377SOL    HW2 6150   3.019   0.630   1.440
 1378SOL     OW 6151   2.321   1.152   0.741
 1378SOL    HW1 6152   2.250   1.125   0.806
 1378SOL    HW2 6153   2.295   1.124   0.648
 1379SOL     OW 6154   3.133   1.797   0.591
 1379SOL    HW1 6155   3.177   1.861   0.527
 1379SOL    HW2 6156   3.083   1.849   0.661
 1380SOL     OW 6157   2.894   0.549   0.016
 1380SOL    HW1 6158   2.853   0.631  -0.023
 1380SOL    HW2 6159   2.958   0.575   0.089
 1381SOL     OW 6160   1.940   0.556   1.386
 1381SOL    HW1 6161   2.032   0.555   1.345
 1381SOL    HW2 6162   1.934   0.630   1.453
 1382SOL     OW 6163   2.423   0.222   1.147
 1382SOL    HW1 6164   2.461   0.138   1.184
 1382SOL    HW2 6165   2.335   0.241   1.191
 1383SOL     OW 6166   3.291   1.173   0.867
 1383SOL    HW1 6167   3.236   1.089   0.860
 1383SOL    HW2 6168   3.317   1.202   0.775
 1384SOL     OW 6169   3.719   0.833   0.377
 1384SOL    HW1 6170   3.761   0.769   0.441
 1384SOL    HW2 6171   3.681   0.782   0.299
 1385SOL     OW 6172   2.350   1.385   0.174
 1385SOL    HW1 6173   2.263   1.370   0.221
 1385SOL    HW2 6174   2.333   1.411   0.079
 1386SOL     OW 6175   3.526   1.280   0.657
 1386SOL    HW1 6176   3.625   1.288   0.671
 1386SOL    HW2 6177   3.481   1.364   0.688
 1387SOL     OW 6178   3.252   0.575   0.078
 1387SOL    HW1 6179   3.198   0.554   0.159
 1387SOL    HW2 6180   3.343   0.534   0.087
 1388SOL     OW 6181   2.389   0.256   0.328
 1388SOL    HW1 6182   2.416   0.197   0.253
 1388SOL    HW2 6183   2.389   0.351   0.297
 1389SOL     OW 6184   3.616   1.223   1.588
 1389SOL    HW1 6185   3.707   1.184   1.575
 1389SOL    HW2 6186   3.624   1.319   1.612
 1390SOL     OW 6187   2.926   1.347   1.340
 1390SOL    HW1 6188   2.846   1.324   1.395
 1390SOL    HW2 6189   3.009   1.321   1.389
 1391SOL     OW 6190   3.454   1.629   1.625
 1391SOL    HW1 6191   3.481   1.663   1.535
 1391SOL    HW2 6192   3.533   1.591   1.671
 1392SOL     OW 6193   2.973   1.195   1.100
 1392SOL    HW1 6194   2.933   1.239   1.181
 1392SOL    HW2 6195   2.932   1.232   1.017
 1393SOL     OW 6196   3.500   1.099   1.079
 1393SOL    HW1 6197   3.505   1.180   1.138
 1393SOL    HW2 6198   3.414   1.101   1.028
 1394SOL     OW 6199   2.777   0.089   1.402
 1394SOL    HW1 6200   2.802   0.069   1.307
 1394SOL    HW2 6201   2.849   0.145   1.444
 1395SOL     OW 6202   2.567   1.050   0.368
 1395SOL    HW1 6203   2.553   1.057   0.467
 1395SOL    HW2 6204   2.651   0.999   0.350
 1396SOL     OW 6205   2.272   0.813   1.251
 1396SOL    HW1 6206   2.358   0.825   1.301
 1396SOL    HW2 6207   2.230   0.726   1.278
 1397SOL     OW 6208   1.926   1.564   1.331
 1397SOL    HW1 6209   1.880   1.646   1.297
 1397SOL    HW2 6210   2.024   1.583   1.340
 1398SOL     OW 6211   2.229   1.100   0.501
 1398SOL    HW1 6212   2.222   1.183   0.445
 1398SOL    HW2 6213   2.233   1.020   0.441
 1399SOL     OW 6214   2.428   0.537   0.865
 1399SOL    HW1 6215   2.440   0.603   0.791
 1399SOL    HW2 6216   2.474   0.571   0.948
 1400SOL     OW 6217   3.114   1.348   0.388
 1400SOL    HW1 6218   3.164   1.425   0.428
 1400SOL    HW2 6219   3.019   1.350   0.420
 1401SOL     OW 6220   3.134   1.445   1.142
 1401SOL    HW1 6221   3.181   1.458   1.229
 1401SOL    HW2 6222   3.068   1.371   1.151
 1402SOL     OW 6223   3.444   0.639   0.472
 1402SOL    HW1 6224   3.413   0.700   0.545
 1402SOL    HW2 6225   3.494   0.691   0.403
 1403SOL     OW 6226   2.216   1.510   1.329
 1403SOL    HW1 6227   2.195   1.466   1.242
 1403SOL    HW2 6228   2.313   1.536   1.332
 1404SOL     OW 6229   2.264   0.751   1.598
 1404SOL    HW1 6230   2.332   0.806   1.551
 1404SOL    HW2 6231   2.304   0.663   1.625
 1405SOL     OW 6232   3.449   0.779   1.670
 1405SOL    HW1 6233   3.357   0.817   1.665
 1405SOL    HW2 6234   3.509   0.826   1.605
 1406SOL     OW 6235   2.875   0.105   1.770
 1406SOL    HW1 6236   2.881   0.190   1.718
 1406SOL    HW2 6237   2.907   0.029   1.713
 1407SOL     OW 6238   2.366   0.050   1.740
 1407SOL    HW1 6239   2.324  -0.007   1.670
 1407SOL    HW2 6240   2.300   0.119   1.772
 1408SOL     OW 6241   2.435   0.870   1.029
 1408SOL    HW1 6242   2.479   0.959   1.020
 1408SOL    HW2 6243   2.372   0.870   1.106
 1409SOL     OW 6244   2.169   0.213   1.231
 1409SOL    HW1 6245   2.146   0.250   1.321
 1409SOL    HW2 6246   2.139   0.118   1.225
 1410SOL     OW 6247   1.899   1.310   1.282
 1410SOL    HW1 6248   1.952   1.261   1.350
 1410SOL    HW2 6249   1.921   1.408   1.287
 1411SOL     OW 6250   2.594   0.634   1.064
 1411SOL    HW1 6251   2.653   0.608   0.988
 1411SOL    HW2 6252   2.566   0.730   1.053
 1412SOL     OW 6253   3.590   0.935   1.854
 1412SOL    HW1 6254   3.544   0.928   1.765
 1412SOL    HW2 6255   3.528   0.979   1.920
 1413SOL     OW 6256   2.169   0.063   0.618
 1413SOL    HW1 6257   2.158   0.157   0.651
 1413SOL    HW2 6258   2.164   0.000   0.695
 1414SOL     OW 6259   2.885   0.766   0.966
 1414SOL    HW1 6260   2.900   0.787   1.062
 1414SOL    HW2 6261   2.855   0.671   0.957
 1415SOL     OW 6262   2.842   1.573   1.700
 1415SOL    HW1 6263   2.822   1.617   1.612
 1415SOL    HW2 6264   2.881   1.482   1.684
 1416SOL     OW 6265   3.721   1.518   1.605
 1416SOL    HW1 6266   3.735   1.545   1.510
 1416SOL    HW2 6267   3.804   1.540   1.658
 1417SOL     OW 6268   3.402   0.274   0.125
 1417SOL    HW1 6269   3.341   0.199   0.148
 1417SOL    HW2 6270   3.424   0.326   0.208
 1418SOL     OW 6271   3.165   0.838   0.042
 1418SOL    HW1 6272   3.199   0.745   0.057
 1418SOL    HW2 6273   3.183   0.865  -0.053
 1419SOL     OW 6274   2.930   1.333   0.849
 1419SOL    HW1 6275   2.937   1.249   0.794
 1419SOL    HW2 6276   2.992   1.402   0.813
 1420SOL     OW 6277   2.181   0.810   0.949
 1420SOL    HW1 6278   2.274   0.846   0.954
 1420SOL    HW2 6279   2.175   0.725   1.001
 1421SOL     OW 6280   2.201   0.509   1.006
 1421SOL    HW1 6281   2.149   0.426   0.989
 1421SOL    HW2 6282   2.278   0.514   0.942
 1422SOL     OW 6283   3.022   0.207   1.477
 1422SOL    HW1 6284   3.022   0.271   1.554
 1422SOL    HW2 6285   3.050   0.255   1.394
 1423SOL     OW 6286   1.950   1.801   0.927
 1423SOL    HW1 6287   1.908   1.715   0.900
 1423SOL    HW2 6288   2.044   1.804   0.893
 1424SOL     OW 6289   2.366   1.568   0.910
 1424SOL    HW1 6290   2.432   1.642   0.919
 1424SOL    HW2 6291   2.410   1.489   0.868
 1425SOL     OW 6292   2.864   0.796   1.238
 1425SOL    HW1 6293   2.905   0.764   1.324
 1425SOL    HW2 6294   2.768   0.769   1.235
 1426SOL     OW 6295   1.902   0.544   1.114
 1426SOL    HW1 6296   1.987   0.511   1.073
 1426SOL    HW2 6297   1.915   0.559   1.212
 1427SOL     OW 6298   2.051   0.520   1.722
 1427SOL    HW1 6299   2.110   0.480   1.652
 1427SOL    HW2 6300   1.993   0.591   1.681
 1428SOL     OW 6301   3.231   0.950   1.660
 1428SOL    HW1 6302   3.270   1.039   1.680
 1428SOL    HW2 6303   3.241   0.930   1.563
 1429SOL     OW 6304   2.677   0.572   0.325
 1429SOL    HW1 6305   2.684   0.483   0.279
 1429SOL    HW2 6306   2.583   0.606   0.317
 1430SOL     OW 6307   3.519   0.604   1.206
 1430SOL    HW1 6308   3.481   0.535   1.268
 1430SOL    HW2 6309   3.601   0.568   1.162
 1431SOL     OW 6310   2.114   1.564   1.744
 1431SOL    HW1 6311   2.084   1.621   1.820
 1431SOL    HW2 6312   2.107   1.467   1.770
 1432SOL     OW 6313   2.533   0.464   1.269
 1432SOL    HW1 6314   2.499   0.375   1.239
 1432SOL    HW2 6315   2.559   0.518   1.189
 1433SOL     OW 6316   2.792   1.678   1.465
 1433SOL    HW1 6317   2.768   1.660   1.370
 1433SOL    HW2 6318   2.822   1.772   1.475
 1434SOL     OW 6319   2.335   0.500   0.191
 1434SOL    HW1 6320   2.396   0.580   0.195
 1434SOL    HW2 6321   2.240   0.531   0.198
 1435SOL     OW 6322   2.021   1.137   1.466
 1435SOL    HW1 6323   2.043   1.076   1.542
 1435SOL    HW2 6324   2.031   1.088   1.380
 1436SOL     OW 6325   3.209   1.059   1.234
 1436SOL    HW1 6326   3.233   0.996   1.160
 1436SOL    HW2 6327   3.119   1.099   1.216
 1437SOL     OW 6328   3.164   0.855   0.309
 1437SOL    HW1 6329   3.078   0.824   0.351
 1437SOL    HW2 6330   3.160   0.841   0.210
 1438SOL     OW 6331   3.621   1.747   1.154
 1438SOL    HW1 6332   3.682   1.777   1.081
 1438SOL    HW2 6333   3.583   1.658   1.132
 1439SOL     OW 6334   1.945   1.258   1.022
 1439SOL    HW1 6335   1.940   1.257   1.122
 1439SOL    HW2 6336   1.862   1.217   0.984
 1440SOL     OW 6337   2.550   1.662   1.716
 1440SOL    HW1 6338   2.494   1.743   1.725
 1440SOL    HW2 6339   2.602   1.666   1.630
 1441SOL     OW 6340   2.765   0.086   0.133
 1441SOL    HW1 6341   2.816   0.087   0.047
 1441SOL    HW2 6342   2.821   0.044   0.204
 1442SOL     OW 6343   3.250   1.573   0.477
 1442SOL    HW1 6344   3.317   1.585   0.403
 1442SOL    HW2 6345   3.210   1.662   0.500
 1443SOL     OW 6346   2.692   1.273   1.422
 1443SOL    HW1 6347   2.687   1.306   1.517
 1443SOL    HW2 6348   2.606   1.292   1.376
 1444SOL     OW 6349   3.512   1.720   1.394
 1444SOL    HW1 6350   3.565   1.730   1.310
 1444SOL    HW2 6351   3.485   1.810   1.428
 1445SOL     OW 6352   3.703   0.175   0.963
 1445SOL    HW1 6353   3.742   0.090   0.927
 1445SOL    HW2 6354   3.605   0.177   0.944
 1446SOL     OW 6355   2.125   0.326   0.720
 1446SOL    HW1 6356   2.046   0.377   0.686
 1446SOL    HW2 6357   2.116   0.311   0.818
 1447SOL     OW 6358   3.056   1.612   0.031
 1447SOL    HW1 6359   3.062   1.519   0.068
 1447SOL    HW2 6360   2.997   1.612  -0.049
 1448SOL     OW 6361   2.684   1.002   1.372
 1448SOL    HW1 6362   2.724   1.001   1.280
 1448SOL    HW2 6363   2.694   1.094   1.412
 1449SOL     OW 6364   2.778   0.910   0.291
 1449SOL    HW1 6365   2.841   0.948   0.223
 1449SOL    HW2 6366   2.818   0.827   0.330
 1450SOL     OW 6367   2.234   1.288   1.490
 1450SOL    HW1 6368   2.221   1.381   1.456
 1450SOL    HW2 6369   2.150   1.236   1.477
 1451SOL     OW 6370   3.476   1.292   1.289
 1451SOL    HW1 6371   3.536   1.295   1.369
 1451SOL    HW2 6372   3.401   1.356   1.302
 1452SOL     OW 6373   2.901   1.098   0.696
 1452SOL    HW1 6374   2.831   1.051   0.750
 1452SOL    HW2 6375   2.960   1.030   0.653
 1453SOL     OW 6376   2.452   1.487   0.491
 1453SOL    HW1 6377   2.494   1.429   0.421
 1453SOL    HW2 6378   2.408   1.566   0.447
 1454SOL     OW 6379   3.571   0.385   1.381
 1454SOL    HW1 6380   3.644   0.454   1.385
 1454SOL    HW2 6381   3.599   0.310   1.322
 1455SOL     OW 6382   2.117   1.348   0.290
 1455SOL    HW1 6383   2.021   1.349   0.263
 1455SOL    HW2 6384   2.129   1.401   0.374
 1456SOL     OW 6385   1.967   1.013   1.726
 1456SOL    HW1 6386   1.890   0.980   1.780
 1456SOL    HW2 6387   2.052   0.983   1.768
 1457SOL     OW 6388   2.534   0.203   1.489
 1457SOL    HW1 6389   2.624   0.187   1.449
 1457SOL    HW2 6390   2.542   0.208   1.588
 1458SOL     OW 6391   3.302   0.856   1.398
 1458SOL    HW1 6392   3.245   0.908   1.335
 1458SOL    HW2 6393   3.398   0.868   1.374
 1459SOL     OW 6394   1.934   0.166   0.318
 1459SOL    HW1 6395   1.917   0.249   0.264
 1459SOL    HW2 6396   2.024   0.129   0.296
 1460SOL     OW 6397   3.045   1.335   0.119
 1460SOL    HW1 6398   2.946   1.324   0.121
 1460SOL    HW2 6399   3.079   1.350   0.212
 1461SOL     OW 6400   2.475   0.842   1.431
 1461SOL    HW1 6401   2.531   0.923   1.414
 1461SOL    HW2 6402   2.534   0.762   1.434
 1462SOL     OW 6403   3.312   1.220   1.633
 1462SOL    HW1 6404   3.303   1.210   1.732
 1462SOL    HW2 6405   3.408   1.213   1.607
 1463SOL     OW 6406   2.252   1.741   1.560
 1463SOL    HW1 6407   2.161   1.782   1.558
 1463SOL    HW2 6408   2.245   1.647   1.592
 1464SOL     OW 6409   3.536   0.883   1.254
 1464SOL    HW1 6410   3.509   0.794   1.217
 1464SOL    HW2 6411   3.537   0.951   1.181
 1465SOL     OW 6412   2.456   0.745   0.652
 1465SOL    HW1 6413   2.506   0.830   0.633
 1465SOL    HW2 6414   2.368   0.747   0.604
 1466SOL     OW 6415   3.639   0.342   1.642
 1466SOL    HW1 6416   3.622   0.373   1.548
 1466SOL    HW2 6417   3.555   0.305   1.680
 1467SOL     OW 6418   3.592   0.934   1.517
 1467SOL    HW1 6419   3.630   1.025   1.532
 1467SOL    HW2 6420   3.584   0.917   1.418
 1468SOL     OW 6421   2.721   1.374   0.016
 1468SOL    HW1 6422   2.675   1.389   0.104
 1468SOL    HW2 6423   2.765   1.459  -0.014
 1469SOL     OW 6424   2.523   1.790   0.953
 1469SOL    HW1 6425   2.477   1.878   0.940
 1469SOL    HW2 6426   2.622   1.802   0.946
 1470SOL     OW 6427   2.721   0.956   0.861
 1470SOL    HW1 6428   2.775   0.887   0.909
 1470SOL    HW2 6429   2.689   1.025   0.927
 1471SOL     OW 6430   3.723   1.569   0.851
 1471SOL    HW1 6431   3.652   1.557   0.781
 1471SOL    HW2 6432   3.724   1.490   0.911
 1472SOL     OW 6433   2.083   1.314   1.844
 1472SOL    HW1 6434   2.018   1.241   1.823
 1472SOL    HW2 6435   2.087   1.328   1.942
 1473SOL     OW 6436   1.941   1.240   0.653
 1473SOL    HW1 6437   1.940   1.193   0.741
 1473SOL    HW2 6438   2.023   1.212   0.602
 1474SOL     OW 6439   2.534   1.391   1.624
 1474SOL    HW1 6440   2.456   1.341   1.662
 1474SOL    HW2 6441   2.531   1.486   1.655
 1475SOL     OW 6442   3.686   0.192   1.227
 1475SOL    HW1 6443   3.682   0.102   1.271
 1475SOL    HW2 6444   3.689   0.181   1.128
 1476SOL     OW 6445   2.290   0.424   0.520
 1476SOL    HW1 6446   2.320   0.352   0.458
 1476SOL    HW2 6447   2.251   0.384   0.603
 1477SOL     OW 6448   3.567   1.487   1.104
 1477SOL    HW1 6449   3.474   1.462   1.077
 1477SOL    HW2 6450   3.593   1.437   1.186
 1478SOL     OW 6451   2.179   0.547   1.280
 1478SOL    HW1 6452   2.217   0.488   1.352
 1478SOL    HW2 6453   2.219   0.521   1.192
 1479SOL     OW 6454   2.674   1.586   0.687
 1479SOL    HW1 6455   2.706   1.596   0.593
 1479SOL    HW2 6456   2.595   1.524   0.689
 1480SOL     OW 6457   2.632   1.330   0.301
 1480SOL    HW1 6458   2.586   1.243   0.318
 1480SOL    HW2 6459   2.723   1.327   0.342
 1481SOL     OW 6460   2.480   1.567   1.284
 1481SOL    HW1 6461   2.475   1.649   1.341
 1481SOL    HW2 6462   2.569   1.564   1.239
 1482SOL     OW 6463   3.214   0.052   0.168
 1482SOL    HW1 6464   3.249   0.011   0.084
 1482SOL    HW2 6465   3.124   0.014   0.188
 1483SOL     OW 6466   1.901   1.077   0.300
 1483SOL    HW1 6467   2.000   1.066   0.291
 1483SOL    HW2 6468   1.861   0.991   0.332
 1484SOL     OW 6469   2.737   1.646   0.337
 1484SOL    HW1 6470   2.660   1.611   0.283
 1484SOL    HW2 6471   2.705   1.717   0.399
 1485SOL     OW 6472   2.092   0.628   1.975
 1485SOL    HW1 6473   1.999   0.626   2.012
 1485SOL    HW2 6474   2.093   0.589   1.883
 1486SOL     OW 6475   2.087   0.275   2.858
 1486SOL    HW1 6476   2.122   0.258   2.950
 1486SOL    HW2 6477   1.999   0.230   2.846
 1487SOL     OW 6478   1.881   0.368   2.509
 1487SOL    HW1 6479   1.799   0.411   2.548
 1487SOL    HW2 6480   1.853   0.295   2.446
 1488SOL     OW 6481   2.431   1.275   3.027
 1488SOL    HW1 6482   2.338   1.268   2.990
 1488SOL    HW2 6483   2.442   1.364   3.071
 1489SOL     OW 6484   2.997   0.703   2.579
 1489SOL    HW1 6485   3.054   0.781   2.554
 1489SOL    HW2 6486   2.937   0.729   2.655
 1490SOL     OW 6487   3.617   0.607   2.093
 1490SOL    HW1 6488   3.605   0.594   1.994
 1490SOL    HW2 6489   3.587   0.526   2.142
 1491SOL     OW 6490   2.630   1.144   2.885
 1491SOL    HW1 6491   2.552   1.161   2.945
 1491SOL    HW2 6492   2.664   1.231   2.849
 1492SOL     OW 6493   2.712   0.798   3.685
 1492SOL    HW1 6494   2.708   0.874   3.750
 1492SOL    HW2 6495   2.734   0.834   3.594
 1493SOL     OW 6496   2.547   1.012   2.527
 1493SOL    HW1 6497   2.616   0.996   2.597
 1493SOL    HW2 6498   2.474   1.069   2.565
 1494SOL     OW 6499   2.548   1.161   3.665
 1494SOL    HW1 6500   2.608   1.240   3.679
 1494SOL    HW2 6501   2.462   1.192   3.624
 1495SOL     OW 6502   2.197   1.435   2.923
 1495SOL    HW1 6503   2.119   1.404   2.870
 1495SOL    HW2 6504   2.255   1.493   2.866
 1496SOL     OW 6505   3.322   1.505   3.201
 1496SOL    HW1 6506   3.346   1.599   3.227
 1496SOL    HW2 6507   3.306   1.451   3.283
 1497SOL     OW 6508   2.300   0.392   3.361
 1497SOL    HW1 6509   2.382   0.336   3.370
 1497SOL    HW2 6510   2.219   0.334   3.365
 1498SOL     OW 6511   3.465   0.447   2.599
 1498SOL    HW1 6512   3.391   0.493   2.549
 1498SOL    HW2 6513   3.516   0.515   2.652
 1499SOL     OW 6514   2.093   1.713   2.345
 1499SOL    HW1 6515   2.127   1.790   2.399
 1499SOL    HW2 6516   2.137   1.713   2.255
 1500SOL     OW 6517   2.989   1.341   3.552
 1500SOL    HW1 6518   3.036   1.341   3.640
 1500SOL    HW2 6519   2.941   1.254   3.541
 1501SOL     OW 6520   2.092   1.434   2.400
 1501SOL    HW1 6521   2.066   1.530   2.400
 1501SOL    HW2 6522   2.021   1.380   2.445
 1502SOL     OW 6523   2.102   1.091   2.748
 1502SOL    HW1 6524   2.116   1.007   2.800
 1502SOL    HW2 6525   2.047   1.155   2.803
 1503SOL     OW 6526   2.482   1.786   3.301
 1503SOL    HW1 6527   2.390   1.769   3.336
 1503SOL    HW2 6528   2.510   1.878   3.327
 1504SOL     OW 6529   1.984   0.643   2.425
 1504SOL    HW1 6530   1.939   0.555   2.442
 1504SOL    HW2 6531   1.983   0.697   2.509
 1505SOL     OW 6532   3.704   1.767   2.221
 1505SOL    HW1 6533   3.758   1.738   2.301
 1505SOL    HW2 6534   3.734   1.857   2.192
 1506SOL     OW 6535   1.975   0.737   3.459
 1506SOL    HW1 6536   2.063   0.724   3.504
 1506SOL    HW2 6537   1.962   0.834   3.437
 1507SOL     OW 6538   2.475   1.365   2.588
 1507SOL    HW1 6539   2.426   1.278   2.597
 1507SOL    HW2 6540   2.452   1.408   2.501
 1508SOL     OW 6541   3.155   1.228   3.285
 1508SOL    HW1 6542   3.192   1.155   3.227
 1508SOL    HW2 6543   3.207   1.233   3.370
 1509SOL     OW 6544   2.671   0.004   2.364
 1509SOL    HW1 6545   2.711   0.095   2.355
 1509SOL    HW2 6546   2.571   0.012   2.370
 1510SOL     OW 6547   2.059   0.976   3.126
 1510SOL    HW1 6548   2.148   0.931   3.112
 1510SOL    HW2 6549   1.986   0.911   3.107
 1511SOL     OW 6550   3.387   0.999   2.052
 1511SOL    HW1 6551   3.324   0.923   2.065
 1511SOL    HW2 6552   3.435   1.017   2.138
 1512SOL     OW 6553   3.049   1.792   3.478
 1512SOL    HW1 6554   3.073   1.852   3.402
 1512SOL    HW2 6555   3.056   1.697   3.448
 1513SOL     OW 6556   2.179   0.251   3.663
 1513SOL    HW1 6557   2.250   0.322   3.669
 1513SOL    HW2 6558   2.091   0.290   3.691
 1514SOL     OW 6559   2.460   0.729   2.132
 1514SOL    HW1 6560   2.484   0.798   2.064
 1514SOL    HW2 6561   2.382   0.762   2.186
 1515SOL     OW 6562   3.143   0.345   2.806
 1515SOL    HW1 6563   3.057   0.295   2.793
 1515SOL    HW2 6564   3.205   0.291   2.862
 1516SOL     OW 6565   3.438   1.662   2.169
 1516SOL    HW1 6566   3.527   1.708   2.172
 1516SOL    HW2 6567   3.417   1.638   2.074
 1517SOL     OW 6568   2.669   0.605   3.327
 1517SOL    HW1 6569   2.622   0.602   3.416
 1517SOL    HW2 6570   2.618   0.550   3.261
 1518SOL     OW 6571   2.835   0.890   3.434
 1518SOL    HW1 6572   2.881   0.806   3.405
 1518SOL    HW2 6573   2.779   0.924   3.359
 1519SOL     OW 6574   2.853   0.410   3.104
 1519SOL    HW1 6575   2.776   0.444   3.158
 1519SOL    HW2 6576   2.819   0.359   3.025
 1520SOL     OW 6577   2.903   0.701   2.291
 1520SOL    HW1 6578   2.929   0.697   2.387
 1520SOL    HW2 6579   2.818   0.650   2.277
 1521SOL     OW 6580   1.938   0.811   2.651
 1521SOL    HW1 6581   2.037   0.799   2.660
 1521SOL    HW2 6582   1.914   0.906   2.672
 1522SOL     OW 6583   1.992   1.821   3.433
 1522SOL    HW1 6584   1.982   1.806   3.532
 1522SOL    HW2 6585   1.906   1.857   3.397
 1523SOL     OW 6586   2.412   0.196   2.747
 1523SOL    HW1 6587   2.407   0.191   2.847
 1523SOL    HW2 6588   2.414   0.292   2.718
 1524SOL     OW 6589   2.870   1.456   2.339
 1524SOL    HW1 6590   2.824   1.528   2.287
 1524SOL    HW2 6591   2.866   1.476   2.437
 1525SOL     OW 6592   2.213   1.801   2.715
 1525SOL    HW1 6593   2.263   1.715   2.721
 1525SOL    HW2 6594   2.278   1.878   2.712
 1526SOL     OW 6595   3.657   1.066   2.735
 1526SOL    HW1 6596   3.595   1.051   2.659
 1526SOL    HW2 6597   3.605   1.077   2.820
 1527SOL     OW 6598   3.089   1.550   3.368
 1527SOL    HW1 6599   3.095   1.473   3.432
 1527SOL    HW2 6600   3.037   1.524   3.288
 1528SOL     OW 6601   2.183   0.943   2.104
 1528SOL    HW1 6602   2.265   0.982   2.062
 1528SOL    HW2 6603   2.156   0.861   2.055
 1529SOL     OW 6604   2.323   1.266   3.589
 1529SOL    HW1 6605   2.273   1.267   3.503
 1529SOL    HW2 6606   2.260   1.248   3.665
 1530SOL     OW 6607   2.973   1.776   2.099
 1530SOL    HW1 6608   2.913   1.714   2.149
 1530SOL    HW2 6609   3.004   1.732   2.014
 1531SOL     OW 6610   2.064   0.285   3.360
 1531SOL    HW1 6611   1.984   0.345   3.347
 1531SOL    HW2 6612   2.054   0.236   3.446
 1532SOL     OW 6613   3.494   1.377   1.943
 1532SOL    HW1 6614   3.462   1.471   1.933
 1532SOL    HW2 6615   3.418   1.314   1.931
 1533SOL     OW 6616   2.326   1.743   2.185
 1533SOL    HW1 6617   2.359   1.782   2.271
 1533SOL    HW2 6618   2.402   1.736   2.120
 1534SOL     OW 6619   3.262   0.107   2.288
 1534SOL    HW1 6620   3.238   0.070   2.198
 1534SOL    HW2 6621   3.361   0.123   2.292
 1535SOL     OW 6622   2.111   1.785   3.103
 1535SOL    HW1 6623   2.168   1.720   3.153
 1535SOL    HW2 6624   2.095   1.752   3.010
 1536SOL     OW 6625   2.802   1.698   2.766
 1536SOL    HW1 6626   2.882   1.641   2.787
 1536SOL    HW2 6627   2.753   1.658   2.689
 1537SOL     OW 6628   2.244   0.700   2.342
 1537SOL    HW1 6629   2.289   0.610   2.339
 1537SOL    HW2 6630   2.150   0.689   2.375
 1538SOL     OW 6631   2.476   0.122   1.979
 1538SOL    HW1 6632   2.574   0.100   1.986
 1538SOL    HW2 6633   2.445   0.105   1.886
 1539SOL     OW 6634   2.643   0.264   3.611
 1539SOL    HW1 6635   2.710   0.203   3.654
 1539SOL    HW2 6636   2.570   0.283   3.676
 1540SOL     OW 6637   2.750   1.514   3.057
 1540SOL    HW1 6638   2.727   1.489   2.963
 1540SOL    HW2 6639   2.811   1.445   3.096
 1541SOL     OW 6640   3.213   0.590   3.295
 1541SOL    HW1 6641   3.241   0.547   3.380
 1541SOL    HW2 6642   3.238   0.686   3.296
 1542SOL     OW 6643   2.665   1.402   2.786
 1542SOL    HW1 6644   2.755   1.416   2.744
 1542SOL    HW2 6645   2.594   1.404   2.715
 1543SOL     OW 6646   2.784   0.503   2.761
 1543SOL    HW1 6647   2.759   0.494   2.665
 1543SOL    HW2 6648   2.832   0.421   2.792
 1544SOL     OW 6649   2.401   0.064   2.374
 1544SOL    HW1 6650   2.320   0.065   2.432
 1544SOL    HW2 6651   2.404   0.147   2.319
 1545SOL     OW 6652   3.296   1.188   1.903
 1545SOL    HW1 6653   3.328   1.112   1.960
 1545SOL    HW2 6654   3.204   1.215   1.933
 1546SOL     OW 6655   2.159   0.035   2.033
 1546SOL    HW1 6656   2.208   0.119   2.012
 1546SOL    HW2 6657   2.221  -0.030   2.078
 1547SOL     OW 6658   2.797   0.236   2.342
 1547SOL    HW1 6659   2.749   0.277   2.264
 1547SOL    HW2 6660   2.896   0.234   2.323
 1548SOL     OW 6661   2.938   0.683   3.326
 1548SOL    HW1 6662   2.858   0.622   3.329
 1548SOL    HW2 6663   3.019   0.630   3.302
 1549SOL     OW 6664   2.321   1.152   2.603
 1549SOL    HW1 6665   2.250   1.125   2.668
 1549SOL    HW2 6666   2.295   1.124   2.510
 1550SOL     OW 6667   1.940   0.556   3.248
 1550SOL    HW1 6668   2.032   0.555   3.207
 1550SOL    HW2 6669   1.934   0.630   3.315
 1551SOL     OW 6670   2.423   0.222   3.009
 1551SOL    HW1 6671   2.461   0.138   3.046
 1551SOL    HW2 6672   2.335   0.241   3.053
 1552SOL     OW 6673   2.728   0.454   2.504
 1552SOL    HW1 6674   2.696   0.526   2.442
 1552SOL    HW2 6675   2.752   0.373   2.451
 1553SOL     OW 6676   2.879   0.039   2.615
 1553SOL    HW1 6677   2.807   0.044   2.546
 1553SOL    HW2 6678   2.855  -0.030   2.684
 1554SOL     OW 6679   3.328   0.590   2.854
 1554SOL    HW1 6680   3.298   0.495   2.861
 1554SOL    HW2 6681   3.401   0.606   2.920
 1555SOL     OW 6682   3.719   0.833   2.239
 1555SOL    HW1 6683   3.761   0.769   2.303
 1555SOL    HW2 6684   3.681   0.782   2.161
 1556SOL     OW 6685   2.350   1.385   2.036
 1556SOL    HW1 6686   2.263   1.370   2.083
 1556SOL    HW2 6687   2.333   1.411   1.941
 1557SOL     OW 6688   3.252   0.575   1.940
 1557SOL    HW1 6689   3.198   0.554   2.021
 1557SOL    HW2 6690   3.343   0.534   1.949
 1558SOL     OW 6691   2.389   0.256   2.190
 1558SOL    HW1 6692   2.416   0.197   2.115
 1558SOL    HW2 6693   2.389   0.351   2.159
 1559SOL     OW 6694   2.926   1.347   3.202
 1559SOL    HW1 6695   2.846   1.324   3.257
 1559SOL    HW2 6696   3.009   1.321   3.251
 1560SOL     OW 6697   3.454   1.629   3.487
 1560SOL    HW1 6698   3.481   1.663   3.397
 1560SOL    HW2 6699   3.533   1.591   3.533
 1561SOL     OW 6700   3.500   1.099   2.941
 1561SOL    HW1 6701   3.505   1.180   3.000
 1561SOL    HW2 6702   3.414   1.101   2.890
 1562SOL     OW 6703   2.777   0.089   3.264
 1562SOL    HW1 6704   2.802   0.069   3.169
 1562SOL    HW2 6705   2.849   0.145   3.306
 1563SOL     OW 6706   2.842   1.116   3.581
 1563SOL    HW1 6707   2.743   1.122   3.591
 1563SOL    HW2 6708   2.865   1.036   3.525
 1564SOL     OW 6709   2.567   1.050   2.230
 1564SOL    HW1 6710   2.553   1.057   2.329
 1564SOL    HW2 6711   2.651   0.999   2.212
 1565SOL     OW 6712   2.272   0.813   3.113
 1565SOL    HW1 6713   2.358   0.825   3.163
 1565SOL    HW2 6714   2.230   0.726   3.140
 1566SOL     OW 6715   3.136   0.386   3.124
 1566SOL    HW1 6716   3.157   0.460   3.188
 1566SOL    HW2 6717   3.047   0.403   3.081
 1567SOL     OW 6718   1.926   1.564   3.193
 1567SOL    HW1 6719   1.880   1.646   3.159
 1567SOL    HW2 6720   2.024   1.583   3.202
 1568SOL     OW 6721   2.229   1.100   2.363
 1568SOL    HW1 6722   2.222   1.183   2.307
 1568SOL    HW2 6723   2.233   1.020   2.303
 1569SOL     OW 6724   2.428   0.537   2.727
 1569SOL    HW1 6725   2.440   0.603   2.653
 1569SOL    HW2 6726   2.474   0.571   2.810
 1570SOL     OW 6727   3.114   1.348   2.250
 1570SOL    HW1 6728   3.164   1.425   2.290
 1570SOL    HW2 6729   3.019   1.350   2.282
 1571SOL     OW 6730   3.134   1.445   3.004
 1571SOL    HW1 6731   3.181   1.458   3.091
 1571SOL    HW2 6732   3.068   1.371   3.013
 1572SOL     OW 6733   2.216   1.510   3.191
 1572SOL    HW1 6734   2.195   1.466   3.104
 1572SOL    HW2 6735   2.313   1.536   3.194
 1573SOL     OW 6736   2.264   0.751   3.460
 1573SOL    HW1 6737   2.332   0.806   3.413
 1573SOL    HW2 6738   2.304   0.663   3.487
 1574SOL     OW 6739   3.449   0.779   3.532
 1574SOL    HW1 6740   3.357   0.817   3.527
 1574SOL    HW2 6741   3.509   0.826   3.467
 1575SOL     OW 6742   2.875   0.105   3.632
 1575SOL    HW1 6743   2.881   0.190   3.580
 1575SOL    HW2 6744   2.907   0.029   3.575
 1576SOL     OW 6745   2.366   0.050   3.602
 1576SOL    HW1 6746   2.324  -0.007   3.532
 1576SOL    HW2 6747   2.300   0.119   3.634
 1577SOL     OW 6748   2.435   0.870   2.891
 1577SOL    HW1 6749   2.479   0.959   2.882
 1577SOL    HW2 6750   2.372   0.870   2.968
 1578SOL     OW 6751   3.071   0.525   2.137
 1578SOL    HW1 6752   3.084   0.441   2.191
 1578SOL    HW2 6753   3.042   0.599   2.197
 1579SOL     OW 6754   2.169   0.213   3.093
 1579SOL    HW1 6755   2.146   0.250   3.183
 1579SOL    HW2 6756   2.139   0.118   3.087
 1580SOL     OW 6757   1.899   1.310   3.144
 1580SOL    HW1 6758   1.952   1.261   3.212
 1580SOL    HW2 6759   1.921   1.408   3.149
 1581SOL     OW 6760   2.594   0.634   2.926
 1581SOL    HW1 6761   2.653   0.608   2.850
 1581SOL    HW2 6762   2.566   0.730   2.915
 1582SOL     OW 6763   3.590   0.935   3.716
 1582SOL    HW1 6764   3.544   0.928   3.627
 1582SOL    HW2 6765   3.528   0.979   3.782
 1583SOL     OW 6766   2.169   0.063   2.480
 1583SOL    HW1 6767   2.158   0.157   2.513
 1583SOL    HW2 6768   2.164   0.000   2.557
 1584SOL     OW 6769   3.484   0.367   2.236
 1584SOL    HW1 6770   3.486   0.291   2.300
 1584SOL    HW2 6771   3.436   0.444   2.276
 1585SOL     OW 6772   2.885   0.766   2.828
 1585SOL    HW1 6773   2.900   0.787   2.924
 1585SOL    HW2 6774   2.855   0.671   2.819
 1586SOL     OW 6775   2.842   1.573   3.562
 1586SOL    HW1 6776   2.822   1.617   3.474
 1586SOL    HW2 6777   2.881   1.482   3.546
 1587SOL     OW 6778   2.212   0.898   3.666
 1587SOL    HW1 6779   2.288   0.942   3.714
 1587SOL    HW2 6780   2.247   0.851   3.584
 1588SOL     OW 6781   3.402   0.274   1.987
 1588SOL    HW1 6782   3.341   0.199   2.010
 1588SOL    HW2 6783   3.424   0.326   2.070
 1589SOL     OW 6784   3.165   0.838   1.904
 1589SOL    HW1 6785   3.199   0.745   1.919
 1589SOL    HW2 6786   3.183   0.865   1.809
 1590SOL     OW 6787   2.181   0.810   2.811
 1590SOL    HW1 6788   2.274   0.846   2.816
 1590SOL    HW2 6789   2.175   0.725   2.863
 1591SOL     OW 6790   2.201   0.509   2.868
 1591SOL    HW1 6791   2.149   0.426   2.851
 1591SOL    HW2 6792   2.278   0.514   2.804
 1592SOL     OW 6793   3.022   0.207   3.339
 1592SOL    HW1 6794   3.022   0.271   3.416
 1592SOL    HW2 6795   3.050   0.255   3.256
 1593SOL     OW 6796   1.950   1.801   2.789
 1593SOL    HW1 6797   1.908   1.715   2.762
 1593SOL    HW2 6798   2.044   1.804   2.755
 1594SOL     OW 6799   2.366   1.568   2.772
 1594SOL    HW1 6800   2.432   1.642   2.781
 1594SOL    HW2 6801   2.410   1.489   2.730
 1595SOL     OW 6802   2.864   0.796   3.100
 1595SOL    HW1 6803   2.905   0.764   3.186
 1595SOL    HW2 6804   2.768   0.769   3.097
 1596SOL     OW 6805   1.902   0.544   2.976
 1596SOL    HW1 6806   1.987   0.511   2.935
 1596SOL    HW2 6807   1.915   0.559   3.074
 1597SOL     OW 6808   2.051   0.520   3.584
 1597SOL    HW1 6809   2.110   0.480   3.514
 1597SOL    HW2 6810   1.993   0.591   3.543
 1598SOL     OW 6811   3.231   0.950   3.522
 1598SOL    HW1 6812   3.270   1.039   3.542
 1598SOL    HW2 6813   3.241   0.930   3.425
 1599SOL     OW 6814   3.519   0.604   3.068
 1599SOL    HW1 6815   3.481   0.535   3.130
 1599SOL    HW2 6816   3.601   0.568   3.024
 1600SOL     OW 6817   2.114   1.564   3.606
 1600SOL    HW1 6818   2.084   1.621   3.682
 1600SOL    HW2 6819   2.107   1.467   3.632
 1601SOL     OW 6820   2.533   0.464   3.131
 1601SOL    HW1 6821   2.499   0.375   3.101
 1601SOL    HW2 6822   2.559   0.518   3.051
 1602SOL     OW 6823   2.792   1.678   3.327
 1602SOL    HW1 6824   2.768   1.660   3.232
 1602SOL    HW2 6825   2.822   1.772   3.337
 1603SOL     OW 6826   2.021   1.137   3.328
 1603SOL    HW1 6827   2.043   1.076   3.404
 1603SOL    HW2 6828   2.031   1.088   3.242
 1604SOL     OW 6829   3.209   1.059   3.096
 1604SOL    HW1 6830   3.233   0.996   3.022
 1604SOL    HW2 6831   3.119   1.099   3.078
 1605SOL     OW 6832   3.164   0.855   2.171
 1605SOL    HW1 6833   3.078   0.824   2.213
 1605SOL    HW2 6834   3.160   0.841   2.072
 1606SOL     OW 6835   3.114   1.731   2.990
 1606SOL    HW1 6836   3.198   1.736   2.936
 1606SOL    HW2 6837   3.091   1.635   3.008
 1607SOL     OW 6838   1.945   1.258   2.884
 1607SOL    HW1 6839   1.940   1.257   2.984
 1607SOL    HW2 6840   1.862   1.217   2.846
 1608SOL     OW 6841   2.550   1.662   3.578
 1608SOL    HW1 6842   2.494   1.743   3.587
 1608SOL    HW2 6843   2.602   1.666   3.492
 1609SOL     OW 6844   3.588   0.135   2.385
 1609SOL    HW1 6845   3.661   0.118   2.318
 1609SOL    HW2 6846   3.557   0.048   2.423
 1610SOL     OW 6847   3.250   1.573   2.339
 1610SOL    HW1 6848   3.317   1.585   2.265
 1610SOL    HW2 6849   3.210   1.662   2.362
 1611SOL     OW 6850   1.992   1.794   3.713
 1611SOL    HW1 6851   1.951   1.720   3.766
 1611SOL    HW2 6852   2.056   1.845   3.771
 1612SOL     OW 6853   3.142   0.927   2.534
 1612SOL    HW1 6854   3.202   0.846   2.536
 1612SOL    HW2 6855   3.182   0.996   2.474
 1613SOL     OW 6856   2.692   1.273   3.284
 1613SOL    HW1 6857   2.687   1.306   3.379
 1613SOL    HW2 6858   2.606   1.292   3.238
 1614SOL     OW 6859   2.534   1.616   2.016
 1614SOL    HW1 6860   2.543   1.626   1.917
 1614SOL    HW2 6861   2.494   1.527   2.037
 1615SOL     OW 6862   3.512   1.720   3.256
 1615SOL    HW1 6863   3.565   1.730   3.172
 1615SOL    HW2 6864   3.485   1.810   3.290
 1616SOL     OW 6865   2.125   0.326   2.582
 1616SOL    HW1 6866   2.046   0.377   2.548
 1616SOL    HW2 6867   2.116   0.311   2.680
 1617SOL     OW 6868   3.056   1.612   1.893
 1617SOL    HW1 6869   3.062   1.519   1.930
 1617SOL    HW2 6870   2.997   1.612   1.813
 1618SOL     OW 6871   2.684   1.002   3.234
 1618SOL    HW1 6872   2.724   1.001   3.142
 1618SOL    HW2 6873   2.694   1.094   3.274
 1619SOL     OW 6874   2.778   0.910   2.153
 1619SOL    HW1 6875   2.841   0.948   2.085
 1619SOL    HW2 6876   2.818   0.827   2.192
 1620SOL     OW 6877   3.366   1.607   1.906
 1620SOL    HW1 6878   3.274   1.644   1.913
 1620SOL    HW2 6879   3.404   1.627   1.816
 1621SOL     OW 6880   2.234   1.288   3.352
 1621SOL    HW1 6881   2.221   1.381   3.318
 1621SOL    HW2 6882   2.150   1.236   3.339
 1622SOL     OW 6883   2.901   1.098   2.558
 1622SOL    HW1 6884   2.831   1.051   2.612
 1622SOL    HW2 6885   2.960   1.030   2.515
 1623SOL     OW 6886   2.876   0.236   2.833
 1623SOL    HW1 6887   2.868   0.200   2.740
 1623SOL    HW2 6888   2.874   0.160   2.898
 1624SOL     OW 6889   2.452   1.487   2.353
 1624SOL    HW1 6890   2.494   1.429   2.283
 1624SOL    HW2 6891   2.408   1.566   2.309
 1625SOL     OW 6892   3.571   0.385   3.243
 1625SOL    HW1 6893   3.644   0.454   3.247
 1625SOL    HW2 6894   3.599   0.310   3.184
 1626SOL     OW 6895   2.117   1.348   2.152
 1626SOL    HW1 6896   2.021   1.349   2.125
 1626SOL    HW2 6897   2.129   1.401   2.236
 1627SOL     OW 6898   1.967   1.013   3.588
 1627SOL    HW1 6899   1.890   0.980   3.642
 1627SOL    HW2 6900   2.052   0.983   3.630
 1628SOL     OW 6901   2.534   0.203   3.351
 1628SOL    HW1 6902   2.624   0.187   3.311
 1628SOL    HW2 6903   2.542   0.208   3.450
 1629SOL     OW 6904   1.937   0.345   1.895
 1629SOL    HW1 6905   1.845   0.317   1.866
 1629SOL    HW2 6906   1.968   0.422   1.839
 1630SOL     OW 6907   3.302   0.856   3.260
 1630SOL    HW1 6908   3.245   0.908   3.197
 1630SOL    HW2 6909   3.398   0.868   3.236
 1631SOL     OW 6910   1.934   0.166   2.180
 1631SOL    HW1 6911   1.917   0.249   2.126
 1631SOL    HW2 6912   2.024   0.129   2.158
 1632SOL     OW 6913   3.045   1.335   1.981
 1632SOL    HW1 6914   2.946   1.324   1.983
 1632SOL    HW2 6915   3.079   1.350   2.074
 1633SOL     OW 6916   2.475   0.842   3.293
 1633SOL    HW1 6917   2.531   0.923   3.276
 1633SOL    HW2 6918   2.534   0.762   3.296
 1634SOL     OW 6919   3.355   1.767   2.821
 1634SOL    HW1 6920   3.388   1.831   2.752
 1634SOL    HW2 6921   3.421   1.761   2.896
 1635SOL     OW 6922   2.578   0.565   3.570
 1635SOL    HW1 6923   2.597   0.630   3.644
 1635SOL    HW2 6924   2.638   0.485   3.579
 1636SOL     OW 6925   2.252   1.741   3.422
 1636SOL    HW1 6926   2.161   1.782   3.420
 1636SOL    HW2 6927   2.245   1.647   3.454
 1637SOL     OW 6928   3.536   0.883   3.116
 1637SOL    HW1 6929   3.509   0.794   3.079
 1637SOL    HW2 6930   3.537   0.951   3.043
 1638SOL     OW 6931   3.087   0.325   2.311
 1638SOL    HW1 6932   3.152   0.251   2.300
 1638SOL    HW2 6933   3.107   0.375   2.395
 1639SOL     OW 6934   2.456   0.745   2.514
 1639SOL    HW1 6935   2.506   0.830   2.495
 1639SOL    HW2 6936   2.368   0.747   2.466
 1640SOL     OW 6937   3.639   0.342   3.504
 1640SOL    HW1 6938   3.622   0.373   3.410
 1640SOL    HW2 6939   3.555   0.305   3.542
 1641SOL     OW 6940   3.592   0.934   3.379
 1641SOL    HW1 6941   3.630   1.025   3.394
 1641SOL    HW2 6942   3.584   0.917   3.280
 1642SOL     OW 6943   2.721   1.374   1.878
 1642SOL    HW1 6944   2.675   1.389   1.966
 1642SOL    HW2 6945   2.765   1.459   1.848
 1643SOL     OW 6946   2.523   1.790   2.815
 1643SOL    HW1 6947   2.477   1.878   2.802
 1643SOL    HW2 6948   2.622   1.802   2.808
 1644SOL     OW 6949   2.721   0.956   2.723
 1644SOL    HW1 6950   2.775   0.887   2.771
 1644SOL    HW2 6951   2.689   1.025   2.789
 1645SOL     OW 6952   2.945   0.984   1.949
 1645SOL    HW1 6953   2.922   1.037   1.867
 1645SOL    HW2 6954   3.026   0.928   1.930
 1646SOL     OW 6955   3.723   1.569   2.713
 1646SOL    HW1 6956   3.652   1.557   2.643
 1646SOL    HW2 6957   3.724   1.490   2.773
 1647SOL     OW 6958   2.083   1.314   3.706
 1647SOL    HW1 6959   2.018   1.241   3.685
 1647SOL    HW2 6960   2.087   1.328   3.804
 1648SOL     OW 6961   1.941   1.240   2.515
 1648SOL    HW1 6962   1.940   1.193   2.603
 1648SOL    HW2 6963   2.023   1.212   2.464
 1649SOL     OW 6964   2.534   1.391   3.486
 1649SOL    HW1 6965   2.456   1.341   3.524
 1649SOL    HW2 6966   2.531   1.486   3.517
 1650SOL     OW 6967   2.290   0.424   2.382
 1650SOL    HW1 6968   2.320   0.352   2.320
 1650SOL    HW2 6969   2.251   0.384   2.465
 1651SOL     OW 6970   2.179   0.547   3.142
 1651SOL    HW1 6971   2.217   0.488   3.214
 1651SOL    HW2 6972   2.219   0.521   3.054
 1652SOL     OW 6973   2.674   1.586   2.549
 1652SOL    HW1 6974   2.706   1.596   2.455
 1652SOL    HW2 6975   2.595   1.524   2.551
 1653SOL     OW 6976   3.286   0.214   2.974
 1653SOL    HW1 6977   3.338   0.149   3.029
 1653SOL    HW2 6978   3.237   0.277   3.035
 1654SOL     OW 6979   2.863   0.034   3.016
 1654SOL    HW1 6980   2.800  -0.038   2.985
 1654SOL    HW2 6981   2.956  -0.002   3.016
 1655SOL     OW 6982   2.632   1.330   2.163
 1655SOL    HW1 6983   2.586   1.243   2.180
 1655SOL    HW2 6984   2.723   1.327   2.204
 1656SOL     OW 6985   2.480   1.567   3.146
 1656SOL    HW1 6986   2.475   1.649   3.203
 1656SOL    HW2 6987   2.569   1.564   3.101
 1657SOL     OW 6988   3.214   0.052   2.030
 1657SOL    HW1 6989   3.249   0.011   1.946
 1657SOL    HW2 6990   3.124   0.014   2.050
 1658SOL     OW 6991   3.162   0.453   2.553
 1658SOL    HW1 6992   3.103   0.533   2.557
 1658SOL    HW2 6993   3.177   0.418   2.646
 1659SOL     OW 6994   3.455   0.221   2.744
 1659SOL    HW1 6995   3.371   0.220   2.798
 1659SOL    HW2 6996   3.457   0.304   2.688
 1660SOL     OW 6997   1.901   1.077   2.162
 1660SOL    HW1 6998   2.000   1.066   2.153
 1660SOL    HW2 6999   1.861   0.991   2.194
 1661SOL     OW 7000   2.737   1.646   2.199
 1661SOL    HW1 7001   2.660   1.611   2.145
 1661SOL    HW2 7002   2.705   1.717   2.261
 1662SOL     OW 7003   2.092   0.628   3.837
 1662SOL    HW1 7004   1.999   0.626   3.874
 1662SOL    HW2 7005   2.093   0.589   3.745
 1663SOL     OW 7006   2.087   0.275   4.720
 1663SOL    HW1 7007   2.122   0.258   4.812
 1663SOL    HW2 7008   1.999   0.230   4.708
 1664SOL     OW 7009   1.881   0.368   4.371
 1664SOL    HW1 7010   1.799   0.411   4.410
 1664SOL    HW2 7011   1.853   0.295   4.308
 1665SOL     OW 7012   2.431   1.275   4.889
 1665SOL    HW1 7013   2.338   1.268   4.852
 1665SOL    HW2 7014   2.442   1.364   4.933
 1666SOL     OW 7015   3.417   1.511   4.427
 1666SOL    HW1 7016   3.360   1.495   4.508
 1666SOL    HW2 7017   3.358   1.521   4.347
 1667SOL     OW 7018   3.617   0.607   3.955
 1667SOL    HW1 7019   3.605   0.594   3.856
 1667SOL    HW2 7020   3.587   0.526   4.004
 1668SOL     OW 7021   2.197   1.435   4.785
 1668SOL    HW1 7022   2.119   1.404   4.732
 1668SOL    HW2 7023   2.255   1.493   4.728
 1669SOL     OW 7024   3.465   0.447   4.461
 1669SOL    HW1 7025   3.391   0.493   4.411
 1669SOL    HW2 7026   3.516   0.515   4.514
 1670SOL     OW 7027   2.093   1.713   4.207
 1670SOL    HW1 7028   2.127   1.790   4.261
 1670SOL    HW2 7029   2.137   1.713   4.117
 1671SOL     OW 7030   2.092   1.434   4.262
 1671SOL    HW1 7031   2.066   1.530   4.262
 1671SOL    HW2 7032   2.021   1.380   4.307
 1672SOL     OW 7033   2.102   1.091   4.610
 1672SOL    HW1 7034   2.116   1.007   4.662
 1672SOL    HW2 7035   2.047   1.155   4.665
 1673SOL     OW 7036   2.468   0.964   3.847
 1673SOL    HW1 7037   2.475   1.048   3.793
 1673SOL    HW2 7038   2.514   0.977   3.935
 1674SOL     OW 7039   1.984   0.643   4.287
 1674SOL    HW1 7040   1.939   0.555   4.304
 1674SOL    HW2 7041   1.983   0.697   4.371
 1675SOL     OW 7042   3.704   1.767   4.083
 1675SOL    HW1 7043   3.758   1.738   4.163
 1675SOL    HW2 7044   3.734   1.857   4.054
 1676SOL     OW 7045   1.889   1.596   3.841
 1676SOL    HW1 7046   1.870   1.500   3.862
 1676SOL    HW2 7047   1.856   1.654   3.916
 1677SOL     OW 7048   3.503   1.108   4.156
 1677SOL    HW1 7049   3.589   1.110   4.104
 1677SOL    HW2 7050   3.517   1.155   4.244
 1678SOL     OW 7051   2.475   1.365   4.450
 1678SOL    HW1 7052   2.426   1.278   4.459
 1678SOL    HW2 7053   2.452   1.408   4.363
 1679SOL     OW 7054   2.671   0.004   4.226
 1679SOL    HW1 7055   2.711   0.095   4.217
 1679SOL    HW2 7056   2.571   0.012   4.232
 1680SOL     OW 7057   2.059   0.976   4.988
 1680SOL    HW1 7058   2.148   0.931   4.974
 1680SOL    HW2 7059   1.986   0.911   4.969
 1681SOL     OW 7060   3.387   0.999   3.914
 1681SOL    HW1 7061   3.324   0.923   3.927
 1681SOL    HW2 7062   3.435   1.017   4.000
 1682SOL     OW 7063   3.328   1.417   4.677
 1682SOL    HW1 7064   3.269   1.423   4.757
 1682SOL    HW2 7065   3.313   1.329   4.631
 1683SOL     OW 7066   3.529   1.714   4.296
 1683SOL    HW1 7067   3.488   1.691   4.208
 1683SOL    HW2 7068   3.511   1.640   4.361
 1684SOL     OW 7069   2.460   0.729   3.994
 1684SOL    HW1 7070   2.484   0.798   3.926
 1684SOL    HW2 7071   2.382   0.762   4.048
 1685SOL     OW 7072   3.143   0.345   4.668
 1685SOL    HW1 7073   3.057   0.295   4.655
 1685SOL    HW2 7074   3.205   0.291   4.724
 1686SOL     OW 7075   3.438   1.662   4.031
 1686SOL    HW1 7076   3.527   1.708   4.034
 1686SOL    HW2 7077   3.417   1.638   3.936
 1687SOL     OW 7078   2.853   0.410   4.966
 1687SOL    HW1 7079   2.776   0.444   5.020
 1687SOL    HW2 7080   2.819   0.359   4.887
 1688SOL     OW 7081   2.903   0.701   4.153
 1688SOL    HW1 7082   2.929   0.697   4.249
 1688SOL    HW2 7083   2.818   0.650   4.139
 1689SOL     OW 7084   1.938   0.811   4.513
 1689SOL    HW1 7085   2.037   0.799   4.522
 1689SOL    HW2 7086   1.914   0.906   4.534
 1690SOL     OW 7087   2.727   0.348   3.919
 1690SOL    HW1 7088   2.786   0.411   3.870
 1690SOL    HW2 7089   2.746   0.254   3.890
 1691SOL     OW 7090   3.224   1.144   4.269
 1691SOL    HW1 7091   3.307   1.115   4.221
 1691SOL    HW2 7092   3.175   1.211   4.213
 1692SOL     OW 7093   2.870   1.456   4.201
 1692SOL    HW1 7094   2.824   1.528   4.149
 1692SOL    HW2 7095   2.866   1.476   4.299
 1693SOL     OW 7096   2.183   0.943   3.966
 1693SOL    HW1 7097   2.265   0.982   3.924
 1693SOL    HW2 7098   2.156   0.861   3.917
 1694SOL     OW 7099   2.973   1.776   3.961
 1694SOL    HW1 7100   2.913   1.714   4.011
 1694SOL    HW2 7101   3.004   1.732   3.876
 1695SOL     OW 7102   2.802   1.698   4.628
 1695SOL    HW1 7103   2.882   1.641   4.649
 1695SOL    HW2 7104   2.753   1.658   4.551
 1696SOL     OW 7105   2.244   0.700   4.204
 1696SOL    HW1 7106   2.289   0.610   4.201
 1696SOL    HW2 7107   2.150   0.689   4.237
 1697SOL     OW 7108   2.476   0.122   3.841
 1697SOL    HW1 7109   2.574   0.100   3.848
 1697SOL    HW2 7110   2.445   0.105   3.748
 1698SOL     OW 7111   2.665   1.402   4.648
 1698SOL    HW1 7112   2.755   1.416   4.606
 1698SOL    HW2 7113   2.594   1.404   4.577
 1699SOL     OW 7114   2.401   0.064   4.236
 1699SOL    HW1 7115   2.320   0.065   4.294
 1699SOL    HW2 7116   2.404   0.147   4.181
 1700SOL     OW 7117   3.296   1.188   3.765
 1700SOL    HW1 7118   3.328   1.112   3.822
 1700SOL    HW2 7119   3.204   1.215   3.795
 1701SOL     OW 7120   2.159   0.035   3.895
 1701SOL    HW1 7121   2.208   0.119   3.874
 1701SOL    HW2 7122   2.221  -0.030   3.940
 1702SOL     OW 7123   2.797   0.236   4.204
 1702SOL    HW1 7124   2.749   0.277   4.126
 1702SOL    HW2 7125   2.896   0.234   4.185
 1703SOL     OW 7126   3.089   1.570   4.517
 1703SOL    HW1 7127   3.110   1.644   4.452
 1703SOL    HW2 7128   3.157   1.570   4.590
 1704SOL     OW 7129   3.133   1.797   4.315
 1704SOL    HW1 7130   3.177   1.861   4.251
 1704SOL    HW2 7131   3.083   1.849   4.385
 1705SOL     OW 7132   2.894   0.549   3.740
 1705SOL    HW1 7133   2.853   0.631   3.701
 1705SOL    HW2 7134   2.958   0.575   3.813
 1706SOL     OW 7135   2.423   0.222   4.871
 1706SOL    HW1 7136   2.461   0.138   4.908
 1706SOL    HW2 7137   2.335   0.241   4.915
 1707SOL     OW 7138   2.728   0.454   4.366
 1707SOL    HW1 7139   2.696   0.526   4.304
 1707SOL    HW2 7140   2.752   0.373   4.313
 1708SOL     OW 7141   2.879   0.039   4.477
 1708SOL    HW1 7142   2.807   0.044   4.408
 1708SOL    HW2 7143   2.855  -0.030   4.546
 1709SOL     OW 7144   3.291   1.173   4.591
 1709SOL    HW1 7145   3.236   1.089   4.584
 1709SOL    HW2 7146   3.317   1.202   4.499
 1710SOL     OW 7147   3.328   0.590   4.716
 1710SOL    HW1 7148   3.298   0.495   4.723
 1710SOL    HW2 7149   3.401   0.606   4.782
 1711SOL     OW 7150   3.719   0.833   4.101
 1711SOL    HW1 7151   3.761   0.769   4.165
 1711SOL    HW2 7152   3.681   0.782   4.023
 1712SOL     OW 7153   2.350   1.385   3.898
 1712SOL    HW1 7154   2.263   1.370   3.945
 1712SOL    HW2 7155   2.333   1.411   3.803
 1713SOL     OW 7156   3.252   0.575   3.802
 1713SOL    HW1 7157   3.198   0.554   3.883
 1713SOL    HW2 7158   3.343   0.534   3.811
 1714SOL     OW 7159   2.389   0.256   4.052
 1714SOL    HW1 7160   2.416   0.197   3.977
 1714SOL    HW2 7161   2.389   0.351   4.021
 1715SOL     OW 7162   2.567   1.050   4.092
 1715SOL    HW1 7163   2.553   1.057   4.191
 1715SOL    HW2 7164   2.651   0.999   4.074
 1716SOL     OW 7165   2.272   0.813   4.975
 1716SOL    HW1 7166   2.358   0.825   5.025
 1716SOL    HW2 7167   2.230   0.726   5.002
 1717SOL     OW 7168   3.136   0.386   4.986
 1717SOL    HW1 7169   3.157   0.460   5.050
 1717SOL    HW2 7170   3.047   0.403   4.943
 1718SOL     OW 7171   2.229   1.100   4.225
 1718SOL    HW1 7172   2.222   1.183   4.169
 1718SOL    HW2 7173   2.233   1.020   4.165
 1719SOL     OW 7174   3.114   1.348   4.112
 1719SOL    HW1 7175   3.164   1.425   4.152
 1719SOL    HW2 7176   3.019   1.350   4.144
 1720SOL     OW 7177   3.444   0.639   4.196
 1720SOL    HW1 7178   3.413   0.700   4.269
 1720SOL    HW2 7179   3.494   0.691   4.127
 1721SOL     OW 7180   3.071   0.525   3.999
 1721SOL    HW1 7181   3.084   0.441   4.053
 1721SOL    HW2 7182   3.042   0.599   4.059
 1722SOL     OW 7183   2.169   0.213   4.955
 1722SOL    HW1 7184   2.146   0.250   5.045
 1722SOL    HW2 7185   2.139   0.118   4.949
 1723SOL     OW 7186   1.899   1.310   5.006
 1723SOL    HW1 7187   1.952   1.261   5.074
 1723SOL    HW2 7188   1.921   1.408   5.011
 1724SOL     OW 7189   2.169   0.063   4.342
 1724SOL    HW1 7190   2.158   0.157   4.375
 1724SOL    HW2 7191   2.164   0.000   4.419
 1725SOL     OW 7192   2.885   0.766   4.690
 1725SOL    HW1 7193   2.900   0.787   4.786
 1725SOL    HW2 7194   2.855   0.671   4.681
 1726SOL     OW 7195   3.165   0.838   3.766
 1726SOL    HW1 7196   3.199   0.745   3.781
 1726SOL    HW2 7197   3.183   0.865   3.671
 1727SOL     OW 7198   2.930   1.333   4.573
 1727SOL    HW1 7199   2.937   1.249   4.518
 1727SOL    HW2 7200   2.992   1.402   4.537
 1728SOL     OW 7201   2.201   0.509   4.730
 1728SOL    HW1 7202   2.149   0.426   4.713
 1728SOL    HW2 7203   2.278   0.514   4.666
 1729SOL     OW 7204   3.022   0.207   5.201
 1729SOL    HW1 7205   3.022   0.271   5.278
 1729SOL    HW2 7206   3.050   0.255   5.118
 1730SOL     OW 7207   1.870   1.326   3.924
 1730SOL    HW1 7208   1.777   1.347   3.893
 1730SOL    HW2 7209   1.880   1.227   3.937
 1731SOL     OW 7210   2.366   1.568   4.634
 1731SOL    HW1 7211   2.432   1.642   4.643
 1731SOL    HW2 7212   2.410   1.489   4.592
 1732SOL     OW 7213   1.902   0.544   4.838
 1732SOL    HW1 7214   1.987   0.511   4.797
 1732SOL    HW2 7215   1.915   0.559   4.936
 1733SOL     OW 7216   2.677   0.572   4.049
 1733SOL    HW1 7217   2.684   0.483   4.003
 1733SOL    HW2 7218   2.583   0.606   4.041
 1734SOL     OW 7219   3.519   0.604   4.930
 1734SOL    HW1 7220   3.481   0.535   4.992
 1734SOL    HW2 7221   3.601   0.568   4.886
 1735SOL     OW 7222   2.533   0.464   4.993
 1735SOL    HW1 7223   2.499   0.375   4.963
 1735SOL    HW2 7224   2.559   0.518   4.913
 1736SOL     OW 7225   2.335   0.500   3.915
 1736SOL    HW1 7226   2.396   0.580   3.919
 1736SOL    HW2 7227   2.240   0.531   3.922
 1737SOL     OW 7228   3.621   1.747   4.878
 1737SOL    HW1 7229   3.682   1.777   4.805
 1737SOL    HW2 7230   3.583   1.658   4.856
 1738SOL     OW 7231   1.945   1.258   4.746
 1738SOL    HW1 7232   1.940   1.257   4.846
 1738SOL    HW2 7233   1.862   1.217   4.708
 1739SOL     OW 7234   3.250   1.573   4.201
 1739SOL    HW1 7235   3.317   1.585   4.127
 1739SOL    HW2 7236   3.210   1.662   4.224
 1740SOL     OW 7237   3.512   1.720   5.118
 1740SOL    HW1 7238   3.565   1.730   5.034
 1740SOL    HW2 7239   3.485   1.810   5.152
 1741SOL     OW 7240   3.703   0.175   4.687
 1741SOL    HW1 7241   3.742   0.090   4.651
 1741SOL    HW2 7242   3.605   0.177   4.668
 1742SOL     OW 7243   2.125   0.326   4.444
 1742SOL    HW1 7244   2.046   0.377   4.410
 1742SOL    HW2 7245   2.116   0.311   4.542
 1743SOL     OW 7246   3.056   1.612   3.755
 1743SOL    HW1 7247   3.062   1.519   3.792
 1743SOL    HW2 7248   2.997   1.612   3.675
 1744SOL     OW 7249   2.778   0.910   4.015
 1744SOL    HW1 7250   2.841   0.948   3.947
 1744SOL    HW2 7251   2.818   0.827   4.054
 1745SOL     OW 7252   3.366   1.607   3.768
 1745SOL    HW1 7253   3.274   1.644   3.775
 1745SOL    HW2 7254   3.404   1.627   3.678
 1746SOL     OW 7255   2.901   1.098   4.420
 1746SOL    HW1 7256   2.831   1.051   4.474
 1746SOL    HW2 7257   2.960   1.030   4.377
 1747SOL     OW 7258   2.876   0.236   4.695
 1747SOL    HW1 7259   2.868   0.200   4.602
 1747SOL    HW2 7260   2.874   0.160   4.760
 1748SOL     OW 7261   2.452   1.487   4.215
 1748SOL    HW1 7262   2.494   1.429   4.145
 1748SOL    HW2 7263   2.408   1.566   4.171
 1749SOL     OW 7264   3.571   0.385   5.105
 1749SOL    HW1 7265   3.644   0.454   5.109
 1749SOL    HW2 7266   3.599   0.310   5.046
 1750SOL     OW 7267   2.117   1.348   4.014
 1750SOL    HW1 7268   2.021   1.349   3.987
 1750SOL    HW2 7269   2.129   1.401   4.098
 1751SOL     OW 7270   1.937   0.345   3.757
 1751SOL    HW1 7271   1.845   0.317   3.728
 1751SOL    HW2 7272   1.968   0.422   3.701
 1752SOL     OW 7273   1.934   0.166   4.042
 1752SOL    HW1 7274   1.917   0.249   3.988
 1752SOL    HW2 7275   2.024   0.129   4.020
 1753SOL     OW 7276   3.045   1.335   3.843
 1753SOL    HW1 7277   2.946   1.324   3.845
 1753SOL    HW2 7278   3.079   1.350   3.936
 1754SOL     OW 7279   3.312   1.220   5.357
 1754SOL    HW1 7280   3.303   1.210   5.456
 1754SOL    HW2 7281   3.408   1.213   5.331
 1755SOL     OW 7282   3.592   0.934   5.241
 1755SOL    HW1 7283   3.630   1.025   5.256
 1755SOL    HW2 7284   3.584   0.917   5.142
 1756SOL     OW 7285   2.721   1.374   3.740
 1756SOL    HW1 7286   2.675   1.389   3.828
 1756SOL    HW2 7287   2.765   1.459   3.710
 1757SOL     OW 7288   2.523   1.790   4.677
 1757SOL    HW1 7289   2.477   1.878   4.664
 1757SOL    HW2 7290   2.622   1.802   4.670
 1758SOL     OW 7291   2.945   0.984   3.811
 1758SOL    HW1 7292   2.922   1.037   3.729
 1758SOL    HW2 7293   3.026   0.928   3.792
 1759SOL     OW 7294   3.723   1.569   4.575
 1759SOL    HW1 7295   3.652   1.557   4.505
 1759SOL    HW2 7296   3.724   1.490   4.635
 1760SOL     OW 7297   1.941   1.240   4.377
 1760SOL    HW1 7298   1.940   1.193   4.465
 1760SOL    HW2 7299   2.023   1.212   4.326
 1761SOL     OW 7300   3.686   0.192   4.951
 1761SOL    HW1 7301   3.682   0.102   4.995
 1761SOL    HW2 7302   3.689   0.181   4.852
 1762SOL     OW 7303   2.290   0.424   4.244
 1762SOL    HW1 7304   2.320   0.352   4.182
 1762SOL    HW2 7305   2.251   0.384   4.327
 1763SOL     OW 7306   3.567   1.487   4.828
 1763SOL    HW1 7307   3.474   1.462   4.801
 1763SOL    HW2 7308   3.593   1.437   4.910
 1764SOL     OW 7309   2.674   1.586   4.411
 1764SOL    HW1 7310   2.706   1.596   4.317
 1764SOL    HW2 7311   2.595   1.524   4.413
 1765SOL     OW 7312   3.286   0.214   4.836
 1765SOL    HW1 7313   3.338   0.149   4.891
 1765SOL    HW2 7314   3.237   0.277   4.897
 1766SOL     OW 7315   2.863   0.034   4.878
 1766SOL    HW1 7316   2.800  -0.038   4.847
 1766SOL    HW2 7317   2.956  -0.002   4.878
 1767SOL     OW 7318   2.632   1.330   4.025
 1767SOL    HW1 7319   2.586   1.243   4.042
 1767SOL    HW2 7320   2.723   1.327   4.066
 1768SOL     OW 7321   3.214   0.052   3.892
 1768SOL    HW1 7322   3.249   0.011   3.808
 1768SOL    HW2 7323   3.124   0.014   3.912
 1769SOL     OW 7324   3.455   0.221   4.606
 1769SOL    HW1 7325   3.371   0.220   4.660
 1769SOL    HW2 7326   3.457   0.304   4.550
 1770SOL     OW 7327   1.901   1.077   4.024
 1770SOL    HW1 7328   2.000   1.066   4.015
 1770SOL    HW2 7329   1.861   0.991   4.056
 1771SOL     OW 7330   2.737   1.646   4.061
 1771SOL    HW1 7331   2.660   1.611   4.007
 1771SOL    HW2 7332   2.705   1.717   4.123
 1772SOL     OW 7333   2.092   2.490   0.113
 1772SOL    HW1 7334   1.999   2.488   0.150
 1772SOL    HW2 7335   2.093   2.451   0.021
 1773SOL     OW 7336   2.087   2.137   0.996
 1773SOL    HW1 7337   2.122   2.120   1.088
 1773SOL    HW2 7338   1.999   2.092   0.984
 1774SOL     OW 7339   1.881   2.230   0.647
 1774SOL    HW1 7340   1.799   2.273   0.686
 1774SOL    HW2 7341   1.853   2.157   0.584
 1775SOL     OW 7342   2.431   3.137   1.165
 1775SOL    HW1 7343   2.338   3.130   1.128
 1775SOL    HW2 7344   2.442   3.226   1.209
 1776SOL     OW 7345   3.417   3.373   0.703
 1776SOL    HW1 7346   3.360   3.357   0.784
 1776SOL    HW2 7347   3.358   3.383   0.623
 1777SOL     OW 7348   2.997   2.565   0.717
 1777SOL    HW1 7349   3.054   2.643   0.692
 1777SOL    HW2 7350   2.937   2.591   0.793
 1778SOL     OW 7351   3.617   2.469   0.231
 1778SOL    HW1 7352   3.605   2.456   0.132
 1778SOL    HW2 7353   3.587   2.388   0.280
 1779SOL     OW 7354   2.630   3.006   1.023
 1779SOL    HW1 7355   2.552   3.023   1.083
 1779SOL    HW2 7356   2.664   3.093   0.987
 1780SOL     OW 7357   2.712   2.660   1.823
 1780SOL    HW1 7358   2.708   2.736   1.888
 1780SOL    HW2 7359   2.734   2.696   1.732
 1781SOL     OW 7360   2.547   2.874   0.665
 1781SOL    HW1 7361   2.616   2.858   0.735
 1781SOL    HW2 7362   2.474   2.931   0.703
 1782SOL     OW 7363   2.197   3.297   1.061
 1782SOL    HW1 7364   2.119   3.266   1.008
 1782SOL    HW2 7365   2.255   3.355   1.004
 1783SOL     OW 7366   3.322   3.367   1.339
 1783SOL    HW1 7367   3.346   3.461   1.365
 1783SOL    HW2 7368   3.306   3.313   1.421
 1784SOL     OW 7369   2.300   2.254   1.499
 1784SOL    HW1 7370   2.382   2.198   1.508
 1784SOL    HW2 7371   2.219   2.196   1.503
 1785SOL     OW 7372   3.465   2.309   0.737
 1785SOL    HW1 7373   3.391   2.355   0.687
 1785SOL    HW2 7374   3.516   2.377   0.790
 1786SOL     OW 7375   2.093   3.575   0.483
 1786SOL    HW1 7376   2.127   3.652   0.537
 1786SOL    HW2 7377   2.137   3.575   0.393
 1787SOL     OW 7378   2.092   3.296   0.538
 1787SOL    HW1 7379   2.066   3.392   0.538
 1787SOL    HW2 7380   2.021   3.242   0.583
 1788SOL     OW 7381   2.102   2.953   0.886
 1788SOL    HW1 7382   2.116   2.869   0.938
 1788SOL    HW2 7383   2.047   3.017   0.941
 1789SOL     OW 7384   2.482   3.648   1.439
 1789SOL    HW1 7385   2.390   3.631   1.474
 1789SOL    HW2 7386   2.510   3.740   1.465
 1790SOL     OW 7387   3.456   1.976   1.480
 1790SOL    HW1 7388   3.438   2.043   1.408
 1790SOL    HW2 7389   3.453   2.022   1.569
 1791SOL     OW 7390   1.984   2.505   0.563
 1791SOL    HW1 7391   1.939   2.417   0.580
 1791SOL    HW2 7392   1.983   2.559   0.647
 1792SOL     OW 7393   3.704   3.629   0.359
 1792SOL    HW1 7394   3.758   3.600   0.439
 1792SOL    HW2 7395   3.734   3.719   0.330
 1793SOL     OW 7396   1.889   3.458   0.117
 1793SOL    HW1 7397   1.870   3.362   0.138
 1793SOL    HW2 7398   1.856   3.516   0.192
 1794SOL     OW 7399   3.551   2.784   0.612
 1794SOL    HW1 7400   3.646   2.755   0.620
 1794SOL    HW2 7401   3.543   2.849   0.537
 1795SOL     OW 7402   3.503   2.970   0.432
 1795SOL    HW1 7403   3.589   2.972   0.380
 1795SOL    HW2 7404   3.517   3.017   0.520
 1796SOL     OW 7405   1.975   2.599   1.597
 1796SOL    HW1 7406   2.063   2.586   1.642
 1796SOL    HW2 7407   1.962   2.696   1.575
 1797SOL     OW 7408   2.475   3.227   0.726
 1797SOL    HW1 7409   2.426   3.140   0.735
 1797SOL    HW2 7410   2.452   3.270   0.639
 1798SOL     OW 7411   3.155   3.090   1.423
 1798SOL    HW1 7412   3.192   3.017   1.365
 1798SOL    HW2 7413   3.207   3.095   1.508
 1799SOL     OW 7414   2.059   2.838   1.264
 1799SOL    HW1 7415   2.148   2.793   1.250
 1799SOL    HW2 7416   1.986   2.773   1.245
 1800SOL     OW 7417   3.387   2.861   0.190
 1800SOL    HW1 7418   3.324   2.785   0.203
 1800SOL    HW2 7419   3.435   2.879   0.276
 1801SOL     OW 7420   3.049   3.654   1.616
 1801SOL    HW1 7421   3.073   3.714   1.540
 1801SOL    HW2 7422   3.056   3.559   1.586
 1802SOL     OW 7423   3.328   3.279   0.953
 1802SOL    HW1 7424   3.269   3.285   1.033
 1802SOL    HW2 7425   3.313   3.191   0.907
 1803SOL     OW 7426   3.529   3.576   0.572
 1803SOL    HW1 7427   3.488   3.553   0.484
 1803SOL    HW2 7428   3.511   3.502   0.637
 1804SOL     OW 7429   2.460   2.591   0.270
 1804SOL    HW1 7430   2.484   2.660   0.202
 1804SOL    HW2 7431   2.382   2.624   0.324
 1805SOL     OW 7432   3.438   3.524   0.307
 1805SOL    HW1 7433   3.527   3.570   0.310
 1805SOL    HW2 7434   3.417   3.500   0.212
 1806SOL     OW 7435   2.669   2.467   1.465
 1806SOL    HW1 7436   2.622   2.464   1.554
 1806SOL    HW2 7437   2.618   2.412   1.399
 1807SOL     OW 7438   3.256   2.331   1.674
 1807SOL    HW1 7439   3.236   2.374   1.762
 1807SOL    HW2 7440   3.334   2.269   1.683
 1808SOL     OW 7441   2.835   2.752   1.572
 1808SOL    HW1 7442   2.881   2.668   1.543
 1808SOL    HW2 7443   2.779   2.786   1.497
 1809SOL     OW 7444   2.853   2.272   1.242
 1809SOL    HW1 7445   2.776   2.306   1.296
 1809SOL    HW2 7446   2.819   2.221   1.163
 1810SOL     OW 7447   2.903   2.563   0.429
 1810SOL    HW1 7448   2.929   2.559   0.525
 1810SOL    HW2 7449   2.818   2.512   0.415
 1811SOL     OW 7450   1.938   2.673   0.789
 1811SOL    HW1 7451   2.037   2.661   0.798
 1811SOL    HW2 7452   1.914   2.768   0.810
 1812SOL     OW 7453   1.992   3.683   1.571
 1812SOL    HW1 7454   1.982   3.668   1.670
 1812SOL    HW2 7455   1.906   3.719   1.535
 1813SOL     OW 7456   2.727   2.210   0.195
 1813SOL    HW1 7457   2.786   2.273   0.146
 1813SOL    HW2 7458   2.746   2.116   0.166
 1814SOL     OW 7459   3.224   3.006   0.545
 1814SOL    HW1 7460   3.307   2.977   0.497
 1814SOL    HW2 7461   3.175   3.073   0.489
 1815SOL     OW 7462   2.412   2.058   0.885
 1815SOL    HW1 7463   2.407   2.053   0.985
 1815SOL    HW2 7464   2.414   2.154   0.856
 1816SOL     OW 7465   2.870   3.318   0.477
 1816SOL    HW1 7466   2.824   3.390   0.425
 1816SOL    HW2 7467   2.866   3.338   0.575
 1817SOL     OW 7468   2.213   3.663   0.853
 1817SOL    HW1 7469   2.263   3.577   0.859
 1817SOL    HW2 7470   2.278   3.740   0.850
 1818SOL     OW 7471   3.657   2.928   0.873
 1818SOL    HW1 7472   3.595   2.913   0.797
 1818SOL    HW2 7473   3.605   2.939   0.958
 1819SOL     OW 7474   2.183   2.805   0.242
 1819SOL    HW1 7475   2.265   2.844   0.200
 1819SOL    HW2 7476   2.156   2.723   0.193
 1820SOL     OW 7477   3.320   2.597   0.728
 1820SOL    HW1 7478   3.315   2.532   0.803
 1820SOL    HW2 7479   3.400   2.656   0.741
 1821SOL     OW 7480   2.323   3.128   1.727
 1821SOL    HW1 7481   2.273   3.129   1.641
 1821SOL    HW2 7482   2.260   3.110   1.803
 1822SOL     OW 7483   2.973   3.638   0.237
 1822SOL    HW1 7484   2.913   3.576   0.287
 1822SOL    HW2 7485   3.004   3.594   0.152
 1823SOL     OW 7486   3.494   3.239   0.081
 1823SOL    HW1 7487   3.462   3.333   0.071
 1823SOL    HW2 7488   3.418   3.176   0.069
 1824SOL     OW 7489   2.326   3.605   0.323
 1824SOL    HW1 7490   2.359   3.644   0.409
 1824SOL    HW2 7491   2.402   3.598   0.258
 1825SOL     OW 7492   2.111   3.647   1.241
 1825SOL    HW1 7493   2.168   3.582   1.291
 1825SOL    HW2 7494   2.095   3.614   1.148
 1826SOL     OW 7495   2.802   3.560   0.904
 1826SOL    HW1 7496   2.882   3.503   0.925
 1826SOL    HW2 7497   2.753   3.520   0.827
 1827SOL     OW 7498   2.244   2.562   0.480
 1827SOL    HW1 7499   2.289   2.472   0.477
 1827SOL    HW2 7500   2.150   2.551   0.513
 1828SOL     OW 7501   2.643   2.126   1.749
 1828SOL    HW1 7502   2.710   2.065   1.792
 1828SOL    HW2 7503   2.570   2.145   1.814
 1829SOL     OW 7504   2.750   3.376   1.195
 1829SOL    HW1 7505   2.727   3.351   1.101
 1829SOL    HW2 7506   2.811   3.307   1.234
 1830SOL     OW 7507   3.213   2.452   1.433
 1830SOL    HW1 7508   3.241   2.409   1.518
 1830SOL    HW2 7509   3.238   2.548   1.434
 1831SOL     OW 7510   2.665   3.264   0.924
 1831SOL    HW1 7511   2.755   3.278   0.882
 1831SOL    HW2 7512   2.594   3.266   0.853
 1832SOL     OW 7513   2.784   2.365   0.899
 1832SOL    HW1 7514   2.759   2.356   0.803
 1832SOL    HW2 7515   2.832   2.283   0.930
 1833SOL     OW 7516   2.401   1.926   0.512
 1833SOL    HW1 7517   2.320   1.927   0.570
 1833SOL    HW2 7518   2.404   2.009   0.457
 1834SOL     OW 7519   2.938   2.545   1.464
 1834SOL    HW1 7520   2.858   2.484   1.467
 1834SOL    HW2 7521   3.019   2.492   1.440
 1835SOL     OW 7522   3.089   3.432   0.793
 1835SOL    HW1 7523   3.110   3.506   0.728
 1835SOL    HW2 7524   3.157   3.432   0.866
 1836SOL     OW 7525   2.321   3.014   0.741
 1836SOL    HW1 7526   2.250   2.987   0.806
 1836SOL    HW2 7527   2.295   2.986   0.648
 1837SOL     OW 7528   3.133   3.659   0.591
 1837SOL    HW1 7529   3.177   3.723   0.527
 1837SOL    HW2 7530   3.083   3.711   0.661
 1838SOL     OW 7531   2.894   2.411   0.016
 1838SOL    HW1 7532   2.853   2.493  -0.023
 1838SOL    HW2 7533   2.958   2.437   0.089
 1839SOL     OW 7534   1.940   2.418   1.386
 1839SOL    HW1 7535   2.032   2.417   1.345
 1839SOL    HW2 7536   1.934   2.492   1.453
 1840SOL     OW 7537   2.423   2.084   1.147
 1840SOL    HW1 7538   2.461   2.000   1.184
 1840SOL    HW2 7539   2.335   2.103   1.191
 1841SOL     OW 7540   2.728   2.316   0.642
 1841SOL    HW1 7541   2.696   2.388   0.580
 1841SOL    HW2 7542   2.752   2.235   0.589
 1842SOL     OW 7543   2.879   1.901   0.753
 1842SOL    HW1 7544   2.807   1.906   0.684
 1842SOL    HW2 7545   2.855   1.832   0.822
 1843SOL     OW 7546   3.291   3.035   0.867
 1843SOL    HW1 7547   3.236   2.951   0.860
 1843SOL    HW2 7548   3.317   3.064   0.775
 1844SOL     OW 7549   3.328   2.452   0.992
 1844SOL    HW1 7550   3.298   2.357   0.999
 1844SOL    HW2 7551   3.401   2.468   1.058
 1845SOL     OW 7552   3.719   2.695   0.377
 1845SOL    HW1 7553   3.761   2.631   0.441
 1845SOL    HW2 7554   3.681   2.644   0.299
 1846SOL     OW 7555   3.526   3.142   0.657
 1846SOL    HW1 7556   3.625   3.150   0.671
 1846SOL    HW2 7557   3.481   3.226   0.688
 1847SOL     OW 7558   3.252   2.437   0.078
 1847SOL    HW1 7559   3.198   2.416   0.159
 1847SOL    HW2 7560   3.343   2.396   0.087
 1848SOL     OW 7561   2.389   2.118   0.328
 1848SOL    HW1 7562   2.416   2.059   0.253
 1848SOL    HW2 7563   2.389   2.213   0.297
 1849SOL     OW 7564   3.454   3.491   1.625
 1849SOL    HW1 7565   3.481   3.525   1.535
 1849SOL    HW2 7566   3.533   3.453   1.671
 1850SOL     OW 7567   2.973   3.057   1.100
 1850SOL    HW1 7568   2.933   3.101   1.181
 1850SOL    HW2 7569   2.932   3.094   1.017
 1851SOL     OW 7570   3.500   2.961   1.079
 1851SOL    HW1 7571   3.505   3.042   1.138
 1851SOL    HW2 7572   3.414   2.963   1.028
 1852SOL     OW 7573   2.777   1.951   1.402
 1852SOL    HW1 7574   2.802   1.931   1.307
 1852SOL    HW2 7575   2.849   2.007   1.444
 1853SOL     OW 7576   2.272   2.675   1.251
 1853SOL    HW1 7577   2.358   2.687   1.301
 1853SOL    HW2 7578   2.230   2.588   1.278
 1854SOL     OW 7579   3.136   2.248   1.262
 1854SOL    HW1 7580   3.157   2.322   1.326
 1854SOL    HW2 7581   3.047   2.265   1.219
 1855SOL     OW 7582   1.926   3.426   1.331
 1855SOL    HW1 7583   1.880   3.508   1.297
 1855SOL    HW2 7584   2.024   3.445   1.340
 1856SOL     OW 7585   2.229   2.962   0.501
 1856SOL    HW1 7586   2.222   3.045   0.445
 1856SOL    HW2 7587   2.233   2.882   0.441
 1857SOL     OW 7588   2.428   2.399   0.865
 1857SOL    HW1 7589   2.440   2.465   0.791
 1857SOL    HW2 7590   2.474   2.433   0.948
 1858SOL     OW 7591   3.134   3.307   1.142
 1858SOL    HW1 7592   3.181   3.320   1.229
 1858SOL    HW2 7593   3.068   3.233   1.151
 1859SOL     OW 7594   3.444   2.501   0.472
 1859SOL    HW1 7595   3.413   2.562   0.545
 1859SOL    HW2 7596   3.494   2.553   0.403
 1860SOL     OW 7597   2.216   3.372   1.329
 1860SOL    HW1 7598   2.195   3.328   1.242
 1860SOL    HW2 7599   2.313   3.398   1.332
 1861SOL     OW 7600   2.264   2.613   1.598
 1861SOL    HW1 7601   2.332   2.668   1.551
 1861SOL    HW2 7602   2.304   2.525   1.625
 1862SOL     OW 7603   2.875   1.967   1.770
 1862SOL    HW1 7604   2.881   2.052   1.718
 1862SOL    HW2 7605   2.907   1.891   1.713
 1863SOL     OW 7606   2.366   1.912   1.740
 1863SOL    HW1 7607   2.324   1.855   1.670
 1863SOL    HW2 7608   2.300   1.981   1.772
 1864SOL     OW 7609   2.435   2.732   1.029
 1864SOL    HW1 7610   2.479   2.821   1.020
 1864SOL    HW2 7611   2.372   2.732   1.106
 1865SOL     OW 7612   3.222   2.724   1.045
 1865SOL    HW1 7613   3.147   2.724   0.979
 1865SOL    HW2 7614   3.259   2.632   1.054
 1866SOL     OW 7615   3.071   2.387   0.275
 1866SOL    HW1 7616   3.084   2.303   0.329
 1866SOL    HW2 7617   3.042   2.461   0.335
 1867SOL     OW 7618   2.169   2.075   1.231
 1867SOL    HW1 7619   2.146   2.112   1.321
 1867SOL    HW2 7620   2.139   1.980   1.225
 1868SOL     OW 7621   1.899   3.172   1.282
 1868SOL    HW1 7622   1.952   3.123   1.350
 1868SOL    HW2 7623   1.921   3.270   1.287
 1869SOL     OW 7624   2.594   2.496   1.064
 1869SOL    HW1 7625   2.653   2.470   0.988
 1869SOL    HW2 7626   2.566   2.592   1.053
 1870SOL     OW 7627   2.169   1.925   0.618
 1870SOL    HW1 7628   2.158   2.019   0.651
 1870SOL    HW2 7629   2.164   1.862   0.695
 1871SOL     OW 7630   3.484   2.229   0.374
 1871SOL    HW1 7631   3.486   2.153   0.438
 1871SOL    HW2 7632   3.436   2.306   0.414
 1872SOL     OW 7633   2.885   2.628   0.966
 1872SOL    HW1 7634   2.900   2.649   1.062
 1872SOL    HW2 7635   2.855   2.533   0.957
 1873SOL     OW 7636   2.212   2.760   1.804
 1873SOL    HW1 7637   2.288   2.804   1.852
 1873SOL    HW2 7638   2.247   2.713   1.722
 1874SOL     OW 7639   3.165   2.700   0.042
 1874SOL    HW1 7640   3.199   2.607   0.057
 1874SOL    HW2 7641   3.183   2.727  -0.053
 1875SOL     OW 7642   2.930   3.195   0.849
 1875SOL    HW1 7643   2.937   3.111   0.794
 1875SOL    HW2 7644   2.992   3.264   0.813
 1876SOL     OW 7645   2.181   2.672   0.949
 1876SOL    HW1 7646   2.274   2.708   0.954
 1876SOL    HW2 7647   2.175   2.587   1.001
 1877SOL     OW 7648   2.201   2.371   1.006
 1877SOL    HW1 7649   2.149   2.288   0.989
 1877SOL    HW2 7650   2.278   2.376   0.942
 1878SOL     OW 7651   3.000   2.242   1.678
 1878SOL    HW1 7652   2.955   2.305   1.742
 1878SOL    HW2 7653   3.093   2.273   1.661
 1879SOL     OW 7654   3.022   2.069   1.477
 1879SOL    HW1 7655   3.022   2.133   1.554
 1879SOL    HW2 7656   3.050   2.117   1.394
 1880SOL     OW 7657   2.366   3.430   0.910
 1880SOL    HW1 7658   2.432   3.504   0.919
 1880SOL    HW2 7659   2.410   3.351   0.868
 1881SOL     OW 7660   2.864   2.658   1.238
 1881SOL    HW1 7661   2.905   2.626   1.324
 1881SOL    HW2 7662   2.768   2.631   1.235
 1882SOL     OW 7663   1.902   2.406   1.114
 1882SOL    HW1 7664   1.987   2.373   1.073
 1882SOL    HW2 7665   1.915   2.421   1.212
 1883SOL     OW 7666   2.051   2.382   1.722
 1883SOL    HW1 7667   2.110   2.342   1.652
 1883SOL    HW2 7668   1.993   2.453   1.681
 1884SOL     OW 7669   2.677   2.434   0.325
 1884SOL    HW1 7670   2.684   2.345   0.279
 1884SOL    HW2 7671   2.583   2.468   0.317
 1885SOL     OW 7672   3.519   2.466   1.206
 1885SOL    HW1 7673   3.481   2.397   1.268
 1885SOL    HW2 7674   3.601   2.430   1.162
 1886SOL     OW 7675   2.114   3.426   1.744
 1886SOL    HW1 7676   2.084   3.483   1.820
 1886SOL    HW2 7677   2.107   3.329   1.770
 1887SOL     OW 7678   2.533   2.326   1.269
 1887SOL    HW1 7679   2.499   2.237   1.239
 1887SOL    HW2 7680   2.559   2.380   1.189
 1888SOL     OW 7681   2.792   3.540   1.465
 1888SOL    HW1 7682   2.768   3.522   1.370
 1888SOL    HW2 7683   2.822   3.634   1.475
 1889SOL     OW 7684   2.335   2.362   0.191
 1889SOL    HW1 7685   2.396   2.442   0.195
 1889SOL    HW2 7686   2.240   2.393   0.198
 1890SOL     OW 7687   2.021   2.999   1.466
 1890SOL    HW1 7688   2.043   2.938   1.542
 1890SOL    HW2 7689   2.031   2.950   1.380
 1891SOL     OW 7690   3.209   2.921   1.234
 1891SOL    HW1 7691   3.233   2.858   1.160
 1891SOL    HW2 7692   3.119   2.961   1.216
 1892SOL     OW 7693   3.164   2.717   0.309
 1892SOL    HW1 7694   3.078   2.686   0.351
 1892SOL    HW2 7695   3.160   2.703   0.210
 1893SOL     OW 7696   3.621   3.609   1.154
 1893SOL    HW1 7697   3.682   3.639   1.081
 1893SOL    HW2 7698   3.583   3.520   1.132
 1894SOL     OW 7699   3.114   3.593   1.128
 1894SOL    HW1 7700   3.198   3.598   1.074
 1894SOL    HW2 7701   3.091   3.497   1.146
 1895SOL     OW 7702   1.945   3.120   1.022
 1895SOL    HW1 7703   1.940   3.119   1.122
 1895SOL    HW2 7704   1.862   3.079   0.984
 1896SOL     OW 7705   2.550   3.524   1.716
 1896SOL    HW1 7706   2.494   3.605   1.725
 1896SOL    HW2 7707   2.602   3.528   1.630
 1897SOL     OW 7708   3.588   1.997   0.523
 1897SOL    HW1 7709   3.661   1.980   0.456
 1897SOL    HW2 7710   3.557   1.910   0.561
 1898SOL     OW 7711   3.250   3.435   0.477
 1898SOL    HW1 7712   3.317   3.447   0.403
 1898SOL    HW2 7713   3.210   3.524   0.500
 1899SOL     OW 7714   1.992   3.656   1.851
 1899SOL    HW1 7715   1.951   3.582   1.904
 1899SOL    HW2 7716   2.056   3.707   1.909
 1900SOL     OW 7717   3.142   2.789   0.672
 1900SOL    HW1 7718   3.202   2.708   0.674
 1900SOL    HW2 7719   3.182   2.858   0.612
 1901SOL     OW 7720   2.534   3.478   0.154
 1901SOL    HW1 7721   2.543   3.488   0.055
 1901SOL    HW2 7722   2.494   3.389   0.175
 1902SOL     OW 7723   3.512   3.582   1.394
 1902SOL    HW1 7724   3.565   3.592   1.310
 1902SOL    HW2 7725   3.485   3.672   1.428
 1903SOL     OW 7726   2.125   2.188   0.720
 1903SOL    HW1 7727   2.046   2.239   0.686
 1903SOL    HW2 7728   2.116   2.173   0.818
 1904SOL     OW 7729   3.056   3.474   0.031
 1904SOL    HW1 7730   3.062   3.381   0.068
 1904SOL    HW2 7731   2.997   3.474  -0.049
 1905SOL     OW 7732   2.684   2.864   1.372
 1905SOL    HW1 7733   2.724   2.863   1.280
 1905SOL    HW2 7734   2.694   2.956   1.412
 1906SOL     OW 7735   2.778   2.772   0.291
 1906SOL    HW1 7736   2.841   2.810   0.223
 1906SOL    HW2 7737   2.818   2.689   0.330
 1907SOL     OW 7738   3.366   3.469   0.044
 1907SOL    HW1 7739   3.274   3.506   0.051
 1907SOL    HW2 7740   3.404   3.489  -0.046
 1908SOL     OW 7741   2.234   3.150   1.490
 1908SOL    HW1 7742   2.221   3.243   1.456
 1908SOL    HW2 7743   2.150   3.098   1.477
 1909SOL     OW 7744   2.901   2.960   0.696
 1909SOL    HW1 7745   2.831   2.913   0.750
 1909SOL    HW2 7746   2.960   2.892   0.653
 1910SOL     OW 7747   2.876   2.098   0.971
 1910SOL    HW1 7748   2.868   2.062   0.878
 1910SOL    HW2 7749   2.874   2.022   1.036
 1911SOL     OW 7750   2.117   3.210   0.290
 1911SOL    HW1 7751   2.021   3.211   0.263
 1911SOL    HW2 7752   2.129   3.263   0.374
 1912SOL     OW 7753   1.967   2.875   1.726
 1912SOL    HW1 7754   1.890   2.842   1.780
 1912SOL    HW2 7755   2.052   2.845   1.768
 1913SOL     OW 7756   2.534   2.065   1.489
 1913SOL    HW1 7757   2.624   2.049   1.449
 1913SOL    HW2 7758   2.542   2.070   1.588
 1914SOL     OW 7759   3.302   2.718   1.398
 1914SOL    HW1 7760   3.245   2.770   1.335
 1914SOL    HW2 7761   3.398   2.730   1.374
 1915SOL     OW 7762   1.934   2.028   0.318
 1915SOL    HW1 7763   1.917   2.111   0.264
 1915SOL    HW2 7764   2.024   1.991   0.296
 1916SOL     OW 7765   2.475   2.704   1.431
 1916SOL    HW1 7766   2.531   2.785   1.414
 1916SOL    HW2 7767   2.534   2.624   1.434
 1917SOL     OW 7768   3.355   3.629   0.959
 1917SOL    HW1 7769   3.388   3.693   0.890
 1917SOL    HW2 7770   3.421   3.623   1.034
 1918SOL     OW 7771   2.578   2.427   1.708
 1918SOL    HW1 7772   2.597   2.492   1.782
 1918SOL    HW2 7773   2.638   2.347   1.717
 1919SOL     OW 7774   2.252   3.603   1.560
 1919SOL    HW1 7775   2.161   3.644   1.558
 1919SOL    HW2 7776   2.245   3.509   1.592
 1920SOL     OW 7777   3.536   2.745   1.254
 1920SOL    HW1 7778   3.509   2.656   1.217
 1920SOL    HW2 7779   3.537   2.813   1.181
 1921SOL     OW 7780   2.456   2.607   0.652
 1921SOL    HW1 7781   2.506   2.692   0.633
 1921SOL    HW2 7782   2.368   2.609   0.604
 1922SOL     OW 7783   2.523   3.652   0.953
 1922SOL    HW1 7784   2.477   3.740   0.940
 1922SOL    HW2 7785   2.622   3.664   0.946
 1923SOL     OW 7786   2.721   2.818   0.861
 1923SOL    HW1 7787   2.775   2.749   0.909
 1923SOL    HW2 7788   2.689   2.887   0.927
 1924SOL     OW 7789   2.945   2.846   0.087
 1924SOL    HW1 7790   2.922   2.899   0.005
 1924SOL    HW2 7791   3.026   2.790   0.068
 1925SOL     OW 7792   3.723   3.431   0.851
 1925SOL    HW1 7793   3.652   3.419   0.781
 1925SOL    HW2 7794   3.724   3.352   0.911
 1926SOL     OW 7795   2.083   3.176   1.844
 1926SOL    HW1 7796   2.018   3.103   1.823
 1926SOL    HW2 7797   2.087   3.190   1.942
 1927SOL     OW 7798   1.941   3.102   0.653
 1927SOL    HW1 7799   1.940   3.055   0.741
 1927SOL    HW2 7800   2.023   3.074   0.602
 1928SOL     OW 7801   2.534   3.253   1.624
 1928SOL    HW1 7802   2.456   3.203   1.662
 1928SOL    HW2 7803   2.531   3.348   1.655
 1929SOL     OW 7804   2.290   2.286   0.520
 1929SOL    HW1 7805   2.320   2.214   0.458
 1929SOL    HW2 7806   2.251   2.246   0.603
 1930SOL     OW 7807   3.567   3.349   1.104
 1930SOL    HW1 7808   3.474   3.324   1.077
 1930SOL    HW2 7809   3.593   3.299   1.186
 1931SOL     OW 7810   2.179   2.409   1.280
 1931SOL    HW1 7811   2.217   2.350   1.352
 1931SOL    HW2 7812   2.219   2.383   1.192
 1932SOL     OW 7813   2.674   3.448   0.687
 1932SOL    HW1 7814   2.706   3.458   0.593
 1932SOL    HW2 7815   2.595   3.386   0.689
 1933SOL     OW 7816   2.480   3.429   1.284
 1933SOL    HW1 7817   2.475   3.511   1.341
 1933SOL    HW2 7818   2.569   3.426   1.239
 1934SOL     OW 7819   3.162   2.315   0.691
 1934SOL    HW1 7820   3.103   2.395   0.695
 1934SOL    HW2 7821   3.177   2.280   0.784
 1935SOL     OW 7822   1.901   2.939   0.300
 1935SOL    HW1 7823   2.000   2.928   0.291
 1935SOL    HW2 7824   1.861   2.853   0.332
 1936SOL     OW 7825   2.092   2.490   1.975
 1936SOL    HW1 7826   1.999   2.488   2.012
 1936SOL    HW2 7827   2.093   2.451   1.883
 1937SOL     OW 7828   2.087   2.137   2.858
 1937SOL    HW1 7829   2.122   2.120   2.950
 1937SOL    HW2 7830   1.999   2.092   2.846
 1938SOL     OW 7831   1.881   2.230   2.509
 1938SOL    HW1 7832   1.799   2.273   2.548
 1938SOL    HW2 7833   1.853   2.157   2.446
 1939SOL     OW 7834   3.417   3.373   2.565
 1939SOL    HW1 7835   3.360   3.357   2.646
 1939SOL    HW2 7836   3.358   3.383   2.485
 1940SOL     OW 7837   2.630   3.006   2.885
 1940SOL    HW1 7838   2.552   3.023   2.945
 1940SOL    HW2 7839   2.664   3.093   2.849
 1941SOL     OW 7840   2.712   2.660   3.685
 1941SOL    HW1 7841   2.708   2.736   3.750
 1941SOL    HW2 7842   2.734   2.696   3.594
 1942SOL     OW 7843   2.548   3.023   3.665
 1942SOL    HW1 7844   2.608   3.102   3.679
 1942SOL    HW2 7845   2.462   3.054   3.624
 1943SOL     OW 7846   2.197   3.297   2.923
 1943SOL    HW1 7847   2.119   3.266   2.870
 1943SOL    HW2 7848   2.255   3.355   2.866
 1944SOL     OW 7849   3.322   3.367   3.201
 1944SOL    HW1 7850   3.346   3.461   3.227
 1944SOL    HW2 7851   3.306   3.313   3.283
 1945SOL     OW 7852   2.300   2.254   3.361
 1945SOL    HW1 7853   2.382   2.198   3.370
 1945SOL    HW2 7854   2.219   2.196   3.365
 1946SOL     OW 7855   2.093   3.575   2.345
 1946SOL    HW1 7856   2.127   3.652   2.399
 1946SOL    HW2 7857   2.137   3.575   2.255
 1947SOL     OW 7858   2.989   3.203   3.552
 1947SOL    HW1 7859   3.036   3.203   3.640
 1947SOL    HW2 7860   2.941   3.116   3.541
 1948SOL     OW 7861   2.092   3.296   2.400
 1948SOL    HW1 7862   2.066   3.392   2.400
 1948SOL    HW2 7863   2.021   3.242   2.445
 1949SOL     OW 7864   2.102   2.953   2.748
 1949SOL    HW1 7865   2.116   2.869   2.800
 1949SOL    HW2 7866   2.047   3.017   2.803
 1950SOL     OW 7867   2.468   2.826   1.985
 1950SOL    HW1 7868   2.475   2.910   1.931
 1950SOL    HW2 7869   2.514   2.839   2.073
 1951SOL     OW 7870   3.456   1.976   3.342
 1951SOL    HW1 7871   3.438   2.043   3.270
 1951SOL    HW2 7872   3.453   2.022   3.431
 1952SOL     OW 7873   1.889   3.458   1.979
 1952SOL    HW1 7874   1.870   3.362   2.000
 1952SOL    HW2 7875   1.856   3.516   2.054
 1953SOL     OW 7876   3.551   2.784   2.474
 1953SOL    HW1 7877   3.646   2.755   2.482
 1953SOL    HW2 7878   3.543   2.849   2.399
 1954SOL     OW 7879   3.503   2.970   2.294
 1954SOL    HW1 7880   3.589   2.972   2.242
 1954SOL    HW2 7881   3.517   3.017   2.382
 1955SOL     OW 7882   1.975   2.599   3.459
 1955SOL    HW1 7883   2.063   2.586   3.504
 1955SOL    HW2 7884   1.962   2.696   3.437
 1956SOL     OW 7885   2.475   3.227   2.588
 1956SOL    HW1 7886   2.426   3.140   2.597
 1956SOL    HW2 7887   2.452   3.270   2.501
 1957SOL     OW 7888   3.155   3.090   3.285
 1957SOL    HW1 7889   3.192   3.017   3.227
 1957SOL    HW2 7890   3.207   3.095   3.370
 1958SOL     OW 7891   2.671   1.866   2.364
 1958SOL    HW1 7892   2.711   1.957   2.355
 1958SOL    HW2 7893   2.571   1.874   2.370
 1959SOL     OW 7894   2.059   2.838   3.126
 1959SOL    HW1 7895   2.148   2.793   3.112
 1959SOL    HW2 7896   1.986   2.773   3.107
 1960SOL     OW 7897   3.387   2.861   2.052
 1960SOL    HW1 7898   3.324   2.785   2.065
 1960SOL    HW2 7899   3.435   2.879   2.138
 1961SOL     OW 7900   3.049   3.654   3.478
 1961SOL    HW1 7901   3.073   3.714   3.402
 1961SOL    HW2 7902   3.056   3.559   3.448
 1962SOL     OW 7903   3.328   3.279   2.815
 1962SOL    HW1 7904   3.269   3.285   2.895
 1962SOL    HW2 7905   3.313   3.191   2.769
 1963SOL     OW 7906   3.529   3.576   2.434
 1963SOL    HW1 7907   3.488   3.553   2.346
 1963SOL    HW2 7908   3.511   3.502   2.499
 1964SOL     OW 7909   2.460   2.591   2.132
 1964SOL    HW1 7910   2.484   2.660   2.064
 1964SOL    HW2 7911   2.382   2.624   2.186
 1965SOL     OW 7912   3.438   3.524   2.169
 1965SOL    HW1 7913   3.527   3.570   2.172
 1965SOL    HW2 7914   3.417   3.500   2.074
 1966SOL     OW 7915   2.669   2.467   3.327
 1966SOL    HW1 7916   2.622   2.464   3.416
 1966SOL    HW2 7917   2.618   2.412   3.261
 1967SOL     OW 7918   3.256   2.331   3.536
 1967SOL    HW1 7919   3.236   2.374   3.624
 1967SOL    HW2 7920   3.334   2.269   3.545
 1968SOL     OW 7921   2.835   2.752   3.434
 1968SOL    HW1 7922   2.881   2.668   3.405
 1968SOL    HW2 7923   2.779   2.786   3.359
 1969SOL     OW 7924   2.853   2.272   3.104
 1969SOL    HW1 7925   2.776   2.306   3.158
 1969SOL    HW2 7926   2.819   2.221   3.025
 1970SOL     OW 7927   1.938   2.673   2.651
 1970SOL    HW1 7928   2.037   2.661   2.660
 1970SOL    HW2 7929   1.914   2.768   2.672
 1971SOL     OW 7930   1.992   3.683   3.433
 1971SOL    HW1 7931   1.982   3.668   3.532
 1971SOL    HW2 7932   1.906   3.719   3.397
 1972SOL     OW 7933   2.727   2.210   2.057
 1972SOL    HW1 7934   2.786   2.273   2.008
 1972SOL    HW2 7935   2.746   2.116   2.028
 1973SOL     OW 7936   3.581   2.447   3.693
 1973SOL    HW1 7937   3.555   2.536   3.657
 1973SOL    HW2 7938   3.579   2.379   3.620
 1974SOL     OW 7939   3.224   3.006   2.407
 1974SOL    HW1 7940   3.307   2.977   2.359
 1974SOL    HW2 7941   3.175   3.073   2.351
 1975SOL     OW 7942   2.412   2.058   2.747
 1975SOL    HW1 7943   2.407   2.053   2.847
 1975SOL    HW2 7944   2.414   2.154   2.718
 1976SOL     OW 7945   2.213   3.663   2.715
 1976SOL    HW1 7946   2.263   3.577   2.721
 1976SOL    HW2 7947   2.278   3.740   2.712
 1977SOL     OW 7948   3.657   2.928   2.735
 1977SOL    HW1 7949   3.595   2.913   2.659
 1977SOL    HW2 7950   3.605   2.939   2.820
 1978SOL     OW 7951   3.089   3.412   3.368
 1978SOL    HW1 7952   3.095   3.335   3.432
 1978SOL    HW2 7953   3.037   3.386   3.288
 1979SOL     OW 7954   2.183   2.805   2.104
 1979SOL    HW1 7955   2.265   2.844   2.062
 1979SOL    HW2 7956   2.156   2.723   2.055
 1980SOL     OW 7957   3.320   2.597   2.590
 1980SOL    HW1 7958   3.315   2.532   2.665
 1980SOL    HW2 7959   3.400   2.656   2.603
 1981SOL     OW 7960   3.494   3.239   1.943
 1981SOL    HW1 7961   3.462   3.333   1.933
 1981SOL    HW2 7962   3.418   3.176   1.931
 1982SOL     OW 7963   2.326   3.605   2.185
 1982SOL    HW1 7964   2.359   3.644   2.271
 1982SOL    HW2 7965   2.402   3.598   2.120
 1983SOL     OW 7966   3.262   1.969   2.288
 1983SOL    HW1 7967   3.238   1.932   2.198
 1983SOL    HW2 7968   3.361   1.985   2.292
 1984SOL     OW 7969   2.111   3.647   3.103
 1984SOL    HW1 7970   2.168   3.582   3.153
 1984SOL    HW2 7971   2.095   3.614   3.010
 1985SOL     OW 7972   2.802   3.560   2.766
 1985SOL    HW1 7973   2.882   3.503   2.787
 1985SOL    HW2 7974   2.753   3.520   2.689
 1986SOL     OW 7975   2.244   2.562   2.342
 1986SOL    HW1 7976   2.289   2.472   2.339
 1986SOL    HW2 7977   2.150   2.551   2.375
 1987SOL     OW 7978   3.409   2.084   3.591
 1987SOL    HW1 7979   3.404   2.121   3.683
 1987SOL    HW2 7980   3.337   2.015   3.579
 1988SOL     OW 7981   2.476   1.984   1.979
 1988SOL    HW1 7982   2.574   1.962   1.986
 1988SOL    HW2 7983   2.445   1.967   1.886
 1989SOL     OW 7984   3.213   2.452   3.295
 1989SOL    HW1 7985   3.241   2.409   3.380
 1989SOL    HW2 7986   3.238   2.548   3.296
 1990SOL     OW 7987   2.665   3.264   2.786
 1990SOL    HW1 7988   2.755   3.278   2.744
 1990SOL    HW2 7989   2.594   3.266   2.715
 1991SOL     OW 7990   2.401   1.926   2.374
 1991SOL    HW1 7991   2.320   1.927   2.432
 1991SOL    HW2 7992   2.404   2.009   2.319
 1992SOL     OW 7993   3.296   3.050   1.903
 1992SOL    HW1 7994   3.328   2.974   1.960
 1992SOL    HW2 7995   3.204   3.077   1.933
 1993SOL     OW 7996   2.797   2.098   2.342
 1993SOL    HW1 7997   2.749   2.139   2.264
 1993SOL    HW2 7998   2.896   2.096   2.323
 1994SOL     OW 7999   2.938   2.545   3.326
 1994SOL    HW1 8000   2.858   2.484   3.329
 1994SOL    HW2 8001   3.019   2.492   3.302
 1995SOL     OW 8002   3.089   3.432   2.655
 1995SOL    HW1 8003   3.110   3.506   2.590
 1995SOL    HW2 8004   3.157   3.432   2.728
 1996SOL     OW 8005   2.321   3.014   2.603
 1996SOL    HW1 8006   2.250   2.987   2.668
 1996SOL    HW2 8007   2.295   2.986   2.510
 1997SOL     OW 8008   3.133   3.659   2.453
 1997SOL    HW1 8009   3.177   3.723   2.389
 1997SOL    HW2 8010   3.083   3.711   2.523
 1998SOL     OW 8011   1.940   2.418   3.248
 1998SOL    HW1 8012   2.032   2.417   3.207
 1998SOL    HW2 8013   1.934   2.492   3.315
 1999SOL     OW 8014   2.423   2.084   3.009
 1999SOL    HW1 8015   2.461   2.000   3.046
 1999SOL    HW2 8016   2.335   2.103   3.053
 2000SOL     OW 8017   2.879   1.901   2.615
 2000SOL    HW1 8018   2.807   1.906   2.546
 2000SOL    HW2 8019   2.855   1.832   2.684
 2001SOL     OW 8020   3.291   3.035   2.729
 2001SOL    HW1 8021   3.236   2.951   2.722
 2001SOL    HW2 8022   3.317   3.064   2.637
 2002SOL     OW 8023   2.350   3.247   2.036
 2002SOL    HW1 8024   2.263   3.232   2.083
 2002SOL    HW2 8025   2.333   3.273   1.941
 2003SOL     OW 8026   3.526   3.142   2.519
 2003SOL    HW1 8027   3.625   3.150   2.533
 2003SOL    HW2 8028   3.481   3.226   2.550
 2004SOL     OW 8029   2.389   2.118   2.190
 2004SOL    HW1 8030   2.416   2.059   2.115
 2004SOL    HW2 8031   2.389   2.213   2.159
 2005SOL     OW 8032   3.616   3.085   3.450
 2005SOL    HW1 8033   3.707   3.046   3.437
 2005SOL    HW2 8034   3.624   3.181   3.474
 2006SOL     OW 8035   3.454   3.491   3.487
 2006SOL    HW1 8036   3.481   3.525   3.397
 2006SOL    HW2 8037   3.533   3.453   3.533
 2007SOL     OW 8038   3.500   2.961   2.941
 2007SOL    HW1 8039   3.505   3.042   3.000
 2007SOL    HW2 8040   3.414   2.963   2.890
 2008SOL     OW 8041   2.777   1.951   3.264
 2008SOL    HW1 8042   2.802   1.931   3.169
 2008SOL    HW2 8043   2.849   2.007   3.306
 2009SOL     OW 8044   2.842   2.978   3.581
 2009SOL    HW1 8045   2.743   2.984   3.591
 2009SOL    HW2 8046   2.865   2.898   3.525
 2010SOL     OW 8047   2.272   2.675   3.113
 2010SOL    HW1 8048   2.358   2.687   3.163
 2010SOL    HW2 8049   2.230   2.588   3.140
 2011SOL     OW 8050   1.926   3.426   3.193
 2011SOL    HW1 8051   1.880   3.508   3.159
 2011SOL    HW2 8052   2.024   3.445   3.202
 2012SOL     OW 8053   2.229   2.962   2.363
 2012SOL    HW1 8054   2.222   3.045   2.307
 2012SOL    HW2 8055   2.233   2.882   2.303
 2013SOL     OW 8056   3.114   3.210   2.250
 2013SOL    HW1 8057   3.164   3.287   2.290
 2013SOL    HW2 8058   3.019   3.212   2.282
 2014SOL     OW 8059   3.134   3.307   3.004
 2014SOL    HW1 8060   3.181   3.320   3.091
 2014SOL    HW2 8061   3.068   3.233   3.013
 2015SOL     OW 8062   3.449   2.641   3.532
 2015SOL    HW1 8063   3.357   2.679   3.527
 2015SOL    HW2 8064   3.509   2.688   3.467
 2016SOL     OW 8065   2.875   1.967   3.632
 2016SOL    HW1 8066   2.881   2.052   3.580
 2016SOL    HW2 8067   2.907   1.891   3.575
 2017SOL     OW 8068   2.435   2.732   2.891
 2017SOL    HW1 8069   2.479   2.821   2.882
 2017SOL    HW2 8070   2.372   2.732   2.968
 2018SOL     OW 8071   2.169   2.075   3.093
 2018SOL    HW1 8072   2.146   2.112   3.183
 2018SOL    HW2 8073   2.139   1.980   3.087
 2019SOL     OW 8074   1.899   3.172   3.144
 2019SOL    HW1 8075   1.952   3.123   3.212
 2019SOL    HW2 8076   1.921   3.270   3.149
 2020SOL     OW 8077   3.590   2.797   3.716
 2020SOL    HW1 8078   3.544   2.790   3.627
 2020SOL    HW2 8079   3.528   2.841   3.782
 2021SOL     OW 8080   2.169   1.925   2.480
 2021SOL    HW1 8081   2.158   2.019   2.513
 2021SOL    HW2 8082   2.164   1.862   2.557
 2022SOL     OW 8083   2.885   2.628   2.828
 2022SOL    HW1 8084   2.900   2.649   2.924
 2022SOL    HW2 8085   2.855   2.533   2.819
 2023SOL     OW 8086   2.842   3.435   3.562
 2023SOL    HW1 8087   2.822   3.479   3.474
 2023SOL    HW2 8088   2.881   3.344   3.546
 2024SOL     OW 8089   3.721   3.380   3.467
 2024SOL    HW1 8090   3.735   3.407   3.372
 2024SOL    HW2 8091   3.804   3.402   3.520
 2025SOL     OW 8092   2.212   2.760   3.666
 2025SOL    HW1 8093   2.288   2.804   3.714
 2025SOL    HW2 8094   2.247   2.713   3.584
 2026SOL     OW 8095   3.402   2.136   1.987
 2026SOL    HW1 8096   3.341   2.061   2.010
 2026SOL    HW2 8097   3.424   2.188   2.070
 2027SOL     OW 8098   3.165   2.700   1.904
 2027SOL    HW1 8099   3.199   2.607   1.919
 2027SOL    HW2 8100   3.183   2.727   1.809
 2028SOL     OW 8101   2.930   3.195   2.711
 2028SOL    HW1 8102   2.937   3.111   2.656
 2028SOL    HW2 8103   2.992   3.264   2.675
 2029SOL     OW 8104   2.181   2.672   2.811
 2029SOL    HW1 8105   2.274   2.708   2.816
 2029SOL    HW2 8106   2.175   2.587   2.863
 2030SOL     OW 8107   2.201   2.371   2.868
 2030SOL    HW1 8108   2.149   2.288   2.851
 2030SOL    HW2 8109   2.278   2.376   2.804
 2031SOL     OW 8110   3.000   2.242   3.540
 2031SOL    HW1 8111   2.955   2.305   3.604
 2031SOL    HW2 8112   3.093   2.273   3.523
 2032SOL     OW 8113   3.022   2.069   3.339
 2032SOL    HW1 8114   3.022   2.133   3.416
 2032SOL    HW2 8115   3.050   2.117   3.256
 2033SOL     OW 8116   1.950   3.663   2.789
 2033SOL    HW1 8117   1.908   3.577   2.762
 2033SOL    HW2 8118   2.044   3.666   2.755
 2034SOL     OW 8119   2.366   3.430   2.772
 2034SOL    HW1 8120   2.432   3.504   2.781
 2034SOL    HW2 8121   2.410   3.351   2.730
 2035SOL     OW 8122   2.864   2.658   3.100
 2035SOL    HW1 8123   2.905   2.626   3.186
 2035SOL    HW2 8124   2.768   2.631   3.097
 2036SOL     OW 8125   1.902   2.406   2.976
 2036SOL    HW1 8126   1.987   2.373   2.935
 2036SOL    HW2 8127   1.915   2.421   3.074
 2037SOL     OW 8128   3.231   2.812   3.522
 2037SOL    HW1 8129   3.270   2.901   3.542
 2037SOL    HW2 8130   3.241   2.792   3.425
 2038SOL     OW 8131   2.677   2.434   2.187
 2038SOL    HW1 8132   2.684   2.345   2.141
 2038SOL    HW2 8133   2.583   2.468   2.179
 2039SOL     OW 8134   2.114   3.426   3.606
 2039SOL    HW1 8135   2.084   3.483   3.682
 2039SOL    HW2 8136   2.107   3.329   3.632
 2040SOL     OW 8137   2.533   2.326   3.131
 2040SOL    HW1 8138   2.499   2.237   3.101
 2040SOL    HW2 8139   2.559   2.380   3.051
 2041SOL     OW 8140   2.792   3.540   3.327
 2041SOL    HW1 8141   2.768   3.522   3.232
 2041SOL    HW2 8142   2.822   3.634   3.337
 2042SOL     OW 8143   2.335   2.362   2.053
 2042SOL    HW1 8144   2.396   2.442   2.057
 2042SOL    HW2 8145   2.240   2.393   2.060
 2043SOL     OW 8146   2.021   2.999   3.328
 2043SOL    HW1 8147   2.043   2.938   3.404
 2043SOL    HW2 8148   2.031   2.950   3.242
 2044SOL     OW 8149   3.621   3.609   3.016
 2044SOL    HW1 8150   3.682   3.639   2.943
 2044SOL    HW2 8151   3.583   3.520   2.994
 2045SOL     OW 8152   3.114   3.593   2.990
 2045SOL    HW1 8153   3.198   3.598   2.936
 2045SOL    HW2 8154   3.091   3.497   3.008
 2046SOL     OW 8155   1.945   3.120   2.884
 2046SOL    HW1 8156   1.940   3.119   2.984
 2046SOL    HW2 8157   1.862   3.079   2.846
 2047SOL     OW 8158   2.550   3.524   3.578
 2047SOL    HW1 8159   2.494   3.605   3.587
 2047SOL    HW2 8160   2.602   3.528   3.492
 2048SOL     OW 8161   3.588   1.997   2.385
 2048SOL    HW1 8162   3.661   1.980   2.318
 2048SOL    HW2 8163   3.557   1.910   2.423
 2049SOL     OW 8164   3.250   3.435   2.339
 2049SOL    HW1 8165   3.317   3.447   2.265
 2049SOL    HW2 8166   3.210   3.524   2.362
 2050SOL     OW 8167   1.992   3.656   3.713
 2050SOL    HW1 8168   1.951   3.582   3.766
 2050SOL    HW2 8169   2.056   3.707   3.771
 2051SOL     OW 8170   3.142   2.789   2.534
 2051SOL    HW1 8171   3.202   2.708   2.536
 2051SOL    HW2 8172   3.182   2.858   2.474
 2052SOL     OW 8173   2.534   3.478   2.016
 2052SOL    HW1 8174   2.543   3.488   1.917
 2052SOL    HW2 8175   2.494   3.389   2.037
 2053SOL     OW 8176   3.512   3.582   3.256
 2053SOL    HW1 8177   3.565   3.592   3.172
 2053SOL    HW2 8178   3.485   3.672   3.290
 2054SOL     OW 8179   3.703   2.037   2.825
 2054SOL    HW1 8180   3.742   1.952   2.789
 2054SOL    HW2 8181   3.605   2.039   2.806
 2055SOL     OW 8182   2.684   2.864   3.234
 2055SOL    HW1 8183   2.724   2.863   3.142
 2055SOL    HW2 8184   2.694   2.956   3.274
 2056SOL     OW 8185   2.778   2.772   2.153
 2056SOL    HW1 8186   2.841   2.810   2.085
 2056SOL    HW2 8187   2.818   2.689   2.192
 2057SOL     OW 8188   2.234   3.150   3.352
 2057SOL    HW1 8189   2.221   3.243   3.318
 2057SOL    HW2 8190   2.150   3.098   3.339
 2058SOL     OW 8191   3.476   3.154   3.151
 2058SOL    HW1 8192   3.536   3.157   3.231
 2058SOL    HW2 8193   3.401   3.218   3.164
 2059SOL     OW 8194   2.901   2.960   2.558
 2059SOL    HW1 8195   2.831   2.913   2.612
 2059SOL    HW2 8196   2.960   2.892   2.515
 2060SOL     OW 8197   2.876   2.098   2.833
 2060SOL    HW1 8198   2.868   2.062   2.740
 2060SOL    HW2 8199   2.874   2.022   2.898
 2061SOL     OW 8200   2.117   3.210   2.152
 2061SOL    HW1 8201   2.021   3.211   2.125
 2061SOL    HW2 8202   2.129   3.263   2.236
 2062SOL     OW 8203   1.967   2.875   3.588
 2062SOL    HW1 8204   1.890   2.842   3.642
 2062SOL    HW2 8205   2.052   2.845   3.630
 2063SOL     OW 8206   1.937   2.207   1.895
 2063SOL    HW1 8207   1.845   2.179   1.866
 2063SOL    HW2 8208   1.968   2.284   1.839
 2064SOL     OW 8209   1.934   2.028   2.180
 2064SOL    HW1 8210   1.917   2.111   2.126
 2064SOL    HW2 8211   2.024   1.991   2.158
 2065SOL     OW 8212   2.475   2.704   3.293
 2065SOL    HW1 8213   2.531   2.785   3.276
 2065SOL    HW2 8214   2.534   2.624   3.296
 2066SOL     OW 8215   3.355   3.629   2.821
 2066SOL    HW1 8216   3.388   3.693   2.752
 2066SOL    HW2 8217   3.421   3.623   2.896
 2067SOL     OW 8218   2.578   2.427   3.570
 2067SOL    HW1 8219   2.597   2.492   3.644
 2067SOL    HW2 8220   2.638   2.347   3.579
 2068SOL     OW 8221   3.312   3.082   3.495
 2068SOL    HW1 8222   3.303   3.072   3.594
 2068SOL    HW2 8223   3.408   3.075   3.469
 2069SOL     OW 8224   3.087   2.187   2.311
 2069SOL    HW1 8225   3.152   2.113   2.300
 2069SOL    HW2 8226   3.107   2.237   2.395
 2070SOL     OW 8227   3.639   2.204   3.504
 2070SOL    HW1 8228   3.622   2.235   3.410
 2070SOL    HW2 8229   3.555   2.167   3.542
 2071SOL     OW 8230   2.523   3.652   2.815
 2071SOL    HW1 8231   2.477   3.740   2.802
 2071SOL    HW2 8232   2.622   3.664   2.808
 2072SOL     OW 8233   2.945   2.846   1.949
 2072SOL    HW1 8234   2.922   2.899   1.867
 2072SOL    HW2 8235   3.026   2.790   1.930
 2073SOL     OW 8236   3.723   3.431   2.713
 2073SOL    HW1 8237   3.652   3.419   2.643
 2073SOL    HW2 8238   3.724   3.352   2.773
 2074SOL     OW 8239   2.083   3.176   3.706
 2074SOL    HW1 8240   2.018   3.103   3.685
 2074SOL    HW2 8241   2.087   3.190   3.804
 2075SOL     OW 8242   1.941   3.102   2.515
 2075SOL    HW1 8243   1.940   3.055   2.603
 2075SOL    HW2 8244   2.023   3.074   2.464
 2076SOL     OW 8245   3.567   3.349   2.966
 2076SOL    HW1 8246   3.474   3.324   2.939
 2076SOL    HW2 8247   3.593   3.299   3.048
 2077SOL     OW 8248   2.179   2.409   3.142
 2077SOL    HW1 8249   2.217   2.350   3.214
 2077SOL    HW2 8250   2.219   2.383   3.054
 2078SOL     OW 8251   2.863   1.896   3.016
 2078SOL    HW1 8252   2.800   1.824   2.985
 2078SOL    HW2 8253   2.956   1.860   3.016
 2079SOL     OW 8254   3.214   1.914   2.030
 2079SOL    HW1 8255   3.249   1.873   1.946
 2079SOL    HW2 8256   3.124   1.876   2.050
 2080SOL     OW 8257   3.455   2.083   2.744
 2080SOL    HW1 8258   3.371   2.082   2.798
 2080SOL    HW2 8259   3.457   2.166   2.688
 2081SOL     OW 8260   1.901   2.939   2.162
 2081SOL    HW1 8261   2.000   2.928   2.153
 2081SOL    HW2 8262   1.861   2.853   2.194
 2082SOL     OW 8263   1.881   2.230   4.371
 2082SOL    HW1 8264   1.799   2.273   4.410
 2082SOL    HW2 8265   1.853   2.157   4.308
 2083SOL     OW 8266   3.417   3.373   4.427
 2083SOL    HW1 8267   3.360   3.357   4.508
 2083SOL    HW2 8268   3.358   3.383   4.347
 2084SOL     OW 8269   2.997   2.565   4.441
 2084SOL    HW1 8270   3.054   2.643   4.416
 2084SOL    HW2 8271   2.937   2.591   4.517
 2085SOL     OW 8272   3.617   2.469   3.955
 2085SOL    HW1 8273   3.605   2.456   3.856
 2085SOL    HW2 8274   3.587   2.388   4.004
 2086SOL     OW 8275   2.197   3.297   4.785
 2086SOL    HW1 8276   2.119   3.266   4.732
 2086SOL    HW2 8277   2.255   3.355   4.728
 2087SOL     OW 8278   3.465   2.309   4.461
 2087SOL    HW1 8279   3.391   2.355   4.411
 2087SOL    HW2 8280   3.516   2.377   4.514
 2088SOL     OW 8281   2.093   3.575   4.207
 2088SOL    HW1 8282   2.127   3.652   4.261
 2088SOL    HW2 8283   2.137   3.575   4.117
 2089SOL     OW 8284   2.092   3.296   4.262
 2089SOL    HW1 8285   2.066   3.392   4.262
 2089SOL    HW2 8286   2.021   3.242   4.307
 2090SOL     OW 8287   2.102   2.953   4.610
 2090SOL    HW1 8288   2.116   2.869   4.662
 2090SOL    HW2 8289   2.047   3.017   4.665
 2091SOL     OW 8290   2.482   3.648   5.163
 2091SOL    HW1 8291   2.390   3.631   5.198
 2091SOL    HW2 8292   2.510   3.740   5.189
 2092SOL     OW 8293   2.468   2.826   3.847
 2092SOL    HW1 8294   2.475   2.910   3.793
 2092SOL    HW2 8295   2.514   2.839   3.935
 2093SOL     OW 8296   3.704   3.629   4.083
 2093SOL    HW1 8297   3.758   3.600   4.163
 2093SOL    HW2 8298   3.734   3.719   4.054
 2094SOL     OW 8299   1.889   3.458   3.841
 2094SOL    HW1 8300   1.870   3.362   3.862
 2094SOL    HW2 8301   1.856   3.516   3.916
 2095SOL     OW 8302   3.551   2.784   4.336
 2095SOL    HW1 8303   3.646   2.755   4.344
 2095SOL    HW2 8304   3.543   2.849   4.261
 2096SOL     OW 8305   3.503   2.970   4.156
 2096SOL    HW1 8306   3.589   2.972   4.104
 2096SOL    HW2 8307   3.517   3.017   4.244
 2097SOL     OW 8308   2.475   3.227   4.450
 2097SOL    HW1 8309   2.426   3.140   4.459
 2097SOL    HW2 8310   2.452   3.270   4.363
 2098SOL     OW 8311   2.671   1.866   4.226
 2098SOL    HW1 8312   2.711   1.957   4.217
 2098SOL    HW2 8313   2.571   1.874   4.232
 2099SOL     OW 8314   3.387   2.861   3.914
 2099SOL    HW1 8315   3.324   2.785   3.927
 2099SOL    HW2 8316   3.435   2.879   4.000
 2100SOL     OW 8317   3.328   3.279   4.677
 2100SOL    HW1 8318   3.269   3.285   4.757
 2100SOL    HW2 8319   3.313   3.191   4.631
 2101SOL     OW 8320   3.529   3.576   4.296
 2101SOL    HW1 8321   3.488   3.553   4.208
 2101SOL    HW2 8322   3.511   3.502   4.361
 2102SOL     OW 8323   2.460   2.591   3.994
 2102SOL    HW1 8324   2.484   2.660   3.926
 2102SOL    HW2 8325   2.382   2.624   4.048
 2103SOL     OW 8326   3.143   2.207   4.668
 2103SOL    HW1 8327   3.057   2.157   4.655
 2103SOL    HW2 8328   3.205   2.153   4.724
 2104SOL     OW 8329   3.438   3.524   4.031
 2104SOL    HW1 8330   3.527   3.570   4.034
 2104SOL    HW2 8331   3.417   3.500   3.936
 2105SOL     OW 8332   2.853   2.272   4.966
 2105SOL    HW1 8333   2.776   2.306   5.020
 2105SOL    HW2 8334   2.819   2.221   4.887
 2106SOL     OW 8335   2.903   2.563   4.153
 2106SOL    HW1 8336   2.929   2.559   4.249
 2106SOL    HW2 8337   2.818   2.512   4.139
 2107SOL     OW 8338   2.727   2.210   3.919
 2107SOL    HW1 8339   2.786   2.273   3.870
 2107SOL    HW2 8340   2.746   2.116   3.890
 2108SOL     OW 8341   3.224   3.006   4.269
 2108SOL    HW1 8342   3.307   2.977   4.221
 2108SOL    HW2 8343   3.175   3.073   4.213
 2109SOL     OW 8344   2.870   3.318   4.201
 2109SOL    HW1 8345   2.824   3.390   4.149
 2109SOL    HW2 8346   2.866   3.338   4.299
 2110SOL     OW 8347   2.213   3.663   4.577
 2110SOL    HW1 8348   2.263   3.577   4.583
 2110SOL    HW2 8349   2.278   3.740   4.574
 2111SOL     OW 8350   3.657   2.928   4.597
 2111SOL    HW1 8351   3.595   2.913   4.521
 2111SOL    HW2 8352   3.605   2.939   4.682
 2112SOL     OW 8353   2.183   2.805   3.966
 2112SOL    HW1 8354   2.265   2.844   3.924
 2112SOL    HW2 8355   2.156   2.723   3.917
 2113SOL     OW 8356   3.320   2.597   4.452
 2113SOL    HW1 8357   3.315   2.532   4.527
 2113SOL    HW2 8358   3.400   2.656   4.465
 2114SOL     OW 8359   2.973   3.638   3.961
 2114SOL    HW1 8360   2.913   3.576   4.011
 2114SOL    HW2 8361   3.004   3.594   3.876
 2115SOL     OW 8362   3.494   3.239   3.805
 2115SOL    HW1 8363   3.462   3.333   3.795
 2115SOL    HW2 8364   3.418   3.176   3.793
 2116SOL     OW 8365   2.326   3.605   4.047
 2116SOL    HW1 8366   2.359   3.644   4.133
 2116SOL    HW2 8367   2.402   3.598   3.982
 2117SOL     OW 8368   3.262   1.969   4.150
 2117SOL    HW1 8369   3.238   1.932   4.060
 2117SOL    HW2 8370   3.361   1.985   4.154
 2118SOL     OW 8371   2.111   3.647   4.965
 2118SOL    HW1 8372   2.168   3.582   5.015
 2118SOL    HW2 8373   2.095   3.614   4.872
 2119SOL     OW 8374   2.802   3.560   4.628
 2119SOL    HW1 8375   2.882   3.503   4.649
 2119SOL    HW2 8376   2.753   3.520   4.551
 2120SOL     OW 8377   2.401   1.926   4.236
 2120SOL    HW1 8378   2.320   1.927   4.294
 2120SOL    HW2 8379   2.404   2.009   4.181
 2121SOL     OW 8380   3.296   3.050   3.765
 2121SOL    HW1 8381   3.328   2.974   3.822
 2121SOL    HW2 8382   3.204   3.077   3.795
 2122SOL     OW 8383   2.797   2.098   4.204
 2122SOL    HW1 8384   2.749   2.139   4.126
 2122SOL    HW2 8385   2.896   2.096   4.185
 2123SOL     OW 8386   3.089   3.432   4.517
 2123SOL    HW1 8387   3.110   3.506   4.452
 2123SOL    HW2 8388   3.157   3.432   4.590
 2124SOL     OW 8389   2.321   3.014   4.465
 2124SOL    HW1 8390   2.250   2.987   4.530
 2124SOL    HW2 8391   2.295   2.986   4.372
 2125SOL     OW 8392   3.133   3.659   4.315
 2125SOL    HW1 8393   3.177   3.723   4.251
 2125SOL    HW2 8394   3.083   3.711   4.385
 2126SOL     OW 8395   2.894   2.411   3.740
 2126SOL    HW1 8396   2.853   2.493   3.701
 2126SOL    HW2 8397   2.958   2.437   3.813
 2127SOL     OW 8398   2.728   2.316   4.366
 2127SOL    HW1 8399   2.696   2.388   4.304
 2127SOL    HW2 8400   2.752   2.235   4.313
 2128SOL     OW 8401   2.879   1.901   4.477
 2128SOL    HW1 8402   2.807   1.906   4.408
 2128SOL    HW2 8403   2.855   1.832   4.546
 2129SOL     OW 8404   3.291   3.035   4.591
 2129SOL    HW1 8405   3.236   2.951   4.584
 2129SOL    HW2 8406   3.317   3.064   4.499
 2130SOL     OW 8407   3.328   2.452   4.716
 2130SOL    HW1 8408   3.298   2.357   4.723
 2130SOL    HW2 8409   3.401   2.468   4.782
 2131SOL     OW 8410   2.350   3.247   3.898
 2131SOL    HW1 8411   2.263   3.232   3.945
 2131SOL    HW2 8412   2.333   3.273   3.803
 2132SOL     OW 8413   3.526   3.142   4.381
 2132SOL    HW1 8414   3.625   3.150   4.395
 2132SOL    HW2 8415   3.481   3.226   4.412
 2133SOL     OW 8416   3.252   2.437   3.802
 2133SOL    HW1 8417   3.198   2.416   3.883
 2133SOL    HW2 8418   3.343   2.396   3.811
 2134SOL     OW 8419   2.389   2.118   4.052
 2134SOL    HW1 8420   2.416   2.059   3.977
 2134SOL    HW2 8421   2.389   2.213   4.021
 2135SOL     OW 8422   3.500   2.961   4.803
 2135SOL    HW1 8423   3.505   3.042   4.862
 2135SOL    HW2 8424   3.414   2.963   4.752
 2136SOL     OW 8425   2.567   2.912   4.092
 2136SOL    HW1 8426   2.553   2.919   4.191
 2136SOL    HW2 8427   2.651   2.861   4.074
 2137SOL     OW 8428   2.229   2.962   4.225
 2137SOL    HW1 8429   2.222   3.045   4.169
 2137SOL    HW2 8430   2.233   2.882   4.165
 2138SOL     OW 8431   3.114   3.210   4.112
 2138SOL    HW1 8432   3.164   3.287   4.152
 2138SOL    HW2 8433   3.019   3.212   4.144
 2139SOL     OW 8434   3.134   3.307   4.866
 2139SOL    HW1 8435   3.181   3.320   4.953
 2139SOL    HW2 8436   3.068   3.233   4.875
 2140SOL     OW 8437   3.444   2.501   4.196
 2140SOL    HW1 8438   3.413   2.562   4.269
 2140SOL    HW2 8439   3.494   2.553   4.127
 2141SOL     OW 8440   2.216   3.372   5.053
 2141SOL    HW1 8441   2.195   3.328   4.966
 2141SOL    HW2 8442   2.313   3.398   5.056
 2142SOL     OW 8443   3.222   2.724   4.769
 2142SOL    HW1 8444   3.147   2.724   4.703
 2142SOL    HW2 8445   3.259   2.632   4.778
 2143SOL     OW 8446   3.071   2.387   3.999
 2143SOL    HW1 8447   3.084   2.303   4.053
 2143SOL    HW2 8448   3.042   2.461   4.059
 2144SOL     OW 8449   1.899   3.172   5.006
 2144SOL    HW1 8450   1.952   3.123   5.074
 2144SOL    HW2 8451   1.921   3.270   5.011
 2145SOL     OW 8452   3.484   2.229   4.098
 2145SOL    HW1 8453   3.486   2.153   4.162
 2145SOL    HW2 8454   3.436   2.306   4.138
 2146SOL     OW 8455   2.885   2.628   4.690
 2146SOL    HW1 8456   2.900   2.649   4.786
 2146SOL    HW2 8457   2.855   2.533   4.681
 2147SOL     OW 8458   3.402   2.136   3.849
 2147SOL    HW1 8459   3.341   2.061   3.872
 2147SOL    HW2 8460   3.424   2.188   3.932
 2148SOL     OW 8461   3.165   2.700   3.766
 2148SOL    HW1 8462   3.199   2.607   3.781
 2148SOL    HW2 8463   3.183   2.727   3.671
 2149SOL     OW 8464   2.930   3.195   4.573
 2149SOL    HW1 8465   2.937   3.111   4.518
 2149SOL    HW2 8466   2.992   3.264   4.537
 2150SOL     OW 8467   2.201   2.371   4.730
 2150SOL    HW1 8468   2.149   2.288   4.713
 2150SOL    HW2 8469   2.278   2.376   4.666
 2151SOL     OW 8470   1.870   3.188   3.924
 2151SOL    HW1 8471   1.777   3.209   3.893
 2151SOL    HW2 8472   1.880   3.089   3.937
 2152SOL     OW 8473   1.950   3.663   4.651
 2152SOL    HW1 8474   1.908   3.577   4.624
 2152SOL    HW2 8475   2.044   3.666   4.617
 2153SOL     OW 8476   2.366   3.430   4.634
 2153SOL    HW1 8477   2.432   3.504   4.643
 2153SOL    HW2 8478   2.410   3.351   4.592
 2154SOL     OW 8479   2.864   2.658   4.962
 2154SOL    HW1 8480   2.905   2.626   5.048
 2154SOL    HW2 8481   2.768   2.631   4.959
 2155SOL     OW 8482   2.677   2.434   4.049
 2155SOL    HW1 8483   2.684   2.345   4.003
 2155SOL    HW2 8484   2.583   2.468   4.041
 2156SOL     OW 8485   3.519   2.466   4.930
 2156SOL    HW1 8486   3.481   2.397   4.992
 2156SOL    HW2 8487   3.601   2.430   4.886
 2157SOL     OW 8488   2.792   3.540   5.189
 2157SOL    HW1 8489   2.768   3.522   5.094
 2157SOL    HW2 8490   2.822   3.634   5.199
 2158SOL     OW 8491   3.209   2.921   4.958
 2158SOL    HW1 8492   3.233   2.858   4.884
 2158SOL    HW2 8493   3.119   2.961   4.940
 2159SOL     OW 8494   3.164   2.717   4.033
 2159SOL    HW1 8495   3.078   2.686   4.075
 2159SOL    HW2 8496   3.160   2.703   3.934
 2160SOL     OW 8497   3.621   3.609   4.878
 2160SOL    HW1 8498   3.682   3.639   4.805
 2160SOL    HW2 8499   3.583   3.520   4.856
 2161SOL     OW 8500   3.114   3.593   4.852
 2161SOL    HW1 8501   3.198   3.598   4.798
 2161SOL    HW2 8502   3.091   3.497   4.870
 2162SOL     OW 8503   1.945   3.120   4.746
 2162SOL    HW1 8504   1.940   3.119   4.846
 2162SOL    HW2 8505   1.862   3.079   4.708
 2163SOL     OW 8506   3.588   1.997   4.247
 2163SOL    HW1 8507   3.661   1.980   4.180
 2163SOL    HW2 8508   3.557   1.910   4.285
 2164SOL     OW 8509   3.250   3.435   4.201
 2164SOL    HW1 8510   3.317   3.447   4.127
 2164SOL    HW2 8511   3.210   3.524   4.224
 2165SOL     OW 8512   3.142   2.789   4.396
 2165SOL    HW1 8513   3.202   2.708   4.398
 2165SOL    HW2 8514   3.182   2.858   4.336
 2166SOL     OW 8515   2.534   3.478   3.878
 2166SOL    HW1 8516   2.543   3.488   3.779
 2166SOL    HW2 8517   2.494   3.389   3.899
 2167SOL     OW 8518   3.512   3.582   5.118
 2167SOL    HW1 8519   3.565   3.592   5.034
 2167SOL    HW2 8520   3.485   3.672   5.152
 2168SOL     OW 8521   3.703   2.037   4.687
 2168SOL    HW1 8522   3.742   1.952   4.651
 2168SOL    HW2 8523   3.605   2.039   4.668
 2169SOL     OW 8524   3.056   3.474   3.755
 2169SOL    HW1 8525   3.062   3.381   3.792
 2169SOL    HW2 8526   2.997   3.474   3.675
 2170SOL     OW 8527   2.778   2.772   4.015
 2170SOL    HW1 8528   2.841   2.810   3.947
 2170SOL    HW2 8529   2.818   2.689   4.054
 2171SOL     OW 8530   3.366   3.469   3.768
 2171SOL    HW1 8531   3.274   3.506   3.775
 2171SOL    HW2 8532   3.404   3.489   3.678
 2172SOL     OW 8533   2.901   2.960   4.420
 2172SOL    HW1 8534   2.831   2.913   4.474
 2172SOL    HW2 8535   2.960   2.892   4.377
 2173SOL     OW 8536   2.876   2.098   4.695
 2173SOL    HW1 8537   2.868   2.062   4.602
 2173SOL    HW2 8538   2.874   2.022   4.760
 2174SOL     OW 8539   2.452   3.349   4.215
 2174SOL    HW1 8540   2.494   3.291   4.145
 2174SOL    HW2 8541   2.408   3.428   4.171
 2175SOL     OW 8542   3.571   2.247   5.105
 2175SOL    HW1 8543   3.644   2.316   5.109
 2175SOL    HW2 8544   3.599   2.172   5.046
 2176SOL     OW 8545   2.117   3.210   4.014
 2176SOL    HW1 8546   2.021   3.211   3.987
 2176SOL    HW2 8547   2.129   3.263   4.098
 2177SOL     OW 8548   3.045   3.197   3.843
 2177SOL    HW1 8549   2.946   3.186   3.845
 2177SOL    HW2 8550   3.079   3.212   3.936
 2178SOL     OW 8551   3.355   3.629   4.683
 2178SOL    HW1 8552   3.388   3.693   4.614
 2178SOL    HW2 8553   3.421   3.623   4.758
 2179SOL     OW 8554   3.536   2.745   4.978
 2179SOL    HW1 8555   3.509   2.656   4.941
 2179SOL    HW2 8556   3.537   2.813   4.905
 2180SOL     OW 8557   3.087   2.187   4.173
 2180SOL    HW1 8558   3.152   2.113   4.162
 2180SOL    HW2 8559   3.107   2.237   4.257
 2181SOL     OW 8560   3.592   2.796   5.241
 2181SOL    HW1 8561   3.630   2.887   5.256
 2181SOL    HW2 8562   3.584   2.779   5.142
 2182SOL     OW 8563   2.721   3.236   3.740
 2182SOL    HW1 8564   2.675   3.251   3.828
 2182SOL    HW2 8565   2.765   3.321   3.710
 2183SOL     OW 8566   2.523   3.652   4.677
 2183SOL    HW1 8567   2.477   3.740   4.664
 2183SOL    HW2 8568   2.622   3.664   4.670
 2184SOL     OW 8569   2.945   2.846   3.811
 2184SOL    HW1 8570   2.922   2.899   3.729
 2184SOL    HW2 8571   3.026   2.790   3.792
 2185SOL     OW 8572   3.723   3.431   4.575
 2185SOL    HW1 8573   3.652   3.419   4.505
 2185SOL    HW2 8574   3.724   3.352   4.635
 2186SOL     OW 8575   1.941   3.102   4.377
 2186SOL    HW1 8576   1.940   3.055   4.465
 2186SOL    HW2 8577   2.023   3.074   4.326
 2187SOL     OW 8578   3.686   2.054   4.951
 2187SOL    HW1 8579   3.682   1.964   4.995
 2187SOL    HW2 8580   3.689   2.043   4.852
 2188SOL     OW 8581   3.567   3.349   4.828
 2188SOL    HW1 8582   3.474   3.324   4.801
 2188SOL    HW2 8583   3.593   3.299   4.910
 2189SOL     OW 8584   2.674   3.448   4.411
 2189SOL    HW1 8585   2.706   3.458   4.317
 2189SOL    HW2 8586   2.595   3.386   4.413
 2190SOL     OW 8587   3.286   2.076   4.836
 2190SOL    HW1 8588   3.338   2.011   4.891
 2190SOL    HW2 8589   3.237   2.139   4.897
 2191SOL     OW 8590   2.863   1.896   4.878
 2191SOL    HW1 8591   2.800   1.824   4.847
 2191SOL    HW2 8592   2.956   1.860   4.878
 2192SOL     OW 8593   2.632   3.192   4.025
 2192SOL    HW1 8594   2.586   3.105   4.042
 2192SOL    HW2 8595   2.723   3.189   4.066
 2193SOL     OW 8596   3.214   1.914   3.892
 2193SOL    HW1 8597   3.249   1.873   3.808
 2193SOL    HW2 8598   3.124   1.876   3.912
 2194SOL     OW 8599   3.162   2.315   4.415
 2194SOL    HW1 8600   3.103   2.395   4.419
 2194SOL    HW2 8601   3.177   2.280   4.508
 2195SOL     OW 8602   3.455   2.083   4.606
 2195SOL    HW1 8603   3.371   2.082   4.660
 2195SOL    HW2 8604   3.457   2.166   4.550
 2196SOL     OW 8605   1.901   2.939   4.024
 2196SOL    HW1 8606   2.000   2.928   4.015
 2196SOL    HW2 8607   1.861   2.853   4.056
 2197SOL     OW 8608   2.737   3.508   4.061
 2197SOL    HW1 8609   2.660   3.473   4.007
 2197SOL    HW2 8610   2.705   3.579   4.123
 2198SOL     OW 8611   2.092   4.352   0.113
 2198SOL    HW1 8612   1.999   4.350   0.150
 2198SOL    HW2 8613   2.093   4.313   0.021
 2199SOL     OW 8614   2.087   3.999   0.996
 2199SOL    HW1 8615   2.122   3.982   1.088
 2199SOL    HW2 8616   1.999   3.954   0.984
 2200SOL     OW 8617   2.431   4.999   1.165
 2200SOL    HW1 8618   2.338   4.992   1.128
 2200SOL    HW2 8619   2.442   5.088   1.209
 2201SOL     OW 8620   3.617   4.331   0.231
 2201SOL    HW1 8621   3.605   4.318   0.132
 2201SOL    HW2 8622   3.587   4.250   0.280
 2202SOL     OW 8623   2.630   4.868   1.023
 2202SOL    HW1 8624   2.552   4.885   1.083
 2202SOL    HW2 8625   2.664   4.955   0.987
 2203SOL     OW 8626   2.712   4.522   1.823
 2203SOL    HW1 8627   2.708   4.598   1.888
 2203SOL    HW2 8628   2.734   4.558   1.732
 2204SOL     OW 8629   2.547   4.736   0.665
 2204SOL    HW1 8630   2.616   4.720   0.735
 2204SOL    HW2 8631   2.474   4.793   0.703
 2205SOL     OW 8632   2.548   4.885   1.803
 2205SOL    HW1 8633   2.608   4.964   1.817
 2205SOL    HW2 8634   2.462   4.916   1.762
 2206SOL     OW 8635   2.197   5.159   1.061
 2206SOL    HW1 8636   2.119   5.128   1.008
 2206SOL    HW2 8637   2.255   5.217   1.004
 2207SOL     OW 8638   2.300   4.116   1.499
 2207SOL    HW1 8639   2.382   4.060   1.508
 2207SOL    HW2 8640   2.219   4.058   1.503
 2208SOL     OW 8641   3.465   4.171   0.737
 2208SOL    HW1 8642   3.391   4.217   0.687
 2208SOL    HW2 8643   3.516   4.239   0.790
 2209SOL     OW 8644   2.102   4.815   0.886
 2209SOL    HW1 8645   2.116   4.731   0.938
 2209SOL    HW2 8646   2.047   4.879   0.941
 2210SOL     OW 8647   3.456   3.838   1.480
 2210SOL    HW1 8648   3.438   3.905   1.408
 2210SOL    HW2 8649   3.453   3.884   1.569
 2211SOL     OW 8650   1.984   4.367   0.563
 2211SOL    HW1 8651   1.939   4.279   0.580
 2211SOL    HW2 8652   1.983   4.421   0.647
 2212SOL     OW 8653   3.551   4.646   0.612
 2212SOL    HW1 8654   3.646   4.617   0.620
 2212SOL    HW2 8655   3.543   4.711   0.537
 2213SOL     OW 8656   3.503   4.832   0.432
 2213SOL    HW1 8657   3.589   4.834   0.380
 2213SOL    HW2 8658   3.517   4.879   0.520
 2214SOL     OW 8659   1.975   4.461   1.597
 2214SOL    HW1 8660   2.063   4.448   1.642
 2214SOL    HW2 8661   1.962   4.558   1.575
 2215SOL     OW 8662   3.155   4.952   1.423
 2215SOL    HW1 8663   3.192   4.879   1.365
 2215SOL    HW2 8664   3.207   4.957   1.508
 2216SOL     OW 8665   2.671   3.728   0.502
 2216SOL    HW1 8666   2.711   3.819   0.493
 2216SOL    HW2 8667   2.571   3.736   0.508
 2217SOL     OW 8668   2.059   4.700   1.264
 2217SOL    HW1 8669   2.148   4.655   1.250
 2217SOL    HW2 8670   1.986   4.635   1.245
 2218SOL     OW 8671   3.387   4.723   0.190
 2218SOL    HW1 8672   3.324   4.647   0.203
 2218SOL    HW2 8673   3.435   4.741   0.276
 2219SOL     OW 8674   2.179   3.975   1.801
 2219SOL    HW1 8675   2.250   4.046   1.807
 2219SOL    HW2 8676   2.091   4.014   1.829
 2220SOL     OW 8677   2.669   4.329   1.465
 2220SOL    HW1 8678   2.622   4.326   1.554
 2220SOL    HW2 8679   2.618   4.274   1.399
 2221SOL     OW 8680   2.835   4.614   1.572
 2221SOL    HW1 8681   2.881   4.530   1.543
 2221SOL    HW2 8682   2.779   4.648   1.497
 2222SOL     OW 8683   2.853   4.134   1.242
 2222SOL    HW1 8684   2.776   4.168   1.296
 2222SOL    HW2 8685   2.819   4.083   1.163
 2223SOL     OW 8686   1.938   4.535   0.789
 2223SOL    HW1 8687   2.037   4.523   0.798
 2223SOL    HW2 8688   1.914   4.630   0.810
 2224SOL     OW 8689   2.727   4.072   0.195
 2224SOL    HW1 8690   2.786   4.135   0.146
 2224SOL    HW2 8691   2.746   3.978   0.166
 2225SOL     OW 8692   3.581   4.309   1.831
 2225SOL    HW1 8693   3.555   4.398   1.795
 2225SOL    HW2 8694   3.579   4.241   1.758
 2226SOL     OW 8695   3.224   4.868   0.545
 2226SOL    HW1 8696   3.307   4.839   0.497
 2226SOL    HW2 8697   3.175   4.935   0.489
 2227SOL     OW 8698   2.412   3.920   0.885
 2227SOL    HW1 8699   2.407   3.915   0.985
 2227SOL    HW2 8700   2.414   4.016   0.856
 2228SOL     OW 8701   3.657   4.790   0.873
 2228SOL    HW1 8702   3.595   4.775   0.797
 2228SOL    HW2 8703   3.605   4.801   0.958
 2229SOL     OW 8704   2.183   4.667   0.242
 2229SOL    HW1 8705   2.265   4.706   0.200
 2229SOL    HW2 8706   2.156   4.585   0.193
 2230SOL     OW 8707   2.064   4.009   1.498
 2230SOL    HW1 8708   1.984   4.069   1.485
 2230SOL    HW2 8709   2.054   3.960   1.584
 2231SOL     OW 8710   3.494   5.101   0.081
 2231SOL    HW1 8711   3.462   5.195   0.071
 2231SOL    HW2 8712   3.418   5.038   0.069
 2232SOL     OW 8713   3.262   3.831   0.426
 2232SOL    HW1 8714   3.238   3.794   0.336
 2232SOL    HW2 8715   3.361   3.847   0.430
 2233SOL     OW 8716   2.244   4.424   0.480
 2233SOL    HW1 8717   2.289   4.334   0.477
 2233SOL    HW2 8718   2.150   4.413   0.513
 2234SOL     OW 8719   3.409   3.946   1.729
 2234SOL    HW1 8720   3.404   3.983   1.821
 2234SOL    HW2 8721   3.337   3.877   1.717
 2235SOL     OW 8722   2.643   3.988   1.749
 2235SOL    HW1 8723   2.710   3.927   1.792
 2235SOL    HW2 8724   2.570   4.007   1.814
 2236SOL     OW 8725   2.665   5.126   0.924
 2236SOL    HW1 8726   2.755   5.140   0.882
 2236SOL    HW2 8727   2.594   5.128   0.853
 2237SOL     OW 8728   2.784   4.227   0.899
 2237SOL    HW1 8729   2.759   4.218   0.803
 2237SOL    HW2 8730   2.832   4.145   0.930
 2238SOL     OW 8731   2.401   3.788   0.512
 2238SOL    HW1 8732   2.320   3.789   0.570
 2238SOL    HW2 8733   2.404   3.871   0.457
 2239SOL     OW 8734   3.296   4.912   0.041
 2239SOL    HW1 8735   3.328   4.836   0.098
 2239SOL    HW2 8736   3.204   4.939   0.071
 2240SOL     OW 8737   2.159   3.759   0.171
 2240SOL    HW1 8738   2.208   3.843   0.150
 2240SOL    HW2 8739   2.221   3.694   0.216
 2241SOL     OW 8740   2.797   3.960   0.480
 2241SOL    HW1 8741   2.749   4.001   0.402
 2241SOL    HW2 8742   2.896   3.958   0.461
 2242SOL     OW 8743   2.321   4.876   0.741
 2242SOL    HW1 8744   2.250   4.849   0.806
 2242SOL    HW2 8745   2.295   4.848   0.648
 2243SOL     OW 8746   2.894   4.273   0.016
 2243SOL    HW1 8747   2.853   4.355  -0.023
 2243SOL    HW2 8748   2.958   4.299   0.089
 2244SOL     OW 8749   1.940   4.280   1.386
 2244SOL    HW1 8750   2.032   4.279   1.345
 2244SOL    HW2 8751   1.934   4.354   1.453
 2245SOL     OW 8752   2.423   3.946   1.147
 2245SOL    HW1 8753   2.461   3.862   1.184
 2245SOL    HW2 8754   2.335   3.965   1.191
 2246SOL     OW 8755   2.879   3.763   0.753
 2246SOL    HW1 8756   2.807   3.768   0.684
 2246SOL    HW2 8757   2.855   3.694   0.822
 2247SOL     OW 8758   3.328   4.314   0.992
 2247SOL    HW1 8759   3.298   4.219   0.999
 2247SOL    HW2 8760   3.401   4.330   1.058
 2248SOL     OW 8761   3.719   4.557   0.377
 2248SOL    HW1 8762   3.761   4.493   0.441
 2248SOL    HW2 8763   3.681   4.506   0.299
 2249SOL     OW 8764   2.389   3.980   0.328
 2249SOL    HW1 8765   2.416   3.921   0.253
 2249SOL    HW2 8766   2.389   4.075   0.297
 2250SOL     OW 8767   3.616   4.947   1.588
 2250SOL    HW1 8768   3.707   4.908   1.575
 2250SOL    HW2 8769   3.624   5.043   1.612
 2251SOL     OW 8770   2.777   3.813   1.402
 2251SOL    HW1 8771   2.802   3.793   1.307
 2251SOL    HW2 8772   2.849   3.869   1.444
 2252SOL     OW 8773   2.842   4.840   1.719
 2252SOL    HW1 8774   2.743   4.846   1.729
 2252SOL    HW2 8775   2.865   4.760   1.663
 2253SOL     OW 8776   2.272   4.537   1.251
 2253SOL    HW1 8777   2.358   4.549   1.301
 2253SOL    HW2 8778   2.230   4.450   1.278
 2254SOL     OW 8779   3.136   4.110   1.262
 2254SOL    HW1 8780   3.157   4.184   1.326
 2254SOL    HW2 8781   3.047   4.127   1.219
 2255SOL     OW 8782   2.229   4.824   0.501
 2255SOL    HW1 8783   2.222   4.907   0.445
 2255SOL    HW2 8784   2.233   4.744   0.441
 2256SOL     OW 8785   2.428   4.261   0.865
 2256SOL    HW1 8786   2.440   4.327   0.791
 2256SOL    HW2 8787   2.474   4.295   0.948
 2257SOL     OW 8788   3.444   4.363   0.472
 2257SOL    HW1 8789   3.413   4.424   0.545
 2257SOL    HW2 8790   3.494   4.415   0.403
 2258SOL     OW 8791   2.264   4.475   1.598
 2258SOL    HW1 8792   2.332   4.530   1.551
 2258SOL    HW2 8793   2.304   4.387   1.625
 2259SOL     OW 8794   2.875   3.829   1.770
 2259SOL    HW1 8795   2.881   3.914   1.718
 2259SOL    HW2 8796   2.907   3.753   1.713
 2260SOL     OW 8797   2.366   3.774   1.740
 2260SOL    HW1 8798   2.324   3.717   1.670
 2260SOL    HW2 8799   2.300   3.843   1.772
 2261SOL     OW 8800   2.435   4.594   1.029
 2261SOL    HW1 8801   2.479   4.683   1.020
 2261SOL    HW2 8802   2.372   4.594   1.106
 2262SOL     OW 8803   3.222   4.586   1.045
 2262SOL    HW1 8804   3.147   4.586   0.979
 2262SOL    HW2 8805   3.259   4.494   1.054
 2263SOL     OW 8806   2.169   3.937   1.231
 2263SOL    HW1 8807   2.146   3.974   1.321
 2263SOL    HW2 8808   2.139   3.842   1.225
 2264SOL     OW 8809   2.594   4.358   1.064
 2264SOL    HW1 8810   2.653   4.332   0.988
 2264SOL    HW2 8811   2.566   4.454   1.053
 2265SOL     OW 8812   2.169   3.787   0.618
 2265SOL    HW1 8813   2.158   3.881   0.651
 2265SOL    HW2 8814   2.164   3.724   0.695
 2266SOL     OW 8815   3.484   4.091   0.374
 2266SOL    HW1 8816   3.486   4.015   0.438
 2266SOL    HW2 8817   3.436   4.168   0.414
 2267SOL     OW 8818   3.721   5.242   1.605
 2267SOL    HW1 8819   3.735   5.269   1.510
 2267SOL    HW2 8820   3.804   5.264   1.658
 2268SOL     OW 8821   2.212   4.622   1.804
 2268SOL    HW1 8822   2.288   4.666   1.852
 2268SOL    HW2 8823   2.247   4.575   1.722
 2269SOL     OW 8824   2.181   4.534   0.949
 2269SOL    HW1 8825   2.274   4.570   0.954
 2269SOL    HW2 8826   2.175   4.449   1.001
 2270SOL     OW 8827   2.201   4.233   1.006
 2270SOL    HW1 8828   2.149   4.150   0.989
 2270SOL    HW2 8829   2.278   4.238   0.942
 2271SOL     OW 8830   2.864   4.520   1.238
 2271SOL    HW1 8831   2.905   4.488   1.324
 2271SOL    HW2 8832   2.768   4.493   1.235
 2272SOL     OW 8833   1.902   4.268   1.114
 2272SOL    HW1 8834   1.987   4.235   1.073
 2272SOL    HW2 8835   1.915   4.283   1.212
 2273SOL     OW 8836   2.051   4.244   1.722
 2273SOL    HW1 8837   2.110   4.204   1.652
 2273SOL    HW2 8838   1.993   4.315   1.681
 2274SOL     OW 8839   3.519   4.328   1.206
 2274SOL    HW1 8840   3.481   4.259   1.268
 2274SOL    HW2 8841   3.601   4.292   1.162
 2275SOL     OW 8842   2.533   4.188   1.269
 2275SOL    HW1 8843   2.499   4.099   1.239
 2275SOL    HW2 8844   2.559   4.242   1.189
 2276SOL     OW 8845   2.335   4.224   0.191
 2276SOL    HW1 8846   2.396   4.304   0.195
 2276SOL    HW2 8847   2.240   4.255   0.198
 2277SOL     OW 8848   2.021   4.861   1.466
 2277SOL    HW1 8849   2.043   4.800   1.542
 2277SOL    HW2 8850   2.031   4.812   1.380
 2278SOL     OW 8851   3.164   4.579   0.309
 2278SOL    HW1 8852   3.078   4.548   0.351
 2278SOL    HW2 8853   3.160   4.565   0.210
 2279SOL     OW 8854   1.945   4.982   1.022
 2279SOL    HW1 8855   1.940   4.981   1.122
 2279SOL    HW2 8856   1.862   4.941   0.984
 2280SOL     OW 8857   2.765   3.810   0.133
 2280SOL    HW1 8858   2.816   3.811   0.047
 2280SOL    HW2 8859   2.821   3.768   0.204
 2281SOL     OW 8860   3.588   3.859   0.523
 2281SOL    HW1 8861   3.661   3.842   0.456
 2281SOL    HW2 8862   3.557   3.772   0.561
 2282SOL     OW 8863   2.692   4.997   1.422
 2282SOL    HW1 8864   2.687   5.030   1.517
 2282SOL    HW2 8865   2.606   5.016   1.376
 2283SOL     OW 8866   3.703   3.899   0.963
 2283SOL    HW1 8867   3.742   3.814   0.927
 2283SOL    HW2 8868   3.605   3.901   0.944
 2284SOL     OW 8869   2.125   4.050   0.720
 2284SOL    HW1 8870   2.046   4.101   0.686
 2284SOL    HW2 8871   2.116   4.035   0.818
 2285SOL     OW 8872   2.684   4.726   1.372
 2285SOL    HW1 8873   2.724   4.725   1.280
 2285SOL    HW2 8874   2.694   4.818   1.412
 2286SOL     OW 8875   2.234   5.012   1.490
 2286SOL    HW1 8876   2.221   5.105   1.456
 2286SOL    HW2 8877   2.150   4.960   1.477
 2287SOL     OW 8878   2.901   4.822   0.696
 2287SOL    HW1 8879   2.831   4.775   0.750
 2287SOL    HW2 8880   2.960   4.754   0.653
 2288SOL     OW 8881   3.571   4.109   1.381
 2288SOL    HW1 8882   3.644   4.178   1.385
 2288SOL    HW2 8883   3.599   4.034   1.322
 2289SOL     OW 8884   1.967   4.737   1.726
 2289SOL    HW1 8885   1.890   4.704   1.780
 2289SOL    HW2 8886   2.052   4.707   1.768
 2290SOL     OW 8887   2.534   3.927   1.489
 2290SOL    HW1 8888   2.624   3.911   1.449
 2290SOL    HW2 8889   2.542   3.932   1.588
 2291SOL     OW 8890   2.475   4.566   1.431
 2291SOL    HW1 8891   2.531   4.647   1.414
 2291SOL    HW2 8892   2.534   4.486   1.434
 2292SOL     OW 8893   2.578   4.289   1.708
 2292SOL    HW1 8894   2.597   4.354   1.782
 2292SOL    HW2 8895   2.638   4.209   1.717
 2293SOL     OW 8896   3.536   4.607   1.254
 2293SOL    HW1 8897   3.509   4.518   1.217
 2293SOL    HW2 8898   3.537   4.675   1.181
 2294SOL     OW 8899   2.456   4.469   0.652
 2294SOL    HW1 8900   2.506   4.554   0.633
 2294SOL    HW2 8901   2.368   4.471   0.604
 2295SOL     OW 8902   2.945   4.708   0.087
 2295SOL    HW1 8903   2.922   4.761   0.005
 2295SOL    HW2 8904   3.026   4.652   0.068
 2296SOL     OW 8905   1.941   4.964   0.653
 2296SOL    HW1 8906   1.940   4.917   0.741
 2296SOL    HW2 8907   2.023   4.936   0.602
 2297SOL     OW 8908   3.686   3.916   1.227
 2297SOL    HW1 8909   3.682   3.826   1.271
 2297SOL    HW2 8910   3.689   3.905   1.128
 2298SOL     OW 8911   2.290   4.148   0.520
 2298SOL    HW1 8912   2.320   4.076   0.458
 2298SOL    HW2 8913   2.251   4.108   0.603
 2299SOL     OW 8914   2.179   4.271   1.280
 2299SOL    HW1 8915   2.217   4.212   1.352
 2299SOL    HW2 8916   2.219   4.245   1.192
 2300SOL     OW 8917   3.286   3.938   1.112
 2300SOL    HW1 8918   3.338   3.873   1.167
 2300SOL    HW2 8919   3.237   4.001   1.173
 2301SOL     OW 8920   2.863   3.758   1.154
 2301SOL    HW1 8921   2.800   3.686   1.123
 2301SOL    HW2 8922   2.956   3.722   1.154
 2302SOL     OW 8923   2.632   5.054   0.301
 2302SOL    HW1 8924   2.586   4.967   0.318
 2302SOL    HW2 8925   2.723   5.051   0.342
 2303SOL     OW 8926   3.214   3.776   0.168
 2303SOL    HW1 8927   3.249   3.735   0.084
 2303SOL    HW2 8928   3.124   3.738   0.188
 2304SOL     OW 8929   3.455   3.945   0.882
 2304SOL    HW1 8930   3.371   3.944   0.936
 2304SOL    HW2 8931   3.457   4.028   0.826
 2305SOL     OW 8932   1.901   4.801   0.300
 2305SOL    HW1 8933   2.000   4.790   0.291
 2305SOL    HW2 8934   1.861   4.715   0.332
 2306SOL     OW 8935   2.092   4.352   1.975
 2306SOL    HW1 8936   1.999   4.350   2.012
 2306SOL    HW2 8937   2.093   4.313   1.883
 2307SOL     OW 8938   2.087   3.999   2.858
 2307SOL    HW1 8939   2.122   3.982   2.950
 2307SOL    HW2 8940   1.999   3.954   2.846
 2308SOL     OW 8941   1.881   4.092   2.509
 2308SOL    HW1 8942   1.799   4.135   2.548
 2308SOL    HW2 8943   1.853   4.019   2.446
 2309SOL     OW 8944   2.431   4.999   3.027
 2309SOL    HW1 8945   2.338   4.992   2.990
 2309SOL    HW2 8946   2.442   5.088   3.071
 2310SOL     OW 8947   3.417   5.235   2.565
 2310SOL    HW1 8948   3.360   5.219   2.646
 2310SOL    HW2 8949   3.358   5.245   2.485
 2311SOL     OW 8950   3.617   4.331   2.093
 2311SOL    HW1 8951   3.605   4.318   1.994
 2311SOL    HW2 8952   3.587   4.250   2.142
 2312SOL     OW 8953   2.630   4.868   2.885
 2312SOL    HW1 8954   2.552   4.885   2.945
 2312SOL    HW2 8955   2.664   4.955   2.849
 2313SOL     OW 8956   2.712   4.522   3.685
 2313SOL    HW1 8957   2.708   4.598   3.750
 2313SOL    HW2 8958   2.734   4.558   3.594
 2314SOL     OW 8959   2.547   4.736   2.527
 2314SOL    HW1 8960   2.616   4.720   2.597
 2314SOL    HW2 8961   2.474   4.793   2.565
 2315SOL     OW 8962   2.548   4.885   3.665
 2315SOL    HW1 8963   2.608   4.964   3.679
 2315SOL    HW2 8964   2.462   4.916   3.624
 2316SOL     OW 8965   2.197   5.159   2.923
 2316SOL    HW1 8966   2.119   5.128   2.870
 2316SOL    HW2 8967   2.255   5.217   2.866
 2317SOL     OW 8968   3.465   4.171   2.599
 2317SOL    HW1 8969   3.391   4.217   2.549
 2317SOL    HW2 8970   3.516   4.239   2.652
 2318SOL     OW 8971   2.102   4.815   2.748
 2318SOL    HW1 8972   2.116   4.731   2.800
 2318SOL    HW2 8973   2.047   4.879   2.803
 2319SOL     OW 8974   2.468   4.688   1.985
 2319SOL    HW1 8975   2.475   4.772   1.931
 2319SOL    HW2 8976   2.514   4.701   2.073
 2320SOL     OW 8977   3.456   3.838   3.342
 2320SOL    HW1 8978   3.438   3.905   3.270
 2320SOL    HW2 8979   3.453   3.884   3.431
 2321SOL     OW 8980   1.984   4.367   2.425
 2321SOL    HW1 8981   1.939   4.279   2.442
 2321SOL    HW2 8982   1.983   4.421   2.509
 2322SOL     OW 8983   3.551   4.646   2.474
 2322SOL    HW1 8984   3.646   4.617   2.482
 2322SOL    HW2 8985   3.543   4.711   2.399
 2323SOL     OW 8986   1.975   4.461   3.459
 2323SOL    HW1 8987   2.063   4.448   3.504
 2323SOL    HW2 8988   1.962   4.558   3.437
 2324SOL     OW 8989   3.155   4.952   3.285
 2324SOL    HW1 8990   3.192   4.879   3.227
 2324SOL    HW2 8991   3.207   4.957   3.370
 2325SOL     OW 8992   2.671   3.728   2.364
 2325SOL    HW1 8993   2.711   3.819   2.355
 2325SOL    HW2 8994   2.571   3.736   2.370
 2326SOL     OW 8995   2.059   4.700   3.126
 2326SOL    HW1 8996   2.148   4.655   3.112
 2326SOL    HW2 8997   1.986   4.635   3.107
 2327SOL     OW 8998   3.387   4.723   2.052
 2327SOL    HW1 8999   3.324   4.647   2.065
 2327SOL    HW2 9000   3.435   4.741   2.138
 2328SOL     OW 9001   2.179   3.975   3.663
 2328SOL    HW1 9002   2.250   4.046   3.669
 2328SOL    HW2 9003   2.091   4.014   3.691
 2329SOL     OW 9004   3.328   5.141   2.815
 2329SOL    HW1 9005   3.269   5.147   2.895
 2329SOL    HW2 9006   3.313   5.053   2.769
 2330SOL     OW 9007   2.460   4.453   2.132
 2330SOL    HW1 9008   2.484   4.522   2.064
 2330SOL    HW2 9009   2.382   4.486   2.186
 2331SOL     OW 9010   3.143   4.069   2.806
 2331SOL    HW1 9011   3.057   4.019   2.793
 2331SOL    HW2 9012   3.205   4.015   2.862
 2332SOL     OW 9013   2.669   4.329   3.327
 2332SOL    HW1 9014   2.622   4.326   3.416
 2332SOL    HW2 9015   2.618   4.274   3.261
 2333SOL     OW 9016   3.256   4.193   3.536
 2333SOL    HW1 9017   3.236   4.236   3.624
 2333SOL    HW2 9018   3.334   4.131   3.545
 2334SOL     OW 9019   2.835   4.614   3.434
 2334SOL    HW1 9020   2.881   4.530   3.405
 2334SOL    HW2 9021   2.779   4.648   3.359
 2335SOL     OW 9022   2.853   4.134   3.104
 2335SOL    HW1 9023   2.776   4.168   3.158
 2335SOL    HW2 9024   2.819   4.083   3.025
 2336SOL     OW 9025   2.727   4.072   2.057
 2336SOL    HW1 9026   2.786   4.135   2.008
 2336SOL    HW2 9027   2.746   3.978   2.028
 2337SOL     OW 9028   3.581   4.309   3.693
 2337SOL    HW1 9029   3.555   4.398   3.657
 2337SOL    HW2 9030   3.579   4.241   3.620
 2338SOL     OW 9031   2.412   3.920   2.747
 2338SOL    HW1 9032   2.407   3.915   2.847
 2338SOL    HW2 9033   2.414   4.016   2.718
 2339SOL     OW 9034   3.657   4.790   2.735
 2339SOL    HW1 9035   3.595   4.775   2.659
 2339SOL    HW2 9036   3.605   4.801   2.820
 2340SOL     OW 9037   2.183   4.667   2.104
 2340SOL    HW1 9038   2.265   4.706   2.062
 2340SOL    HW2 9039   2.156   4.585   2.055
 2341SOL     OW 9040   3.494   5.101   1.943
 2341SOL    HW1 9041   3.462   5.195   1.933
 2341SOL    HW2 9042   3.418   5.038   1.931
 2342SOL     OW 9043   3.262   3.831   2.288
 2342SOL    HW1 9044   3.238   3.794   2.198
 2342SOL    HW2 9045   3.361   3.847   2.292
 2343SOL     OW 9046   2.244   4.424   2.342
 2343SOL    HW1 9047   2.289   4.334   2.339
 2343SOL    HW2 9048   2.150   4.413   2.375
 2344SOL     OW 9049   3.409   3.946   3.591
 2344SOL    HW1 9050   3.404   3.983   3.683
 2344SOL    HW2 9051   3.337   3.877   3.579
 2345SOL     OW 9052   2.476   3.846   1.979
 2345SOL    HW1 9053   2.574   3.824   1.986
 2345SOL    HW2 9054   2.445   3.829   1.886
 2346SOL     OW 9055   3.213   4.314   3.295
 2346SOL    HW1 9056   3.241   4.271   3.380
 2346SOL    HW2 9057   3.238   4.410   3.296
 2347SOL     OW 9058   2.665   5.126   2.786
 2347SOL    HW1 9059   2.755   5.140   2.744
 2347SOL    HW2 9060   2.594   5.128   2.715
 2348SOL     OW 9061   2.784   4.227   2.761
 2348SOL    HW1 9062   2.759   4.218   2.665
 2348SOL    HW2 9063   2.832   4.145   2.792
 2349SOL     OW 9064   2.401   3.788   2.374
 2349SOL    HW1 9065   2.320   3.789   2.432
 2349SOL    HW2 9066   2.404   3.871   2.319
 2350SOL     OW 9067   3.296   4.912   1.903
 2350SOL    HW1 9068   3.328   4.836   1.960
 2350SOL    HW2 9069   3.204   4.939   1.933
 2351SOL     OW 9070   2.159   3.759   2.033
 2351SOL    HW1 9071   2.208   3.843   2.012
 2351SOL    HW2 9072   2.221   3.694   2.078
 2352SOL     OW 9073   2.797   3.960   2.342
 2352SOL    HW1 9074   2.749   4.001   2.264
 2352SOL    HW2 9075   2.896   3.958   2.323
 2353SOL     OW 9076   2.938   4.407   3.326
 2353SOL    HW1 9077   2.858   4.346   3.329
 2353SOL    HW2 9078   3.019   4.354   3.302
 2354SOL     OW 9079   3.089   5.294   2.655
 2354SOL    HW1 9080   3.110   5.368   2.590
 2354SOL    HW2 9081   3.157   5.294   2.728
 2355SOL     OW 9082   2.321   4.876   2.603
 2355SOL    HW1 9083   2.250   4.849   2.668
 2355SOL    HW2 9084   2.295   4.848   2.510
 2356SOL     OW 9085   2.894   4.273   1.878
 2356SOL    HW1 9086   2.853   4.355   1.839
 2356SOL    HW2 9087   2.958   4.299   1.951
 2357SOL     OW 9088   1.940   4.280   3.248
 2357SOL    HW1 9089   2.032   4.279   3.207
 2357SOL    HW2 9090   1.934   4.354   3.315
 2358SOL     OW 9091   2.423   3.946   3.009
 2358SOL    HW1 9092   2.461   3.862   3.046
 2358SOL    HW2 9093   2.335   3.965   3.053
 2359SOL     OW 9094   2.728   4.178   2.504
 2359SOL    HW1 9095   2.696   4.250   2.442
 2359SOL    HW2 9096   2.752   4.097   2.451
 2360SOL     OW 9097   2.879   3.763   2.615
 2360SOL    HW1 9098   2.807   3.768   2.546
 2360SOL    HW2 9099   2.855   3.694   2.684
 2361SOL     OW 9100   3.328   4.314   2.854
 2361SOL    HW1 9101   3.298   4.219   2.861
 2361SOL    HW2 9102   3.401   4.330   2.920
 2362SOL     OW 9103   3.719   4.557   2.239
 2362SOL    HW1 9104   3.761   4.493   2.303
 2362SOL    HW2 9105   3.681   4.506   2.161
 2363SOL     OW 9106   3.526   5.004   2.519
 2363SOL    HW1 9107   3.625   5.012   2.533
 2363SOL    HW2 9108   3.481   5.088   2.550
 2364SOL     OW 9109   3.252   4.299   1.940
 2364SOL    HW1 9110   3.198   4.278   2.021
 2364SOL    HW2 9111   3.343   4.258   1.949
 2365SOL     OW 9112   2.389   3.980   2.190
 2365SOL    HW1 9113   2.416   3.921   2.115
 2365SOL    HW2 9114   2.389   4.075   2.159
 2366SOL     OW 9115   3.616   4.947   3.450
 2366SOL    HW1 9116   3.707   4.908   3.437
 2366SOL    HW2 9117   3.624   5.043   3.474
 2367SOL     OW 9118   2.842   4.840   3.581
 2367SOL    HW1 9119   2.743   4.846   3.591
 2367SOL    HW2 9120   2.865   4.760   3.525
 2368SOL     OW 9121   2.567   4.774   2.230
 2368SOL    HW1 9122   2.553   4.781   2.329
 2368SOL    HW2 9123   2.651   4.723   2.212
 2369SOL     OW 9124   3.136   4.110   3.124
 2369SOL    HW1 9125   3.157   4.184   3.188
 2369SOL    HW2 9126   3.047   4.127   3.081
 2370SOL     OW 9127   2.229   4.824   2.363
 2370SOL    HW1 9128   2.222   4.907   2.307
 2370SOL    HW2 9129   2.233   4.744   2.303
 2371SOL     OW 9130   2.428   4.261   2.727
 2371SOL    HW1 9131   2.440   4.327   2.653
 2371SOL    HW2 9132   2.474   4.295   2.810
 2372SOL     OW 9133   3.449   4.503   3.532
 2372SOL    HW1 9134   3.357   4.541   3.527
 2372SOL    HW2 9135   3.509   4.550   3.467
 2373SOL     OW 9136   2.875   3.829   3.632
 2373SOL    HW1 9137   2.881   3.914   3.580
 2373SOL    HW2 9138   2.907   3.753   3.575
 2374SOL     OW 9139   2.366   3.774   3.602
 2374SOL    HW1 9140   2.324   3.717   3.532
 2374SOL    HW2 9141   2.300   3.843   3.634
 2375SOL     OW 9142   3.071   4.249   2.137
 2375SOL    HW1 9143   3.084   4.165   2.191
 2375SOL    HW2 9144   3.042   4.323   2.197
 2376SOL     OW 9145   2.169   3.937   3.093
 2376SOL    HW1 9146   2.146   3.974   3.183
 2376SOL    HW2 9147   2.139   3.842   3.087
 2377SOL     OW 9148   2.594   4.358   2.926
 2377SOL    HW1 9149   2.653   4.332   2.850
 2377SOL    HW2 9150   2.566   4.454   2.915
 2378SOL     OW 9151   3.590   4.659   3.716
 2378SOL    HW1 9152   3.544   4.652   3.627
 2378SOL    HW2 9153   3.528   4.703   3.782
 2379SOL     OW 9154   2.169   3.787   2.480
 2379SOL    HW1 9155   2.158   3.881   2.513
 2379SOL    HW2 9156   2.164   3.724   2.557
 2380SOL     OW 9157   3.484   4.091   2.236
 2380SOL    HW1 9158   3.486   4.015   2.300
 2380SOL    HW2 9159   3.436   4.168   2.276
 2381SOL     OW 9160   3.402   3.998   1.987
 2381SOL    HW1 9161   3.341   3.923   2.010
 2381SOL    HW2 9162   3.424   4.050   2.070
 2382SOL     OW 9163   3.165   4.562   1.904
 2382SOL    HW1 9164   3.199   4.469   1.919
 2382SOL    HW2 9165   3.183   4.589   1.809
 2383SOL     OW 9166   2.181   4.534   2.811
 2383SOL    HW1 9167   2.274   4.570   2.816
 2383SOL    HW2 9168   2.175   4.449   2.863
 2384SOL     OW 9169   2.201   4.233   2.868
 2384SOL    HW1 9170   2.149   4.150   2.851
 2384SOL    HW2 9171   2.278   4.238   2.804
 2385SOL     OW 9172   3.000   4.104   3.540
 2385SOL    HW1 9173   2.955   4.167   3.604
 2385SOL    HW2 9174   3.093   4.135   3.523
 2386SOL     OW 9175   3.022   3.931   3.339
 2386SOL    HW1 9176   3.022   3.995   3.416
 2386SOL    HW2 9177   3.050   3.979   3.256
 2387SOL     OW 9178   1.870   5.050   2.062
 2387SOL    HW1 9179   1.777   5.071   2.031
 2387SOL    HW2 9180   1.880   4.951   2.075
 2388SOL     OW 9181   1.902   4.268   2.976
 2388SOL    HW1 9182   1.987   4.235   2.935
 2388SOL    HW2 9183   1.915   4.283   3.074
 2389SOL     OW 9184   3.231   4.674   3.522
 2389SOL    HW1 9185   3.270   4.763   3.542
 2389SOL    HW2 9186   3.241   4.654   3.425
 2390SOL     OW 9187   2.677   4.296   2.187
 2390SOL    HW1 9188   2.684   4.207   2.141
 2390SOL    HW2 9189   2.583   4.330   2.179
 2391SOL     OW 9190   3.519   4.328   3.068
 2391SOL    HW1 9191   3.481   4.259   3.130
 2391SOL    HW2 9192   3.601   4.292   3.024
 2392SOL     OW 9193   2.533   4.188   3.131
 2392SOL    HW1 9194   2.499   4.099   3.101
 2392SOL    HW2 9195   2.559   4.242   3.051
 2393SOL     OW 9196   2.335   4.224   2.053
 2393SOL    HW1 9197   2.396   4.304   2.057
 2393SOL    HW2 9198   2.240   4.255   2.060
 2394SOL     OW 9199   2.021   4.861   3.328
 2394SOL    HW1 9200   2.043   4.800   3.404
 2394SOL    HW2 9201   2.031   4.812   3.242
 2395SOL     OW 9202   1.945   4.982   2.884
 2395SOL    HW1 9203   1.940   4.981   2.984
 2395SOL    HW2 9204   1.862   4.941   2.846
 2396SOL     OW 9205   3.588   3.859   2.385
 2396SOL    HW1 9206   3.661   3.842   2.318
 2396SOL    HW2 9207   3.557   3.772   2.423
 2397SOL     OW 9208   2.692   4.997   3.284
 2397SOL    HW1 9209   2.687   5.030   3.379
 2397SOL    HW2 9210   2.606   5.016   3.238
 2398SOL     OW 9211   3.703   3.899   2.825
 2398SOL    HW1 9212   3.742   3.814   2.789
 2398SOL    HW2 9213   3.605   3.901   2.806
 2399SOL     OW 9214   2.125   4.050   2.582
 2399SOL    HW1 9215   2.046   4.101   2.548
 2399SOL    HW2 9216   2.116   4.035   2.680
 2400SOL     OW 9217   2.684   4.726   3.234
 2400SOL    HW1 9218   2.724   4.725   3.142
 2400SOL    HW2 9219   2.694   4.818   3.274
 2401SOL     OW 9220   2.234   5.012   3.352
 2401SOL    HW1 9221   2.221   5.105   3.318
 2401SOL    HW2 9222   2.150   4.960   3.339
 2402SOL     OW 9223   2.876   3.960   2.833
 2402SOL    HW1 9224   2.868   3.924   2.740
 2402SOL    HW2 9225   2.874   3.884   2.898
 2403SOL     OW 9226   3.571   4.109   3.243
 2403SOL    HW1 9227   3.644   4.178   3.247
 2403SOL    HW2 9228   3.599   4.034   3.184
 2404SOL     OW 9229   1.967   4.737   3.588
 2404SOL    HW1 9230   1.890   4.704   3.642
 2404SOL    HW2 9231   2.052   4.707   3.630
 2405SOL     OW 9232   1.937   4.069   1.895
 2405SOL    HW1 9233   1.845   4.041   1.866
 2405SOL    HW2 9234   1.968   4.146   1.839
 2406SOL     OW 9235   1.934   3.890   2.180
 2406SOL    HW1 9236   1.917   3.973   2.126
 2406SOL    HW2 9237   2.024   3.853   2.158
 2407SOL     OW 9238   3.312   4.944   3.495
 2407SOL    HW1 9239   3.303   4.934   3.594
 2407SOL    HW2 9240   3.408   4.937   3.469
 2408SOL     OW 9241   3.536   4.607   3.116
 2408SOL    HW1 9242   3.509   4.518   3.079
 2408SOL    HW2 9243   3.537   4.675   3.043
 2409SOL     OW 9244   3.087   4.049   2.311
 2409SOL    HW1 9245   3.152   3.975   2.300
 2409SOL    HW2 9246   3.107   4.099   2.395
 2410SOL     OW 9247   2.456   4.469   2.514
 2410SOL    HW1 9248   2.506   4.554   2.495
 2410SOL    HW2 9249   2.368   4.471   2.466
 2411SOL     OW 9250   3.639   4.066   3.504
 2411SOL    HW1 9251   3.622   4.097   3.410
 2411SOL    HW2 9252   3.555   4.029   3.542
 2412SOL     OW 9253   3.592   4.658   3.379
 2412SOL    HW1 9254   3.630   4.749   3.394
 2412SOL    HW2 9255   3.584   4.641   3.280
 2413SOL     OW 9256   1.941   4.964   2.515
 2413SOL    HW1 9257   1.940   4.917   2.603
 2413SOL    HW2 9258   2.023   4.936   2.464
 2414SOL     OW 9259   3.686   3.916   3.089
 2414SOL    HW1 9260   3.682   3.826   3.133
 2414SOL    HW2 9261   3.689   3.905   2.990
 2415SOL     OW 9262   2.290   4.148   2.382
 2415SOL    HW1 9263   2.320   4.076   2.320
 2415SOL    HW2 9264   2.251   4.108   2.465
 2416SOL     OW 9265   3.286   3.938   2.974
 2416SOL    HW1 9266   3.338   3.873   3.029
 2416SOL    HW2 9267   3.237   4.001   3.035
 2417SOL     OW 9268   2.863   3.758   3.016
 2417SOL    HW1 9269   2.800   3.686   2.985
 2417SOL    HW2 9270   2.956   3.722   3.016
 2418SOL     OW 9271   2.632   5.054   2.163
 2418SOL    HW1 9272   2.586   4.967   2.180
 2418SOL    HW2 9273   2.723   5.051   2.204
 2419SOL     OW 9274   3.214   3.776   2.030
 2419SOL    HW1 9275   3.249   3.735   1.946
 2419SOL    HW2 9276   3.124   3.738   2.050
 2420SOL     OW 9277   3.162   4.177   2.553
 2420SOL    HW1 9278   3.103   4.257   2.557
 2420SOL    HW2 9279   3.177   4.142   2.646
 2421SOL     OW 9280   3.455   3.945   2.744
 2421SOL    HW1 9281   3.371   3.944   2.798
 2421SOL    HW2 9282   3.457   4.028   2.688
 2422SOL     OW 9283   1.901   4.801   2.162
 2422SOL    HW1 9284   2.000   4.790   2.153
 2422SOL    HW2 9285   1.861   4.715   2.194
 2423SOL     OW 9286   2.092   4.352   3.837
 2423SOL    HW1 9287   1.999   4.350   3.874
 2423SOL    HW2 9288   2.093   4.313   3.745
 2424SOL     OW 9289   2.087   3.999   4.720
 2424SOL    HW1 9290   2.122   3.982   4.812
 2424SOL    HW2 9291   1.999   3.954   4.708
 2425SOL     OW 9292   1.881   4.092   4.371
 2425SOL    HW1 9293   1.799   4.135   4.410
 2425SOL    HW2 9294   1.853   4.019   4.308
 2426SOL     OW 9295   2.431   4.999   4.889
 2426SOL    HW1 9296   2.338   4.992   4.852
 2426SOL    HW2 9297   2.442   5.088   4.933
 2427SOL     OW 9298   2.997   4.427   4.441
 2427SOL    HW1 9299   3.054   4.505   4.416
 2427SOL    HW2 9300   2.937   4.453   4.517
 2428SOL     OW 9301   3.617   4.331   3.955
 2428SOL    HW1 9302   3.605   4.318   3.856
 2428SOL    HW2 9303   3.587   4.250   4.004
 2429SOL     OW 9304   2.630   4.868   4.747
 2429SOL    HW1 9305   2.552   4.885   4.807
 2429SOL    HW2 9306   2.664   4.955   4.711
 2430SOL     OW 9307   2.547   4.736   4.389
 2430SOL    HW1 9308   2.616   4.720   4.459
 2430SOL    HW2 9309   2.474   4.793   4.427
 2431SOL     OW 9310   2.197   5.159   4.785
 2431SOL    HW1 9311   2.119   5.128   4.732
 2431SOL    HW2 9312   2.255   5.217   4.728
 2432SOL     OW 9313   3.465   4.171   4.461
 2432SOL    HW1 9314   3.391   4.217   4.411
 2432SOL    HW2 9315   3.516   4.239   4.514
 2433SOL     OW 9316   2.102   4.815   4.610
 2433SOL    HW1 9317   2.116   4.731   4.662
 2433SOL    HW2 9318   2.047   4.879   4.665
 2434SOL     OW 9319   1.984   4.367   4.287
 2434SOL    HW1 9320   1.939   4.279   4.304
 2434SOL    HW2 9321   1.983   4.421   4.371
 2435SOL     OW 9322   3.551   4.646   4.336
 2435SOL    HW1 9323   3.646   4.617   4.344
 2435SOL    HW2 9324   3.543   4.711   4.261
 2436SOL     OW 9325   3.503   4.832   4.156
 2436SOL    HW1 9326   3.589   4.834   4.104
 2436SOL    HW2 9327   3.517   4.879   4.244
 2437SOL     OW 9328   2.059   4.700   4.988
 2437SOL    HW1 9329   2.148   4.655   4.974
 2437SOL    HW2 9330   1.986   4.635   4.969
 2438SOL     OW 9331   3.387   4.723   3.914
 2438SOL    HW1 9332   3.324   4.647   3.927
 2438SOL    HW2 9333   3.435   4.741   4.000
 2439SOL     OW 9334   3.328   5.141   4.677
 2439SOL    HW1 9335   3.269   5.147   4.757
 2439SOL    HW2 9336   3.313   5.053   4.631
 2440SOL     OW 9337   3.143   4.069   4.668
 2440SOL    HW1 9338   3.057   4.019   4.655
 2440SOL    HW2 9339   3.205   4.015   4.724
 2441SOL     OW 9340   2.853   4.134   4.966
 2441SOL    HW1 9341   2.776   4.168   5.020
 2441SOL    HW2 9342   2.819   4.083   4.887
 2442SOL     OW 9343   1.938   4.535   4.513
 2442SOL    HW1 9344   2.037   4.523   4.522
 2442SOL    HW2 9345   1.914   4.630   4.534
 2443SOL     OW 9346   2.727   4.072   3.919
 2443SOL    HW1 9347   2.786   4.135   3.870
 2443SOL    HW2 9348   2.746   3.978   3.890
 2444SOL     OW 9349   3.224   4.868   4.269
 2444SOL    HW1 9350   3.307   4.839   4.221
 2444SOL    HW2 9351   3.175   4.935   4.213
 2445SOL     OW 9352   3.657   4.790   4.597
 2445SOL    HW1 9353   3.595   4.775   4.521
 2445SOL    HW2 9354   3.605   4.801   4.682
 2446SOL     OW 9355   2.183   4.667   3.966
 2446SOL    HW1 9356   2.265   4.706   3.924
 2446SOL    HW2 9357   2.156   4.585   3.917
 2447SOL     OW 9358   3.320   4.459   4.452
 2447SOL    HW1 9359   3.315   4.394   4.527
 2447SOL    HW2 9360   3.400   4.518   4.465
 2448SOL     OW 9361   3.494   5.101   3.805
 2448SOL    HW1 9362   3.462   5.195   3.795
 2448SOL    HW2 9363   3.418   5.038   3.793
 2449SOL     OW 9364   3.262   3.831   4.150
 2449SOL    HW1 9365   3.238   3.794   4.060
 2449SOL    HW2 9366   3.361   3.847   4.154
 2450SOL     OW 9367   2.476   3.846   3.841
 2450SOL    HW1 9368   2.574   3.824   3.848
 2450SOL    HW2 9369   2.445   3.829   3.748
 2451SOL     OW 9370   2.665   5.126   4.648
 2451SOL    HW1 9371   2.755   5.140   4.606
 2451SOL    HW2 9372   2.594   5.128   4.577
 2452SOL     OW 9373   2.401   3.788   4.236
 2452SOL    HW1 9374   2.320   3.789   4.294
 2452SOL    HW2 9375   2.404   3.871   4.181
 2453SOL     OW 9376   3.296   4.912   3.765
 2453SOL    HW1 9377   3.328   4.836   3.822
 2453SOL    HW2 9378   3.204   4.939   3.795
 2454SOL     OW 9379   2.159   3.759   3.895
 2454SOL    HW1 9380   2.208   3.843   3.874
 2454SOL    HW2 9381   2.221   3.694   3.940
 2455SOL     OW 9382   2.321   4.876   4.465
 2455SOL    HW1 9383   2.250   4.849   4.530
 2455SOL    HW2 9384   2.295   4.848   4.372
 2456SOL     OW 9385   2.894   4.273   3.740
 2456SOL    HW1 9386   2.853   4.355   3.701
 2456SOL    HW2 9387   2.958   4.299   3.813
 2457SOL     OW 9388   2.879   3.763   4.477
 2457SOL    HW1 9389   2.807   3.768   4.408
 2457SOL    HW2 9390   2.855   3.694   4.546
 2458SOL     OW 9391   3.291   4.897   4.591
 2458SOL    HW1 9392   3.236   4.813   4.584
 2458SOL    HW2 9393   3.317   4.926   4.499
 2459SOL     OW 9394   3.719   4.557   4.101
 2459SOL    HW1 9395   3.761   4.493   4.165
 2459SOL    HW2 9396   3.681   4.506   4.023
 2460SOL     OW 9397   3.526   5.004   4.381
 2460SOL    HW1 9398   3.625   5.012   4.395
 2460SOL    HW2 9399   3.481   5.088   4.412
 2461SOL     OW 9400   3.252   4.299   3.802
 2461SOL    HW1 9401   3.198   4.278   3.883
 2461SOL    HW2 9402   3.343   4.258   3.811
 2462SOL     OW 9403   2.389   3.980   4.052
 2462SOL    HW1 9404   2.416   3.921   3.977
 2462SOL    HW2 9405   2.389   4.075   4.021
 2463SOL     OW 9406   3.500   4.823   4.803
 2463SOL    HW1 9407   3.505   4.904   4.862
 2463SOL    HW2 9408   3.414   4.825   4.752
 2464SOL     OW 9409   2.567   4.774   4.092
 2464SOL    HW1 9410   2.553   4.781   4.191
 2464SOL    HW2 9411   2.651   4.723   4.074
 2465SOL     OW 9412   2.272   4.537   4.975
 2465SOL    HW1 9413   2.358   4.549   5.025
 2465SOL    HW2 9414   2.230   4.450   5.002
 2466SOL     OW 9415   2.229   4.824   4.225
 2466SOL    HW1 9416   2.222   4.907   4.169
 2466SOL    HW2 9417   2.233   4.744   4.165
 2467SOL     OW 9418   2.428   4.261   4.589
 2467SOL    HW1 9419   2.440   4.327   4.515
 2467SOL    HW2 9420   2.474   4.295   4.672
 2468SOL     OW 9421   3.444   4.363   4.196
 2468SOL    HW1 9422   3.413   4.424   4.269
 2468SOL    HW2 9423   3.494   4.415   4.127
 2469SOL     OW 9424   2.435   4.594   4.753
 2469SOL    HW1 9425   2.479   4.683   4.744
 2469SOL    HW2 9426   2.372   4.594   4.830
 2470SOL     OW 9427   3.222   4.586   4.769
 2470SOL    HW1 9428   3.147   4.586   4.703
 2470SOL    HW2 9429   3.259   4.494   4.778
 2471SOL     OW 9430   3.071   4.249   3.999
 2471SOL    HW1 9431   3.084   4.165   4.053
 2471SOL    HW2 9432   3.042   4.323   4.059
 2472SOL     OW 9433   2.169   3.937   4.955
 2472SOL    HW1 9434   2.146   3.974   5.045
 2472SOL    HW2 9435   2.139   3.842   4.949
 2473SOL     OW 9436   2.594   4.358   4.788
 2473SOL    HW1 9437   2.653   4.332   4.712
 2473SOL    HW2 9438   2.566   4.454   4.777
 2474SOL     OW 9439   2.169   3.787   4.342
 2474SOL    HW1 9440   2.158   3.881   4.375
 2474SOL    HW2 9441   2.164   3.724   4.419
 2475SOL     OW 9442   3.484   4.091   4.098
 2475SOL    HW1 9443   3.486   4.015   4.162
 2475SOL    HW2 9444   3.436   4.168   4.138
 2476SOL     OW 9445   2.885   4.490   4.690
 2476SOL    HW1 9446   2.900   4.511   4.786
 2476SOL    HW2 9447   2.855   4.395   4.681
 2477SOL     OW 9448   3.402   3.998   3.849
 2477SOL    HW1 9449   3.341   3.923   3.872
 2477SOL    HW2 9450   3.424   4.050   3.932
 2478SOL     OW 9451   3.165   4.562   3.766
 2478SOL    HW1 9452   3.199   4.469   3.781
 2478SOL    HW2 9453   3.183   4.589   3.671
 2479SOL     OW 9454   2.181   4.534   4.673
 2479SOL    HW1 9455   2.274   4.570   4.678
 2479SOL    HW2 9456   2.175   4.449   4.725
 2480SOL     OW 9457   2.201   4.233   4.730
 2480SOL    HW1 9458   2.149   4.150   4.713
 2480SOL    HW2 9459   2.278   4.238   4.666
 2481SOL     OW 9460   1.870   5.050   3.924
 2481SOL    HW1 9461   1.777   5.071   3.893
 2481SOL    HW2 9462   1.880   4.951   3.937
 2482SOL     OW 9463   2.864   4.520   4.962
 2482SOL    HW1 9464   2.905   4.488   5.048
 2482SOL    HW2 9465   2.768   4.493   4.959
 2483SOL     OW 9466   1.902   4.268   4.838
 2483SOL    HW1 9467   1.987   4.235   4.797
 2483SOL    HW2 9468   1.915   4.283   4.936
 2484SOL     OW 9469   2.533   4.188   4.993
 2484SOL    HW1 9470   2.499   4.099   4.963
 2484SOL    HW2 9471   2.559   4.242   4.913
 2485SOL     OW 9472   3.209   4.783   4.958
 2485SOL    HW1 9473   3.233   4.720   4.884
 2485SOL    HW2 9474   3.119   4.823   4.940
 2486SOL     OW 9475   3.164   4.579   4.033
 2486SOL    HW1 9476   3.078   4.548   4.075
 2486SOL    HW2 9477   3.160   4.565   3.934
 2487SOL     OW 9478   1.945   4.982   4.746
 2487SOL    HW1 9479   1.940   4.981   4.846
 2487SOL    HW2 9480   1.862   4.941   4.708
 2488SOL     OW 9481   3.588   3.859   4.247
 2488SOL    HW1 9482   3.661   3.842   4.180
 2488SOL    HW2 9483   3.557   3.772   4.285
 2489SOL     OW 9484   3.142   4.651   4.396
 2489SOL    HW1 9485   3.202   4.570   4.398
 2489SOL    HW2 9486   3.182   4.720   4.336
 2490SOL     OW 9487   2.692   4.997   5.146
 2490SOL    HW1 9488   2.687   5.030   5.241
 2490SOL    HW2 9489   2.606   5.016   5.100
 2491SOL     OW 9490   3.703   3.899   4.687
 2491SOL    HW1 9491   3.742   3.814   4.651
 2491SOL    HW2 9492   3.605   3.901   4.668
 2492SOL     OW 9493   2.125   4.050   4.444
 2492SOL    HW1 9494   2.046   4.101   4.410
 2492SOL    HW2 9495   2.116   4.035   4.542
 2493SOL     OW 9496   2.684   4.726   5.096
 2493SOL    HW1 9497   2.724   4.725   5.004
 2493SOL    HW2 9498   2.694   4.818   5.136
 2494SOL     OW 9499   2.778   4.634   4.015
 2494SOL    HW1 9500   2.841   4.672   3.947
 2494SOL    HW2 9501   2.818   4.551   4.054
 2495SOL     OW 9502   2.901   4.822   4.420
 2495SOL    HW1 9503   2.831   4.775   4.474
 2495SOL    HW2 9504   2.960   4.754   4.377
 2496SOL     OW 9505   2.876   3.960   4.695
 2496SOL    HW1 9506   2.868   3.924   4.602
 2496SOL    HW2 9507   2.874   3.884   4.760
 2497SOL     OW 9508   1.937   4.069   3.757
 2497SOL    HW1 9509   1.845   4.041   3.728
 2497SOL    HW2 9510   1.968   4.146   3.701
 2498SOL     OW 9511   1.934   3.890   4.042
 2498SOL    HW1 9512   1.917   3.973   3.988
 2498SOL    HW2 9513   2.024   3.853   4.020
 2499SOL     OW 9514   3.312   4.944   5.357
 2499SOL    HW1 9515   3.303   4.934   5.456
 2499SOL    HW2 9516   3.408   4.937   5.331
 2500SOL     OW 9517   3.536   4.607   4.978
 2500SOL    HW1 9518   3.509   4.518   4.941
 2500SOL    HW2 9519   3.537   4.675   4.905
 2501SOL     OW 9520   3.087   4.049   4.173
 2501SOL    HW1 9521   3.152   3.975   4.162
 2501SOL    HW2 9522   3.107   4.099   4.257
 2502SOL     OW 9523   3.592   4.658   5.241
 2502SOL    HW1 9524   3.630   4.749   5.256
 2502SOL    HW2 9525   3.584   4.641   5.142
 2503SOL     OW 9526   2.721   4.680   4.585
 2503SOL    HW1 9527   2.775   4.611   4.633
 2503SOL    HW2 9528   2.689   4.749   4.651
 2504SOL     OW 9529   2.945   4.708   3.811
 2504SOL    HW1 9530   2.922   4.761   3.729
 2504SOL    HW2 9531   3.026   4.652   3.792
 2505SOL     OW 9532   1.941   4.964   4.377
 2505SOL    HW1 9533   1.940   4.917   4.465
 2505SOL    HW2 9534   2.023   4.936   4.326
 2506SOL     OW 9535   3.286   3.938   4.836
 2506SOL    HW1 9536   3.338   3.873   4.891
 2506SOL    HW2 9537   3.237   4.001   4.897
 2507SOL     OW 9538   2.863   3.758   4.878
 2507SOL    HW1 9539   2.800   3.686   4.847
 2507SOL    HW2 9540   2.956   3.722   4.878
 2508SOL     OW 9541   2.632   5.054   4.025
 2508SOL    HW1 9542   2.586   4.967   4.042
 2508SOL    HW2 9543   2.723   5.051   4.066
 2509SOL     OW 9544   3.214   3.776   3.892
 2509SOL    HW1 9545   3.249   3.735   3.808
 2509SOL    HW2 9546   3.124   3.738   3.912
 2510SOL     OW 9547   3.162   4.177   4.415
 2510SOL    HW1 9548   3.103   4.257   4.419
 2510SOL    HW2 9549   3.177   4.142   4.508
 2511SOL     OW 9550   1.901   4.801   4.024
 2511SOL    HW1 9551   2.000   4.790   4.015
 2511SOL    HW2 9552   1.861   4.715   4.056
 2512SOL     OW 9553   3.954   0.628   0.113
 2512SOL    HW1 9554   3.861   0.626   0.150
 2512SOL    HW2 9555   3.955   0.589   0.021
 2513SOL     OW 9556   3.949   0.275   0.996
 2513SOL    HW1 9557   3.984   0.258   1.088
 2513SOL    HW2 9558   3.861   0.230   0.984
 2514SOL     OW 9559   3.743   0.368   0.647
 2514SOL    HW1 9560   3.661   0.411   0.686
 2514SOL    HW2 9561   3.715   0.295   0.584
 2515SOL     OW 9562   4.293   1.275   1.165
 2515SOL    HW1 9563   4.200   1.268   1.128
 2515SOL    HW2 9564   4.304   1.364   1.209
 2516SOL     OW 9565   4.859   0.703   0.717
 2516SOL    HW1 9566   4.916   0.781   0.692
 2516SOL    HW2 9567   4.799   0.729   0.793
 2517SOL     OW 9568   4.492   1.144   1.023
 2517SOL    HW1 9569   4.414   1.161   1.083
 2517SOL    HW2 9570   4.526   1.231   0.987
 2518SOL     OW 9571   4.574   0.798   1.823
 2518SOL    HW1 9572   4.570   0.874   1.888
 2518SOL    HW2 9573   4.596   0.834   1.732
 2519SOL     OW 9574   4.409   1.012   0.665
 2519SOL    HW1 9575   4.478   0.996   0.735
 2519SOL    HW2 9576   4.336   1.069   0.703
 2520SOL     OW 9577   4.410   1.161   1.803
 2520SOL    HW1 9578   4.470   1.240   1.817
 2520SOL    HW2 9579   4.324   1.192   1.762
 2521SOL     OW 9580   4.059   1.435   1.061
 2521SOL    HW1 9581   3.981   1.404   1.008
 2521SOL    HW2 9582   4.117   1.493   1.004
 2522SOL     OW 9583   4.851   1.341   1.690
 2522SOL    HW1 9584   4.898   1.341   1.778
 2522SOL    HW2 9585   4.803   1.254   1.679
 2523SOL     OW 9586   3.954   1.434   0.538
 2523SOL    HW1 9587   3.928   1.530   0.538
 2523SOL    HW2 9588   3.883   1.380   0.583
 2524SOL     OW 9589   3.964   1.091   0.886
 2524SOL    HW1 9590   3.978   1.007   0.938
 2524SOL    HW2 9591   3.909   1.155   0.941
 2525SOL     OW 9592   4.344   1.786   1.439
 2525SOL    HW1 9593   4.252   1.769   1.474
 2525SOL    HW2 9594   4.372   1.878   1.465
 2526SOL     OW 9595   4.330   0.964   0.123
 2526SOL    HW1 9596   4.337   1.048   0.069
 2526SOL    HW2 9597   4.376   0.977   0.211
 2527SOL     OW 9598   3.846   0.643   0.563
 2527SOL    HW1 9599   3.801   0.555   0.580
 2527SOL    HW2 9600   3.845   0.697   0.647
 2528SOL     OW 9601   3.837   0.737   1.597
 2528SOL    HW1 9602   3.925   0.724   1.642
 2528SOL    HW2 9603   3.824   0.834   1.575
 2529SOL     OW 9604   4.337   1.365   0.726
 2529SOL    HW1 9605   4.288   1.278   0.735
 2529SOL    HW2 9606   4.314   1.408   0.639
 2530SOL     OW 9607   5.017   1.228   1.423
 2530SOL    HW1 9608   5.054   1.155   1.365
 2530SOL    HW2 9609   5.069   1.233   1.508
 2531SOL     OW 9610   4.533   0.004   0.502
 2531SOL    HW1 9611   4.573   0.095   0.493
 2531SOL    HW2 9612   4.433   0.012   0.508
 2532SOL     OW 9613   3.921   0.976   1.264
 2532SOL    HW1 9614   4.010   0.931   1.250
 2532SOL    HW2 9615   3.848   0.911   1.245
 2533SOL     OW 9616   4.911   1.792   1.616
 2533SOL    HW1 9617   4.935   1.852   1.540
 2533SOL    HW2 9618   4.918   1.697   1.586
 2534SOL     OW 9619   4.322   0.729   0.270
 2534SOL    HW1 9620   4.346   0.798   0.202
 2534SOL    HW2 9621   4.244   0.762   0.324
 2535SOL     OW 9622   5.005   0.345   0.944
 2535SOL    HW1 9623   4.919   0.295   0.931
 2535SOL    HW2 9624   5.067   0.291   1.000
 2536SOL     OW 9625   4.531   0.605   1.465
 2536SOL    HW1 9626   4.484   0.602   1.554
 2536SOL    HW2 9627   4.480   0.550   1.399
 2537SOL     OW 9628   4.697   0.890   1.572
 2537SOL    HW1 9629   4.743   0.806   1.543
 2537SOL    HW2 9630   4.641   0.924   1.497
 2538SOL     OW 9631   4.715   0.410   1.242
 2538SOL    HW1 9632   4.638   0.444   1.296
 2538SOL    HW2 9633   4.681   0.359   1.163
 2539SOL     OW 9634   4.765   0.701   0.429
 2539SOL    HW1 9635   4.791   0.697   0.525
 2539SOL    HW2 9636   4.680   0.650   0.415
 2540SOL     OW 9637   3.800   0.811   0.789
 2540SOL    HW1 9638   3.899   0.799   0.798
 2540SOL    HW2 9639   3.776   0.906   0.810
 2541SOL     OW 9640   3.854   1.821   1.571
 2541SOL    HW1 9641   3.844   1.806   1.670
 2541SOL    HW2 9642   3.768   1.857   1.535
 2542SOL     OW 9643   4.589   0.348   0.195
 2542SOL    HW1 9644   4.648   0.411   0.146
 2542SOL    HW2 9645   4.608   0.254   0.166
 2543SOL     OW 9646   4.045   0.943   0.242
 2543SOL    HW1 9647   4.127   0.982   0.200
 2543SOL    HW2 9648   4.018   0.861   0.193
 2544SOL     OW 9649   4.185   1.266   1.727
 2544SOL    HW1 9650   4.135   1.267   1.641
 2544SOL    HW2 9651   4.122   1.248   1.803
 2545SOL     OW 9652   4.835   1.776   0.237
 2545SOL    HW1 9653   4.775   1.714   0.287
 2545SOL    HW2 9654   4.866   1.732   0.152
 2546SOL     OW 9655   3.926   0.285   1.498
 2546SOL    HW1 9656   3.846   0.345   1.485
 2546SOL    HW2 9657   3.916   0.236   1.584
 2547SOL     OW 9658   4.188   1.743   0.323
 2547SOL    HW1 9659   4.221   1.782   0.409
 2547SOL    HW2 9660   4.264   1.736   0.258
 2548SOL     OW 9661   3.973   1.785   1.241
 2548SOL    HW1 9662   4.030   1.720   1.291
 2548SOL    HW2 9663   3.957   1.752   1.148
 2549SOL     OW 9664   4.106   0.700   0.480
 2549SOL    HW1 9665   4.151   0.610   0.477
 2549SOL    HW2 9666   4.012   0.689   0.513
 2550SOL     OW 9667   4.505   0.264   1.749
 2550SOL    HW1 9668   4.572   0.203   1.792
 2550SOL    HW2 9669   4.432   0.283   1.814
 2551SOL     OW 9670   4.800   0.683   1.464
 2551SOL    HW1 9671   4.720   0.622   1.467
 2551SOL    HW2 9672   4.881   0.630   1.440
 2552SOL     OW 9673   4.183   1.152   0.741
 2552SOL    HW1 9674   4.112   1.125   0.806
 2552SOL    HW2 9675   4.157   1.124   0.648
 2553SOL     OW 9676   4.995   1.797   0.591
 2553SOL    HW1 9677   5.039   1.861   0.527
 2553SOL    HW2 9678   4.945   1.849   0.661
 2554SOL     OW 9679   4.756   0.549   0.016
 2554SOL    HW1 9680   4.715   0.631  -0.023
 2554SOL    HW2 9681   4.820   0.575   0.089
 2555SOL     OW 9682   3.802   0.556   1.386
 2555SOL    HW1 9683   3.894   0.555   1.345
 2555SOL    HW2 9684   3.796   0.630   1.453
 2556SOL     OW 9685   4.590   0.454   0.642
 2556SOL    HW1 9686   4.558   0.526   0.580
 2556SOL    HW2 9687   4.614   0.373   0.589
 2557SOL     OW 9688   4.741   0.039   0.753
 2557SOL    HW1 9689   4.669   0.044   0.684
 2557SOL    HW2 9690   4.717  -0.030   0.822
 2558SOL     OW 9691   4.212   1.385   0.174
 2558SOL    HW1 9692   4.125   1.370   0.221
 2558SOL    HW2 9693   4.195   1.411   0.079
 2559SOL     OW 9694   4.835   1.195   1.100
 2559SOL    HW1 9695   4.795   1.239   1.181
 2559SOL    HW2 9696   4.794   1.232   1.017
 2560SOL     OW 9697   4.639   0.089   1.402
 2560SOL    HW1 9698   4.664   0.069   1.307
 2560SOL    HW2 9699   4.711   0.145   1.444
 2561SOL     OW 9700   4.704   1.116   1.719
 2561SOL    HW1 9701   4.605   1.122   1.729
 2561SOL    HW2 9702   4.727   1.036   1.663
 2562SOL     OW 9703   4.429   1.050   0.368
 2562SOL    HW1 9704   4.415   1.057   0.467
 2562SOL    HW2 9705   4.513   0.999   0.350
 2563SOL     OW 9706   4.134   0.813   1.251
 2563SOL    HW1 9707   4.220   0.825   1.301
 2563SOL    HW2 9708   4.092   0.726   1.278
 2564SOL     OW 9709   4.998   0.386   1.262
 2564SOL    HW1 9710   5.019   0.460   1.326
 2564SOL    HW2 9711   4.909   0.403   1.219
 2565SOL     OW 9712   3.788   1.564   1.331
 2565SOL    HW1 9713   3.742   1.646   1.297
 2565SOL    HW2 9714   3.886   1.583   1.340
 2566SOL     OW 9715   4.091   1.100   0.501
 2566SOL    HW1 9716   4.084   1.183   0.445
 2566SOL    HW2 9717   4.095   1.020   0.441
 2567SOL     OW 9718   4.078   1.510   1.329
 2567SOL    HW1 9719   4.057   1.466   1.242
 2567SOL    HW2 9720   4.175   1.536   1.332
 2568SOL     OW 9721   4.126   0.751   1.598
 2568SOL    HW1 9722   4.194   0.806   1.551
 2568SOL    HW2 9723   4.166   0.663   1.625
 2569SOL     OW 9724   4.737   0.105   1.770
 2569SOL    HW1 9725   4.743   0.190   1.718
 2569SOL    HW2 9726   4.769   0.029   1.713
 2570SOL     OW 9727   4.228   0.050   1.740
 2570SOL    HW1 9728   4.186  -0.007   1.670
 2570SOL    HW2 9729   4.162   0.119   1.772
 2571SOL     OW 9730   5.084   0.862   1.045
 2571SOL    HW1 9731   5.009   0.862   0.979
 2571SOL    HW2 9732   5.121   0.770   1.054
 2572SOL     OW 9733   4.933   0.525   0.275
 2572SOL    HW1 9734   4.946   0.441   0.329
 2572SOL    HW2 9735   4.904   0.599   0.335
 2573SOL     OW 9736   4.031   0.213   1.231
 2573SOL    HW1 9737   4.008   0.250   1.321
 2573SOL    HW2 9738   4.001   0.118   1.225
 2574SOL     OW 9739   3.761   1.310   1.282
 2574SOL    HW1 9740   3.814   1.261   1.350
 2574SOL    HW2 9741   3.783   1.408   1.287
 2575SOL     OW 9742   4.031   0.063   0.618
 2575SOL    HW1 9743   4.020   0.157   0.651
 2575SOL    HW2 9744   4.026   0.000   0.695
 2576SOL     OW 9745   5.346   0.367   0.374
 2576SOL    HW1 9746   5.348   0.291   0.438
 2576SOL    HW2 9747   5.298   0.444   0.414
 2577SOL     OW 9748   4.747   0.766   0.966
 2577SOL    HW1 9749   4.762   0.787   1.062
 2577SOL    HW2 9750   4.717   0.671   0.957
 2578SOL     OW 9751   4.704   1.573   1.700
 2578SOL    HW1 9752   4.684   1.617   1.612
 2578SOL    HW2 9753   4.743   1.482   1.684
 2579SOL     OW 9754   4.074   0.898   1.804
 2579SOL    HW1 9755   4.150   0.942   1.852
 2579SOL    HW2 9756   4.109   0.851   1.722
 2580SOL     OW 9757   5.027   0.838   0.042
 2580SOL    HW1 9758   5.061   0.745   0.057
 2580SOL    HW2 9759   5.045   0.865  -0.053
 2581SOL     OW 9760   4.862   0.380   1.678
 2581SOL    HW1 9761   4.817   0.443   1.742
 2581SOL    HW2 9762   4.955   0.411   1.661
 2582SOL     OW 9763   4.884   0.207   1.477
 2582SOL    HW1 9764   4.884   0.271   1.554
 2582SOL    HW2 9765   4.912   0.255   1.394
 2583SOL     OW 9766   4.726   0.796   1.238
 2583SOL    HW1 9767   4.767   0.764   1.324
 2583SOL    HW2 9768   4.630   0.769   1.235
 2584SOL     OW 9769   3.764   0.544   1.114
 2584SOL    HW1 9770   3.849   0.511   1.073
 2584SOL    HW2 9771   3.777   0.559   1.212
 2585SOL     OW 9772   3.913   0.520   1.722
 2585SOL    HW1 9773   3.972   0.480   1.652
 2585SOL    HW2 9774   3.855   0.591   1.681
 2586SOL     OW 9775   4.539   0.572   0.325
 2586SOL    HW1 9776   4.546   0.483   0.279
 2586SOL    HW2 9777   4.445   0.606   0.317
 2587SOL     OW 9778   3.976   1.564   1.744
 2587SOL    HW1 9779   3.946   1.621   1.820
 2587SOL    HW2 9780   3.969   1.467   1.770
 2588SOL     OW 9781   4.654   1.678   1.465
 2588SOL    HW1 9782   4.630   1.660   1.370
 2588SOL    HW2 9783   4.684   1.772   1.475
 2589SOL     OW 9784   4.197   0.500   0.191
 2589SOL    HW1 9785   4.258   0.580   0.195
 2589SOL    HW2 9786   4.102   0.531   0.198
 2590SOL     OW 9787   3.883   1.137   1.466
 2590SOL    HW1 9788   3.905   1.076   1.542
 2590SOL    HW2 9789   3.893   1.088   1.380
 2591SOL     OW 9790   5.071   1.059   1.234
 2591SOL    HW1 9791   5.095   0.996   1.160
 2591SOL    HW2 9792   4.981   1.099   1.216
 2592SOL     OW 9793   4.976   1.731   1.128
 2592SOL    HW1 9794   5.060   1.736   1.074
 2592SOL    HW2 9795   4.953   1.635   1.146
 2593SOL     OW 9796   3.807   1.258   1.022
 2593SOL    HW1 9797   3.802   1.257   1.122
 2593SOL    HW2 9798   3.724   1.217   0.984
 2594SOL     OW 9799   4.412   1.662   1.716
 2594SOL    HW1 9800   4.356   1.743   1.725
 2594SOL    HW2 9801   4.464   1.666   1.630
 2595SOL     OW 9802   3.854   1.794   1.851
 2595SOL    HW1 9803   3.813   1.720   1.904
 2595SOL    HW2 9804   3.918   1.845   1.909
 2596SOL     OW 9805   5.004   0.927   0.672
 2596SOL    HW1 9806   5.064   0.846   0.674
 2596SOL    HW2 9807   5.044   0.996   0.612
 2597SOL     OW 9808   4.554   1.273   1.422
 2597SOL    HW1 9809   4.549   1.306   1.517
 2597SOL    HW2 9810   4.468   1.292   1.376
 2598SOL     OW 9811   4.396   1.616   0.154
 2598SOL    HW1 9812   4.405   1.626   0.055
 2598SOL    HW2 9813   4.356   1.527   0.175
 2599SOL     OW 9814   4.918   1.612   0.031
 2599SOL    HW1 9815   4.924   1.519   0.068
 2599SOL    HW2 9816   4.859   1.612  -0.049
 2600SOL     OW 9817   4.546   1.002   1.372
 2600SOL    HW1 9818   4.586   1.001   1.280
 2600SOL    HW2 9819   4.556   1.094   1.412
 2601SOL     OW 9820   4.640   0.910   0.291
 2601SOL    HW1 9821   4.703   0.948   0.223
 2601SOL    HW2 9822   4.680   0.827   0.330
 2602SOL     OW 9823   4.096   1.288   1.490
 2602SOL    HW1 9824   4.083   1.381   1.456
 2602SOL    HW2 9825   4.012   1.236   1.477
 2603SOL     OW 9826   4.738   0.236   0.971
 2603SOL    HW1 9827   4.730   0.200   0.878
 2603SOL    HW2 9828   4.736   0.160   1.036
 2604SOL     OW 9829   3.979   1.348   0.290
 2604SOL    HW1 9830   3.883   1.349   0.263
 2604SOL    HW2 9831   3.991   1.401   0.374
 2605SOL     OW 9832   3.829   1.013   1.726
 2605SOL    HW1 9833   3.752   0.980   1.780
 2605SOL    HW2 9834   3.914   0.983   1.768
 2606SOL     OW 9835   4.396   0.203   1.489
 2606SOL    HW1 9836   4.486   0.187   1.449
 2606SOL    HW2 9837   4.404   0.208   1.588
 2607SOL     OW 9838   5.164   0.856   1.398
 2607SOL    HW1 9839   5.107   0.908   1.335
 2607SOL    HW2 9840   5.260   0.868   1.374
 2608SOL     OW 9841   4.337   0.842   1.431
 2608SOL    HW1 9842   4.393   0.923   1.414
 2608SOL    HW2 9843   4.396   0.762   1.434
 2609SOL     OW 9844   4.440   0.565   1.708
 2609SOL    HW1 9845   4.459   0.630   1.782
 2609SOL    HW2 9846   4.500   0.485   1.717
 2610SOL     OW 9847   4.114   1.741   1.560
 2610SOL    HW1 9848   4.023   1.782   1.558
 2610SOL    HW2 9849   4.107   1.647   1.592
 2611SOL     OW 9850   4.949   0.325   0.449
 2611SOL    HW1 9851   5.014   0.251   0.438
 2611SOL    HW2 9852   4.969   0.375   0.533
 2612SOL     OW 9853   4.318   0.745   0.652
 2612SOL    HW1 9854   4.368   0.830   0.633
 2612SOL    HW2 9855   4.230   0.747   0.604
 2613SOL     OW 9856   4.583   1.374   0.016
 2613SOL    HW1 9857   4.537   1.389   0.104
 2613SOL    HW2 9858   4.627   1.459  -0.014
 2614SOL     OW 9859   4.385   1.790   0.953
 2614SOL    HW1 9860   4.339   1.878   0.940
 2614SOL    HW2 9861   4.484   1.802   0.946
 2615SOL     OW 9862   4.583   0.956   0.861
 2615SOL    HW1 9863   4.637   0.887   0.909
 2615SOL    HW2 9864   4.551   1.025   0.927
 2616SOL     OW 9865   4.807   0.984   0.087
 2616SOL    HW1 9866   4.784   1.037   0.005
 2616SOL    HW2 9867   4.888   0.928   0.068
 2617SOL     OW 9868   3.945   1.314   1.844
 2617SOL    HW1 9869   3.880   1.241   1.823
 2617SOL    HW2 9870   3.949   1.328   1.942
 2618SOL     OW 9871   3.803   1.240   0.653
 2618SOL    HW1 9872   3.802   1.193   0.741
 2618SOL    HW2 9873   3.885   1.212   0.602
 2619SOL     OW 9874   4.396   1.391   1.624
 2619SOL    HW1 9875   4.318   1.341   1.662
 2619SOL    HW2 9876   4.393   1.486   1.655
 2620SOL     OW 9877   4.041   0.547   1.280
 2620SOL    HW1 9878   4.079   0.488   1.352
 2620SOL    HW2 9879   4.081   0.521   1.192
 2621SOL     OW 9880   4.725   0.034   1.154
 2621SOL    HW1 9881   4.662  -0.038   1.123
 2621SOL    HW2 9882   4.818  -0.002   1.154
 2622SOL     OW 9883   4.342   1.567   1.284
 2622SOL    HW1 9884   4.337   1.649   1.341
 2622SOL    HW2 9885   4.431   1.564   1.239
 2623SOL     OW 9886   3.763   1.077   0.300
 2623SOL    HW1 9887   3.862   1.066   0.291
 2623SOL    HW2 9888   3.723   0.991   0.332
 2624SOL     OW 9889   4.599   1.646   0.337
 2624SOL    HW1 9890   4.522   1.611   0.283
 2624SOL    HW2 9891   4.567   1.717   0.399
 2625SOL     OW 9892   3.954   0.628   1.975
 2625SOL    HW1 9893   3.861   0.626   2.012
 2625SOL    HW2 9894   3.955   0.589   1.883
 2626SOL     OW 9895   4.859   0.703   2.579
 2626SOL    HW1 9896   4.916   0.781   2.554
 2626SOL    HW2 9897   4.799   0.729   2.655
 2627SOL     OW 9898   4.492   1.144   2.885
 2627SOL    HW1 9899   4.414   1.161   2.945
 2627SOL    HW2 9900   4.526   1.231   2.849
 2628SOL     OW 9901   4.409   1.012   2.527
 2628SOL    HW1 9902   4.478   0.996   2.597
 2628SOL    HW2 9903   4.336   1.069   2.565
 2629SOL     OW 9904   4.410   1.161   3.665
 2629SOL    HW1 9905   4.470   1.240   3.679
 2629SOL    HW2 9906   4.324   1.192   3.624
 2630SOL     OW 9907   4.059   1.435   2.923
 2630SOL    HW1 9908   3.981   1.404   2.870
 2630SOL    HW2 9909   4.117   1.493   2.866
 2631SOL     OW 9910   4.162   0.392   3.361
 2631SOL    HW1 9911   4.244   0.336   3.370
 2631SOL    HW2 9912   4.081   0.334   3.365
 2632SOL     OW 9913   3.955   1.713   2.345
 2632SOL    HW1 9914   3.989   1.790   2.399
 2632SOL    HW2 9915   3.999   1.713   2.255
 2633SOL     OW 9916   4.851   1.341   3.552
 2633SOL    HW1 9917   4.898   1.341   3.640
 2633SOL    HW2 9918   4.803   1.254   3.541
 2634SOL     OW 9919   3.954   1.434   2.400
 2634SOL    HW1 9920   3.928   1.530   2.400
 2634SOL    HW2 9921   3.883   1.380   2.445
 2635SOL     OW 9922   4.344   1.786   3.301
 2635SOL    HW1 9923   4.252   1.769   3.336
 2635SOL    HW2 9924   4.372   1.878   3.327
 2636SOL     OW 9925   4.330   0.964   1.985
 2636SOL    HW1 9926   4.337   1.048   1.931
 2636SOL    HW2 9927   4.376   0.977   2.073
 2637SOL     OW 9928   3.751   1.596   1.979
 2637SOL    HW1 9929   3.732   1.500   2.000
 2637SOL    HW2 9930   3.718   1.654   2.054
 2638SOL     OW 9931   3.837   0.737   3.459
 2638SOL    HW1 9932   3.925   0.724   3.504
 2638SOL    HW2 9933   3.824   0.834   3.437
 2639SOL     OW 9934   4.337   1.365   2.588
 2639SOL    HW1 9935   4.288   1.278   2.597
 2639SOL    HW2 9936   4.314   1.408   2.501
 2640SOL     OW 9937   5.017   1.228   3.285
 2640SOL    HW1 9938   5.054   1.155   3.227
 2640SOL    HW2 9939   5.069   1.233   3.370
 2641SOL     OW 9940   4.533   0.004   2.364
 2641SOL    HW1 9941   4.573   0.095   2.355
 2641SOL    HW2 9942   4.433   0.012   2.370
 2642SOL     OW 9943   4.911   1.792   3.478
 2642SOL    HW1 9944   4.935   1.852   3.402
 2642SOL    HW2 9945   4.918   1.697   3.448
 2643SOL     OW 9946   4.041   0.251   3.663
 2643SOL    HW1 9947   4.112   0.322   3.669
 2643SOL    HW2 9948   3.953   0.290   3.691
 2644SOL     OW 9949   4.322   0.729   2.132
 2644SOL    HW1 9950   4.346   0.798   2.064
 2644SOL    HW2 9951   4.244   0.762   2.186
 2645SOL     OW 9952   5.005   0.345   2.806
 2645SOL    HW1 9953   4.919   0.295   2.793
 2645SOL    HW2 9954   5.067   0.291   2.862
 2646SOL     OW 9955   4.715   0.410   3.104
 2646SOL    HW1 9956   4.638   0.444   3.158
 2646SOL    HW2 9957   4.681   0.359   3.025
 2647SOL     OW 9958   4.765   0.701   2.291
 2647SOL    HW1 9959   4.791   0.697   2.387
 2647SOL    HW2 9960   4.680   0.650   2.277
 2648SOL     OW 9961   3.800   0.811   2.651
 2648SOL    HW1 9962   3.899   0.799   2.660
 2648SOL    HW2 9963   3.776   0.906   2.672
 2649SOL     OW 9964   4.589   0.348   2.057
 2649SOL    HW1 9965   4.648   0.411   2.008
 2649SOL    HW2 9966   4.608   0.254   2.028
 2650SOL     OW 9967   4.274   0.196   2.747
 2650SOL    HW1 9968   4.269   0.191   2.847
 2650SOL    HW2 9969   4.276   0.292   2.718
 2651SOL     OW 9970   4.075   1.801   2.715
 2651SOL    HW1 9971   4.125   1.715   2.721
 2651SOL    HW2 9972   4.140   1.878   2.712
 2652SOL     OW 9973   4.951   1.550   3.368
 2652SOL    HW1 9974   4.957   1.473   3.432
 2652SOL    HW2 9975   4.899   1.524   3.288
 2653SOL     OW 9976   4.045   0.943   2.104
 2653SOL    HW1 9977   4.127   0.982   2.062
 2653SOL    HW2 9978   4.018   0.861   2.055
 2654SOL     OW 9979   3.926   0.285   3.360
 2654SOL    HW1 9980   3.846   0.345   3.347
 2654SOL    HW2 9981   3.916   0.236   3.446
 2655SOL     OW 9982   4.188   1.743   2.185
 2655SOL    HW1 9983   4.221   1.782   2.271
 2655SOL    HW2 9984   4.264   1.736   2.120
 2656SOL     OW 9985   3.973   1.785   3.103
 2656SOL    HW1 9986   4.030   1.720   3.153
 2656SOL    HW2 9987   3.957   1.752   3.010
 2657SOL     OW 9988   4.664   1.698   2.766
 2657SOL    HW1 9989   4.744   1.641   2.787
 2657SOL    HW2 9990   4.615   1.658   2.689
 2658SOL     OW 9991   4.338   0.122   1.979
 2658SOL    HW1 9992   4.436   0.100   1.986
 2658SOL    HW2 9993   4.307   0.105   1.886
 2659SOL     OW 9994   4.612   1.514   3.057
 2659SOL    HW1 9995   4.589   1.489   2.963
 2659SOL    HW2 9996   4.673   1.445   3.096
 2660SOL     OW 9997   4.527   1.402   2.786
 2660SOL    HW1 9998   4.617   1.416   2.744
 2660SOL    HW2 9999   4.456   1.404   2.715
 2661SOL     OW10000   4.646   0.503   2.761
 2661SOL    HW110001   4.621   0.494   2.665
 2661SOL    HW210002   4.694   0.421   2.792
 2662SOL     OW10003   4.659   0.236   2.342
 2662SOL    HW110004   4.611   0.277   2.264
 2662SOL    HW210005   4.758   0.234   2.323
 2663SOL     OW10006   4.951   1.570   2.655
 2663SOL    HW110007   4.972   1.644   2.590
 2663SOL    HW210008   5.019   1.570   2.728
 2664SOL     OW10009   4.183   1.152   2.603
 2664SOL    HW110010   4.112   1.125   2.668
 2664SOL    HW210011   4.157   1.124   2.510
 2665SOL     OW10012   4.756   0.549   1.878
 2665SOL    HW110013   4.715   0.631   1.839
 2665SOL    HW210014   4.820   0.575   1.951
 2666SOL     OW10015   3.802   0.556   3.248
 2666SOL    HW110016   3.894   0.555   3.207
 2666SOL    HW210017   3.796   0.630   3.315
 2667SOL     OW10018   4.590   0.454   2.504
 2667SOL    HW110019   4.558   0.526   2.442
 2667SOL    HW210020   4.614   0.373   2.451
 2668SOL     OW10021   4.741   0.039   2.615
 2668SOL    HW110022   4.669   0.044   2.546
 2668SOL    HW210023   4.717  -0.030   2.684
 2669SOL     OW10024   4.212   1.385   2.036
 2669SOL    HW110025   4.125   1.370   2.083
 2669SOL    HW210026   4.195   1.411   1.941
 2670SOL     OW10027   4.251   0.256   2.190
 2670SOL    HW110028   4.278   0.197   2.115
 2670SOL    HW210029   4.251   0.351   2.159
 2671SOL     OW10030   4.788   1.347   3.202
 2671SOL    HW110031   4.708   1.324   3.257
 2671SOL    HW210032   4.871   1.321   3.251
 2672SOL     OW10033   4.835   1.195   2.962
 2672SOL    HW110034   4.795   1.239   3.043
 2672SOL    HW210035   4.794   1.232   2.879
 2673SOL     OW10036   4.639   0.089   3.264
 2673SOL    HW110037   4.664   0.069   3.169
 2673SOL    HW210038   4.711   0.145   3.306
 2674SOL     OW10039   4.429   1.050   2.230
 2674SOL    HW110040   4.415   1.057   2.329
 2674SOL    HW210041   4.513   0.999   2.212
 2675SOL     OW10042   4.134   0.813   3.113
 2675SOL    HW110043   4.220   0.825   3.163
 2675SOL    HW210044   4.092   0.726   3.140
 2676SOL     OW10045   4.998   0.386   3.124
 2676SOL    HW110046   5.019   0.460   3.188
 2676SOL    HW210047   4.909   0.403   3.081
 2677SOL     OW10048   4.091   1.100   2.363
 2677SOL    HW110049   4.084   1.183   2.307
 2677SOL    HW210050   4.095   1.020   2.303
 2678SOL     OW10051   4.290   0.537   2.727
 2678SOL    HW110052   4.302   0.603   2.653
 2678SOL    HW210053   4.336   0.571   2.810
 2679SOL     OW10054   4.078   1.510   3.191
 2679SOL    HW110055   4.057   1.466   3.104
 2679SOL    HW210056   4.175   1.536   3.194
 2680SOL     OW10057   4.126   0.751   3.460
 2680SOL    HW110058   4.194   0.806   3.413
 2680SOL    HW210059   4.166   0.663   3.487
 2681SOL     OW10060   4.228   0.050   3.602
 2681SOL    HW110061   4.186  -0.007   3.532
 2681SOL    HW210062   4.162   0.119   3.634
 2682SOL     OW10063   4.933   0.525   2.137
 2682SOL    HW110064   4.946   0.441   2.191
 2682SOL    HW210065   4.904   0.599   2.197
 2683SOL     OW10066   4.456   0.634   2.926
 2683SOL    HW110067   4.515   0.608   2.850
 2683SOL    HW210068   4.428   0.730   2.915
 2684SOL     OW10069   5.346   0.367   2.236
 2684SOL    HW110070   5.348   0.291   2.300
 2684SOL    HW210071   5.298   0.444   2.276
 2685SOL     OW10072   4.704   1.573   3.562
 2685SOL    HW110073   4.684   1.617   3.474
 2685SOL    HW210074   4.743   1.482   3.546
 2686SOL     OW10075   4.074   0.898   3.666
 2686SOL    HW110076   4.150   0.942   3.714
 2686SOL    HW210077   4.109   0.851   3.584
 2687SOL     OW10078   5.027   0.838   1.904
 2687SOL    HW110079   5.061   0.745   1.919
 2687SOL    HW210080   5.045   0.865   1.809
 2688SOL     OW10081   4.792   1.333   2.711
 2688SOL    HW110082   4.799   1.249   2.656
 2688SOL    HW210083   4.854   1.402   2.675
 2689SOL     OW10084   4.884   0.207   3.339
 2689SOL    HW110085   4.884   0.271   3.416
 2689SOL    HW210086   4.912   0.255   3.256
 2690SOL     OW10087   3.732   1.326   2.062
 2690SOL    HW110088   3.639   1.347   2.031
 2690SOL    HW210089   3.742   1.227   2.075
 2691SOL     OW10090   3.812   1.801   2.789
 2691SOL    HW110091   3.770   1.715   2.762
 2691SOL    HW210092   3.906   1.804   2.755
 2692SOL     OW10093   4.228   1.568   2.772
 2692SOL    HW110094   4.294   1.642   2.781
 2692SOL    HW210095   4.272   1.489   2.730
 2693SOL     OW10096   3.913   0.520   3.584
 2693SOL    HW110097   3.972   0.480   3.514
 2693SOL    HW210098   3.855   0.591   3.543
 2694SOL     OW10099   4.539   0.572   2.187
 2694SOL    HW110100   4.546   0.483   2.141
 2694SOL    HW210101   4.445   0.606   2.179
 2695SOL     OW10102   4.395   0.464   3.131
 2695SOL    HW110103   4.361   0.375   3.101
 2695SOL    HW210104   4.421   0.518   3.051
 2696SOL     OW10105   4.654   1.678   3.327
 2696SOL    HW110106   4.630   1.660   3.232
 2696SOL    HW210107   4.684   1.772   3.337
 2697SOL     OW10108   4.976   1.731   2.990
 2697SOL    HW110109   5.060   1.736   2.936
 2697SOL    HW210110   4.953   1.635   3.008
 2698SOL     OW10111   4.412   1.662   3.578
 2698SOL    HW110112   4.356   1.743   3.587
 2698SOL    HW210113   4.464   1.666   3.492
 2699SOL     OW10114   4.396   1.616   2.016
 2699SOL    HW110115   4.405   1.626   1.917
 2699SOL    HW210116   4.356   1.527   2.037
 2700SOL     OW10117   4.918   1.612   1.893
 2700SOL    HW110118   4.924   1.519   1.930
 2700SOL    HW210119   4.859   1.612   1.813
 2701SOL     OW10120   4.546   1.002   3.234
 2701SOL    HW110121   4.586   1.001   3.142
 2701SOL    HW210122   4.556   1.094   3.274
 2702SOL     OW10123   4.640   0.910   2.153
 2702SOL    HW110124   4.703   0.948   2.085
 2702SOL    HW210125   4.680   0.827   2.192
 2703SOL     OW10126   4.738   0.236   2.833
 2703SOL    HW110127   4.730   0.200   2.740
 2703SOL    HW210128   4.736   0.160   2.898
 2704SOL     OW10129   4.314   1.487   2.353
 2704SOL    HW110130   4.356   1.429   2.283
 2704SOL    HW210131   4.270   1.566   2.309
 2705SOL     OW10132   3.979   1.348   2.152
 2705SOL    HW110133   3.883   1.349   2.125
 2705SOL    HW210134   3.991   1.401   2.236
 2706SOL     OW10135   3.829   1.013   3.588
 2706SOL    HW110136   3.752   0.980   3.642
 2706SOL    HW210137   3.914   0.983   3.630
 2707SOL     OW10138   4.396   0.203   3.351
 2707SOL    HW110139   4.486   0.187   3.311
 2707SOL    HW210140   4.404   0.208   3.450
 2708SOL     OW10141   3.799   0.345   1.895
 2708SOL    HW110142   3.707   0.317   1.866
 2708SOL    HW210143   3.830   0.422   1.839
 2709SOL     OW10144   4.114   1.741   3.422
 2709SOL    HW110145   4.023   1.782   3.420
 2709SOL    HW210146   4.107   1.647   3.454
 2710SOL     OW10147   4.949   0.325   2.311
 2710SOL    HW110148   5.014   0.251   2.300
 2710SOL    HW210149   4.969   0.375   2.395
 2711SOL     OW10150   4.583   1.374   1.878
 2711SOL    HW110151   4.537   1.389   1.966
 2711SOL    HW210152   4.627   1.459   1.848
 2712SOL     OW10153   4.385   1.790   2.815
 2712SOL    HW110154   4.339   1.878   2.802
 2712SOL    HW210155   4.484   1.802   2.808
 2713SOL     OW10156   4.583   0.956   2.723
 2713SOL    HW110157   4.637   0.887   2.771
 2713SOL    HW210158   4.551   1.025   2.789
 2714SOL     OW10159   4.807   0.984   1.949
 2714SOL    HW110160   4.784   1.037   1.867
 2714SOL    HW210161   4.888   0.928   1.930
 2715SOL     OW10162   3.945   1.314   3.706
 2715SOL    HW110163   3.880   1.241   3.685
 2715SOL    HW210164   3.949   1.328   3.804
 2716SOL     OW10165   3.803   1.240   2.515
 2716SOL    HW110166   3.802   1.193   2.603
 2716SOL    HW210167   3.885   1.212   2.464
 2717SOL     OW10168   4.041   0.547   3.142
 2717SOL    HW110169   4.079   0.488   3.214
 2717SOL    HW210170   4.081   0.521   3.054
 2718SOL     OW10171   4.725   0.034   3.016
 2718SOL    HW110172   4.662  -0.038   2.985
 2718SOL    HW210173   4.818  -0.002   3.016
 2719SOL     OW10174   4.494   1.330   2.163
 2719SOL    HW110175   4.448   1.243   2.180
 2719SOL    HW210176   4.585   1.327   2.204
 2720SOL     OW10177   3.763   1.077   2.162
 2720SOL    HW110178   3.862   1.066   2.153
 2720SOL    HW210179   3.723   0.991   2.194
 2721SOL     OW10180   4.599   1.646   2.199
 2721SOL    HW110181   4.522   1.611   2.145
 2721SOL    HW210182   4.567   1.717   2.261
 2722SOL     OW10183   3.954   0.628   3.837
 2722SOL    HW110184   3.861   0.626   3.874
 2722SOL    HW210185   3.955   0.589   3.745
 2723SOL     OW10186   3.949   0.275   4.720
 2723SOL    HW110187   3.984   0.258   4.812
 2723SOL    HW210188   3.861   0.230   4.708
 2724SOL     OW10189   4.293   1.275   4.889
 2724SOL    HW110190   4.200   1.268   4.852
 2724SOL    HW210191   4.304   1.364   4.933
 2725SOL     OW10192   4.859   0.703   4.441
 2725SOL    HW110193   4.916   0.781   4.416
 2725SOL    HW210194   4.799   0.729   4.517
 2726SOL     OW10195   4.492   1.144   4.747
 2726SOL    HW110196   4.414   1.161   4.807
 2726SOL    HW210197   4.526   1.231   4.711
 2727SOL     OW10198   4.409   1.012   4.389
 2727SOL    HW110199   4.478   0.996   4.459
 2727SOL    HW210200   4.336   1.069   4.427
 2728SOL     OW10201   4.059   1.435   4.785
 2728SOL    HW110202   3.981   1.404   4.732
 2728SOL    HW210203   4.117   1.493   4.728
 2729SOL     OW10204   3.955   1.713   4.207
 2729SOL    HW110205   3.989   1.790   4.261
 2729SOL    HW210206   3.999   1.713   4.117
 2730SOL     OW10207   3.954   1.434   4.262
 2730SOL    HW110208   3.928   1.530   4.262
 2730SOL    HW210209   3.883   1.380   4.307
 2731SOL     OW10210   3.964   1.091   4.610
 2731SOL    HW110211   3.978   1.007   4.662
 2731SOL    HW210212   3.909   1.155   4.665
 2732SOL     OW10213   4.344   1.786   5.163
 2732SOL    HW110214   4.252   1.769   5.198
 2732SOL    HW210215   4.372   1.878   5.189
 2733SOL     OW10216   4.330   0.964   3.847
 2733SOL    HW110217   4.337   1.048   3.793
 2733SOL    HW210218   4.376   0.977   3.935
 2734SOL     OW10219   3.846   0.643   4.287
 2734SOL    HW110220   3.801   0.555   4.304
 2734SOL    HW210221   3.845   0.697   4.371
 2735SOL     OW10222   4.337   1.365   4.450
 2735SOL    HW110223   4.288   1.278   4.459
 2735SOL    HW210224   4.314   1.408   4.363
 2736SOL     OW10225   4.533   0.004   4.226
 2736SOL    HW110226   4.573   0.095   4.217
 2736SOL    HW210227   4.433   0.012   4.232
 2737SOL     OW10228   3.921   0.976   4.988
 2737SOL    HW110229   4.010   0.931   4.974
 2737SOL    HW210230   3.848   0.911   4.969
 2738SOL     OW10231   4.322   0.729   3.994
 2738SOL    HW110232   4.346   0.798   3.926
 2738SOL    HW210233   4.244   0.762   4.048
 2739SOL     OW10234   5.005   0.345   4.668
 2739SOL    HW110235   4.919   0.295   4.655
 2739SOL    HW210236   5.067   0.291   4.724
 2740SOL     OW10237   4.715   0.410   4.966
 2740SOL    HW110238   4.638   0.444   5.020
 2740SOL    HW210239   4.681   0.359   4.887
 2741SOL     OW10240   4.765   0.701   4.153
 2741SOL    HW110241   4.791   0.697   4.249
 2741SOL    HW210242   4.680   0.650   4.139
 2742SOL     OW10243   4.589   0.348   3.919
 2742SOL    HW110244   4.648   0.411   3.870
 2742SOL    HW210245   4.608   0.254   3.890
 2743SOL     OW10246   4.274   0.196   4.609
 2743SOL    HW110247   4.269   0.191   4.709
 2743SOL    HW210248   4.276   0.292   4.580
 2744SOL     OW10249   4.732   1.456   4.201
 2744SOL    HW110250   4.686   1.528   4.149
 2744SOL    HW210251   4.728   1.476   4.299
 2745SOL     OW10252   4.075   1.801   4.577
 2745SOL    HW110253   4.125   1.715   4.583
 2745SOL    HW210254   4.140   1.878   4.574
 2746SOL     OW10255   4.045   0.943   3.966
 2746SOL    HW110256   4.127   0.982   3.924
 2746SOL    HW210257   4.018   0.861   3.917
 2747SOL     OW10258   4.835   1.776   3.961
 2747SOL    HW110259   4.775   1.714   4.011
 2747SOL    HW210260   4.866   1.732   3.876
 2748SOL     OW10261   4.188   1.743   4.047
 2748SOL    HW110262   4.221   1.782   4.133
 2748SOL    HW210263   4.264   1.736   3.982
 2749SOL     OW10264   3.973   1.785   4.965
 2749SOL    HW110265   4.030   1.720   5.015
 2749SOL    HW210266   3.957   1.752   4.872
 2750SOL     OW10267   4.664   1.698   4.628
 2750SOL    HW110268   4.744   1.641   4.649
 2750SOL    HW210269   4.615   1.658   4.551
 2751SOL     OW10270   4.106   0.700   4.204
 2751SOL    HW110271   4.151   0.610   4.201
 2751SOL    HW210272   4.012   0.689   4.237
 2752SOL     OW10273   4.338   0.122   3.841
 2752SOL    HW110274   4.436   0.100   3.848
 2752SOL    HW210275   4.307   0.105   3.748
 2753SOL     OW10276   4.527   1.402   4.648
 2753SOL    HW110277   4.617   1.416   4.606
 2753SOL    HW210278   4.456   1.404   4.577
 2754SOL     OW10279   4.646   0.503   4.623
 2754SOL    HW110280   4.621   0.494   4.527
 2754SOL    HW210281   4.694   0.421   4.654
 2755SOL     OW10282   4.263   0.064   4.236
 2755SOL    HW110283   4.182   0.065   4.294
 2755SOL    HW210284   4.266   0.147   4.181
 2756SOL     OW10285   4.021   0.035   3.895
 2756SOL    HW110286   4.070   0.119   3.874
 2756SOL    HW210287   4.083  -0.030   3.940
 2757SOL     OW10288   4.659   0.236   4.204
 2757SOL    HW110289   4.611   0.277   4.126
 2757SOL    HW210290   4.758   0.234   4.185
 2758SOL     OW10291   4.951   1.570   4.517
 2758SOL    HW110292   4.972   1.644   4.452
 2758SOL    HW210293   5.019   1.570   4.590
 2759SOL     OW10294   4.183   1.152   4.465
 2759SOL    HW110295   4.112   1.125   4.530
 2759SOL    HW210296   4.157   1.124   4.372
 2760SOL     OW10297   4.995   1.797   4.315
 2760SOL    HW110298   5.039   1.861   4.251
 2760SOL    HW210299   4.945   1.849   4.385
 2761SOL     OW10300   4.285   0.222   4.871
 2761SOL    HW110301   4.323   0.138   4.908
 2761SOL    HW210302   4.197   0.241   4.915
 2762SOL     OW10303   4.590   0.454   4.366
 2762SOL    HW110304   4.558   0.526   4.304
 2762SOL    HW210305   4.614   0.373   4.313
 2763SOL     OW10306   4.741   0.039   4.477
 2763SOL    HW110307   4.669   0.044   4.408
 2763SOL    HW210308   4.717  -0.030   4.546
 2764SOL     OW10309   4.212   1.385   3.898
 2764SOL    HW110310   4.125   1.370   3.945
 2764SOL    HW210311   4.195   1.411   3.803
 2765SOL     OW10312   5.388   1.280   4.381
 2765SOL    HW110313   5.487   1.288   4.395
 2765SOL    HW210314   5.343   1.364   4.412
 2766SOL     OW10315   4.251   0.256   4.052
 2766SOL    HW110316   4.278   0.197   3.977
 2766SOL    HW210317   4.251   0.351   4.021
 2767SOL     OW10318   4.835   1.195   4.824
 2767SOL    HW110319   4.795   1.239   4.905
 2767SOL    HW210320   4.794   1.232   4.741
 2768SOL     OW10321   4.429   1.050   4.092
 2768SOL    HW110322   4.415   1.057   4.191
 2768SOL    HW210323   4.513   0.999   4.074
 2769SOL     OW10324   4.134   0.813   4.975
 2769SOL    HW110325   4.220   0.825   5.025
 2769SOL    HW210326   4.092   0.726   5.002
 2770SOL     OW10327   4.091   1.100   4.225
 2770SOL    HW110328   4.084   1.183   4.169
 2770SOL    HW210329   4.095   1.020   4.165
 2771SOL     OW10330   4.290   0.537   4.589
 2771SOL    HW110331   4.302   0.603   4.515
 2771SOL    HW210332   4.336   0.571   4.672
 2772SOL     OW10333   4.976   1.348   4.112
 2772SOL    HW110334   5.026   1.425   4.152
 2772SOL    HW210335   4.881   1.350   4.144
 2773SOL     OW10336   4.078   1.510   5.053
 2773SOL    HW110337   4.057   1.466   4.966
 2773SOL    HW210338   4.175   1.536   5.056
 2774SOL     OW10339   4.297   0.870   4.753
 2774SOL    HW110340   4.341   0.959   4.744
 2774SOL    HW210341   4.234   0.870   4.830
 2775SOL     OW10342   5.084   0.862   4.769
 2775SOL    HW110343   5.009   0.862   4.703
 2775SOL    HW210344   5.121   0.770   4.778
 2776SOL     OW10345   4.933   0.525   3.999
 2776SOL    HW110346   4.946   0.441   4.053
 2776SOL    HW210347   4.904   0.599   4.059
 2777SOL     OW10348   4.031   0.213   4.955
 2777SOL    HW110349   4.008   0.250   5.045
 2777SOL    HW210350   4.001   0.118   4.949
 2778SOL     OW10351   3.761   1.310   5.006
 2778SOL    HW110352   3.814   1.261   5.074
 2778SOL    HW210353   3.783   1.408   5.011
 2779SOL     OW10354   4.456   0.634   4.788
 2779SOL    HW110355   4.515   0.608   4.712
 2779SOL    HW210356   4.428   0.730   4.777
 2780SOL     OW10357   4.031   0.063   4.342
 2780SOL    HW110358   4.020   0.157   4.375
 2780SOL    HW210359   4.026   0.000   4.419
 2781SOL     OW10360   4.747   0.766   4.690
 2781SOL    HW110361   4.762   0.787   4.786
 2781SOL    HW210362   4.717   0.671   4.681
 2782SOL     OW10363   4.792   1.333   4.573
 2782SOL    HW110364   4.799   1.249   4.518
 2782SOL    HW210365   4.854   1.402   4.537
 2783SOL     OW10366   4.043   0.810   4.673
 2783SOL    HW110367   4.136   0.846   4.678
 2783SOL    HW210368   4.037   0.725   4.725
 2784SOL     OW10369   4.063   0.509   4.730
 2784SOL    HW110370   4.011   0.426   4.713
 2784SOL    HW210371   4.140   0.514   4.666
 2785SOL     OW10372   4.884   0.207   5.201
 2785SOL    HW110373   4.884   0.271   5.278
 2785SOL    HW210374   4.912   0.255   5.118
 2786SOL     OW10375   3.812   1.801   4.651
 2786SOL    HW110376   3.770   1.715   4.624
 2786SOL    HW210377   3.906   1.804   4.617
 2787SOL     OW10378   4.228   1.568   4.634
 2787SOL    HW110379   4.294   1.642   4.643
 2787SOL    HW210380   4.272   1.489   4.592
 2788SOL     OW10381   4.726   0.796   4.962
 2788SOL    HW110382   4.767   0.764   5.048
 2788SOL    HW210383   4.630   0.769   4.959
 2789SOL     OW10384   3.764   0.544   4.838
 2789SOL    HW110385   3.849   0.511   4.797
 2789SOL    HW210386   3.777   0.559   4.936
 2790SOL     OW10387   4.539   0.572   4.049
 2790SOL    HW110388   4.546   0.483   4.003
 2790SOL    HW210389   4.445   0.606   4.041
 2791SOL     OW10390   4.395   0.464   4.993
 2791SOL    HW110391   4.361   0.375   4.963
 2791SOL    HW210392   4.421   0.518   4.913
 2792SOL     OW10393   4.654   1.678   5.189
 2792SOL    HW110394   4.630   1.660   5.094
 2792SOL    HW210395   4.684   1.772   5.199
 2793SOL     OW10396   4.197   0.500   3.915
 2793SOL    HW110397   4.258   0.580   3.919
 2793SOL    HW210398   4.102   0.531   3.922
 2794SOL     OW10399   5.071   1.059   4.958
 2794SOL    HW110400   5.095   0.996   4.884
 2794SOL    HW210401   4.981   1.099   4.940
 2795SOL     OW10402   4.976   1.731   4.852
 2795SOL    HW110403   5.060   1.736   4.798
 2795SOL    HW210404   4.953   1.635   4.870
 2796SOL     OW10405   3.807   1.258   4.746
 2796SOL    HW110406   3.802   1.257   4.846
 2796SOL    HW210407   3.724   1.217   4.708
 2797SOL     OW10408   5.112   1.573   4.201
 2797SOL    HW110409   5.179   1.585   4.127
 2797SOL    HW210410   5.072   1.662   4.224
 2798SOL     OW10411   5.004   0.927   4.396
 2798SOL    HW110412   5.064   0.846   4.398
 2798SOL    HW210413   5.044   0.996   4.336
 2799SOL     OW10414   4.396   1.616   3.878
 2799SOL    HW110415   4.405   1.626   3.779
 2799SOL    HW210416   4.356   1.527   3.899
 2800SOL     OW10417   3.987   0.326   4.444
 2800SOL    HW110418   3.908   0.377   4.410
 2800SOL    HW210419   3.978   0.311   4.542
 2801SOL     OW10420   4.918   1.612   3.755
 2801SOL    HW110421   4.924   1.519   3.792
 2801SOL    HW210422   4.859   1.612   3.675
 2802SOL     OW10423   4.546   1.002   5.096
 2802SOL    HW110424   4.586   1.001   5.004
 2802SOL    HW210425   4.556   1.094   5.136
 2803SOL     OW10426   4.640   0.910   4.015
 2803SOL    HW110427   4.703   0.948   3.947
 2803SOL    HW210428   4.680   0.827   4.054
 2804SOL     OW10429   4.763   1.098   4.420
 2804SOL    HW110430   4.693   1.051   4.474
 2804SOL    HW210431   4.822   1.030   4.377
 2805SOL     OW10432   4.738   0.236   4.695
 2805SOL    HW110433   4.730   0.200   4.602
 2805SOL    HW210434   4.736   0.160   4.760
 2806SOL     OW10435   4.314   1.487   4.215
 2806SOL    HW110436   4.356   1.429   4.145
 2806SOL    HW210437   4.270   1.566   4.171
 2807SOL     OW10438   3.979   1.348   4.014
 2807SOL    HW110439   3.883   1.349   3.987
 2807SOL    HW210440   3.991   1.401   4.098
 2808SOL     OW10441   3.799   0.345   3.757
 2808SOL    HW110442   3.707   0.317   3.728
 2808SOL    HW210443   3.830   0.422   3.701
 2809SOL     OW10444   4.318   0.745   4.376
 2809SOL    HW110445   4.368   0.830   4.357
 2809SOL    HW210446   4.230   0.747   4.328
 2810SOL     OW10447   4.583   1.374   3.740
 2810SOL    HW110448   4.537   1.389   3.828
 2810SOL    HW210449   4.627   1.459   3.710
 2811SOL     OW10450   4.385   1.790   4.677
 2811SOL    HW110451   4.339   1.878   4.664
 2811SOL    HW210452   4.484   1.802   4.670
 2812SOL     OW10453   4.583   0.956   4.585
 2812SOL    HW110454   4.637   0.887   4.633
 2812SOL    HW210455   4.551   1.025   4.651
 2813SOL     OW10456   4.807   0.984   3.811
 2813SOL    HW110457   4.784   1.037   3.729
 2813SOL    HW210458   4.888   0.928   3.792
 2814SOL     OW10459   4.152   0.424   4.244
 2814SOL    HW110460   4.182   0.352   4.182
 2814SOL    HW210461   4.113   0.384   4.327
 2815SOL     OW10462   4.536   1.586   4.411
 2815SOL    HW110463   4.568   1.596   4.317
 2815SOL    HW210464   4.457   1.524   4.413
 2816SOL     OW10465   4.725   0.034   4.878
 2816SOL    HW110466   4.662  -0.038   4.847
 2816SOL    HW210467   4.818  -0.002   4.878
 2817SOL     OW10468   4.494   1.330   4.025
 2817SOL    HW110469   4.448   1.243   4.042
 2817SOL    HW210470   4.585   1.327   4.066
 2818SOL     OW10471   3.763   1.077   4.024
 2818SOL    HW110472   3.862   1.066   4.015
 2818SOL    HW210473   3.723   0.991   4.056
 2819SOL     OW10474   4.599   1.646   4.061
 2819SOL    HW110475   4.522   1.611   4.007
 2819SOL    HW210476   4.567   1.717   4.123
 2820SOL     OW10477   3.954   2.490   0.113
 2820SOL    HW110478   3.861   2.488   0.150
 2820SOL    HW210479   3.955   2.451   0.021
 2821SOL     OW10480   3.949   2.137   0.996
 2821SOL    HW110481   3.984   2.120   1.088
 2821SOL    HW210482   3.861   2.092   0.984
 2822SOL     OW10483   3.743   2.230   0.647
 2822SOL    HW110484   3.661   2.273   0.686
 2822SOL    HW210485   3.715   2.157   0.584
 2823SOL     OW10486   4.293   3.137   1.165
 2823SOL    HW110487   4.200   3.130   1.128
 2823SOL    HW210488   4.304   3.226   1.209
 2824SOL     OW10489   4.859   2.565   0.717
 2824SOL    HW110490   4.916   2.643   0.692
 2824SOL    HW210491   4.799   2.591   0.793
 2825SOL     OW10492   4.492   3.006   1.023
 2825SOL    HW110493   4.414   3.023   1.083
 2825SOL    HW210494   4.526   3.093   0.987
 2826SOL     OW10495   4.409   2.874   0.665
 2826SOL    HW110496   4.478   2.858   0.735
 2826SOL    HW210497   4.336   2.931   0.703
 2827SOL     OW10498   4.410   3.023   1.803
 2827SOL    HW110499   4.470   3.102   1.817
 2827SOL    HW210500   4.324   3.054   1.762
 2828SOL     OW10501   4.059   3.297   1.061
 2828SOL    HW110502   3.981   3.266   1.008
 2828SOL    HW210503   4.117   3.355   1.004
 2829SOL     OW10504   4.162   2.254   1.499
 2829SOL    HW110505   4.244   2.198   1.508
 2829SOL    HW210506   4.081   2.196   1.503
 2830SOL     OW10507   3.955   3.575   0.483
 2830SOL    HW110508   3.989   3.652   0.537
 2830SOL    HW210509   3.999   3.575   0.393
 2831SOL     OW10510   4.851   3.203   1.690
 2831SOL    HW110511   4.898   3.203   1.778
 2831SOL    HW210512   4.803   3.116   1.679
 2832SOL     OW10513   3.954   3.296   0.538
 2832SOL    HW110514   3.928   3.392   0.538
 2832SOL    HW210515   3.883   3.242   0.583
 2833SOL     OW10516   3.964   2.953   0.886
 2833SOL    HW110517   3.978   2.869   0.938
 2833SOL    HW210518   3.909   3.017   0.941
 2834SOL     OW10519   4.344   3.648   1.439
 2834SOL    HW110520   4.252   3.631   1.474
 2834SOL    HW210521   4.372   3.740   1.465
 2835SOL     OW10522   4.330   2.826   0.123
 2835SOL    HW110523   4.337   2.910   0.069
 2835SOL    HW210524   4.376   2.839   0.211
 2836SOL     OW10525   3.846   2.505   0.563
 2836SOL    HW110526   3.801   2.417   0.580
 2836SOL    HW210527   3.845   2.559   0.647
 2837SOL     OW10528   3.751   3.458   0.117
 2837SOL    HW110529   3.732   3.362   0.138
 2837SOL    HW210530   3.718   3.516   0.192
 2838SOL     OW10531   4.337   3.227   0.726
 2838SOL    HW110532   4.288   3.140   0.735
 2838SOL    HW210533   4.314   3.270   0.639
 2839SOL     OW10534   5.017   3.090   1.423
 2839SOL    HW110535   5.054   3.017   1.365
 2839SOL    HW210536   5.069   3.095   1.508
 2840SOL     OW10537   3.921   2.838   1.264
 2840SOL    HW110538   4.010   2.793   1.250
 2840SOL    HW210539   3.848   2.773   1.245
 2841SOL     OW10540   4.911   3.654   1.616
 2841SOL    HW110541   4.935   3.714   1.540
 2841SOL    HW210542   4.918   3.559   1.586
 2842SOL     OW10543   4.041   2.113   1.801
 2842SOL    HW110544   4.112   2.184   1.807
 2842SOL    HW210545   3.953   2.152   1.829
 2843SOL     OW10546   4.322   2.591   0.270
 2843SOL    HW110547   4.346   2.660   0.202
 2843SOL    HW210548   4.244   2.624   0.324
 2844SOL     OW10549   5.005   2.207   0.944
 2844SOL    HW110550   4.919   2.157   0.931
 2844SOL    HW210551   5.067   2.153   1.000
 2845SOL     OW10552   4.531   2.467   1.465
 2845SOL    HW110553   4.484   2.464   1.554
 2845SOL    HW210554   4.480   2.412   1.399
 2846SOL     OW10555   4.697   2.752   1.572
 2846SOL    HW110556   4.743   2.668   1.543
 2846SOL    HW210557   4.641   2.786   1.497
 2847SOL     OW10558   4.715   2.272   1.242
 2847SOL    HW110559   4.638   2.306   1.296
 2847SOL    HW210560   4.681   2.221   1.163
 2848SOL     OW10561   4.765   2.563   0.429
 2848SOL    HW110562   4.791   2.559   0.525
 2848SOL    HW210563   4.680   2.512   0.415
 2849SOL     OW10564   3.800   2.673   0.789
 2849SOL    HW110565   3.899   2.661   0.798
 2849SOL    HW210566   3.776   2.768   0.810
 2850SOL     OW10567   4.589   2.210   0.195
 2850SOL    HW110568   4.648   2.273   0.146
 2850SOL    HW210569   4.608   2.116   0.166
 2851SOL     OW10570   4.732   3.318   0.477
 2851SOL    HW110571   4.686   3.390   0.425
 2851SOL    HW210572   4.728   3.338   0.575
 2852SOL     OW10573   4.075   3.663   0.853
 2852SOL    HW110574   4.125   3.577   0.859
 2852SOL    HW210575   4.140   3.740   0.850
 2853SOL     OW10576   4.951   3.412   1.506
 2853SOL    HW110577   4.957   3.335   1.570
 2853SOL    HW210578   4.899   3.386   1.426
 2854SOL     OW10579   4.045   2.805   0.242
 2854SOL    HW110580   4.127   2.844   0.200
 2854SOL    HW210581   4.018   2.723   0.193
 2855SOL     OW10582   3.926   2.147   1.498
 2855SOL    HW110583   3.846   2.207   1.485
 2855SOL    HW210584   3.916   2.098   1.584
 2856SOL     OW10585   5.356   3.239   0.081
 2856SOL    HW110586   5.324   3.333   0.071
 2856SOL    HW210587   5.280   3.176   0.069
 2857SOL     OW10588   4.106   2.562   0.480
 2857SOL    HW110589   4.151   2.472   0.477
 2857SOL    HW210590   4.012   2.551   0.513
 2858SOL     OW10591   4.527   3.264   0.924
 2858SOL    HW110592   4.617   3.278   0.882
 2858SOL    HW210593   4.456   3.266   0.853
 2859SOL     OW10594   4.646   2.365   0.899
 2859SOL    HW110595   4.621   2.356   0.803
 2859SOL    HW210596   4.694   2.283   0.930
 2860SOL     OW10597   4.021   1.897   0.171
 2860SOL    HW110598   4.070   1.981   0.150
 2860SOL    HW210599   4.083   1.832   0.216
 2861SOL     OW10600   4.659   2.098   0.480
 2861SOL    HW110601   4.611   2.139   0.402
 2861SOL    HW210602   4.758   2.096   0.461
 2862SOL     OW10603   4.800   2.545   1.464
 2862SOL    HW110604   4.720   2.484   1.467
 2862SOL    HW210605   4.881   2.492   1.440
 2863SOL     OW10606   4.951   3.432   0.793
 2863SOL    HW110607   4.972   3.506   0.728
 2863SOL    HW210608   5.019   3.432   0.866
 2864SOL     OW10609   4.183   3.014   0.741
 2864SOL    HW110610   4.112   2.987   0.806
 2864SOL    HW210611   4.157   2.986   0.648
 2865SOL     OW10612   4.995   3.659   0.591
 2865SOL    HW110613   5.039   3.723   0.527
 2865SOL    HW210614   4.945   3.711   0.661
 2866SOL     OW10615   4.756   2.411   0.016
 2866SOL    HW110616   4.715   2.493  -0.023
 2866SOL    HW210617   4.820   2.437   0.089
 2867SOL     OW10618   3.802   2.418   1.386
 2867SOL    HW110619   3.894   2.417   1.345
 2867SOL    HW210620   3.796   2.492   1.453
 2868SOL     OW10621   4.590   2.316   0.642
 2868SOL    HW110622   4.558   2.388   0.580
 2868SOL    HW210623   4.614   2.235   0.589
 2869SOL     OW10624   4.741   1.901   0.753
 2869SOL    HW110625   4.669   1.906   0.684
 2869SOL    HW210626   4.717   1.832   0.822
 2870SOL     OW10627   4.212   3.247   0.174
 2870SOL    HW110628   4.125   3.232   0.221
 2870SOL    HW210629   4.195   3.273   0.079
 2871SOL     OW10630   5.388   3.142   0.657
 2871SOL    HW110631   5.487   3.150   0.671
 2871SOL    HW210632   5.343   3.226   0.688
 2872SOL     OW10633   4.788   3.209   1.340
 2872SOL    HW110634   4.708   3.186   1.395
 2872SOL    HW210635   4.871   3.183   1.389
 2873SOL     OW10636   4.835   3.057   1.100
 2873SOL    HW110637   4.795   3.101   1.181
 2873SOL    HW210638   4.794   3.094   1.017
 2874SOL     OW10639   4.639   1.951   1.402
 2874SOL    HW110640   4.664   1.931   1.307
 2874SOL    HW210641   4.711   2.007   1.444
 2875SOL     OW10642   4.704   2.978   1.719
 2875SOL    HW110643   4.605   2.984   1.729
 2875SOL    HW210644   4.727   2.898   1.663
 2876SOL     OW10645   4.429   2.912   0.368
 2876SOL    HW110646   4.415   2.919   0.467
 2876SOL    HW210647   4.513   2.861   0.350
 2877SOL     OW10648   4.134   2.675   1.251
 2877SOL    HW110649   4.220   2.687   1.301
 2877SOL    HW210650   4.092   2.588   1.278
 2878SOL     OW10651   4.998   2.248   1.262
 2878SOL    HW110652   5.019   2.322   1.326
 2878SOL    HW210653   4.909   2.265   1.219
 2879SOL     OW10654   4.091   2.962   0.501
 2879SOL    HW110655   4.084   3.045   0.445
 2879SOL    HW210656   4.095   2.882   0.441
 2880SOL     OW10657   4.290   2.399   0.865
 2880SOL    HW110658   4.302   2.465   0.791
 2880SOL    HW210659   4.336   2.433   0.948
 2881SOL     OW10660   4.976   3.210   0.388
 2881SOL    HW110661   5.026   3.287   0.428
 2881SOL    HW210662   4.881   3.212   0.420
 2882SOL     OW10663   4.078   3.372   1.329
 2882SOL    HW110664   4.057   3.328   1.242
 2882SOL    HW210665   4.175   3.398   1.332
 2883SOL     OW10666   4.126   2.613   1.598
 2883SOL    HW110667   4.194   2.668   1.551
 2883SOL    HW210668   4.166   2.525   1.625
 2884SOL     OW10669   4.737   1.967   1.770
 2884SOL    HW110670   4.743   2.052   1.718
 2884SOL    HW210671   4.769   1.891   1.713
 2885SOL     OW10672   4.228   1.912   1.740
 2885SOL    HW110673   4.186   1.855   1.670
 2885SOL    HW210674   4.162   1.981   1.772
 2886SOL     OW10675   4.297   2.732   1.029
 2886SOL    HW110676   4.341   2.821   1.020
 2886SOL    HW210677   4.234   2.732   1.106
 2887SOL     OW10678   5.084   2.724   1.045
 2887SOL    HW110679   5.009   2.724   0.979
 2887SOL    HW210680   5.121   2.632   1.054
 2888SOL     OW10681   4.933   2.387   0.275
 2888SOL    HW110682   4.946   2.303   0.329
 2888SOL    HW210683   4.904   2.461   0.335
 2889SOL     OW10684   4.031   2.075   1.231
 2889SOL    HW110685   4.008   2.112   1.321
 2889SOL    HW210686   4.001   1.980   1.225
 2890SOL     OW10687   4.456   2.496   1.064
 2890SOL    HW110688   4.515   2.470   0.988
 2890SOL    HW210689   4.428   2.592   1.053
 2891SOL     OW10690   5.346   2.229   0.374
 2891SOL    HW110691   5.348   2.153   0.438
 2891SOL    HW210692   5.298   2.306   0.414
 2892SOL     OW10693   4.747   2.628   0.966
 2892SOL    HW110694   4.762   2.649   1.062
 2892SOL    HW210695   4.717   2.533   0.957
 2893SOL     OW10696   4.704   3.435   1.700
 2893SOL    HW110697   4.684   3.479   1.612
 2893SOL    HW210698   4.743   3.344   1.684
 2894SOL     OW10699   4.074   2.760   1.804
 2894SOL    HW110700   4.150   2.804   1.852
 2894SOL    HW210701   4.109   2.713   1.722
 2895SOL     OW10702   5.027   2.700   0.042
 2895SOL    HW110703   5.061   2.607   0.057
 2895SOL    HW210704   5.045   2.727  -0.053
 2896SOL     OW10705   4.792   3.195   0.849
 2896SOL    HW110706   4.799   3.111   0.794
 2896SOL    HW210707   4.854   3.264   0.813
 2897SOL     OW10708   4.043   2.672   0.949
 2897SOL    HW110709   4.136   2.708   0.954
 2897SOL    HW210710   4.037   2.587   1.001
 2898SOL     OW10711   4.063   2.371   1.006
 2898SOL    HW110712   4.011   2.288   0.989
 2898SOL    HW210713   4.140   2.376   0.942
 2899SOL     OW10714   4.862   2.242   1.678
 2899SOL    HW110715   4.817   2.305   1.742
 2899SOL    HW210716   4.955   2.273   1.661
 2900SOL     OW10717   4.884   2.069   1.477
 2900SOL    HW110718   4.884   2.133   1.554
 2900SOL    HW210719   4.912   2.117   1.394
 2901SOL     OW10720   3.812   3.663   0.927
 2901SOL    HW110721   3.770   3.577   0.900
 2901SOL    HW210722   3.906   3.666   0.893
 2902SOL     OW10723   4.726   2.658   1.238
 2902SOL    HW110724   4.767   2.626   1.324
 2902SOL    HW210725   4.630   2.631   1.235
 2903SOL     OW10726   3.764   2.406   1.114
 2903SOL    HW110727   3.849   2.373   1.073
 2903SOL    HW210728   3.777   2.421   1.212
 2904SOL     OW10729   3.913   2.382   1.722
 2904SOL    HW110730   3.972   2.342   1.652
 2904SOL    HW210731   3.855   2.453   1.681
 2905SOL     OW10732   4.539   2.434   0.325
 2905SOL    HW110733   4.546   2.345   0.279
 2905SOL    HW210734   4.445   2.468   0.317
 2906SOL     OW10735   3.976   3.426   1.744
 2906SOL    HW110736   3.946   3.483   1.820
 2906SOL    HW210737   3.969   3.329   1.770
 2907SOL     OW10738   4.395   2.326   1.269
 2907SOL    HW110739   4.361   2.237   1.239
 2907SOL    HW210740   4.421   2.380   1.189
 2908SOL     OW10741   4.197   2.362   0.191
 2908SOL    HW110742   4.258   2.442   0.195
 2908SOL    HW210743   4.102   2.393   0.198
 2909SOL     OW10744   5.071   2.921   1.234
 2909SOL    HW110745   5.095   2.858   1.160
 2909SOL    HW210746   4.981   2.961   1.216
 2910SOL     OW10747   4.412   3.524   1.716
 2910SOL    HW110748   4.356   3.605   1.725
 2910SOL    HW210749   4.464   3.528   1.630
 2911SOL     OW10750   4.627   1.948   0.133
 2911SOL    HW110751   4.678   1.949   0.047
 2911SOL    HW210752   4.683   1.906   0.204
 2912SOL     OW10753   5.112   3.435   0.477
 2912SOL    HW110754   5.179   3.447   0.403
 2912SOL    HW210755   5.072   3.524   0.500
 2913SOL     OW10756   5.004   2.789   0.672
 2913SOL    HW110757   5.064   2.708   0.674
 2913SOL    HW210758   5.044   2.858   0.612
 2914SOL     OW10759   4.554   3.135   1.422
 2914SOL    HW110760   4.549   3.168   1.517
 2914SOL    HW210761   4.468   3.154   1.376
 2915SOL     OW10762   3.987   2.188   0.720
 2915SOL    HW110763   3.908   2.239   0.686
 2915SOL    HW210764   3.978   2.173   0.818
 2916SOL     OW10765   4.918   3.474   0.031
 2916SOL    HW110766   4.924   3.381   0.068
 2916SOL    HW210767   4.859   3.474  -0.049
 2917SOL     OW10768   4.546   2.864   1.372
 2917SOL    HW110769   4.586   2.863   1.280
 2917SOL    HW210770   4.556   2.956   1.412
 2918SOL     OW10771   4.640   2.772   0.291
 2918SOL    HW110772   4.703   2.810   0.223
 2918SOL    HW210773   4.680   2.689   0.330
 2919SOL     OW10774   4.763   2.960   0.696
 2919SOL    HW110775   4.693   2.913   0.750
 2919SOL    HW210776   4.822   2.892   0.653
 2920SOL     OW10777   4.738   2.098   0.971
 2920SOL    HW110778   4.730   2.062   0.878
 2920SOL    HW210779   4.736   2.022   1.036
 2921SOL     OW10780   4.314   3.349   0.491
 2921SOL    HW110781   4.356   3.291   0.421
 2921SOL    HW210782   4.270   3.428   0.447
 2922SOL     OW10783   3.979   3.210   0.290
 2922SOL    HW110784   3.883   3.211   0.263
 2922SOL    HW210785   3.991   3.263   0.374
 2923SOL     OW10786   3.829   2.875   1.726
 2923SOL    HW110787   3.752   2.842   1.780
 2923SOL    HW210788   3.914   2.845   1.768
 2924SOL     OW10789   4.396   2.065   1.489
 2924SOL    HW110790   4.486   2.049   1.449
 2924SOL    HW210791   4.404   2.070   1.588
 2925SOL     OW10792   5.164   2.718   1.398
 2925SOL    HW110793   5.107   2.770   1.335
 2925SOL    HW210794   5.260   2.730   1.374
 2926SOL     OW10795   4.337   2.704   1.431
 2926SOL    HW110796   4.393   2.785   1.414
 2926SOL    HW210797   4.396   2.624   1.434
 2927SOL     OW10798   4.949   2.187   0.449
 2927SOL    HW110799   5.014   2.113   0.438
 2927SOL    HW210800   4.969   2.237   0.533
 2928SOL     OW10801   4.318   2.607   0.652
 2928SOL    HW110802   4.368   2.692   0.633
 2928SOL    HW210803   4.230   2.609   0.604
 2929SOL     OW10804   4.583   2.818   0.861
 2929SOL    HW110805   4.637   2.749   0.909
 2929SOL    HW210806   4.551   2.887   0.927
 2930SOL     OW10807   4.807   2.846   0.087
 2930SOL    HW110808   4.784   2.899   0.005
 2930SOL    HW210809   4.888   2.790   0.068
 2931SOL     OW10810   3.945   3.176   1.844
 2931SOL    HW110811   3.880   3.103   1.823
 2931SOL    HW210812   3.949   3.190   1.942
 2932SOL     OW10813   3.803   3.102   0.653
 2932SOL    HW110814   3.802   3.055   0.741
 2932SOL    HW210815   3.885   3.074   0.602
 2933SOL     OW10816   4.396   3.253   1.624
 2933SOL    HW110817   4.318   3.203   1.662
 2933SOL    HW210818   4.393   3.348   1.655
 2934SOL     OW10819   4.041   2.409   1.280
 2934SOL    HW110820   4.079   2.350   1.352
 2934SOL    HW210821   4.081   2.383   1.192
 2935SOL     OW10822   4.725   1.896   1.154
 2935SOL    HW110823   4.662   1.824   1.123
 2935SOL    HW210824   4.818   1.860   1.154
 2936SOL     OW10825   4.494   3.192   0.301
 2936SOL    HW110826   4.448   3.105   0.318
 2936SOL    HW210827   4.585   3.189   0.342
 2937SOL     OW10828   4.342   3.429   1.284
 2937SOL    HW110829   4.337   3.511   1.341
 2937SOL    HW210830   4.431   3.426   1.239
 2938SOL     OW10831   3.763   2.939   0.300
 2938SOL    HW110832   3.862   2.928   0.291
 2938SOL    HW210833   3.723   2.853   0.332
 2939SOL     OW10834   4.599   3.508   0.337
 2939SOL    HW110835   4.522   3.473   0.283
 2939SOL    HW210836   4.567   3.579   0.399
 2940SOL     OW10837   3.949   2.137   2.858
 2940SOL    HW110838   3.984   2.120   2.950
 2940SOL    HW210839   3.861   2.092   2.846
 2941SOL     OW10840   3.743   2.230   2.509
 2941SOL    HW110841   3.661   2.273   2.548
 2941SOL    HW210842   3.715   2.157   2.446
 2942SOL     OW10843   4.293   3.137   3.027
 2942SOL    HW110844   4.200   3.130   2.990
 2942SOL    HW210845   4.304   3.226   3.071
 2943SOL     OW10846   4.859   2.565   2.579
 2943SOL    HW110847   4.916   2.643   2.554
 2943SOL    HW210848   4.799   2.591   2.655
 2944SOL     OW10849   4.492   3.006   2.885
 2944SOL    HW110850   4.414   3.023   2.945
 2944SOL    HW210851   4.526   3.093   2.849
 2945SOL     OW10852   4.574   2.660   3.685
 2945SOL    HW110853   4.570   2.736   3.750
 2945SOL    HW210854   4.596   2.696   3.594
 2946SOL     OW10855   4.409   2.874   2.527
 2946SOL    HW110856   4.478   2.858   2.597
 2946SOL    HW210857   4.336   2.931   2.565
 2947SOL     OW10858   4.059   3.297   2.923
 2947SOL    HW110859   3.981   3.266   2.870
 2947SOL    HW210860   4.117   3.355   2.866
 2948SOL     OW10861   4.162   2.254   3.361
 2948SOL    HW110862   4.244   2.198   3.370
 2948SOL    HW210863   4.081   2.196   3.365
 2949SOL     OW10864   4.851   3.203   3.552
 2949SOL    HW110865   4.898   3.203   3.640
 2949SOL    HW210866   4.803   3.116   3.541
 2950SOL     OW10867   3.954   3.296   2.400
 2950SOL    HW110868   3.928   3.392   2.400
 2950SOL    HW210869   3.883   3.242   2.445
 2951SOL     OW10870   3.964   2.953   2.748
 2951SOL    HW110871   3.978   2.869   2.800
 2951SOL    HW210872   3.909   3.017   2.803
 2952SOL     OW10873   4.330   2.826   1.985
 2952SOL    HW110874   4.337   2.910   1.931
 2952SOL    HW210875   4.376   2.839   2.073
 2953SOL     OW10876   3.846   2.505   2.425
 2953SOL    HW110877   3.801   2.417   2.442
 2953SOL    HW210878   3.845   2.559   2.509
 2954SOL     OW10879   3.837   2.599   3.459
 2954SOL    HW110880   3.925   2.586   3.504
 2954SOL    HW210881   3.824   2.696   3.437
 2955SOL     OW10882   4.337   3.227   2.588
 2955SOL    HW110883   4.288   3.140   2.597
 2955SOL    HW210884   4.314   3.270   2.501
 2956SOL     OW10885   5.017   3.090   3.285
 2956SOL    HW110886   5.054   3.017   3.227
 2956SOL    HW210887   5.069   3.095   3.370
 2957SOL     OW10888   4.533   1.866   2.364
 2957SOL    HW110889   4.573   1.957   2.355
 2957SOL    HW210890   4.433   1.874   2.370
 2958SOL     OW10891   3.921   2.838   3.126
 2958SOL    HW110892   4.010   2.793   3.112
 2958SOL    HW210893   3.848   2.773   3.107
 2959SOL     OW10894   4.911   3.654   3.478
 2959SOL    HW110895   4.935   3.714   3.402
 2959SOL    HW210896   4.918   3.559   3.448
 2960SOL     OW10897   4.322   2.591   2.132
 2960SOL    HW110898   4.346   2.660   2.064
 2960SOL    HW210899   4.244   2.624   2.186
 2961SOL     OW10900   5.005   2.207   2.806
 2961SOL    HW110901   4.919   2.157   2.793
 2961SOL    HW210902   5.067   2.153   2.862
 2962SOL     OW10903   4.531   2.467   3.327
 2962SOL    HW110904   4.484   2.464   3.416
 2962SOL    HW210905   4.480   2.412   3.261
 2963SOL     OW10906   4.697   2.752   3.434
 2963SOL    HW110907   4.743   2.668   3.405
 2963SOL    HW210908   4.641   2.786   3.359
 2964SOL     OW10909   4.715   2.272   3.104
 2964SOL    HW110910   4.638   2.306   3.158
 2964SOL    HW210911   4.681   2.221   3.025
 2965SOL     OW10912   4.765   2.563   2.291
 2965SOL    HW110913   4.791   2.559   2.387
 2965SOL    HW210914   4.680   2.512   2.277
 2966SOL     OW10915   3.800   2.673   2.651
 2966SOL    HW110916   3.899   2.661   2.660
 2966SOL    HW210917   3.776   2.768   2.672
 2967SOL     OW10918   3.854   3.683   3.433
 2967SOL    HW110919   3.844   3.668   3.532
 2967SOL    HW210920   3.768   3.719   3.397
 2968SOL     OW10921   4.274   2.058   2.747
 2968SOL    HW110922   4.269   2.053   2.847
 2968SOL    HW210923   4.276   2.154   2.718
 2969SOL     OW10924   4.732   3.318   2.339
 2969SOL    HW110925   4.686   3.390   2.287
 2969SOL    HW210926   4.728   3.338   2.437
 2970SOL     OW10927   4.075   3.663   2.715
 2970SOL    HW110928   4.125   3.577   2.721
 2970SOL    HW210929   4.140   3.740   2.712
 2971SOL     OW10930   4.951   3.412   3.368
 2971SOL    HW110931   4.957   3.335   3.432
 2971SOL    HW210932   4.899   3.386   3.288
 2972SOL     OW10933   4.045   2.805   2.104
 2972SOL    HW110934   4.127   2.844   2.062
 2972SOL    HW210935   4.018   2.723   2.055
 2973SOL     OW10936   4.835   3.638   2.099
 2973SOL    HW110937   4.775   3.576   2.149
 2973SOL    HW210938   4.866   3.594   2.014
 2974SOL     OW10939   3.926   2.147   3.360
 2974SOL    HW110940   3.846   2.207   3.347
 2974SOL    HW210941   3.916   2.098   3.446
 2975SOL     OW10942   4.188   3.605   2.185
 2975SOL    HW110943   4.221   3.644   2.271
 2975SOL    HW210944   4.264   3.598   2.120
 2976SOL     OW10945   3.973   3.647   3.103
 2976SOL    HW110946   4.030   3.582   3.153
 2976SOL    HW210947   3.957   3.614   3.010
 2977SOL     OW10948   4.664   3.560   2.766
 2977SOL    HW110949   4.744   3.503   2.787
 2977SOL    HW210950   4.615   3.520   2.689
 2978SOL     OW10951   4.106   2.562   2.342
 2978SOL    HW110952   4.151   2.472   2.339
 2978SOL    HW210953   4.012   2.551   2.375
 2979SOL     OW10954   4.505   2.126   3.611
 2979SOL    HW110955   4.572   2.065   3.654
 2979SOL    HW210956   4.432   2.145   3.676
 2980SOL     OW10957   4.612   3.376   3.057
 2980SOL    HW110958   4.589   3.351   2.963
 2980SOL    HW210959   4.673   3.307   3.096
 2981SOL     OW10960   4.527   3.264   2.786
 2981SOL    HW110961   4.617   3.278   2.744
 2981SOL    HW210962   4.456   3.266   2.715
 2982SOL     OW10963   4.646   2.365   2.761
 2982SOL    HW110964   4.621   2.356   2.665
 2982SOL    HW210965   4.694   2.283   2.792
 2983SOL     OW10966   4.263   1.926   2.374
 2983SOL    HW110967   4.182   1.927   2.432
 2983SOL    HW210968   4.266   2.009   2.319
 2984SOL     OW10969   4.021   1.897   2.033
 2984SOL    HW110970   4.070   1.981   2.012
 2984SOL    HW210971   4.083   1.832   2.078
 2985SOL     OW10972   4.800   2.545   3.326
 2985SOL    HW110973   4.720   2.484   3.329
 2985SOL    HW210974   4.881   2.492   3.302
 2986SOL     OW10975   4.951   3.432   2.655
 2986SOL    HW110976   4.972   3.506   2.590
 2986SOL    HW210977   5.019   3.432   2.728
 2987SOL     OW10978   4.183   3.014   2.603
 2987SOL    HW110979   4.112   2.987   2.668
 2987SOL    HW210980   4.157   2.986   2.510
 2988SOL     OW10981   3.802   2.418   3.248
 2988SOL    HW110982   3.894   2.417   3.207
 2988SOL    HW210983   3.796   2.492   3.315
 2989SOL     OW10984   4.285   2.084   3.009
 2989SOL    HW110985   4.323   2.000   3.046
 2989SOL    HW210986   4.197   2.103   3.053
 2990SOL     OW10987   4.590   2.316   2.504
 2990SOL    HW110988   4.558   2.388   2.442
 2990SOL    HW210989   4.614   2.235   2.451
 2991SOL     OW10990   4.741   1.901   2.615
 2991SOL    HW110991   4.669   1.906   2.546
 2991SOL    HW210992   4.717   1.832   2.684
 2992SOL     OW10993   4.212   3.247   2.036
 2992SOL    HW110994   4.125   3.232   2.083
 2992SOL    HW210995   4.195   3.273   1.941
 2993SOL     OW10996   5.388   3.142   2.519
 2993SOL    HW110997   5.487   3.150   2.533
 2993SOL    HW210998   5.343   3.226   2.550
 2994SOL     OW10999   4.251   2.118   2.190
 2994SOL    HW111000   4.278   2.059   2.115
 2994SOL    HW211001   4.251   2.213   2.159
 2995SOL     OW11002   4.788   3.209   3.202
 2995SOL    HW111003   4.708   3.186   3.257
 2995SOL    HW211004   4.871   3.183   3.251
 2996SOL     OW11005   4.835   3.057   2.962
 2996SOL    HW111006   4.795   3.101   3.043
 2996SOL    HW211007   4.794   3.094   2.879
 2997SOL     OW11008   4.639   1.951   3.264
 2997SOL    HW111009   4.664   1.931   3.169
 2997SOL    HW211010   4.711   2.007   3.306
 2998SOL     OW11011   4.429   2.912   2.230
 2998SOL    HW111012   4.415   2.919   2.329
 2998SOL    HW211013   4.513   2.861   2.212
 2999SOL     OW11014   4.134   2.675   3.113
 2999SOL    HW111015   4.220   2.687   3.163
 2999SOL    HW211016   4.092   2.588   3.140
 3000SOL     OW11017   4.998   2.248   3.124
 3000SOL    HW111018   5.019   2.322   3.188
 3000SOL    HW211019   4.909   2.265   3.081
 3001SOL     OW11020   3.788   3.426   3.193
 3001SOL    HW111021   3.742   3.508   3.159
 3001SOL    HW211022   3.886   3.445   3.202
 3002SOL     OW11023   4.091   2.962   2.363
 3002SOL    HW111024   4.084   3.045   2.307
 3002SOL    HW211025   4.095   2.882   2.303
 3003SOL     OW11026   4.290   2.399   2.727
 3003SOL    HW111027   4.302   2.465   2.653
 3003SOL    HW211028   4.336   2.433   2.810
 3004SOL     OW11029   4.976   3.210   2.250
 3004SOL    HW111030   5.026   3.287   2.290
 3004SOL    HW211031   4.881   3.212   2.282
 3005SOL     OW11032   4.078   3.372   3.191
 3005SOL    HW111033   4.057   3.328   3.104
 3005SOL    HW211034   4.175   3.398   3.194
 3006SOL     OW11035   4.126   2.613   3.460
 3006SOL    HW111036   4.194   2.668   3.413
 3006SOL    HW211037   4.166   2.525   3.487
 3007SOL     OW11038   4.737   1.967   3.632
 3007SOL    HW111039   4.743   2.052   3.580
 3007SOL    HW211040   4.769   1.891   3.575
 3008SOL     OW11041   4.297   2.732   2.891
 3008SOL    HW111042   4.341   2.821   2.882
 3008SOL    HW211043   4.234   2.732   2.968
 3009SOL     OW11044   5.084   2.724   2.907
 3009SOL    HW111045   5.009   2.724   2.841
 3009SOL    HW211046   5.121   2.632   2.916
 3010SOL     OW11047   4.933   2.387   2.137
 3010SOL    HW111048   4.946   2.303   2.191
 3010SOL    HW211049   4.904   2.461   2.197
 3011SOL     OW11050   4.031   2.075   3.093
 3011SOL    HW111051   4.008   2.112   3.183
 3011SOL    HW211052   4.001   1.980   3.087
 3012SOL     OW11053   3.761   3.172   3.144
 3012SOL    HW111054   3.814   3.123   3.212
 3012SOL    HW211055   3.783   3.270   3.149
 3013SOL     OW11056   4.456   2.496   2.926
 3013SOL    HW111057   4.515   2.470   2.850
 3013SOL    HW211058   4.428   2.592   2.915
 3014SOL     OW11059   4.031   1.925   2.480
 3014SOL    HW111060   4.020   2.019   2.513
 3014SOL    HW211061   4.026   1.862   2.557
 3015SOL     OW11062   5.346   2.229   2.236
 3015SOL    HW111063   5.348   2.153   2.300
 3015SOL    HW211064   5.298   2.306   2.276
 3016SOL     OW11065   4.747   2.628   2.828
 3016SOL    HW111066   4.762   2.649   2.924
 3016SOL    HW211067   4.717   2.533   2.819
 3017SOL     OW11068   4.704   3.435   3.562
 3017SOL    HW111069   4.684   3.479   3.474
 3017SOL    HW211070   4.743   3.344   3.546
 3018SOL     OW11071   4.074   2.760   3.666
 3018SOL    HW111072   4.150   2.804   3.714
 3018SOL    HW211073   4.109   2.713   3.584
 3019SOL     OW11074   5.027   2.700   1.904
 3019SOL    HW111075   5.061   2.607   1.919
 3019SOL    HW211076   5.045   2.727   1.809
 3020SOL     OW11077   4.792   3.195   2.711
 3020SOL    HW111078   4.799   3.111   2.656
 3020SOL    HW211079   4.854   3.264   2.675
 3021SOL     OW11080   4.043   2.672   2.811
 3021SOL    HW111081   4.136   2.708   2.816
 3021SOL    HW211082   4.037   2.587   2.863
 3022SOL     OW11083   4.063   2.371   2.868
 3022SOL    HW111084   4.011   2.288   2.851
 3022SOL    HW211085   4.140   2.376   2.804
 3023SOL     OW11086   4.862   2.242   3.540
 3023SOL    HW111087   4.817   2.305   3.604
 3023SOL    HW211088   4.955   2.273   3.523
 3024SOL     OW11089   4.884   2.069   3.339
 3024SOL    HW111090   4.884   2.133   3.416
 3024SOL    HW211091   4.912   2.117   3.256
 3025SOL     OW11092   3.732   3.188   2.062
 3025SOL    HW111093   3.639   3.209   2.031
 3025SOL    HW211094   3.742   3.089   2.075
 3026SOL     OW11095   3.812   3.663   2.789
 3026SOL    HW111096   3.770   3.577   2.762
 3026SOL    HW211097   3.906   3.666   2.755
 3027SOL     OW11098   4.228   3.430   2.772
 3027SOL    HW111099   4.294   3.504   2.781
 3027SOL    HW211100   4.272   3.351   2.730
 3028SOL     OW11101   4.726   2.658   3.100
 3028SOL    HW111102   4.767   2.626   3.186
 3028SOL    HW211103   4.630   2.631   3.097
 3029SOL     OW11104   3.764   2.406   2.976
 3029SOL    HW111105   3.849   2.373   2.935
 3029SOL    HW211106   3.777   2.421   3.074
 3030SOL     OW11107   4.539   2.434   2.187
 3030SOL    HW111108   4.546   2.345   2.141
 3030SOL    HW211109   4.445   2.468   2.179
 3031SOL     OW11110   3.976   3.426   3.606
 3031SOL    HW111111   3.946   3.483   3.682
 3031SOL    HW211112   3.969   3.329   3.632
 3032SOL     OW11113   4.395   2.326   3.131
 3032SOL    HW111114   4.361   2.237   3.101
 3032SOL    HW211115   4.421   2.380   3.051
 3033SOL     OW11116   4.654   3.540   3.327
 3033SOL    HW111117   4.630   3.522   3.232
 3033SOL    HW211118   4.684   3.634   3.337
 3034SOL     OW11119   4.197   2.362   2.053
 3034SOL    HW111120   4.258   2.442   2.057
 3034SOL    HW211121   4.102   2.393   2.060
 3035SOL     OW11122   3.883   2.999   3.328
 3035SOL    HW111123   3.905   2.938   3.404
 3035SOL    HW211124   3.893   2.950   3.242
 3036SOL     OW11125   5.071   2.921   3.096
 3036SOL    HW111126   5.095   2.858   3.022
 3036SOL    HW211127   4.981   2.961   3.078
 3037SOL     OW11128   4.976   3.593   2.990
 3037SOL    HW111129   5.060   3.598   2.936
 3037SOL    HW211130   4.953   3.497   3.008
 3038SOL     OW11131   3.807   3.120   2.884
 3038SOL    HW111132   3.802   3.119   2.984
 3038SOL    HW211133   3.724   3.079   2.846
 3039SOL     OW11134   4.412   3.524   3.578
 3039SOL    HW111135   4.356   3.605   3.587
 3039SOL    HW211136   4.464   3.528   3.492
 3040SOL     OW11137   5.112   3.435   2.339
 3040SOL    HW111138   5.179   3.447   2.265
 3040SOL    HW211139   5.072   3.524   2.362
 3041SOL     OW11140   3.854   3.656   3.713
 3041SOL    HW111141   3.813   3.582   3.766
 3041SOL    HW211142   3.918   3.707   3.771
 3042SOL     OW11143   5.004   2.789   2.534
 3042SOL    HW111144   5.064   2.708   2.536
 3042SOL    HW211145   5.044   2.858   2.474
 3043SOL     OW11146   4.396   3.478   2.016
 3043SOL    HW111147   4.405   3.488   1.917
 3043SOL    HW211148   4.356   3.389   2.037
 3044SOL     OW11149   3.987   2.188   2.582
 3044SOL    HW111150   3.908   2.239   2.548
 3044SOL    HW211151   3.978   2.173   2.680
 3045SOL     OW11152   4.918   3.474   1.893
 3045SOL    HW111153   4.924   3.381   1.930
 3045SOL    HW211154   4.859   3.474   1.813
 3046SOL     OW11155   4.546   2.864   3.234
 3046SOL    HW111156   4.586   2.863   3.142
 3046SOL    HW211157   4.556   2.956   3.274
 3047SOL     OW11158   4.640   2.772   2.153
 3047SOL    HW111159   4.703   2.810   2.085
 3047SOL    HW211160   4.680   2.689   2.192
 3048SOL     OW11161   4.096   3.150   3.352
 3048SOL    HW111162   4.083   3.243   3.318
 3048SOL    HW211163   4.012   3.098   3.339
 3049SOL     OW11164   4.763   2.960   2.558
 3049SOL    HW111165   4.693   2.913   2.612
 3049SOL    HW211166   4.822   2.892   2.515
 3050SOL     OW11167   4.738   2.098   2.833
 3050SOL    HW111168   4.730   2.062   2.740
 3050SOL    HW211169   4.736   2.022   2.898
 3051SOL     OW11170   4.314   3.349   2.353
 3051SOL    HW111171   4.356   3.291   2.283
 3051SOL    HW211172   4.270   3.428   2.309
 3052SOL     OW11173   3.979   3.210   2.152
 3052SOL    HW111174   3.883   3.211   2.125
 3052SOL    HW211175   3.991   3.263   2.236
 3053SOL     OW11176   3.829   2.875   3.588
 3053SOL    HW111177   3.752   2.842   3.642
 3053SOL    HW211178   3.914   2.845   3.630
 3054SOL     OW11179   4.396   2.065   3.351
 3054SOL    HW111180   4.486   2.049   3.311
 3054SOL    HW211181   4.404   2.070   3.450
 3055SOL     OW11182   3.799   2.207   1.895
 3055SOL    HW111183   3.707   2.179   1.866
 3055SOL    HW211184   3.830   2.284   1.839
 3056SOL     OW11185   5.164   2.718   3.260
 3056SOL    HW111186   5.107   2.770   3.197
 3056SOL    HW211187   5.260   2.730   3.236
 3057SOL     OW11188   3.796   2.028   2.180
 3057SOL    HW111189   3.779   2.111   2.126
 3057SOL    HW211190   3.886   1.991   2.158
 3058SOL     OW11191   4.337   2.704   3.293
 3058SOL    HW111192   4.393   2.785   3.276
 3058SOL    HW211193   4.396   2.624   3.296
 3059SOL     OW11194   4.440   2.427   3.570
 3059SOL    HW111195   4.459   2.492   3.644
 3059SOL    HW211196   4.500   2.347   3.579
 3060SOL     OW11197   4.114   3.603   3.422
 3060SOL    HW111198   4.023   3.644   3.420
 3060SOL    HW211199   4.107   3.509   3.454
 3061SOL     OW11200   4.949   2.187   2.311
 3061SOL    HW111201   5.014   2.113   2.300
 3061SOL    HW211202   4.969   2.237   2.395
 3062SOL     OW11203   4.318   2.607   2.514
 3062SOL    HW111204   4.368   2.692   2.495
 3062SOL    HW211205   4.230   2.609   2.466
 3063SOL     OW11206   4.583   3.236   1.878
 3063SOL    HW111207   4.537   3.251   1.966
 3063SOL    HW211208   4.627   3.321   1.848
 3064SOL     OW11209   4.385   3.652   2.815
 3064SOL    HW111210   4.339   3.740   2.802
 3064SOL    HW211211   4.484   3.664   2.808
 3065SOL     OW11212   4.583   2.818   2.723
 3065SOL    HW111213   4.637   2.749   2.771
 3065SOL    HW211214   4.551   2.887   2.789
 3066SOL     OW11215   4.807   2.846   1.949
 3066SOL    HW111216   4.784   2.899   1.867
 3066SOL    HW211217   4.888   2.790   1.930
 3067SOL     OW11218   3.945   3.176   3.706
 3067SOL    HW111219   3.880   3.103   3.685
 3067SOL    HW211220   3.949   3.190   3.804
 3068SOL     OW11221   3.803   3.102   2.515
 3068SOL    HW111222   3.802   3.055   2.603
 3068SOL    HW211223   3.885   3.074   2.464
 3069SOL     OW11224   4.152   2.286   2.382
 3069SOL    HW111225   4.182   2.214   2.320
 3069SOL    HW211226   4.113   2.246   2.465
 3070SOL     OW11227   4.041   2.409   3.142
 3070SOL    HW111228   4.079   2.350   3.214
 3070SOL    HW211229   4.081   2.383   3.054
 3071SOL     OW11230   4.536   3.448   2.549
 3071SOL    HW111231   4.568   3.458   2.455
 3071SOL    HW211232   4.457   3.386   2.551
 3072SOL     OW11233   4.725   1.896   3.016
 3072SOL    HW111234   4.662   1.824   2.985
 3072SOL    HW211235   4.818   1.860   3.016
 3073SOL     OW11236   4.494   3.192   2.163
 3073SOL    HW111237   4.448   3.105   2.180
 3073SOL    HW211238   4.585   3.189   2.204
 3074SOL     OW11239   4.342   3.429   3.146
 3074SOL    HW111240   4.337   3.511   3.203
 3074SOL    HW211241   4.431   3.426   3.101
 3075SOL     OW11242   3.763   2.939   2.162
 3075SOL    HW111243   3.862   2.928   2.153
 3075SOL    HW211244   3.723   2.853   2.194
 3076SOL     OW11245   4.599   3.508   2.199
 3076SOL    HW111246   4.522   3.473   2.145
 3076SOL    HW211247   4.567   3.579   2.261
 3077SOL     OW11248   3.949   2.137   4.720
 3077SOL    HW111249   3.984   2.120   4.812
 3077SOL    HW211250   3.861   2.092   4.708
 3078SOL     OW11251   3.743   2.230   4.371
 3078SOL    HW111252   3.661   2.273   4.410
 3078SOL    HW211253   3.715   2.157   4.308
 3079SOL     OW11254   4.859   2.565   4.441
 3079SOL    HW111255   4.916   2.643   4.416
 3079SOL    HW211256   4.799   2.591   4.517
 3080SOL     OW11257   4.409   2.874   4.389
 3080SOL    HW111258   4.478   2.858   4.459
 3080SOL    HW211259   4.336   2.931   4.427
 3081SOL     OW11260   4.059   3.297   4.785
 3081SOL    HW111261   3.981   3.266   4.732
 3081SOL    HW211262   4.117   3.355   4.728
 3082SOL     OW11263   3.955   3.575   4.207
 3082SOL    HW111264   3.989   3.652   4.261
 3082SOL    HW211265   3.999   3.575   4.117
 3083SOL     OW11266   3.954   3.296   4.262
 3083SOL    HW111267   3.928   3.392   4.262
 3083SOL    HW211268   3.883   3.242   4.307
 3084SOL     OW11269   3.964   2.953   4.610
 3084SOL    HW111270   3.978   2.869   4.662
 3084SOL    HW211271   3.909   3.017   4.665
 3085SOL     OW11272   3.751   3.458   3.841
 3085SOL    HW111273   3.732   3.362   3.862
 3085SOL    HW211274   3.718   3.516   3.916
 3086SOL     OW11275   4.337   3.227   4.450
 3086SOL    HW111276   4.288   3.140   4.459
 3086SOL    HW211277   4.314   3.270   4.363
 3087SOL     OW11278   4.533   1.866   4.226
 3087SOL    HW111279   4.573   1.957   4.217
 3087SOL    HW211280   4.433   1.874   4.232
 3088SOL     OW11281   3.921   2.838   4.988
 3088SOL    HW111282   4.010   2.793   4.974
 3088SOL    HW211283   3.848   2.773   4.969
 3089SOL     OW11284   4.322   2.591   3.994
 3089SOL    HW111285   4.346   2.660   3.926
 3089SOL    HW211286   4.244   2.624   4.048
 3090SOL     OW11287   5.005   2.207   4.668
 3090SOL    HW111288   4.919   2.157   4.655
 3090SOL    HW211289   5.067   2.153   4.724
 3091SOL     OW11290   4.715   2.272   4.966
 3091SOL    HW111291   4.638   2.306   5.020
 3091SOL    HW211292   4.681   2.221   4.887
 3092SOL     OW11293   4.765   2.563   4.153
 3092SOL    HW111294   4.791   2.559   4.249
 3092SOL    HW211295   4.680   2.512   4.139
 3093SOL     OW11296   3.800   2.673   4.513
 3093SOL    HW111297   3.899   2.661   4.522
 3093SOL    HW211298   3.776   2.768   4.534
 3094SOL     OW11299   4.589   2.210   3.919
 3094SOL    HW111300   4.648   2.273   3.870
 3094SOL    HW211301   4.608   2.116   3.890
 3095SOL     OW11302   4.274   2.058   4.609
 3095SOL    HW111303   4.269   2.053   4.709
 3095SOL    HW211304   4.276   2.154   4.580
 3096SOL     OW11305   4.732   3.318   4.201
 3096SOL    HW111306   4.686   3.390   4.149
 3096SOL    HW211307   4.728   3.338   4.299
 3097SOL     OW11308   4.075   3.663   4.577
 3097SOL    HW111309   4.125   3.577   4.583
 3097SOL    HW211310   4.140   3.740   4.574
 3098SOL     OW11311   4.045   2.805   3.966
 3098SOL    HW111312   4.127   2.844   3.924
 3098SOL    HW211313   4.018   2.723   3.917
 3099SOL     OW11314   4.835   3.638   3.961
 3099SOL    HW111315   4.775   3.576   4.011
 3099SOL    HW211316   4.866   3.594   3.876
 3100SOL     OW11317   4.188   3.605   4.047
 3100SOL    HW111318   4.221   3.644   4.133
 3100SOL    HW211319   4.264   3.598   3.982
 3101SOL     OW11320   3.973   3.647   4.965
 3101SOL    HW111321   4.030   3.582   5.015
 3101SOL    HW211322   3.957   3.614   4.872
 3102SOL     OW11323   4.664   3.560   4.628
 3102SOL    HW111324   4.744   3.503   4.649
 3102SOL    HW211325   4.615   3.520   4.551
 3103SOL     OW11326   4.263   1.926   4.236
 3103SOL    HW111327   4.182   1.927   4.294
 3103SOL    HW211328   4.266   2.009   4.181
 3104SOL     OW11329   4.659   2.098   4.204
 3104SOL    HW111330   4.611   2.139   4.126
 3104SOL    HW211331   4.758   2.096   4.185
 3105SOL     OW11332   4.951   3.432   4.517
 3105SOL    HW111333   4.972   3.506   4.452
 3105SOL    HW211334   5.019   3.432   4.590
 3106SOL     OW11335   4.183   3.014   4.465
 3106SOL    HW111336   4.112   2.987   4.530
 3106SOL    HW211337   4.157   2.986   4.372
 3107SOL     OW11338   4.995   3.659   4.315
 3107SOL    HW111339   5.039   3.723   4.251
 3107SOL    HW211340   4.945   3.711   4.385
 3108SOL     OW11341   4.756   2.411   3.740
 3108SOL    HW111342   4.715   2.493   3.701
 3108SOL    HW211343   4.820   2.437   3.813
 3109SOL     OW11344   4.285   2.084   4.871
 3109SOL    HW111345   4.323   2.000   4.908
 3109SOL    HW211346   4.197   2.103   4.915
 3110SOL     OW11347   4.590   2.316   4.366
 3110SOL    HW111348   4.558   2.388   4.304
 3110SOL    HW211349   4.614   2.235   4.313
 3111SOL     OW11350   4.741   1.901   4.477
 3111SOL    HW111351   4.669   1.906   4.408
 3111SOL    HW211352   4.717   1.832   4.546
 3112SOL     OW11353   4.212   3.247   3.898
 3112SOL    HW111354   4.125   3.232   3.945
 3112SOL    HW211355   4.195   3.273   3.803
 3113SOL     OW11356   5.388   3.142   4.381
 3113SOL    HW111357   5.487   3.150   4.395
 3113SOL    HW211358   5.343   3.226   4.412
 3114SOL     OW11359   5.316   3.491   5.349
 3114SOL    HW111360   5.343   3.525   5.259
 3114SOL    HW211361   5.395   3.453   5.395
 3115SOL     OW11362   4.429   2.912   4.092
 3115SOL    HW111363   4.415   2.919   4.191
 3115SOL    HW211364   4.513   2.861   4.074
 3116SOL     OW11365   4.134   2.675   4.975
 3116SOL    HW111366   4.220   2.687   5.025
 3116SOL    HW211367   4.092   2.588   5.002
 3117SOL     OW11368   4.091   2.962   4.225
 3117SOL    HW111369   4.084   3.045   4.169
 3117SOL    HW211370   4.095   2.882   4.165
 3118SOL     OW11371   4.290   2.399   4.589
 3118SOL    HW111372   4.302   2.465   4.515
 3118SOL    HW211373   4.336   2.433   4.672
 3119SOL     OW11374   4.976   3.210   4.112
 3119SOL    HW111375   5.026   3.287   4.152
 3119SOL    HW211376   4.881   3.212   4.144
 3120SOL     OW11377   4.297   2.732   4.753
 3120SOL    HW111378   4.341   2.821   4.744
 3120SOL    HW211379   4.234   2.732   4.830
 3121SOL     OW11380   4.933   2.387   3.999
 3121SOL    HW111381   4.946   2.303   4.053
 3121SOL    HW211382   4.904   2.461   4.059
 3122SOL     OW11383   4.031   2.075   4.955
 3122SOL    HW111384   4.008   2.112   5.045
 3122SOL    HW211385   4.001   1.980   4.949
 3123SOL     OW11386   3.761   3.172   5.006
 3123SOL    HW111387   3.814   3.123   5.074
 3123SOL    HW211388   3.783   3.270   5.011
 3124SOL     OW11389   4.031   1.925   4.342
 3124SOL    HW111390   4.020   2.019   4.375
 3124SOL    HW211391   4.026   1.862   4.419
 3125SOL     OW11392   5.346   2.229   4.098
 3125SOL    HW111393   5.348   2.153   4.162
 3125SOL    HW211394   5.298   2.306   4.138
 3126SOL     OW11395   5.027   2.700   3.766
 3126SOL    HW111396   5.061   2.607   3.781
 3126SOL    HW211397   5.045   2.727   3.671
 3127SOL     OW11398   4.043   2.672   4.673
 3127SOL    HW111399   4.136   2.708   4.678
 3127SOL    HW211400   4.037   2.587   4.725
 3128SOL     OW11401   4.063   2.371   4.730
 3128SOL    HW111402   4.011   2.288   4.713
 3128SOL    HW211403   4.140   2.376   4.666
 3129SOL     OW11404   4.884   2.069   5.201
 3129SOL    HW111405   4.884   2.133   5.278
 3129SOL    HW211406   4.912   2.117   5.118
 3130SOL     OW11407   3.732   3.188   3.924
 3130SOL    HW111408   3.639   3.209   3.893
 3130SOL    HW211409   3.742   3.089   3.937
 3131SOL     OW11410   3.812   3.663   4.651
 3131SOL    HW111411   3.770   3.577   4.624
 3131SOL    HW211412   3.906   3.666   4.617
 3132SOL     OW11413   4.228   3.430   4.634
 3132SOL    HW111414   4.294   3.504   4.643
 3132SOL    HW211415   4.272   3.351   4.592
 3133SOL     OW11416   4.726   2.658   4.962
 3133SOL    HW111417   4.767   2.626   5.048
 3133SOL    HW211418   4.630   2.631   4.959
 3134SOL     OW11419   3.764   2.406   4.838
 3134SOL    HW111420   3.849   2.373   4.797
 3134SOL    HW211421   3.777   2.421   4.936
 3135SOL     OW11422   4.539   2.434   4.049
 3135SOL    HW111423   4.546   2.345   4.003
 3135SOL    HW211424   4.445   2.468   4.041
 3136SOL     OW11425   4.395   2.326   4.993
 3136SOL    HW111426   4.361   2.237   4.963
 3136SOL    HW211427   4.421   2.380   4.913
 3137SOL     OW11428   5.071   2.921   4.958
 3137SOL    HW111429   5.095   2.858   4.884
 3137SOL    HW211430   4.981   2.961   4.940
 3138SOL     OW11431   3.807   3.120   4.746
 3138SOL    HW111432   3.802   3.119   4.846
 3138SOL    HW211433   3.724   3.079   4.708
 3139SOL     OW11434   5.112   3.435   4.201
 3139SOL    HW111435   5.179   3.447   4.127
 3139SOL    HW211436   5.072   3.524   4.224
 3140SOL     OW11437   5.004   2.789   4.396
 3140SOL    HW111438   5.064   2.708   4.398
 3140SOL    HW211439   5.044   2.858   4.336
 3141SOL     OW11440   3.987   2.188   4.444
 3141SOL    HW111441   3.908   2.239   4.410
 3141SOL    HW211442   3.978   2.173   4.542
 3142SOL     OW11443   4.918   3.474   3.755
 3142SOL    HW111444   4.924   3.381   3.792
 3142SOL    HW211445   4.859   3.474   3.675
 3143SOL     OW11446   4.546   2.864   5.096
 3143SOL    HW111447   4.586   2.863   5.004
 3143SOL    HW211448   4.556   2.956   5.136
 3144SOL     OW11449   4.640   2.772   4.015
 3144SOL    HW111450   4.703   2.810   3.947
 3144SOL    HW211451   4.680   2.689   4.054
 3145SOL     OW11452   4.738   2.098   4.695
 3145SOL    HW111453   4.730   2.062   4.602
 3145SOL    HW211454   4.736   2.022   4.760
 3146SOL     OW11455   4.314   3.349   4.215
 3146SOL    HW111456   4.356   3.291   4.145
 3146SOL    HW211457   4.270   3.428   4.171
 3147SOL     OW11458   3.979   3.210   4.014
 3147SOL    HW111459   3.883   3.211   3.987
 3147SOL    HW211460   3.991   3.263   4.098
 3148SOL     OW11461   3.796   2.028   4.042
 3148SOL    HW111462   3.779   2.111   3.988
 3148SOL    HW211463   3.886   1.991   4.020
 3149SOL     OW11464   4.949   2.187   4.173
 3149SOL    HW111465   5.014   2.113   4.162
 3149SOL    HW211466   4.969   2.237   4.257
 3150SOL     OW11467   4.318   2.607   4.376
 3150SOL    HW111468   4.368   2.692   4.357
 3150SOL    HW211469   4.230   2.609   4.328
 3151SOL     OW11470   4.385   3.652   4.677
 3151SOL    HW111471   4.339   3.740   4.664
 3151SOL    HW211472   4.484   3.664   4.670
 3152SOL     OW11473   4.583   2.818   4.585
 3152SOL    HW111474   4.637   2.749   4.633
 3152SOL    HW211475   4.551   2.887   4.651
 3153SOL     OW11476   4.807   2.846   3.811
 3153SOL    HW111477   4.784   2.899   3.729
 3153SOL    HW211478   4.888   2.790   3.792
 3154SOL     OW11479   3.803   3.102   4.377
 3154SOL    HW111480   3.802   3.055   4.465
 3154SOL    HW211481   3.885   3.074   4.326
 3155SOL     OW11482   4.536   3.448   4.411
 3155SOL    HW111483   4.568   3.458   4.317
 3155SOL    HW211484   4.457   3.386   4.413
 3156SOL     OW11485   4.725   1.896   4.878
 3156SOL    HW111486   4.662   1.824   4.847
 3156SOL    HW211487   4.818   1.860   4.878
 3157SOL     OW11488   3.763   2.939   4.024
 3157SOL    HW111489   3.862   2.928   4.015
 3157SOL    HW211490   3.723   2.853   4.056
 3158SOL     OW11491   4.599   3.508   4.061
 3158SOL    HW111492   4.522   3.473   4.007
 3158SOL    HW211493   4.567   3.579   4.123
 3159SOL     OW11494   3.954   4.352   0.113
 3159SOL    HW111495   3.861   4.350   0.150
 3159SOL    HW211496   3.955   4.313   0.021
 3160SOL     OW11497   3.949   3.999   0.996
 3160SOL    HW111498   3.984   3.982   1.088
 3160SOL    HW211499   3.861   3.954   0.984
 3161SOL     OW11500   3.743   4.092   0.647
 3161SOL    HW111501   3.661   4.135   0.686
 3161SOL    HW211502   3.715   4.019   0.584
 3162SOL     OW11503   4.293   4.999   1.165
 3162SOL    HW111504   4.200   4.992   1.128
 3162SOL    HW211505   4.304   5.088   1.209
 3163SOL     OW11506   4.859   4.427   0.717
 3163SOL    HW111507   4.916   4.505   0.692
 3163SOL    HW211508   4.799   4.453   0.793
 3164SOL     OW11509   4.492   4.868   1.023
 3164SOL    HW111510   4.414   4.885   1.083
 3164SOL    HW211511   4.526   4.955   0.987
 3165SOL     OW11512   4.574   4.522   1.823
 3165SOL    HW111513   4.570   4.598   1.888
 3165SOL    HW211514   4.596   4.558   1.732
 3166SOL     OW11515   4.409   4.736   0.665
 3166SOL    HW111516   4.478   4.720   0.735
 3166SOL    HW211517   4.336   4.793   0.703
 3167SOL     OW11518   4.410   4.885   1.803
 3167SOL    HW111519   4.470   4.964   1.817
 3167SOL    HW211520   4.324   4.916   1.762
 3168SOL     OW11521   4.059   5.159   1.061
 3168SOL    HW111522   3.981   5.128   1.008
 3168SOL    HW211523   4.117   5.217   1.004
 3169SOL     OW11524   3.964   4.815   0.886
 3169SOL    HW111525   3.978   4.731   0.938
 3169SOL    HW211526   3.909   4.879   0.941
 3170SOL     OW11527   3.846   4.367   0.563
 3170SOL    HW111528   3.801   4.279   0.580
 3170SOL    HW211529   3.845   4.421   0.647
 3171SOL     OW11530   3.837   4.461   1.597
 3171SOL    HW111531   3.925   4.448   1.642
 3171SOL    HW211532   3.824   4.558   1.575
 3172SOL     OW11533   5.017   4.952   1.423
 3172SOL    HW111534   5.054   4.879   1.365
 3172SOL    HW211535   5.069   4.957   1.508
 3173SOL     OW11536   3.921   4.700   1.264
 3173SOL    HW111537   4.010   4.655   1.250
 3173SOL    HW211538   3.848   4.635   1.245
 3174SOL     OW11539   4.322   4.453   0.270
 3174SOL    HW111540   4.346   4.522   0.202
 3174SOL    HW211541   4.244   4.486   0.324
 3175SOL     OW11542   4.531   4.329   1.465
 3175SOL    HW111543   4.484   4.326   1.554
 3175SOL    HW211544   4.480   4.274   1.399
 3176SOL     OW11545   4.697   4.614   1.572
 3176SOL    HW111546   4.743   4.530   1.543
 3176SOL    HW211547   4.641   4.648   1.497
 3177SOL     OW11548   4.715   4.134   1.242
 3177SOL    HW111549   4.638   4.168   1.296
 3177SOL    HW211550   4.681   4.083   1.163
 3178SOL     OW11551   4.765   4.425   0.429
 3178SOL    HW111552   4.791   4.421   0.525
 3178SOL    HW211553   4.680   4.374   0.415
 3179SOL     OW11554   3.800   4.535   0.789
 3179SOL    HW111555   3.899   4.523   0.798
 3179SOL    HW211556   3.776   4.630   0.810
 3180SOL     OW11557   4.045   4.667   0.242
 3180SOL    HW111558   4.127   4.706   0.200
 3180SOL    HW211559   4.018   4.585   0.193
 3181SOL     OW11560   3.926   4.009   1.498
 3181SOL    HW111561   3.846   4.069   1.485
 3181SOL    HW211562   3.916   3.960   1.584
 3182SOL     OW11563   4.106   4.424   0.480
 3182SOL    HW111564   4.151   4.334   0.477
 3182SOL    HW211565   4.012   4.413   0.513
 3183SOL     OW11566   4.505   3.988   1.749
 3183SOL    HW111567   4.572   3.927   1.792
 3183SOL    HW211568   4.432   4.007   1.814
 3184SOL     OW11569   4.527   5.126   0.924
 3184SOL    HW111570   4.617   5.140   0.882
 3184SOL    HW211571   4.456   5.128   0.853
 3185SOL     OW11572   4.646   4.227   0.899
 3185SOL    HW111573   4.621   4.218   0.803
 3185SOL    HW211574   4.694   4.145   0.930
 3186SOL     OW11575   4.021   3.759   0.171
 3186SOL    HW111576   4.070   3.843   0.150
 3186SOL    HW211577   4.083   3.694   0.216
 3187SOL     OW11578   4.659   3.960   0.480
 3187SOL    HW111579   4.611   4.001   0.402
 3187SOL    HW211580   4.758   3.958   0.461
 3188SOL     OW11581   4.800   4.407   1.464
 3188SOL    HW111582   4.720   4.346   1.467
 3188SOL    HW211583   4.881   4.354   1.440
 3189SOL     OW11584   4.951   5.294   0.793
 3189SOL    HW111585   4.972   5.368   0.728
 3189SOL    HW211586   5.019   5.294   0.866
 3190SOL     OW11587   4.183   4.876   0.741
 3190SOL    HW111588   4.112   4.849   0.806
 3190SOL    HW211589   4.157   4.848   0.648
 3191SOL     OW11590   3.802   4.280   1.386
 3191SOL    HW111591   3.894   4.279   1.345
 3191SOL    HW211592   3.796   4.354   1.453
 3192SOL     OW11593   4.285   3.946   1.147
 3192SOL    HW111594   4.323   3.862   1.184
 3192SOL    HW211595   4.197   3.965   1.191
 3193SOL     OW11596   4.590   4.178   0.642
 3193SOL    HW111597   4.558   4.250   0.580
 3193SOL    HW211598   4.614   4.097   0.589
 3194SOL     OW11599   4.251   3.980   0.328
 3194SOL    HW111600   4.278   3.921   0.253
 3194SOL    HW211601   4.251   4.075   0.297
 3195SOL     OW11602   4.704   4.840   1.719
 3195SOL    HW111603   4.605   4.846   1.729
 3195SOL    HW211604   4.727   4.760   1.663
 3196SOL     OW11605   4.134   4.537   1.251
 3196SOL    HW111606   4.220   4.549   1.301
 3196SOL    HW211607   4.092   4.450   1.278
 3197SOL     OW11608   4.998   4.110   1.262
 3197SOL    HW111609   5.019   4.184   1.326
 3197SOL    HW211610   4.909   4.127   1.219
 3198SOL     OW11611   4.091   4.824   0.501
 3198SOL    HW111612   4.084   4.907   0.445
 3198SOL    HW211613   4.095   4.744   0.441
 3199SOL     OW11614   4.290   4.261   0.865
 3199SOL    HW111615   4.302   4.327   0.791
 3199SOL    HW211616   4.336   4.295   0.948
 3200SOL     OW11617   4.976   5.072   0.388
 3200SOL    HW111618   5.026   5.149   0.428
 3200SOL    HW211619   4.881   5.074   0.420
 3201SOL     OW11620   4.126   4.475   1.598
 3201SOL    HW111621   4.194   4.530   1.551
 3201SOL    HW211622   4.166   4.387   1.625
 3202SOL     OW11623   4.737   3.829   1.770
 3202SOL    HW111624   4.743   3.914   1.718
 3202SOL    HW211625   4.769   3.753   1.713
 3203SOL     OW11626   4.297   4.594   1.029
 3203SOL    HW111627   4.341   4.683   1.020
 3203SOL    HW211628   4.234   4.594   1.106
 3204SOL     OW11629   5.084   4.586   1.045
 3204SOL    HW111630   5.009   4.586   0.979
 3204SOL    HW211631   5.121   4.494   1.054
 3205SOL     OW11632   4.031   3.937   1.231
 3205SOL    HW111633   4.008   3.974   1.321
 3205SOL    HW211634   4.001   3.842   1.225
 3206SOL     OW11635   4.456   4.358   1.064
 3206SOL    HW111636   4.515   4.332   0.988
 3206SOL    HW211637   4.428   4.454   1.053
 3207SOL     OW11638   4.031   3.787   0.618
 3207SOL    HW111639   4.020   3.881   0.651
 3207SOL    HW211640   4.026   3.724   0.695
 3208SOL     OW11641   5.346   4.091   0.374
 3208SOL    HW111642   5.348   4.015   0.438
 3208SOL    HW211643   5.298   4.168   0.414
 3209SOL     OW11644   4.747   4.490   0.966
 3209SOL    HW111645   4.762   4.511   1.062
 3209SOL    HW211646   4.717   4.395   0.957
 3210SOL     OW11647   4.074   4.622   1.804
 3210SOL    HW111648   4.150   4.666   1.852
 3210SOL    HW211649   4.109   4.575   1.722
 3211SOL     OW11650   4.043   4.534   0.949
 3211SOL    HW111651   4.136   4.570   0.954
 3211SOL    HW211652   4.037   4.449   1.001
 3212SOL     OW11653   4.063   4.233   1.006
 3212SOL    HW111654   4.011   4.150   0.989
 3212SOL    HW211655   4.140   4.238   0.942
 3213SOL     OW11656   4.862   4.104   1.678
 3213SOL    HW111657   4.817   4.167   1.742
 3213SOL    HW211658   4.955   4.135   1.661
 3214SOL     OW11659   4.884   3.931   1.477
 3214SOL    HW111660   4.884   3.995   1.554
 3214SOL    HW211661   4.912   3.979   1.394
 3215SOL     OW11662   4.726   4.520   1.238
 3215SOL    HW111663   4.767   4.488   1.324
 3215SOL    HW211664   4.630   4.493   1.235
 3216SOL     OW11665   3.764   4.268   1.114
 3216SOL    HW111666   3.849   4.235   1.073
 3216SOL    HW211667   3.777   4.283   1.212
 3217SOL     OW11668   3.913   4.244   1.722
 3217SOL    HW111669   3.972   4.204   1.652
 3217SOL    HW211670   3.855   4.315   1.681
 3218SOL     OW11671   4.539   4.296   0.325
 3218SOL    HW111672   4.546   4.207   0.279
 3218SOL    HW211673   4.445   4.330   0.317
 3219SOL     OW11674   4.395   4.188   1.269
 3219SOL    HW111675   4.361   4.099   1.239
 3219SOL    HW211676   4.421   4.242   1.189
 3220SOL     OW11677   4.197   4.224   0.191
 3220SOL    HW111678   4.258   4.304   0.195
 3220SOL    HW211679   4.102   4.255   0.198
 3221SOL     OW11680   3.883   4.861   1.466
 3221SOL    HW111681   3.905   4.800   1.542
 3221SOL    HW211682   3.893   4.812   1.380
 3222SOL     OW11683   5.071   4.783   1.234
 3222SOL    HW111684   5.095   4.720   1.160
 3222SOL    HW211685   4.981   4.823   1.216
 3223SOL     OW11686   3.807   4.982   1.022
 3223SOL    HW111687   3.802   4.981   1.122
 3223SOL    HW211688   3.724   4.941   0.984
 3224SOL     OW11689   5.004   4.651   0.672
 3224SOL    HW111690   5.064   4.570   0.674
 3224SOL    HW211691   5.044   4.720   0.612
 3225SOL     OW11692   4.554   4.997   1.422
 3225SOL    HW111693   4.549   5.030   1.517
 3225SOL    HW211694   4.468   5.016   1.376
 3226SOL     OW11695   3.987   4.050   0.720
 3226SOL    HW111696   3.908   4.101   0.686
 3226SOL    HW211697   3.978   4.035   0.818
 3227SOL     OW11698   4.546   4.726   1.372
 3227SOL    HW111699   4.586   4.725   1.280
 3227SOL    HW211700   4.556   4.818   1.412
 3228SOL     OW11701   4.640   4.634   0.291
 3228SOL    HW111702   4.703   4.672   0.223
 3228SOL    HW211703   4.680   4.551   0.330
 3229SOL     OW11704   4.763   4.822   0.696
 3229SOL    HW111705   4.693   4.775   0.750
 3229SOL    HW211706   4.822   4.754   0.653
 3230SOL     OW11707   4.738   3.960   0.971
 3230SOL    HW111708   4.730   3.924   0.878
 3230SOL    HW211709   4.736   3.884   1.036
 3231SOL     OW11710   3.829   4.737   1.726
 3231SOL    HW111711   3.752   4.704   1.780
 3231SOL    HW211712   3.914   4.707   1.768
 3232SOL     OW11713   5.164   4.580   1.398
 3232SOL    HW111714   5.107   4.632   1.335
 3232SOL    HW211715   5.260   4.592   1.374
 3233SOL     OW11716   3.796   3.890   0.318
 3233SOL    HW111717   3.779   3.973   0.264
 3233SOL    HW211718   3.886   3.853   0.296
 3234SOL     OW11719   4.337   4.566   1.431
 3234SOL    HW111720   4.393   4.647   1.414
 3234SOL    HW211721   4.396   4.486   1.434
 3235SOL     OW11722   4.440   4.289   1.708
 3235SOL    HW111723   4.459   4.354   1.782
 3235SOL    HW211724   4.500   4.209   1.717
 3236SOL     OW11725   5.174   4.944   1.633
 3236SOL    HW111726   5.165   4.934   1.732
 3236SOL    HW211727   5.270   4.937   1.607
 3237SOL     OW11728   4.318   4.469   0.652
 3237SOL    HW111729   4.368   4.554   0.633
 3237SOL    HW211730   4.230   4.471   0.604
 3238SOL     OW11731   4.583   4.680   0.861
 3238SOL    HW111732   4.637   4.611   0.909
 3238SOL    HW211733   4.551   4.749   0.927
 3239SOL     OW11734   4.807   4.708   0.087
 3239SOL    HW111735   4.784   4.761   0.005
 3239SOL    HW211736   4.888   4.652   0.068
 3240SOL     OW11737   3.803   4.964   0.653
 3240SOL    HW111738   3.802   4.917   0.741
 3240SOL    HW211739   3.885   4.936   0.602
 3241SOL     OW11740   4.041   4.271   1.280
 3241SOL    HW111741   4.079   4.212   1.352
 3241SOL    HW211742   4.081   4.245   1.192
 3242SOL     OW11743   3.763   4.801   0.300
 3242SOL    HW111744   3.862   4.790   0.291
 3242SOL    HW211745   3.723   4.715   0.332
 3243SOL     OW11746   3.954   4.352   1.975
 3243SOL    HW111747   3.861   4.350   2.012
 3243SOL    HW211748   3.955   4.313   1.883
 3244SOL     OW11749   3.949   3.999   2.858
 3244SOL    HW111750   3.984   3.982   2.950
 3244SOL    HW211751   3.861   3.954   2.846
 3245SOL     OW11752   3.743   4.092   2.509
 3245SOL    HW111753   3.661   4.135   2.548
 3245SOL    HW211754   3.715   4.019   2.446
 3246SOL     OW11755   4.293   4.999   3.027
 3246SOL    HW111756   4.200   4.992   2.990
 3246SOL    HW211757   4.304   5.088   3.071
 3247SOL     OW11758   4.492   4.868   2.885
 3247SOL    HW111759   4.414   4.885   2.945
 3247SOL    HW211760   4.526   4.955   2.849
 3248SOL     OW11761   4.574   4.522   3.685
 3248SOL    HW111762   4.570   4.598   3.750
 3248SOL    HW211763   4.596   4.558   3.594
 3249SOL     OW11764   4.410   4.885   3.665
 3249SOL    HW111765   4.470   4.964   3.679
 3249SOL    HW211766   4.324   4.916   3.624
 3250SOL     OW11767   4.330   4.688   1.985
 3250SOL    HW111768   4.337   4.772   1.931
 3250SOL    HW211769   4.376   4.701   2.073
 3251SOL     OW11770   3.846   4.367   2.425
 3251SOL    HW111771   3.801   4.279   2.442
 3251SOL    HW211772   3.845   4.421   2.509
 3252SOL     OW11773   3.837   4.461   3.459
 3252SOL    HW111774   3.925   4.448   3.504
 3252SOL    HW211775   3.824   4.558   3.437
 3253SOL     OW11776   5.017   4.952   3.285
 3253SOL    HW111777   5.054   4.879   3.227
 3253SOL    HW211778   5.069   4.957   3.370
 3254SOL     OW11779   4.533   3.728   2.364
 3254SOL    HW111780   4.573   3.819   2.355
 3254SOL    HW211781   4.433   3.736   2.370
 3255SOL     OW11782   4.531   4.329   3.327
 3255SOL    HW111783   4.484   4.326   3.416
 3255SOL    HW211784   4.480   4.274   3.261
 3256SOL     OW11785   4.697   4.614   3.434
 3256SOL    HW111786   4.743   4.530   3.405
 3256SOL    HW211787   4.641   4.648   3.359
 3257SOL     OW11788   4.715   4.134   3.104
 3257SOL    HW111789   4.638   4.168   3.158
 3257SOL    HW211790   4.681   4.083   3.025
 3258SOL     OW11791   3.800   4.535   2.651
 3258SOL    HW111792   3.899   4.523   2.660
 3258SOL    HW211793   3.776   4.630   2.672
 3259SOL     OW11794   4.274   3.920   2.747
 3259SOL    HW111795   4.269   3.915   2.847
 3259SOL    HW211796   4.276   4.016   2.718
 3260SOL     OW11797   4.045   4.667   2.104
 3260SOL    HW111798   4.127   4.706   2.062
 3260SOL    HW211799   4.018   4.585   2.055
 3261SOL     OW11800   3.926   4.009   3.360
 3261SOL    HW111801   3.846   4.069   3.347
 3261SOL    HW211802   3.916   3.960   3.446
 3262SOL     OW11803   4.106   4.424   2.342
 3262SOL    HW111804   4.151   4.334   2.339
 3262SOL    HW211805   4.012   4.413   2.375
 3263SOL     OW11806   4.338   3.846   1.979
 3263SOL    HW111807   4.436   3.824   1.986
 3263SOL    HW211808   4.307   3.829   1.886
 3264SOL     OW11809   4.527   5.126   2.786
 3264SOL    HW111810   4.617   5.140   2.744
 3264SOL    HW211811   4.456   5.128   2.715
 3265SOL     OW11812   5.158   4.912   1.903
 3265SOL    HW111813   5.190   4.836   1.960
 3265SOL    HW211814   5.066   4.939   1.933
 3266SOL     OW11815   4.800   4.407   3.326
 3266SOL    HW111816   4.720   4.346   3.329
 3266SOL    HW211817   4.881   4.354   3.302
 3267SOL     OW11818   4.951   5.294   2.655
 3267SOL    HW111819   4.972   5.368   2.590
 3267SOL    HW211820   5.019   5.294   2.728
 3268SOL     OW11821   4.756   4.273   1.878
 3268SOL    HW111822   4.715   4.355   1.839
 3268SOL    HW211823   4.820   4.299   1.951
 3269SOL     OW11824   3.802   4.280   3.248
 3269SOL    HW111825   3.894   4.279   3.207
 3269SOL    HW211826   3.796   4.354   3.315
 3270SOL     OW11827   4.639   3.813   3.264
 3270SOL    HW111828   4.664   3.793   3.169
 3270SOL    HW211829   4.711   3.869   3.306
 3271SOL     OW11830   4.704   4.840   3.581
 3271SOL    HW111831   4.605   4.846   3.591
 3271SOL    HW211832   4.727   4.760   3.525
 3272SOL     OW11833   4.429   4.774   2.230
 3272SOL    HW111834   4.415   4.781   2.329
 3272SOL    HW211835   4.513   4.723   2.212
 3273SOL     OW11836   4.134   4.537   3.113
 3273SOL    HW111837   4.220   4.549   3.163
 3273SOL    HW211838   4.092   4.450   3.140
 3274SOL     OW11839   4.998   4.110   3.124
 3274SOL    HW111840   5.019   4.184   3.188
 3274SOL    HW211841   4.909   4.127   3.081
 3275SOL     OW11842   4.091   4.824   2.363
 3275SOL    HW111843   4.084   4.907   2.307
 3275SOL    HW211844   4.095   4.744   2.303
 3276SOL     OW11845   4.976   5.072   2.250
 3276SOL    HW111846   5.026   5.149   2.290
 3276SOL    HW211847   4.881   5.074   2.282
 3277SOL     OW11848   4.126   4.475   3.460
 3277SOL    HW111849   4.194   4.530   3.413
 3277SOL    HW211850   4.166   4.387   3.487
 3278SOL     OW11851   4.737   3.829   3.632
 3278SOL    HW111852   4.743   3.914   3.580
 3278SOL    HW211853   4.769   3.753   3.575
 3279SOL     OW11854   4.297   4.594   2.891
 3279SOL    HW111855   4.341   4.683   2.882
 3279SOL    HW211856   4.234   4.594   2.968
 3280SOL     OW11857   5.084   4.586   2.907
 3280SOL    HW111858   5.009   4.586   2.841
 3280SOL    HW211859   5.121   4.494   2.916
 3281SOL     OW11860   4.031   3.937   3.093
 3281SOL    HW111861   4.008   3.974   3.183
 3281SOL    HW211862   4.001   3.842   3.087
 3282SOL     OW11863   4.456   4.358   2.926
 3282SOL    HW111864   4.515   4.332   2.850
 3282SOL    HW211865   4.428   4.454   2.915
 3283SOL     OW11866   4.747   4.490   2.828
 3283SOL    HW111867   4.762   4.511   2.924
 3283SOL    HW211868   4.717   4.395   2.819
 3284SOL     OW11869   4.074   4.622   3.666
 3284SOL    HW111870   4.150   4.666   3.714
 3284SOL    HW211871   4.109   4.575   3.584
 3285SOL     OW11872   5.027   4.562   1.904
 3285SOL    HW111873   5.061   4.469   1.919
 3285SOL    HW211874   5.045   4.589   1.809
 3286SOL     OW11875   4.063   4.233   2.868
 3286SOL    HW111876   4.011   4.150   2.851
 3286SOL    HW211877   4.140   4.238   2.804
 3287SOL     OW11878   4.862   4.104   3.540
 3287SOL    HW111879   4.817   4.167   3.604
 3287SOL    HW211880   4.955   4.135   3.523
 3288SOL     OW11881   4.884   3.931   3.339
 3288SOL    HW111882   4.884   3.995   3.416
 3288SOL    HW211883   4.912   3.979   3.256
 3289SOL     OW11884   3.732   5.050   2.062
 3289SOL    HW111885   3.639   5.071   2.031
 3289SOL    HW211886   3.742   4.951   2.075
 3290SOL     OW11887   4.726   4.520   3.100
 3290SOL    HW111888   4.767   4.488   3.186
 3290SOL    HW211889   4.630   4.493   3.097
 3291SOL     OW11890   3.764   4.268   2.976
 3291SOL    HW111891   3.849   4.235   2.935
 3291SOL    HW211892   3.777   4.283   3.074
 3292SOL     OW11893   3.913   4.244   3.584
 3292SOL    HW111894   3.972   4.204   3.514
 3292SOL    HW211895   3.855   4.315   3.543
 3293SOL     OW11896   4.197   4.224   2.053
 3293SOL    HW111897   4.258   4.304   2.057
 3293SOL    HW211898   4.102   4.255   2.060
 3294SOL     OW11899   3.883   4.861   3.328
 3294SOL    HW111900   3.905   4.800   3.404
 3294SOL    HW211901   3.893   4.812   3.242
 3295SOL     OW11902   5.071   4.783   3.096
 3295SOL    HW111903   5.095   4.720   3.022
 3295SOL    HW211904   4.981   4.823   3.078
 3296SOL     OW11905   5.004   4.651   2.534
 3296SOL    HW111906   5.064   4.570   2.536
 3296SOL    HW211907   5.044   4.720   2.474
 3297SOL     OW11908   4.554   4.997   3.284
 3297SOL    HW111909   4.549   5.030   3.379
 3297SOL    HW211910   4.468   5.016   3.238
 3298SOL     OW11911   3.987   4.050   2.582
 3298SOL    HW111912   3.908   4.101   2.548
 3298SOL    HW211913   3.978   4.035   2.680
 3299SOL     OW11914   4.918   5.336   1.893
 3299SOL    HW111915   4.924   5.243   1.930
 3299SOL    HW211916   4.859   5.336   1.813
 3300SOL     OW11917   4.546   4.726   3.234
 3300SOL    HW111918   4.586   4.725   3.142
 3300SOL    HW211919   4.556   4.818   3.274
 3301SOL     OW11920   4.640   4.634   2.153
 3301SOL    HW111921   4.703   4.672   2.085
 3301SOL    HW211922   4.680   4.551   2.192
 3302SOL     OW11923   4.096   5.012   3.352
 3302SOL    HW111924   4.083   5.105   3.318
 3302SOL    HW211925   4.012   4.960   3.339
 3303SOL     OW11926   4.763   4.822   2.558
 3303SOL    HW111927   4.693   4.775   2.612
 3303SOL    HW211928   4.822   4.754   2.515
 3304SOL     OW11929   3.829   4.737   3.588
 3304SOL    HW111930   3.752   4.704   3.642
 3304SOL    HW211931   3.914   4.707   3.630
 3305SOL     OW11932   5.164   4.580   3.260
 3305SOL    HW111933   5.107   4.632   3.197
 3305SOL    HW211934   5.260   4.592   3.236
 3306SOL     OW11935   4.337   4.566   3.293
 3306SOL    HW111936   4.393   4.647   3.276
 3306SOL    HW211937   4.396   4.486   3.296
 3307SOL     OW11938   4.440   4.289   3.570
 3307SOL    HW111939   4.459   4.354   3.644
 3307SOL    HW211940   4.500   4.209   3.579
 3308SOL     OW11941   4.583   4.680   2.723
 3308SOL    HW111942   4.637   4.611   2.771
 3308SOL    HW211943   4.551   4.749   2.789
 3309SOL     OW11944   4.807   4.708   1.949
 3309SOL    HW111945   4.784   4.761   1.867
 3309SOL    HW211946   4.888   4.652   1.930
 3310SOL     OW11947   3.803   4.964   2.515
 3310SOL    HW111948   3.802   4.917   2.603
 3310SOL    HW211949   3.885   4.936   2.464
 3311SOL     OW11950   4.152   4.148   2.382
 3311SOL    HW111951   4.182   4.076   2.320
 3311SOL    HW211952   4.113   4.108   2.465
 3312SOL     OW11953   4.725   3.758   3.016
 3312SOL    HW111954   4.662   3.686   2.985
 3312SOL    HW211955   4.818   3.722   3.016
 3313SOL     OW11956   4.494   5.054   2.163
 3313SOL    HW111957   4.448   4.967   2.180
 3313SOL    HW211958   4.585   5.051   2.204
 3314SOL     OW11959   3.763   4.801   2.162
 3314SOL    HW111960   3.862   4.790   2.153
 3314SOL    HW211961   3.723   4.715   2.194
 3315SOL     OW11962   3.954   4.352   3.837
 3315SOL    HW111963   3.861   4.350   3.874
 3315SOL    HW211964   3.955   4.313   3.745
 3316SOL     OW11965   3.949   3.999   4.720
 3316SOL    HW111966   3.984   3.982   4.812
 3316SOL    HW211967   3.861   3.954   4.708
 3317SOL     OW11968   3.743   4.092   4.371
 3317SOL    HW111969   3.661   4.135   4.410
 3317SOL    HW211970   3.715   4.019   4.308
 3318SOL     OW11971   4.293   4.999   4.889
 3318SOL    HW111972   4.200   4.992   4.852
 3318SOL    HW211973   4.304   5.088   4.933
 3319SOL     OW11974   4.859   4.427   4.441
 3319SOL    HW111975   4.916   4.505   4.416
 3319SOL    HW211976   4.799   4.453   4.517
 3320SOL     OW11977   4.492   4.868   4.747
 3320SOL    HW111978   4.414   4.885   4.807
 3320SOL    HW211979   4.526   4.955   4.711
 3321SOL     OW11980   4.059   5.159   4.785
 3321SOL    HW111981   3.981   5.128   4.732
 3321SOL    HW211982   4.117   5.217   4.728
 3322SOL     OW11983   3.964   4.815   4.610
 3322SOL    HW111984   3.978   4.731   4.662
 3322SOL    HW211985   3.909   4.879   4.665
 3323SOL     OW11986   4.330   4.688   3.847
 3323SOL    HW111987   4.337   4.772   3.793
 3323SOL    HW211988   4.376   4.701   3.935
 3324SOL     OW11989   3.846   4.367   4.287
 3324SOL    HW111990   3.801   4.279   4.304
 3324SOL    HW211991   3.845   4.421   4.371
 3325SOL     OW11992   4.533   3.728   4.226
 3325SOL    HW111993   4.573   3.819   4.217
 3325SOL    HW211994   4.433   3.736   4.232
 3326SOL     OW11995   5.005   4.069   4.668
 3326SOL    HW111996   4.919   4.019   4.655
 3326SOL    HW211997   5.067   4.015   4.724
 3327SOL     OW11998   4.765   4.425   4.153
 3327SOL    HW111999   4.791   4.421   4.249
 3327SOL    HW212000   4.680   4.374   4.139
 3328SOL     OW12001   4.589   4.072   3.919
 3328SOL    HW112002   4.648   4.135   3.870
 3328SOL    HW212003   4.608   3.978   3.890
 3329SOL     OW12004   4.274   3.920   4.609
 3329SOL    HW112005   4.269   3.915   4.709
 3329SOL    HW212006   4.276   4.016   4.580
 3330SOL     OW12007   4.045   4.667   3.966
 3330SOL    HW112008   4.127   4.706   3.924
 3330SOL    HW212009   4.018   4.585   3.917
 3331SOL     OW12010   4.106   4.424   4.204
 3331SOL    HW112011   4.151   4.334   4.201
 3331SOL    HW212012   4.012   4.413   4.237
 3332SOL     OW12013   4.527   5.126   4.648
 3332SOL    HW112014   4.617   5.140   4.606
 3332SOL    HW212015   4.456   5.128   4.577
 3333SOL     OW12016   4.263   3.788   4.236
 3333SOL    HW112017   4.182   3.789   4.294
 3333SOL    HW212018   4.266   3.871   4.181
 3334SOL     OW12019   4.021   3.759   3.895
 3334SOL    HW112020   4.070   3.843   3.874
 3334SOL    HW212021   4.083   3.694   3.940
 3335SOL     OW12022   4.659   3.960   4.204
 3335SOL    HW112023   4.611   4.001   4.126
 3335SOL    HW212024   4.758   3.958   4.185
 3336SOL     OW12025   4.951   5.294   4.517
 3336SOL    HW112026   4.972   5.368   4.452
 3336SOL    HW212027   5.019   5.294   4.590
 3337SOL     OW12028   4.183   4.876   4.465
 3337SOL    HW112029   4.112   4.849   4.530
 3337SOL    HW212030   4.157   4.848   4.372
 3338SOL     OW12031   4.756   4.273   3.740
 3338SOL    HW112032   4.715   4.355   3.701
 3338SOL    HW212033   4.820   4.299   3.813
 3339SOL     OW12034   4.285   3.946   4.871
 3339SOL    HW112035   4.323   3.862   4.908
 3339SOL    HW212036   4.197   3.965   4.915
 3340SOL     OW12037   4.590   4.178   4.366
 3340SOL    HW112038   4.558   4.250   4.304
 3340SOL    HW212039   4.614   4.097   4.313
 3341SOL     OW12040   4.741   3.763   4.477
 3341SOL    HW112041   4.669   3.768   4.408
 3341SOL    HW212042   4.717   3.694   4.546
 3342SOL     OW12043   4.429   4.774   4.092
 3342SOL    HW112044   4.415   4.781   4.191
 3342SOL    HW212045   4.513   4.723   4.074
 3343SOL     OW12046   4.091   4.824   4.225
 3343SOL    HW112047   4.084   4.907   4.169
 3343SOL    HW212048   4.095   4.744   4.165
 3344SOL     OW12049   4.933   4.249   3.999
 3344SOL    HW112050   4.946   4.165   4.053
 3344SOL    HW212051   4.904   4.323   4.059
 3345SOL     OW12052   4.031   3.937   4.955
 3345SOL    HW112053   4.008   3.974   5.045
 3345SOL    HW212054   4.001   3.842   4.949
 3346SOL     OW12055   4.031   3.787   4.342
 3346SOL    HW112056   4.020   3.881   4.375
 3346SOL    HW212057   4.026   3.724   4.419
 3347SOL     OW12058   5.346   4.091   4.098
 3347SOL    HW112059   5.348   4.015   4.162
 3347SOL    HW212060   5.298   4.168   4.138
 3348SOL     OW12061   5.027   4.562   3.766
 3348SOL    HW112062   5.061   4.469   3.781
 3348SOL    HW212063   5.045   4.589   3.671
 3349SOL     OW12064   4.043   4.534   4.673
 3349SOL    HW112065   4.136   4.570   4.678
 3349SOL    HW212066   4.037   4.449   4.725
 3350SOL     OW12067   4.063   4.233   4.730
 3350SOL    HW112068   4.011   4.150   4.713
 3350SOL    HW212069   4.140   4.238   4.666
 3351SOL     OW12070   3.732   5.050   3.924
 3351SOL    HW112071   3.639   5.071   3.893
 3351SOL    HW212072   3.742   4.951   3.937
 3352SOL     OW12073   4.539   4.296   4.049
 3352SOL    HW112074   4.546   4.207   4.003
 3352SOL    HW212075   4.445   4.330   4.041
 3353SOL     OW12076   5.071   4.783   4.958
 3353SOL    HW112077   5.095   4.720   4.884
 3353SOL    HW212078   4.981   4.823   4.940
 3354SOL     OW12079   3.807   4.982   4.746
 3354SOL    HW112080   3.802   4.981   4.846
 3354SOL    HW212081   3.724   4.941   4.708
 3355SOL     OW12082   5.004   4.651   4.396
 3355SOL    HW112083   5.064   4.570   4.398
 3355SOL    HW212084   5.044   4.720   4.336
 3356SOL     OW12085   3.987   4.050   4.444
 3356SOL    HW112086   3.908   4.101   4.410
 3356SOL    HW212087   3.978   4.035   4.542
 3357SOL     OW12088   4.546   4.726   5.096
 3357SOL    HW112089   4.586   4.725   5.004
 3357SOL    HW212090   4.556   4.818   5.136
 3358SOL     OW12091   4.640   4.634   4.015
 3358SOL    HW112092   4.703   4.672   3.947
 3358SOL    HW212093   4.680   4.551   4.054
 3359SOL     OW12094   4.738   3.960   4.695
 3359SOL    HW112095   4.730   3.924   4.602
 3359SOL    HW212096   4.736   3.884   4.760
 3360SOL     OW12097   3.799   4.069   3.757
 3360SOL    HW112098   3.707   4.041   3.728
 3360SOL    HW212099   3.830   4.146   3.701
 3361SOL     OW12100   3.796   3.890   4.042
 3361SOL    HW112101   3.779   3.973   3.988
 3361SOL    HW212102   3.886   3.853   4.020
 3362SOL     OW12103   4.949   4.049   4.173
 3362SOL    HW112104   5.014   3.975   4.162
 3362SOL    HW212105   4.969   4.099   4.257
 3363SOL     OW12106   4.318   4.469   4.376
 3363SOL    HW112107   4.368   4.554   4.357
 3363SOL    HW212108   4.230   4.471   4.328
 3364SOL     OW12109   4.807   4.708   3.811
 3364SOL    HW112110   4.784   4.761   3.729
 3364SOL    HW212111   4.888   4.652   3.792
 3365SOL     OW12112   3.803   4.964   4.377
 3365SOL    HW112113   3.802   4.917   4.465
 3365SOL    HW212114   3.885   4.936   4.326
 3366SOL     OW12115   4.152   4.148   4.244
 3366SOL    HW112116   4.182   4.076   4.182
 3366SOL    HW212117   4.113   4.108   4.327
 3367SOL     OW12118   4.494   5.054   4.025
 3367SOL    HW112119   4.448   4.967   4.042
 3367SOL    HW212120   4.585   5.051   4.066
 3368SOL     OW12121   5.076   3.776   3.892
 3368SOL    HW112122   5.111   3.735   3.808
 3368SOL    HW212123   4.986   3.738   3.912
 3369SOL     OW12124   3.763   4.801   4.024
 3369SOL    HW112125   3.862   4.790   4.015
 3369SOL    HW212126   3.723   4.715   4.056
   5.08970   5.08970   5.08970
