UNITED ATOM STRUCTURE FOR MOLECULE UNK
12067
    0X2IT   H18    1   3.092   2.352   2.583
    0X2IT    N4    2   3.026   2.419   2.548
    0X2IT   H17    3   3.059   2.484   2.478
    0X2IT   C14    4   2.895   2.380   2.546
    0X2IT    O5    5   2.849   2.285   2.607
    0X2IT    O4    6   2.822   2.466   2.469
    0X2IT   C13    7   2.680   2.441   2.463
    0X2IT   C10    8   2.607   2.502   2.584
    0X2IT    C9    9   2.457   2.484   2.578
    0X2IT    C4   10   2.394   2.607   2.582
    0X2IT    C5   11   2.245   2.625   2.577
    0X2IT    O1   12   2.197   2.739   2.585
    0X2IT    C6   13   2.166   2.505   2.564
    0X2IT   C12   14   2.015   2.516   2.558
    0X2IT    C7   15   2.229   2.382   2.561
    0X2IT    C8   16   2.381   2.365   2.567
    0X2IT    O2   17   2.427   2.250   2.559
    0X2IT    N3   18   2.164   2.265   2.551
    0X2IT   H15   19   2.064   2.258   2.544
    0X2IT   H16   20   2.221   2.180   2.548
    0X2IT    N2   21   2.482   2.709   2.599
    0X2IT    C3   22   2.473   2.846   2.546
    0X2IT    C2   23   2.599   2.856   2.461
    0X2IT    H2   24   2.639   2.954   2.435
    0X2IT    N1   25   2.611   2.744   2.365
    0X2IT   H14   26   2.674   2.771   2.289
    0X2IT    C1   27   2.688   2.741   2.491
    0X2IT    H1   28   2.796   2.748   2.490
    0X2IT   C11   29   2.622   2.658   2.600
    0X2IT    O3   30   2.691   2.695   2.718
    0X2IT   C15   31   2.628   2.664   2.843
    1X2IT   H18   32   5.213   2.872   2.522
    1X2IT    N4   33   5.208   2.795   2.457
    1X2IT   H17   34   5.265   2.714   2.478
    1X2IT   C14   35   5.088   2.778   2.393
    1X2IT    O5   36   5.000   2.861   2.385
    1X2IT    O4   37   5.084   2.654   2.334
    1X2IT   C13   38   4.967   2.625   2.256
    1X2IT   C10   39   4.977   2.682   2.114
    1X2IT    C9   40   4.859   2.647   2.027
    1X2IT    C4   41   4.901   2.579   1.914
    1X2IT    C5   42   4.808   2.529   1.807
    1X2IT    O1   43   4.855   2.472   1.708
    1X2IT    C6   44   4.667   2.553   1.828
    1X2IT   C12   45   4.568   2.505   1.724
    1X2IT    C7   46   4.625   2.622   1.940
    1X2IT    C8   47   4.721   2.673   2.048
    1X2IT    O2   48   4.672   2.730   2.147
    1X2IT    N3   49   4.497   2.650   1.967
    1X2IT   H15   50   4.421   2.622   1.908
    1X2IT   H16   51   4.477   2.701   2.054
    1X2IT    N2   52   5.036   2.569   1.907
    1X2IT    C3   53   5.116   2.460   1.851
    1X2IT    C2   54   5.197   2.414   1.972
    1X2IT    H2   55   5.289   2.357   1.956
    1X2IT    N1   56   5.113   2.386   2.089
    1X2IT   H14   57   5.163   2.325   2.154
    1X2IT    C1   58   5.185   2.514   2.080
    1X2IT    H1   59   5.265   2.538   2.149
    1X2IT   C11   60   5.099   2.629   2.029
    1X2IT    O3   61   5.192   2.730   1.996
    1X2IT   C15   62   5.147   2.835   1.910
    2X2IT   H18   63   2.209   4.702   4.461
    2X2IT    N4   64   2.140   4.661   4.401
    2X2IT   H17   65   2.144   4.687   4.303
    2X2IT   C14   66   2.095   4.537   4.435
    2X2IT    O5   67   2.108   4.485   4.545
    2X2IT    O4   68   2.027   4.481   4.330
    2X2IT   C13   69   1.968   4.352   4.355
    2X2IT   C10   70   1.831   4.365   4.423
    2X2IT    C9   71   1.761   4.233   4.444
    2X2IT    C4   72   1.638   4.233   4.382
    2X2IT    C5   73   1.544   4.116   4.382
    2X2IT    O1   74   1.434   4.126   4.326
    2X2IT    C6   75   1.589   3.997   4.450
    2X2IT   C12   76   1.499   3.875   4.454
    2X2IT    C7   77   1.712   3.997   4.514
    2X2IT    C8   78   1.807   4.117   4.513
    2X2IT    O2   79   1.917   4.105   4.570
    2X2IT    N3   80   1.762   3.892   4.581
    2X2IT   H15   81   1.714   3.805   4.590
    2X2IT   H16   82   1.855   3.903   4.623
    2X2IT    N2   83   1.609   4.353   4.326
    2X2IT    C3   84   1.531   4.380   4.204
    2X2IT    C2   85   1.633   4.453   4.117
    2X2IT    H2   86   1.598   4.516   4.035
    2X2IT    N1   87   1.760   4.379   4.105
    2X2IT   H14   88   1.810   4.411   4.022
    2X2IT    C1   89   1.750   4.492   4.200
    2X2IT    H1   90   1.806   4.583   4.184
    2X2IT   C11   91   1.723   4.448   4.343
    2X2IT    O3   92   1.684   4.567   4.409
    2X2IT   C15   93   1.615   4.553   4.534
    3X2IT   H18   94   1.570   1.351   2.498
    3X2IT    N4   95   1.474   1.364   2.525
    3X2IT   H17   96   1.438   1.304   2.597
    3X2IT   C14   97   1.425   1.491   2.513
    3X2IT    O5   98   1.476   1.581   2.448
    3X2IT    O4   99   1.307   1.502   2.580
    3X2IT   C13  100   1.239   1.629   2.571
    3X2IT   C10  101   1.156   1.639   2.442
    3X2IT    C9  102   1.078   1.769   2.432
    3X2IT    C4  103   0.943   1.742   2.420
    3X2IT    C5  104   0.838   1.849   2.408
    3X2IT    O1  105   0.719   1.816   2.394
    3X2IT    C6  106   0.883   1.985   2.414
    3X2IT   C12  107   0.782   2.098   2.403
    3X2IT    C7  108   1.019   2.012   2.425
    3X2IT    C8  109   1.125   1.902   2.436
    3X2IT    O2  110   1.243   1.937   2.450
    3X2IT    N3  111   1.071   2.135   2.429
    3X2IT   H15  112   1.015   2.219   2.425
    3X2IT   H16  113   1.172   2.143   2.439
    3X2IT    N2  114   0.917   1.609   2.412
    3X2IT    C3  115   0.800   1.536   2.462
    3X2IT    C2  116   0.862   1.438   2.560
    3X2IT    H2  117   0.807   1.349   2.589
    3X2IT    N1  118   0.951   1.505   2.658
    3X2IT   H14  119   0.962   1.445   2.740
    3X2IT    C1  120   1.010   1.436   2.541
    3X2IT    H1  121   1.070   1.347   2.554
    3X2IT   C11  122   1.043   1.530   2.426
    3X2IT    O3  123   1.065   1.444   2.316
    3X2IT   C15  124   1.060   1.502   2.185
    4X2IT   H18  125   1.860   4.790   2.924
    4X2IT    N4  126   1.817   4.706   2.958
    4X2IT   H17  127   1.727   4.681   2.919
    4X2IT   C14  128   1.901   4.608   3.001
    4X2IT    O5  129   2.020   4.623   3.026
    4X2IT    O4  130   1.833   4.490   3.015
    4X2IT   C13  131   1.908   4.378   3.065
    4X2IT   C10  132   1.917   4.381   3.219
    4X2IT    C9  133   1.989   4.261   3.276
    4X2IT    C4  134   1.907   4.193   3.364
    4X2IT    C5  135   1.947   4.069   3.438
    4X2IT    O1  136   1.868   4.017   3.517
    4X2IT    C6  137   2.080   4.019   3.411
    4X2IT   C12  138   2.127   3.893   3.482
    4X2IT    C7  139   2.163   4.087   3.324
    4X2IT    C8  140   2.120   4.214   3.250
    4X2IT    O2  141   2.201   4.265   3.171
    4X2IT    N3  142   2.288   4.049   3.295
    4X2IT   H15  143   2.331   3.967   3.333
    4X2IT   H16  144   2.340   4.107   3.228
    4X2IT    N2  145   1.788   4.256   3.381
    4X2IT    C3  146   1.656   4.195   3.407
    4X2IT    C2  147   1.575   4.244   3.287
    4X2IT    H2  148   1.466   4.244   3.293
    4X2IT    N1  149   1.642   4.216   3.159
    4X2IT   H14  150   1.572   4.217   3.083
    4X2IT    C1  151   1.649   4.351   3.217
    4X2IT    H1  152   1.601   4.435   3.169
    4X2IT   C11  153   1.778   4.376   3.294
    4X2IT    O3  154   1.752   4.494   3.368
    4X2IT   C15  155   1.838   4.522   3.479
    5X2IT   H18  156   0.465   0.151   1.335
    5X2IT    N4  157   0.533   0.096   1.288
    5X2IT   H17  158   0.537  -0.003   1.311
    5X2IT   C14  159   0.568   0.136   1.162
    5X2IT    O5  160   0.544   0.245   1.114
    5X2IT    O4  161   0.637   0.036   1.099
    5X2IT   C13  162   0.685   0.067   0.966
    5X2IT   C10  163   0.819   0.143   0.971
    5X2IT    C9  164   0.876   0.171   0.835
    5X2IT    C4  165   1.003   0.116   0.824
    5X2IT    C5  166   1.088   0.125   0.700
    5X2IT    O1  167   1.201   0.076   0.701
    5X2IT    C6  168   1.030   0.193   0.587
    5X2IT   C12  169   1.110   0.205   0.459
    5X2IT    C7  170   0.904   0.249   0.598
    5X2IT    C8  171   0.819   0.240   0.725
    5X2IT    O2  172   0.705   0.290   0.722
    5X2IT    N3  173   0.843   0.315   0.499
    5X2IT   H15  174   0.884   0.329   0.408
    5X2IT   H16  175   0.749   0.351   0.518
    5X2IT    N2  176   1.044   0.060   0.940
    5X2IT    C3  177   1.130  -0.058   0.959
    5X2IT    C2  178   1.040  -0.152   1.037
    5X2IT    H2  179   1.084  -0.234   1.094
    5X2IT    N1  180   0.908  -0.171   0.972
    5X2IT   H14  181   0.865  -0.257   1.005
    5X2IT    C1  182   0.921  -0.078   1.086
    5X2IT    H1  183   0.873  -0.099   1.180
    5X2IT   C11  184   0.937   0.068   1.043
    5X2IT    O3  185   0.980   0.133   1.161
    5X2IT   C15  186   1.041   0.262   1.145
    6X2IT   H18  187   4.704   0.983   0.901
    6X2IT    N4  188   4.780   1.036   0.941
    6X2IT   H17  189   4.833   1.096   0.879
    6X2IT   C14  190   4.765   1.072   1.072
    6X2IT    O5  191   4.684   1.024   1.150
    6X2IT    O4  192   4.857   1.167   1.105
    6X2IT   C13  193   4.858   1.210   1.243
    6X2IT   C10  194   4.939   1.114   1.331
    6X2IT    C9  195   4.949   1.160   1.475
    6X2IT    C4  196   5.081   1.175   1.512
    6X2IT    C5  197   5.125   1.220   1.648
    6X2IT    O1  198   5.246   1.227   1.674
    6X2IT    C6  199   5.021   1.251   1.743
    6X2IT   C12  200   5.059   1.298   1.882
    6X2IT    C7  201   4.889   1.235   1.706
    6X2IT    C8  202   4.845   1.189   1.567
    6X2IT    O2  203   4.723   1.182   1.544
    6X2IT    N3  204   4.785   1.260   1.788
    6X2IT   H15  205   4.796   1.294   1.882
    6X2IT   H16  206   4.691   1.247   1.749
    6X2IT    N2  207   5.166   1.137   1.414
    6X2IT    C3  208   5.299   1.193   1.382
    6X2IT    C2  209   5.280   1.241   1.239
    6X2IT    H2  210   5.367   1.257   1.175
    6X2IT    N1  211   5.161   1.328   1.224
    6X2IT   H14  212   5.171   1.385   1.140
    6X2IT    C1  213   5.153   1.186   1.185
    6X2IT    H1  214   5.140   1.159   1.081
    6X2IT   C11  215   5.091   1.098   1.291
    6X2IT    O3  216   5.123   0.966   1.249
    6X2IT   C15  217   5.112   0.862   1.347
    7X2IT   H18  218   0.749   0.351   1.569
    7X2IT    N4  219   0.781   0.373   1.661
    7X2IT   H17  220   0.752   0.462   1.700
    7X2IT   C14  221   0.801   0.268   1.746
    7X2IT    O5  222   0.810   0.151   1.712
    7X2IT    O4  223   0.813   0.312   1.874
    7X2IT   C13  224   0.842   0.212   1.974
    7X2IT   C10  225   0.992   0.180   1.981
    7X2IT    C9  226   1.027   0.081   2.089
    7X2IT    C4  227   1.118   0.136   2.177
    7X2IT    C5  228   1.173   0.064   2.296
    7X2IT    O1  229   1.258   0.119   2.368
    7X2IT    C6  230   1.123  -0.070   2.320
    7X2IT   C12  231   1.174  -0.148   2.439
    7X2IT    C7  232   1.033  -0.125   2.232
    7X2IT    C8  233   0.978  -0.051   2.110
    7X2IT    O2  234   0.893  -0.108   2.040
    7X2IT    N3  235   0.982  -0.249   2.244
    7X2IT   H15  236   1.006  -0.310   2.320
    7X2IT   H16  237   0.914  -0.279   2.174
    7X2IT    N2  238   1.159   0.259   2.138
    7X2IT    C3  239   1.196   0.373   2.223
    7X2IT    C2  240   1.095   0.479   2.182
    7X2IT    H2  241   1.116   0.584   2.201
    7X2IT    N1  242   0.956   0.430   2.188
    7X2IT   H14  243   0.892   0.509   2.194
    7X2IT    C1  244   1.026   0.436   2.058
    7X2IT    H1  245   0.993   0.504   1.981
    7X2IT   C11  246   1.085   0.302   2.015
    7X2IT    O3  247   1.173   0.336   1.910
    7X2IT   C15  248   1.273   0.239   1.874
    8X2IT   H18  249   0.756   1.656   3.720
    8X2IT    N4  250   0.811   1.609   3.789
    8X2IT   H17  251   0.911   1.608   3.776
    8X2IT   C14  252   0.762   1.608   3.917
    8X2IT    O5  253   0.646   1.634   3.947
    8X2IT    O4  254   0.859   1.570   4.004
    8X2IT   C13  255   0.819   1.558   4.143
    8X2IT   C10  256   0.753   1.422   4.171
    8X2IT    C9  257   0.716   1.403   4.316
    8X2IT    C4  258   0.778   1.291   4.367
    8X2IT    C5  259   0.764   1.244   4.509
    8X2IT    O1  260   0.820   1.140   4.545
    8X2IT    C6  261   0.681   1.325   4.595
    8X2IT   C12  262   0.662   1.283   4.740
    8X2IT    C7  263   0.618   1.436   4.544
    8X2IT    C8  264   0.633   1.483   4.399
    8X2IT    O2  265   0.575   1.587   4.365
    8X2IT    N3  266   0.538   1.516   4.616
    8X2IT   H15  267   0.518   1.502   4.713
    8X2IT   H16  268   0.497   1.597   4.568
    8X2IT    N2  269   0.848   1.224   4.272
    8X2IT    C3  270   0.973   1.148   4.288
    8X2IT    C2  271   1.068   1.221   4.194
    8X2IT    H2  272   1.158   1.170   4.158
    8X2IT    N1  273   1.071   1.366   4.220
    8X2IT   H14  274   1.157   1.406   4.182
    8X2IT    C1  275   0.991   1.313   4.108
    8X2IT    H1  276   1.017   1.334   4.005
    8X2IT   C11  277   0.843   1.296   4.142
    8X2IT    O3  278   0.793   1.215   4.037
    8X2IT   C15  279   0.667   1.150   4.061
    9X2IT   H18  280   0.972   3.662   0.478
    9X2IT    N4  281   0.940   3.715   0.557
    9X2IT   H17  282   0.849   3.757   0.550
    9X2IT   C14  283   0.987   3.676   0.679
    9X2IT    O5  284   1.082   3.602   0.697
    9X2IT    O4  285   0.914   3.735   0.778
    9X2IT   C13  286   0.956   3.708   0.913
    9X2IT   C10  287   1.072   3.801   0.956
    9X2IT    C9  288   1.115   3.780   1.099
    9X2IT    C4  289   1.103   3.899   1.170
    9X2IT    C5  290   1.136   3.913   1.315
    9X2IT    O1  291   1.126   4.024   1.370
    9X2IT    C6  292   1.180   3.794   1.383
    9X2IT   C12  293   1.215   3.801   1.531
    9X2IT    C7  294   1.193   3.676   1.312
    9X2IT    C8  295   1.159   3.663   1.164
    9X2IT    O2  296   1.170   3.551   1.111
    9X2IT    N3  297   1.235   3.560   1.367
    9X2IT   H15  298   1.260   3.551   1.464
    9X2IT   H16  299   1.239   3.479   1.305
    9X2IT    N2  300   1.064   4.002   1.090
    9X2IT    C3  301   0.981   4.118   1.126
    9X2IT    C2  302   0.864   4.104   1.030
    9X2IT    H2  303   0.801   4.190   1.008
    9X2IT    N1  304   0.803   3.969   1.034
    9X2IT   H14  305   0.708   3.973   0.997
    9X2IT    C1  306   0.897   4.003   0.926
    9X2IT    H1  307   0.863   4.011   0.823
    9X2IT   C11  308   1.039   3.955   0.951
    9X2IT    O3  309   1.117   4.025   0.856
    9X2IT   C15  310   1.258   4.031   0.879
   10X2IT   H18  311   2.089   0.551   2.745
   10X2IT    N4  312   2.151   0.522   2.672
   10X2IT   H17  313   2.206   0.439   2.689
   10X2IT   C14  314   2.112   0.551   2.544
   10X2IT    O5  315   2.026   0.632   2.513
   10X2IT    O4  316   2.188   0.480   2.455
   10X2IT   C13  317   2.163   0.506   2.315
   10X2IT   C10  318   2.239   0.631   2.267
   10X2IT    C9  319   2.221   0.657   2.119
   10X2IT    C4  320   2.344   0.659   2.055
   10X2IT    C5  321   2.362   0.682   1.908
   10X2IT    O1  322   2.476   0.685   1.860
   10X2IT    C6  323   2.241   0.700   1.831
   10X2IT   C12  324   2.252   0.723   1.681
   10X2IT    C7  325   2.119   0.700   1.894
   10X2IT    C8  326   2.102   0.677   2.045
   10X2IT    O2  327   1.987   0.674   2.091
   10X2IT    N3  328   2.002   0.717   1.831
   10X2IT   H15  329   1.994   0.732   1.732
   10X2IT   H16  330   1.917   0.714   1.888
   10X2IT    N2  331   2.447   0.645   2.143
   10X2IT    C3  332   2.576   0.578   2.120
   10X2IT    C2  333   2.575   0.469   2.227
   10X2IT    H2  334   2.669   0.423   2.258
   10X2IT    N1  335   2.451   0.387   2.222
   10X2IT   H14  336   2.468   0.297   2.267
   10X2IT    C1  337   2.464   0.494   2.322
   10X2IT    H1  338   2.471   0.471   2.428
   10X2IT   C11  339   2.396   0.624   2.281
   10X2IT    O3  340   2.447   0.720   2.372
   10X2IT   C15  341   2.433   0.858   2.335
   11X2IT   H18  342   1.841   3.600   2.393
   11X2IT    N4  343   1.931   3.592   2.349
   11X2IT   H17  344   2.005   3.652   2.383
   11X2IT   C14  345   1.963   3.470   2.297
   11X2IT    O5  346   1.883   3.380   2.275
   11X2IT    O4  347   2.096   3.465   2.268
   11X2IT   C13  348   2.143   3.343   2.206
   11X2IT   C10  349   2.120   3.345   2.054
   11X2IT    C9  350   2.174   3.222   1.984
   11X2IT    C4  351   2.266   3.259   1.888
   11X2IT    C5  352   2.339   3.161   1.801
   11X2IT    O1  353   2.417   3.203   1.714
   11X2IT    C6  354   2.312   3.021   1.824
   11X2IT   C12  355   2.383   2.917   1.740
   11X2IT    C7  356   2.219   2.984   1.920
   11X2IT    C8  357   2.145   3.085   2.007
   11X2IT    O2  358   2.067   3.041   2.093
   11X2IT    N3  359   2.186   2.857   1.947
   11X2IT   H15  360   2.227   2.778   1.900
   11X2IT   H16  361   2.117   2.842   2.021
   11X2IT    N2  362   2.276   3.393   1.876
   11X2IT    C3  363   2.396   3.472   1.841
   11X2IT    C2  364   2.412   3.561   1.964
   11X2IT    H2  365   2.470   3.653   1.956
   11X2IT    N1  366   2.413   3.484   2.090
   11X2IT   H14  367   2.458   3.539   2.163
   11X2IT    C1  368   2.290   3.553   2.047
   11X2IT    H1  369   2.251   3.637   2.104
   11X2IT   C11  370   2.191   3.462   1.976
   11X2IT    O3  371   2.099   3.552   1.916
   11X2IT   C15  372   2.017   3.499   1.811
   12X2IT   H18  373   3.689   1.630   4.654
   12X2IT    N4  374   3.742   1.551   4.623
   12X2IT   H17  375   3.717   1.511   4.533
   12X2IT   C14  376   3.872   1.544   4.665
   12X2IT    O5  377   3.919   1.609   4.757
   12X2IT    O4  378   3.940   1.451   4.592
   12X2IT   C13  379   4.077   1.428   4.630
   12X2IT   C10  380   4.087   1.329   4.748
   12X2IT    C9  381   4.229   1.297   4.787
   12X2IT    C4  382   4.252   1.161   4.778
   12X2IT    C5  383   4.383   1.096   4.809
   12X2IT    O1  384   4.393   0.972   4.802
   12X2IT    C6  385   4.492   1.183   4.846
   12X2IT   C12  386   4.627   1.124   4.879
   12X2IT    C7  387   4.469   1.319   4.856
   12X2IT    C8  388   4.334   1.385   4.825
   12X2IT    O2  389   4.326   1.508   4.833
   12X2IT    N3  390   4.563   1.408   4.892
   12X2IT   H15  391   4.658   1.383   4.914
   12X2IT   H16  392   4.535   1.507   4.894
   12X2IT    N2  393   4.139   1.093   4.746
   12X2IT    C3  394   4.127   0.970   4.667
   12X2IT    C2  395   4.038   1.014   4.551
   12X2IT    H2  396   3.984   0.940   4.493
   12X2IT    N1  397   4.089   1.136   4.485
   12X2IT   H14  398   4.050   1.143   4.391
   12X2IT    C1  399   3.979   1.147   4.583
   12X2IT    H1  400   3.880   1.176   4.552
   12X2IT   C11  401   4.026   1.187   4.722
   12X2IT    O3  402   3.914   1.158   4.805
   12X2IT   C15  403   3.939   1.148   4.946
   13X2IT   H18  404   3.370   3.135   2.880
   13X2IT    N4  405   3.350   3.233   2.893
   13X2IT   H17  406   3.333   3.288   2.810
   13X2IT   C14  407   3.287   3.267   3.010
   13X2IT    O5  408   3.279   3.196   3.108
   13X2IT    O4  409   3.239   3.395   3.001
   13X2IT   C13  410   3.175   3.447   3.119
   13X2IT   C10  411   3.279   3.503   3.218
   13X2IT    C9  412   3.216   3.566   3.341
   13X2IT    C4  413   3.255   3.698   3.352
   13X2IT    C5  414   3.210   3.789   3.463
   13X2IT    O1  415   3.253   3.905   3.467
   13X2IT    C6  416   3.118   3.733   3.559
   13X2IT   C12  417   3.068   3.820   3.673
   13X2IT    C7  418   3.080   3.601   3.548
   13X2IT    C8  419   3.128   3.508   3.435
   13X2IT    O2  420   3.084   3.392   3.433
   13X2IT    N3  421   2.997   3.539   3.634
   13X2IT   H15  422   2.955   3.586   3.712
   13X2IT   H16  423   2.975   3.441   3.615
   13X2IT    N2  424   3.345   3.733   3.257
   13X2IT    C3  425   3.361   3.864   3.192
   13X2IT    C2  426   3.337   3.831   3.045
   13X2IT    H2  427   3.373   3.898   2.968
   13X2IT    N1  428   3.210   3.757   3.024
   13X2IT   H14  429   3.181   3.767   2.927
   13X2IT    C1  430   3.338   3.683   3.027
   13X2IT    H1  431   3.376   3.635   2.938
   13X2IT   C11  432   3.369   3.620   3.162
   13X2IT    O3  433   3.506   3.586   3.154
   13X2IT   C15  434   3.574   3.560   3.278
   14X2IT   H18  435   0.958   4.834   4.604
   14X2IT    N4  436   0.933   4.778   4.524
   14X2IT   H17  437   1.002   4.712   4.491
   14X2IT   C14  438   0.801   4.750   4.508
   14X2IT    O5  439   0.709   4.808   4.564
   14X2IT    O4  440   0.785   4.651   4.416
   14X2IT   C13  441   0.649   4.615   4.383
   14X2IT   C10  442   0.590   4.710   4.277
   14X2IT    C9  443   0.449   4.671   4.236
   14X2IT    C4  444   0.445   4.649   4.099
   14X2IT    C5  445   0.321   4.608   4.025
   14X2IT    O1  446   0.325   4.594   3.902
   14X2IT    C6  447   0.202   4.589   4.104
   14X2IT   C12  448   0.073   4.548   4.036
   14X2IT    C7  449   0.206   4.612   4.240
   14X2IT    C8  450   0.333   4.654   4.315
   14X2IT    O2  451   0.327   4.668   4.438
   14X2IT    N3  452   0.100   4.599   4.322
   14X2IT   H15  453   0.010   4.570   4.290
   14X2IT   H16  454   0.116   4.617   4.422
   14X2IT    N2  455   0.563   4.676   4.039
   14X2IT    C3  456   0.622   4.609   3.922
   14X2IT    C2  457   0.753   4.555   3.978
   14X2IT    H2  458   0.835   4.529   3.910
   14X2IT    N1  459   0.733   4.475   4.101
   14X2IT   H14  460   0.813   4.413   4.115
   14X2IT    C1  461   0.779   4.615   4.111
   14X2IT    H1  462   0.878   4.638   4.147
   14X2IT   C11  463   0.666   4.714   4.140
   14X2IT    O3  464   0.724   4.840   4.112
   14X2IT   C15  465   0.633   4.950   4.093
   15X2IT   H18  466   4.392   3.394   1.211
   15X2IT    N4  467   4.416   3.452   1.289
   15X2IT   H17  468   4.454   3.544   1.268
   15X2IT   C14  469   4.342   3.435   1.403
   15X2IT    O5  470   4.271   3.339   1.426
   15X2IT    O4  471   4.364   3.539   1.488
   15X2IT   C13  472   4.297   3.531   1.616
   15X2IT   C10  473   4.377   3.445   1.716
   15X2IT    C9  474   4.314   3.440   1.853
   15X2IT    C4  475   4.403   3.486   1.948
   15X2IT    C5  476   4.371   3.495   2.095
   15X2IT    O1  477   4.459   3.535   2.173
   15X2IT    C6  478   4.239   3.455   2.135
   15X2IT   C12  479   4.201   3.462   2.281
   15X2IT    C7  480   4.150   3.408   2.040
   15X2IT    C8  481   4.184   3.398   1.891
   15X2IT    O2  482   4.095   3.359   1.814
   15X2IT    N3  483   4.026   3.367   2.068
   15X2IT   H15  484   3.987   3.368   2.160
   15X2IT   H16  485   3.968   3.335   1.989
   15X2IT    N2  486   4.524   3.515   1.895
   15X2IT    C3  487   4.618   3.621   1.936
   15X2IT    C2  488   4.630   3.705   1.810
   15X2IT    H2  489   4.716   3.770   1.796
   15X2IT    N1  490   4.498   3.745   1.756
   15X2IT   H14  491   4.510   3.827   1.696
   15X2IT    C1  492   4.570   3.631   1.696
   15X2IT    H1  493   4.608   3.637   1.594
   15X2IT   C11  494   4.522   3.496   1.747
   15X2IT    O3  495   4.623   3.406   1.704
   15X2IT   C15  496   4.628   3.278   1.769
   16X2IT   H18  497   4.462   1.225   3.513
   16X2IT    N4  498   4.427   1.134   3.537
   16X2IT   H17  499   4.392   1.122   3.631
   16X2IT   C14  500   4.374   1.061   3.435
   16X2IT    O5  501   4.389   1.084   3.317
   16X2IT    O4  502   4.304   0.955   3.486
   16X2IT   C13  503   4.247   0.864   3.390
   16X2IT   C10  504   4.350   0.761   3.341
   16X2IT    C9  505   4.293   0.660   3.245
   16X2IT    C4  506   4.310   0.532   3.294
   16X2IT    C5  507   4.263   0.408   3.224
   16X2IT    O1  508   4.287   0.297   3.274
   16X2IT    C6  509   4.194   0.427   3.099
   16X2IT   C12  510   4.144   0.306   3.023
   16X2IT    C7  511   4.177   0.555   3.049
   16X2IT    C8  512   4.226   0.680   3.122
   16X2IT    O2  513   4.202   0.791   3.070
   16X2IT    N3  514   4.116   0.582   2.933
   16X2IT   H15  515   4.076   0.512   2.874
   16X2IT   H16  516   4.108   0.681   2.907
   16X2IT    N2  517   4.381   0.531   3.410
   16X2IT    C3  518   4.367   0.438   3.524
   16X2IT    C2  519   4.333   0.533   3.638
   16X2IT    H2  520   4.349   0.501   3.741
   16X2IT    N1  521   4.219   0.621   3.605
   16X2IT   H14  522   4.177   0.656   3.692
   16X2IT    C1  523   4.357   0.673   3.595
   16X2IT    H1  524   4.392   0.750   3.663
   16X2IT   C11  525   4.412   0.670   3.454
   16X2IT    O3  526   4.551   0.690   3.471
   16X2IT   C15  527   4.637   0.654   3.361
   17X2IT   H18  528   0.387   1.341   1.738
   17X2IT    N4  529   0.344   1.285   1.810
   17X2IT   H17  530   0.248   1.259   1.797
   17X2IT   C14  531   0.427   1.202   1.880
   17X2IT    O5  532   0.549   1.210   1.882
   17X2IT    O4  533   0.353   1.112   1.952
   17X2IT   C13  534   0.427   1.022   2.036
   17X2IT   C10  535   0.462   1.087   2.172
   17X2IT    C9  536   0.533   0.993   2.266
   17X2IT    C4  537   0.462   0.980   2.383
   17X2IT    C5  538   0.505   0.893   2.498
   17X2IT    O1  539   0.437   0.890   2.602
   17X2IT    C6  540   0.627   0.818   2.480
   17X2IT   C12  541   0.676   0.728   2.592
   17X2IT    C7  542   0.699   0.832   2.363
   17X2IT    C8  543   0.654   0.921   2.247
   17X2IT    O2  544   0.724   0.923   2.145
   17X2IT    N3  545   0.814   0.768   2.338
   17X2IT   H15  546   0.856   0.704   2.402
   17X2IT   H16  547   0.858   0.785   2.247
   17X2IT    N2  548   0.353   1.060   2.386
   17X2IT    C3  549   0.223   1.035   2.451
   17X2IT    C2  550   0.127   1.040   2.333
   17X2IT    H2  551   0.021   1.058   2.351
   17X2IT    N1  552   0.169   0.952   2.222
   17X2IT   H14  553   0.088   0.932   2.162
   17X2IT    C1  554   0.196   1.097   2.215
   17X2IT    H1  555   0.147   1.159   2.142
   17X2IT   C11  556   0.338   1.133   2.257
   17X2IT    O3  557   0.333   1.274   2.276
   17X2IT   C15  558   0.439   1.333   2.353
   18X2IT   H18  559   3.656   0.583   0.256
   18X2IT    N4  560   3.559   0.578   0.234
   18X2IT   H17  561   3.507   0.500   0.273
   18X2IT   C14  562   3.495   0.697   0.213
   18X2IT    O5  563   3.550   0.803   0.191
   18X2IT    O4  564   3.360   0.678   0.216
   18X2IT   C13  565   3.279   0.795   0.188
   18X2IT   C10  566   3.264   0.818   0.037
   18X2IT    C9  567   3.174   0.935   0.004
   18X2IT    C4  568   3.068   0.894  -0.075
   18X2IT    C5  569   2.960   0.985  -0.125
   18X2IT    O1  570   2.871   0.940  -0.199
   18X2IT    C6  571   2.968   1.123  -0.084
   18X2IT   C12  572   2.862   1.221  -0.131
   18X2IT    C7  573   3.075   1.165  -0.006
   18X2IT    C8  574   3.185   1.071   0.044
   18X2IT    O2  575   3.273   1.118   0.117
   18X2IT    N3  576   3.092   1.291   0.036
   18X2IT   H15  577   3.028   1.366   0.014
   18X2IT   H16  578   3.173   1.311   0.095
   18X2IT    N2  579   3.078   0.763  -0.109
   18X2IT    C3  580   2.969   0.666  -0.130
   18X2IT    C2  581   2.999   0.560  -0.025
   18X2IT    H2  582   2.957   0.460  -0.035
   18X2IT    N1  583   3.016   0.619   0.110
   18X2IT   H14  584   3.001   0.546   0.181
   18X2IT    C1  585   3.135   0.582   0.030
   18X2IT    H1  586   3.200   0.501   0.061
   18X2IT   C11  587   3.196   0.700  -0.043
   18X2IT    O3  588   3.284   0.640  -0.137
   18X2IT   C15  589   3.328   0.722  -0.247
   19X2IT   H18  590   2.259   4.995   2.365
   19X2IT    N4  591   2.290   4.923   2.428
   19X2IT   H17  592   2.322   4.836   2.386
   19X2IT   C14  593   2.346   4.964   2.546
   19X2IT    O5  594   2.335   5.076   2.593
   19X2IT    O4  595   2.411   4.859   2.605
   19X2IT   C13  596   2.469   4.887   2.735
   19X2IT   C10  597   2.365   4.874   2.847
   19X2IT    C9  598   2.423   4.894   2.985
   19X2IT    C4  599   2.401   4.783   3.063
   19X2IT    C5  600   2.447   4.770   3.206
   19X2IT    O1  601   2.419   4.668   3.270
   19X2IT    C6  602   2.521   4.882   3.260
   19X2IT   C12  603   2.571   4.875   3.403
   19X2IT    C7  604   2.542   4.993   3.181
   19X2IT    C8  605   2.494   5.005   3.037
   19X2IT    O2  606   2.523   5.109   2.974
   19X2IT    N3  607   2.608   5.102   3.223
   19X2IT   H15  608   2.648   5.111   3.315
   19X2IT   H16  609   2.620   5.179   3.156
   19X2IT    N2  610   2.326   4.689   2.999
   19X2IT    C3  611   2.333   4.543   3.013
   19X2IT    C2  612   2.367   4.500   2.870
   19X2IT    H2  613   2.347   4.397   2.839
   19X2IT    N1  614   2.484   4.571   2.816
   19X2IT   H14  615   2.524   4.517   2.738
   19X2IT    C1  616   2.348   4.614   2.778
   19X2IT    H1  617   2.312   4.603   2.676
   19X2IT   C11  618   2.297   4.732   2.860
   19X2IT    O3  619   2.158   4.735   2.833
   19X2IT   C15  620   2.075   4.809   2.924
   20X2IT   H18  621   2.873   0.008   0.256
   20X2IT    N4  622   2.777  -0.023   0.260
   20X2IT   H17  623   2.756  -0.097   0.325
   20X2IT   C14  624   2.682   0.070   0.230
   20X2IT    O5  625   2.702   0.177   0.175
   20X2IT    O4  626   2.559   0.024   0.269
   20X2IT   C13  627   2.447   0.110   0.238
   20X2IT   C10  628   2.399   0.090   0.093
   20X2IT    C9  629   2.277   0.173   0.059
   20X2IT    C4  630   2.174   0.091   0.017
   20X2IT    C5  631   2.038   0.141  -0.024
   20X2IT    O1  632   1.953   0.060  -0.063
   20X2IT    C6  633   2.017   0.283  -0.015
   20X2IT   C12  634   1.882   0.340  -0.054
   20X2IT    C7  635   2.120   0.365   0.026
   20X2IT    C8  636   2.258   0.313   0.066
   20X2IT    O2  637   2.343   0.395   0.106
   20X2IT    N3  638   2.111   0.499   0.036
   20X2IT   H15  639   2.026   0.549   0.015
   20X2IT   H16  640   2.193   0.549   0.069
   20X2IT    N2  641   2.212  -0.039   0.010
   20X2IT    C3  642   2.130  -0.159   0.035
   20X2IT    C2  643   2.205  -0.226   0.150
   20X2IT    H2  644   2.190  -0.332   0.170
   20X2IT    N1  645   2.230  -0.132   0.262
   20X2IT   H14  646   2.248  -0.186   0.347
   20X2IT    C1  647   2.338  -0.162   0.165
   20X2IT    H1  648   2.427  -0.216   0.196
   20X2IT   C11  649   2.352  -0.056   0.057
   20X2IT    O3  650   2.434  -0.118  -0.041
   20X2IT   C15  651   2.434  -0.060  -0.172
   21X2IT   H18  652   1.249   3.929   2.846
   21X2IT    N4  653   1.290   3.868   2.915
   21X2IT   H17  654   1.371   3.815   2.886
   21X2IT   C14  655   1.278   3.906   3.045
   21X2IT    O5  656   1.200   3.990   3.087
   21X2IT    O4  657   1.363   3.833   3.123
   21X2IT   C13  658   1.356   3.858   3.265
   21X2IT   C10  659   1.242   3.778   3.331
   21X2IT    C9  660   1.236   3.796   3.481
   21X2IT    C4  661   1.247   3.673   3.544
   21X2IT    C5  662   1.246   3.656   3.693
   21X2IT    O1  663   1.253   3.542   3.741
   21X2IT    C6  664   1.235   3.776   3.772
   21X2IT   C12  665   1.233   3.765   3.924
   21X2IT    C7  666   1.222   3.898   3.709
   21X2IT    C8  667   1.223   3.915   3.557
   21X2IT    O2  668   1.216   4.030   3.511
   21X2IT    N3  669   1.210   4.015   3.774
   21X2IT   H15  670   1.209   4.022   3.874
   21X2IT   H16  671   1.203   4.100   3.717
   21X2IT    N2  672   1.252   3.570   3.456
   21X2IT    C3  673   1.325   3.444   3.469
   21X2IT    C2  674   1.418   3.448   3.348
   21X2IT    H2  675   1.462   3.355   3.310
   21X2IT    N1  676   1.496   3.573   3.342
   21X2IT   H14  677   1.579   3.559   3.284
   21X2IT    C1  678   1.376   3.557   3.257
   21X2IT    H1  679   1.385   3.551   3.149
   21X2IT   C11  680   1.252   3.621   3.316
   21X2IT    O3  681   1.145   3.567   3.240
   21X2IT   C15  682   1.013   3.577   3.295
   22X2IT   H18  683   2.852   3.860   4.050
   22X2IT    N4  684   2.790   3.782   4.036
   22X2IT   H17  685   2.831   3.697   3.999
   22X2IT   C14  686   2.684   3.773   4.121
   22X2IT    O5  687   2.642   3.863   4.191
   22X2IT    O4  688   2.628   3.648   4.112
   22X2IT   C13  689   2.509   3.626   4.192
   22X2IT   C10  690   2.383   3.678   4.120
   22X2IT    C9  691   2.256   3.650   4.197
   22X2IT    C4  692   2.169   3.575   4.120
   22X2IT    C5  693   2.034   3.529   4.167
   22X2IT    O1  694   1.961   3.465   4.090
   22X2IT    C6  695   1.997   3.565   4.302
   22X2IT   C12  696   1.862   3.521   4.355
   22X2IT    C7  697   2.084   3.640   4.378
   22X2IT    C8  698   2.221   3.687   4.329
   22X2IT    O2  699   2.292   3.751   4.408
   22X2IT    N3  700   2.057   3.680   4.504
   22X2IT   H15  701   1.972   3.656   4.552
   22X2IT   H16  702   2.129   3.734   4.552
   22X2IT    N2  703   2.217   3.554   3.995
   22X2IT    C3  704   2.197   3.436   3.909
   22X2IT    C2  705   2.339   3.388   3.886
   22X2IT    H2  706   2.362   3.324   3.801
   22X2IT    N1  707   2.414   3.371   4.013
   22X2IT   H14  708   2.493   3.308   3.997
   22X2IT    C1  709   2.435   3.493   3.932
   22X2IT    H1  710   2.530   3.511   3.884
   22X2IT   C11  711   2.353   3.612   3.980
   22X2IT    O3  712   2.361   3.704   3.873
   22X2IT   C15  713   2.264   3.810   3.871
   23X2IT   H18  714   2.493   4.923   1.772
   23X2IT    N4  715   2.549   4.978   1.834
   23X2IT   H17  716   2.501   5.049   1.889
   23X2IT   C14  717   2.660   4.917   1.886
   23X2IT    O5  718   2.710   4.815   1.843
   23X2IT    O4  719   2.708   4.991   1.991
   23X2IT   C13  720   2.829   4.942   2.052
   23X2IT   C10  721   2.954   4.988   1.974
   23X2IT    C9  722   3.083   4.945   2.038
   23X2IT    C4  723   3.162   5.055   2.067
   23X2IT    C5  724   3.297   5.047   2.133
   23X2IT    O1  725   3.361   5.152   2.151
   23X2IT    C6  726   3.343   4.916   2.169
   23X2IT   C12  727   3.478   4.901   2.236
   23X2IT    C7  728   3.266   4.806   2.139
   23X2IT    C8  729   3.128   4.815   2.072
   23X2IT    O2  730   3.065   4.709   2.054
   23X2IT    N3  731   3.301   4.679   2.168
   23X2IT   H15  732   3.387   4.655   2.214
   23X2IT   H16  733   3.235   4.605   2.142
   23X2IT    N2  734   3.106   5.170   2.022
   23X2IT    C3  735   3.114   5.304   2.083
   23X2IT    C2  736   2.968   5.337   2.110
   23X2IT    H2  737   2.937   5.440   2.124
   23X2IT    N1  738   2.900   5.230   2.187
   23X2IT   H14  739   2.817   5.268   2.233
   23X2IT    C1  740   2.882   5.238   2.041
   23X2IT    H1  741   2.785   5.264   1.999
   23X2IT   C11  742   2.972   5.144   1.963
   23X2IT    O3  743   2.963   5.191   1.829
   23X2IT   C15  744   3.066   5.148   1.738
   24X2IT   H18  745   4.224   0.764   0.751
   24X2IT    N4  746   4.210   0.728   0.844
   24X2IT   H17  747   4.115   0.711   0.873
   24X2IT   C14  748   4.310   0.649   0.894
   24X2IT    O5  749   4.423   0.641   0.849
   24X2IT    O4  750   4.265   0.582   1.005
   24X2IT   C13  751   4.362   0.499   1.072
   24X2IT   C10  752   4.450   0.582   1.168
   24X2IT    C9  753   4.549   0.498   1.246
   24X2IT    C4  754   4.528   0.514   1.382
   24X2IT    C5  755   4.609   0.444   1.487
   24X2IT    O1  756   4.586   0.467   1.607
   24X2IT    C6  757   4.710   0.352   1.441
   24X2IT   C12  758   4.795   0.278   1.542
   24X2IT    C7  759   4.731   0.337   1.305
   24X2IT    C8  760   4.649   0.410   1.198
   24X2IT    O2  761   4.673   0.385   1.079
   24X2IT    N3  762   4.824   0.256   1.253
   24X2IT   H15  763   4.885   0.199   1.308
   24X2IT   H16  764   4.829   0.251   1.150
   24X2IT    N2  765   4.433   0.607   1.408
   24X2IT    C3  766   4.338   0.609   1.521
   24X2IT    C2  767   4.203   0.606   1.449
   24X2IT    H2  768   4.114   0.640   1.501
   24X2IT    N1  769   4.194   0.495   1.351
   24X2IT   H14  770   4.096   0.475   1.332
   24X2IT    C1  771   4.224   0.632   1.304
   24X2IT    H1  772   4.153   0.687   1.243
   24X2IT   C11  773   4.372   0.658   1.282
   24X2IT    O3  774   4.382   0.799   1.272
   24X2IT   C15  775   4.512   0.856   1.289
   25X2IT   H18  776   4.045   2.555   4.329
   25X2IT    N4  777   3.988   2.474   4.317
   25X2IT   H17  778   3.970   2.444   4.222
   25X2IT   C14  779   3.992   2.380   4.416
   25X2IT    O5  780   4.037   2.398   4.528
   25X2IT    O4  781   3.936   2.263   4.372
   25X2IT   C13  782   3.928   2.157   4.469
   25X2IT   C10  783   3.804   2.172   4.560
   25X2IT    C9  784   3.789   2.058   4.658
   25X2IT    C4  785   3.666   1.997   4.641
   25X2IT    C5  786   3.619   1.880   4.722
   25X2IT    O1  787   3.506   1.833   4.702
   25X2IT    C6  788   3.710   1.829   4.821
   25X2IT   C12  789   3.669   1.710   4.906
   25X2IT    C7  790   3.833   1.891   4.839
   25X2IT    C8  791   3.879   2.011   4.756
   25X2IT    O2  792   3.993   2.056   4.778
   25X2IT    N3  793   3.924   1.852   4.930
   25X2IT   H15  794   3.910   1.773   4.991
   25X2IT   H16  795   4.011   1.904   4.933
   25X2IT    N2  796   3.590   2.060   4.547
   25X2IT    C3  797   3.493   2.000   4.454
   25X2IT    C2  798   3.551   2.037   4.319
   25X2IT    H2  799   3.487   2.037   4.231
   25X2IT    N1  800   3.694   1.999   4.306
   25X2IT   H14  801   3.718   1.994   4.207
   25X2IT    C1  802   3.657   2.139   4.337
   25X2IT    H1  803   3.676   2.218   4.266
   25X2IT   C11  804   3.666   2.172   4.485
   25X2IT    O3  805   3.597   2.295   4.497
   25X2IT   C15  806   3.553   2.333   4.628
   26X2IT   H18  807   3.708   3.419   3.267
   26X2IT    N4  808   3.784   3.427   3.331
   26X2IT   H17  809   3.877   3.411   3.294
   26X2IT   C14  810   3.768   3.514   3.435
   26X2IT    O5  811   3.661   3.560   3.472
   26X2IT    O4  812   3.888   3.538   3.495
   26X2IT   C13  813   3.885   3.624   3.612
   26X2IT   C10  814   3.848   3.545   3.738
   26X2IT    C9  815   3.850   3.629   3.864
   26X2IT    C4  816   3.939   3.576   3.956
   26X2IT    C5  817   3.966   3.636   4.090
   26X2IT    O1  818   4.044   3.580   4.168
   26X2IT    C6  819   3.896   3.759   4.122
   26X2IT   C12  820   3.919   3.825   4.256
   26X2IT    C7  821   3.807   3.811   4.030
   26X2IT    C8  822   3.780   3.748   3.893
   26X2IT    O2  823   3.701   3.807   3.817
   26X2IT    N3  824   3.736   3.923   4.051
   26X2IT   H15  825   3.743   3.978   4.135
   26X2IT   H16  826   3.674   3.954   3.975
   26X2IT    N2  827   3.993   3.459   3.913
   26X2IT    C3  828   4.127   3.406   3.940
   26X2IT    C2  829   4.185   3.393   3.799
   26X2IT    H2  830   4.270   3.326   3.782
   26X2IT    N1  831   4.173   3.518   3.721
   26X2IT   H14  832   4.241   3.517   3.645
   26X2IT    C1  833   4.076   3.408   3.700
   26X2IT    H1  834   4.074   3.354   3.606
   26X2IT   C11  835   3.946   3.427   3.775
   26X2IT    O3  836   3.884   3.300   3.769
   26X2IT   C15  837   3.778   3.273   3.862
   27X2IT   H18  838   0.497   1.026   0.220
   27X2IT    N4  839   0.549   1.107   0.250
   27X2IT   H17  840   0.495   1.185   0.286
   27X2IT   C14  841   0.674   1.084   0.300
   27X2IT    O5  842   0.738   0.982   0.285
   27X2IT    O4  843   0.719   1.196   0.365
   27X2IT   C13  844   0.854   1.189   0.417
   27X2IT   C10  845   0.958   1.221   0.308
   27X2IT    C9  846   1.100   1.222   0.360
   27X2IT    C4  847   1.159   1.345   0.337
   27X2IT    C5  848   1.299   1.379   0.378
   27X2IT    O1  849   1.345   1.491   0.350
   27X2IT    C6  850   1.373   1.277   0.447
   27X2IT   C12  851   1.515   1.305   0.491
   27X2IT    C7  852   1.315   1.153   0.469
   27X2IT    C8  853   1.172   1.119   0.427
   27X2IT    O2  854   1.128   1.007   0.456
   27X2IT    N3  855   1.376   1.052   0.531
   27X2IT   H15  856   1.470   1.057   0.567
   27X2IT   H16  857   1.323   0.965   0.544
   27X2IT    N2  858   1.077   1.428   0.267
   27X2IT    C3  859   1.068   1.574   0.277
   27X2IT    C2  860   0.922   1.594   0.317
   27X2IT    H2  861   0.874   1.691   0.301
   27X2IT    N1  862   0.884   1.513   0.435
   27X2IT   H14  863   0.801   1.553   0.479
   27X2IT    C1  864   0.848   1.466   0.300
   27X2IT    H1  865   0.745   1.462   0.269
   27X2IT   C11  866   0.945   1.364   0.243
   27X2IT    O3  867   0.913   1.359   0.105
   27X2IT   C15  868   1.011   1.301   0.017
   28X2IT   H18  869   1.481   2.508   3.623
   28X2IT    N4  870   1.417   2.488   3.548
   28X2IT   H17  871   1.319   2.508   3.563
   28X2IT   C14  872   1.468   2.499   3.421
   28X2IT    O5  873   1.586   2.503   3.393
   28X2IT    O4  874   1.366   2.500   3.330
   28X2IT   C13  875   1.404   2.504   3.191
   28X2IT   C10  876   1.438   2.364   3.138
   28X2IT    C9  877   1.472   2.363   2.991
   28X2IT    C4  878   1.386   2.279   2.922
   28X2IT    C5  879   1.392   2.256   2.774
   28X2IT    O1  880   1.314   2.175   2.721
   28X2IT    C6  881   1.493   2.330   2.701
   28X2IT   C12  882   1.504   2.311   2.551
   28X2IT    C7  883   1.579   2.413   2.770
   28X2IT    C8  884   1.572   2.435   2.921
   28X2IT    O2  885   1.652   2.516   2.972
   28X2IT    N3  886   1.677   2.484   2.711
   28X2IT   H15  887   1.694   2.483   2.612
   28X2IT   H16  888   1.734   2.544   2.772
   28X2IT    N2  889   1.301   2.214   3.006
   28X2IT    C3  890   1.163   2.172   2.979
   28X2IT    C2  891   1.085   2.247   3.087
   28X2IT    H2  892   0.986   2.213   3.115
   28X2IT    N1  893   1.117   2.392   3.088
   28X2IT   H14  894   1.041   2.442   3.134
   28X2IT    C1  895   1.181   2.302   3.186
   28X2IT    H1  896   1.157   2.311   3.292
   28X2IT   C11  897   1.321   2.259   3.146
   28X2IT    O3  898   1.349   2.151   3.233
   28X2IT   C15  899   1.457   2.064   3.196
   29X2IT   H18  900   1.700   3.419   2.963
   29X2IT    N4  901   1.785   3.367   2.953
   29X2IT   H17  902   1.871   3.419   2.941
   29X2IT   C14  903   1.789   3.245   3.016
   29X2IT    O5  904   1.692   3.185   3.058
   29X2IT    O4  905   1.918   3.200   3.021
   29X2IT   C13  906   1.937   3.069   3.079
   29X2IT   C10  907   1.911   2.957   2.977
   29X2IT    C9  908   1.936   2.819   3.032
   29X2IT    C4  909   2.031   2.754   2.956
   29X2IT    C5  910   2.081   2.615   2.984
   29X2IT    O1  911   2.164   2.563   2.908
   29X2IT    C6  912   2.025   2.549   3.100
   29X2IT   C12  913   2.071   2.409   3.134
   29X2IT    C7  914   1.929   2.614   3.175
   29X2IT    C8  915   1.879   2.755   3.145
   29X2IT    O2  916   1.796   2.805   3.222
   29X2IT    N3  917   1.871   2.560   3.283
   29X2IT   H15  918   1.893   2.469   3.319
   29X2IT   H16  919   1.802   2.618   3.333
   29X2IT    N2  920   2.070   2.828   2.848
   29X2IT    C3  921   2.202   2.832   2.784
   29X2IT    C2  922   2.240   2.979   2.799
   29X2IT    H2  923   2.316   3.022   2.734
   29X2IT    N1  924   2.227   3.027   2.938
   29X2IT   H14  925   2.284   3.111   2.951
   29X2IT    C1  926   2.120   3.057   2.841
   29X2IT    H1  927   2.102   3.158   2.809
   29X2IT   C11  928   2.003   2.961   2.849
   29X2IT    O3  929   1.931   2.984   2.729
   29X2IT   C15  930   1.837   2.884   2.689
   30X2IT   H18  931   1.858   3.508   0.633
   30X2IT    N4  932   1.892   3.590   0.586
   30X2IT   H17  933   1.883   3.678   0.634
   30X2IT   C14  934   1.998   3.571   0.502
   30X2IT    O5  935   2.035   3.463   0.458
   30X2IT    O4  936   2.054   3.691   0.470
   30X2IT   C13  937   2.163   3.688   0.375
   30X2IT   C10  938   2.112   3.683   0.230
   30X2IT    C9  939   2.223   3.686   0.128
   30X2IT    C4  940   2.207   3.794   0.043
   30X2IT    C5  941   2.301   3.827  -0.069
   30X2IT    O1  942   2.277   3.924  -0.142
   30X2IT    C6  943   2.415   3.741  -0.085
   30X2IT   C12  944   2.514   3.769  -0.196
   30X2IT    C7  945   2.431   3.632  -0.001
   30X2IT    C8  946   2.334   3.599   0.113
   30X2IT    O2  947   2.360   3.502   0.185
   30X2IT    N3  948   2.532   3.545  -0.009
   30X2IT   H15  949   2.606   3.553  -0.077
   30X2IT   H16  950   2.535   3.469   0.059
   30X2IT    N2  951   2.093   3.863   0.069
   30X2IT    C3  952   2.068   4.007   0.055
   30X2IT    C2  953   2.031   4.048   0.197
   30X2IT    H2  954   1.976   4.140   0.214
   30X2IT    N1  955   2.131   4.002   0.296
   30X2IT   H14  956   2.122   4.059   0.381
   30X2IT    C1  957   2.006   3.926   0.278
   30X2IT    H1  958   1.931   3.921   0.356
   30X2IT   C11  959   2.022   3.805   0.187
   30X2IT    O3  960   1.889   3.767   0.155
   30X2IT   C15  961   1.870   3.682   0.042
   31X2IT   H18  962   2.657   3.891   2.476
   31X2IT    N4  963   2.732   3.947   2.510
   31X2IT   H17  964   2.723   3.985   2.603
   31X2IT   C14  965   2.857   3.917   2.462
   31X2IT    O5  966   2.880   3.848   2.364
   31X2IT    O4  967   2.952   3.978   2.538
   31X2IT   C13  968   3.089   3.961   2.495
   31X2IT   C10  969   3.126   4.060   2.384
   31X2IT    C9  970   3.271   4.050   2.342
   31X2IT    C4  971   3.335   4.171   2.359
   31X2IT    C5  972   3.480   4.195   2.327
   31X2IT    O1  973   3.528   4.308   2.342
   31X2IT    C6  974   3.554   4.082   2.278
   31X2IT   C12  975   3.701   4.099   2.244
   31X2IT    C7  976   3.490   3.960   2.260
   31X2IT    C8  977   3.342   3.938   2.292
   31X2IT    O2  978   3.296   3.824   2.276
   31X2IT    N3  979   3.551   3.850   2.214
   31X2IT   H15  980   3.648   3.847   2.190
   31X2IT   H16  981   3.494   3.765   2.206
   31X2IT    N2  982   3.250   4.268   2.401
   31X2IT    C3  983   3.279   4.382   2.489
   31X2IT    C2  984   3.183   4.358   2.605
   31X2IT    H2  985   3.156   4.441   2.671
   31X2IT    N1  986   3.195   4.221   2.660
   31X2IT   H14  987   3.157   4.219   2.755
   31X2IT    C1  988   3.085   4.253   2.567
   31X2IT    H1  989   2.982   4.254   2.601
   31X2IT   C11  990   3.113   4.212   2.423
   31X2IT    O3  991   3.015   4.281   2.348
   31X2IT   C15  992   3.038   4.294   2.207
   32X2IT   H18  993   2.405   2.048   3.263
   32X2IT    N4  994   2.371   2.063   3.356
   32X2IT   H17  995   2.278   2.101   3.367
   32X2IT   C14  996   2.418   1.977   3.452
   32X2IT    O5  997   2.516   1.905   3.440
   32X2IT    O4  998   2.343   1.987   3.565
   32X2IT   C13  999   2.385   1.907   3.677
   32X2IT   C10 1000   2.497   1.977   3.757
   32X2IT    C9 1001   2.540   1.899   3.880
   32X2IT    C4 1002   2.524   1.976   3.993
   32X2IT    C5 1003   2.556   1.929   4.132
   32X2IT    O1 1004   2.542   2.007   4.228
   32X2IT    C6 1005   2.603   1.794   4.144
   32X2IT   C12 1006   2.637   1.739   4.282
   32X2IT    C7 1007   2.620   1.717   4.031
   32X2IT    C8 1008   2.588   1.766   3.890
   32X2IT    O2 1009   2.603   1.687   3.795
   32X2IT    N3 1010   2.665   1.590   4.032
   32X2IT   H15 1011   2.690   1.541   4.117
   32X2IT   H16 1012   2.673   1.542   3.942
   32X2IT    N2 1013   2.483   2.103   3.964
   32X2IT    C3 1014   2.395   2.190   4.043
   32X2IT    C2 1015   2.279   2.215   3.947
   32X2IT    H2 1016   2.214   2.301   3.963
   32X2IT    N1 1017   2.223   2.089   3.894
   32X2IT   H14 1018   2.128   2.106   3.860
   32X2IT    C1 1019   2.316   2.168   3.811
   32X2IT    H1 1020   2.283   2.217   3.721
   32X2IT   C11 1021   2.460   2.117   3.817
   32X2IT    O3 1022   2.536   2.223   3.762
   32X2IT   C15 1023   2.677   2.223   3.788
   33X2IT   H18 1024   0.994   3.092   4.474
   33X2IT    N4 1025   0.990   3.026   4.399
   33X2IT   H17 1026   1.000   3.063   4.305
   33X2IT   C14 1027   1.036   2.900   4.426
   33X2IT    O5 1028   1.054   2.854   4.537
   33X2IT    O4 1029   1.054   2.831   4.309
   33X2IT   C13 1030   1.096   2.694   4.322
   33X2IT   C10 1031   0.976   2.601   4.348
   33X2IT    C9 1032   1.015   2.455   4.355
   33X2IT    C4 1033   0.946   2.382   4.259
   33X2IT    C5 1034   0.962   2.234   4.239
   33X2IT    O1 1035   0.893   2.177   4.154
   33X2IT    C6 1036   1.057   2.168   4.324
   33X2IT   C12 1037   1.079   2.018   4.309
   33X2IT    C7 1038   1.125   2.240   4.421
   33X2IT    C8 1039   1.108   2.391   4.441
   33X2IT    O2 1040   1.177   2.447   4.527
   33X2IT    N3 1041   1.215   2.187   4.505
   33X2IT   H15 1042   1.240   2.089   4.505
   33X2IT   H16 1043   1.260   2.250   4.571
   33X2IT    N2 1044   0.857   2.459   4.191
   33X2IT    C3 1045   0.816   2.446   4.051
   33X2IT    C2 1046   0.856   2.581   3.993
   33X2IT    H2 1047   0.811   2.616   3.900
   33X2IT    N1 1048   0.998   2.615   4.022
   33X2IT   H14 1049   1.030   2.685   3.955
   33X2IT    C1 1050   0.890   2.674   4.104
   33X2IT    H1 1051   0.870   2.781   4.100
   33X2IT   C11 1052   0.866   2.601   4.235
   33X2IT    O3 1053   0.741   2.651   4.280
   33X2IT   C15 1054   0.673   2.574   4.380
   34X2IT   H18 1055   3.734   4.701   1.220
   34X2IT    N4 1056   3.654   4.703   1.160
   34X2IT   H17 1057   3.565   4.728   1.203
   34X2IT   C14 1058   3.676   4.737   1.029
   34X2IT    O5 1059   3.785   4.736   0.975
   34X2IT    O4 1060   3.558   4.767   0.968
   34X2IT   C13 1061   3.565   4.798   0.827
   34X2IT   C10 1062   3.567   4.670   0.742
   34X2IT    C9 1063   3.568   4.698   0.593
   34X2IT    C4 1064   3.459   4.638   0.533
   34X2IT    C5 1065   3.429   4.648   0.386
   34X2IT    O1 1066   3.331   4.588   0.339
   34X2IT    C6 1067   3.520   4.726   0.306
   34X2IT   C12 1068   3.496   4.740   0.157
   34X2IT    C7 1069   3.630   4.785   0.367
   34X2IT    C8 1070   3.659   4.774   0.516
   34X2IT    O2 1071   3.758   4.835   0.561
   34X2IT    N3 1072   3.721   4.858   0.301
   34X2IT   H15 1073   3.716   4.877   0.202
   34X2IT   H16 1074   3.797   4.898   0.356
   34X2IT    N2 1075   3.386   4.564   0.620
   34X2IT    C3 1076   3.240   4.542   0.620
   34X2IT    C2 1077   3.199   4.598   0.756
   34X2IT    H2 1078   3.105   4.568   0.801
   34X2IT    N1 1079   3.249   4.736   0.777
   34X2IT   H14 1080   3.193   4.782   0.849
   34X2IT    C1 1081   3.321   4.622   0.838
   34X2IT    H1 1082   3.322   4.609   0.946
   34X2IT   C11 1083   3.441   4.576   0.758
   34X2IT    O3 1084   3.473   4.450   0.813
   34X2IT   C15 1085   3.557   4.364   0.735
   35X2IT   H18 1086   2.793   4.925   4.062
   35X2IT    N4 1087   2.719   4.920   4.130
   35X2IT   H17 1088   2.642   4.985   4.119
   35X2IT   C14 1089   2.696   4.798   4.186
   35X2IT    O5 1090   2.772   4.703   4.182
   35X2IT    O4 1091   2.576   4.799   4.252
   35X2IT   C13 1092   2.541   4.678   4.322
   35X2IT   C10 1093   2.607   4.673   4.462
   35X2IT    C9 1094   2.567   4.551   4.541
   35X2IT    C4 1095   2.509   4.589   4.661
   35X2IT    C5 1096   2.457   4.492   4.763
   35X2IT    O1 1097   2.410   4.535   4.869
   35X2IT    C6 1098   2.468   4.352   4.731
   35X2IT   C12 1099   2.417   4.249   4.830
   35X2IT    C7 1100   2.527   4.314   4.612
   35X2IT    C8 1101   2.580   4.414   4.508
   35X2IT    O2 1102   2.627   4.369   4.403
   35X2IT    N3 1103   2.543   4.186   4.574
   35X2IT   H15 1104   2.512   4.108   4.629
   35X2IT   H16 1105   2.587   4.170   4.483
   35X2IT    N2 1106   2.511   4.724   4.678
   35X2IT    C3 1107   2.411   4.808   4.747
   35X2IT    C2 1108   2.367   4.902   4.636
   35X2IT    H2 1109   2.319   4.996   4.661
   35X2IT    N1 1110   2.325   4.829   4.514
   35X2IT   H14 1111   2.265   4.889   4.457
   35X2IT    C1 1112   2.459   4.890   4.521
   35X2IT    H1 1113   2.485   4.974   4.457
   35X2IT   C11 1114   2.569   4.791   4.558
   35X2IT    O3 1115   2.679   4.873   4.592
   35X2IT   C15 1116   2.784   4.813   4.668
   36X2IT   H18 1117   2.128   0.364   4.747
   36X2IT    N4 1118   2.119   0.383   4.649
   36X2IT   H17 1119   2.079   0.311   4.592
   36X2IT   C14 1120   2.099   0.514   4.615
   36X2IT    O5 1121   2.119   0.610   4.687
   36X2IT    O4 1122   2.057   0.522   4.485
   36X2IT   C13 1123   2.038   0.655   4.432
   36X2IT   C10 1124   2.171   0.716   4.384
   36X2IT    C9 1125   2.155   0.852   4.321
   36X2IT    C4 1126   2.202   0.852   4.192
   36X2IT    C5 1127   2.200   0.971   4.101
   36X2IT    O1 1128   2.248   0.963   3.987
   36X2IT    C6 1129   2.141   1.092   4.155
   36X2IT   C12 1130   2.135   1.216   4.068
   36X2IT    C7 1131   2.095   1.093   4.285
   36X2IT    C8 1132   2.098   0.970   4.376
   36X2IT    O2 1133   2.049   0.981   4.490
   36X2IT    N3 1134   2.040   1.200   4.344
   36X2IT   H15 1135   2.028   1.289   4.297
   36X2IT   H16 1136   2.008   1.189   4.440
   36X2IT    N2 1137   2.258   0.733   4.158
   36X2IT    C3 1138   2.259   0.667   4.027
   36X2IT    C2 1139   2.187   0.536   4.055
   36X2IT    H2 1140   2.201   0.451   3.988
   36X2IT    N1 1141   2.057   0.556   4.123
   36X2IT   H14 1142   1.998   0.474   4.109
   36X2IT    C1 1143   2.175   0.517   4.202
   36X2IT    H1 1144   2.180   0.420   4.250
   36X2IT   C11 1145   2.244   0.635   4.270
   36X2IT    O3 1146   2.369   0.583   4.311
   36X2IT   C15 1147   2.472   0.678   4.343
   37X2IT   H18 1148   3.522   3.279  -0.229
   37X2IT    N4 1149   3.588   3.335  -0.180
   37X2IT   H17 1150   3.665   3.375  -0.233
   37X2IT   C14 1151   3.541   3.404  -0.072
   37X2IT    O5 1152   3.435   3.382  -0.015
   37X2IT    O4 1153   3.631   3.499  -0.033
   37X2IT   C13 1154   3.597   3.576   0.084
   37X2IT   C10 1155   3.635   3.501   0.213
   37X2IT    C9 1156   3.608   3.581   0.338
   37X2IT    C4 1157   3.724   3.597   0.411
   37X2IT    C5 1158   3.732   3.673   0.541
   37X2IT    O1 1159   3.840   3.679   0.601
   37X2IT    C6 1160   3.609   3.733   0.588
   37X2IT   C12 1161   3.610   3.810   0.718
   37X2IT    C7 1162   3.493   3.715   0.516
   37X2IT    C8 1163   3.486   3.637   0.384
   37X2IT    O2 1164   3.377   3.632   0.325
   37X2IT    N3 1165   3.374   3.765   0.553
   37X2IT   H15 1166   3.361   3.821   0.635
   37X2IT   H16 1167   3.294   3.747   0.490
   37X2IT    N2 1168   3.829   3.531   0.356
   37X2IT    C3 1169   3.971   3.570   0.356
   37X2IT    C2 1170   4.001   3.582   0.207
   37X2IT    H2 1171   4.105   3.576   0.173
   37X2IT    N1 1172   3.905   3.669   0.137
   37X2IT   H14 1173   3.946   3.702   0.050
   37X2IT    C1 1174   3.890   3.522   0.129
   37X2IT    H1 1175   3.905   3.470   0.036
   37X2IT   C11 1176   3.788   3.466   0.228
   37X2IT    O3 1177   3.814   3.327   0.228
   37X2IT   C15 1178   3.761   3.252   0.339
   38X2IT   H18 1179   5.024   1.877   3.230
   38X2IT    N4 1180   4.970   1.822   3.166
   38X2IT   H17 1181   4.958   1.724   3.188
   38X2IT   C14 1182   4.872   1.888   3.098
   38X2IT    O5 1183   4.862   2.009   3.088
   38X2IT    O4 1184   4.787   1.798   3.039
   38X2IT   C13 1185   4.682   1.853   2.958
   38X2IT   C10 1186   4.732   1.886   2.816
   38X2IT    C9 1187   4.622   1.938   2.725
   38X2IT    C4 1188   4.610   1.857   2.614
   38X2IT    C5 1189   4.510   1.880   2.504
   38X2IT    O1 1190   4.509   1.804   2.406
   38X2IT    C6 1191   4.421   1.992   2.520
   38X2IT   C12 1192   4.318   2.021   2.413
   38X2IT    C7 1193   4.434   2.073   2.631
   38X2IT    C8 1194   4.537   2.049   2.742
   38X2IT    O2 1195   4.536   2.126   2.839
   38X2IT    N3 1196   4.357   2.181   2.654
   38X2IT   H15 1197   4.283   2.210   2.592
   38X2IT   H16 1198   4.374   2.233   2.740
   38X2IT    N2 1199   4.704   1.759   2.611
   38X2IT    C3 1200   4.692   1.623   2.557
   38X2IT    C2 1201   4.719   1.537   2.680
   38X2IT    H2 1202   4.750   1.433   2.667
   38X2IT    N1 1203   4.634   1.575   2.795
   38X2IT   H14 1204   4.629   1.497   2.861
   38X2IT    C1 1205   4.774   1.622   2.788
   38X2IT    H1 1206   4.848   1.587   2.859
   38X2IT   C11 1207   4.788   1.763   2.734
   38X2IT    O3 1208   4.926   1.776   2.704
   38X2IT   C15 1209   4.965   1.882   2.617
   39X2IT   H18 1210   3.121   3.007   1.535
   39X2IT    N4 1211   3.189   2.973   1.601
   39X2IT   H17 1212   3.282   2.954   1.566
   39X2IT   C14 1213   3.174   3.015   1.730
   39X2IT    O5 1214   3.073   3.065   1.776
   39X2IT    O4 1215   3.287   2.989   1.801
   39X2IT   C13 1216   3.283   3.022   1.942
   39X2IT   C10 1217   3.217   2.910   2.024
   39X2IT    C9 1218   3.217   2.937   2.172
   39X2IT    C4 1219   3.282   2.835   2.240
   39X2IT    C5 1220   3.300   2.832   2.389
   39X2IT    O1 1221   3.357   2.735   2.441
   39X2IT    C6 1222   3.249   2.945   2.463
   39X2IT   C12 1223   3.265   2.948   2.613
   39X2IT    C7 1224   3.183   3.046   2.395
   39X2IT    C8 1225   3.164   3.048   2.243
   39X2IT    O2 1226   3.108   3.146   2.193
   39X2IT    N3 1227   3.131   3.154   2.455
   39X2IT   H15 1228   3.136   3.170   2.555
   39X2IT   H16 1229   3.086   3.224   2.396
   39X2IT    N2 1230   3.320   2.735   2.156
   39X2IT    C3 1231   3.438   2.649   2.167
   39X2IT    C2 1232   3.511   2.678   2.037
   39X2IT    H2 1233   3.585   2.607   1.998
   39X2IT    N1 1234   3.531   2.823   2.015
   39X2IT   H14 1235   3.608   2.838   1.948
   39X2IT    C1 1236   3.421   2.754   1.946
   39X2IT    H1 1237   3.423   2.742   1.838
   39X2IT   C11 1238   3.287   2.769   2.015
   39X2IT    O3 1239   3.205   2.670   1.955
   39X2IT   C15 1240   3.085   2.633   2.024
   40X2IT   H18 1241   3.942   4.942   4.038
   40X2IT    N4 1242   3.875   4.972   3.969
   40X2IT   H17 1243   3.801   5.032   4.000
   40X2IT   C14 1244   3.922   4.983   3.841
   40X2IT    O5 1245   4.026   4.935   3.799
   40X2IT    O4 1246   3.832   5.053   3.765
   40X2IT   C13 1247   3.865   5.068   3.625
   40X2IT   C10 1248   3.823   4.944   3.544
   40X2IT    C9 1249   3.849   4.958   3.396
   40X2IT    C4 1250   3.731   4.943   3.325
   40X2IT    C5 1251   3.722   4.952   3.175
   40X2IT    O1 1252   3.613   4.933   3.120
   40X2IT    C6 1253   3.844   4.981   3.105
   40X2IT   C12 1254   3.842   4.992   2.954
   40X2IT    C7 1255   3.962   4.996   3.176
   40X2IT    C8 1256   3.970   4.985   3.328
   40X2IT    O2 1257   4.081   5.004   3.382
   40X2IT    N3 1258   4.081   5.021   3.119
   40X2IT   H15 1259   4.093   5.033   3.020
   40X2IT   H16 1260   4.161   5.031   3.181
   40X2IT    N2 1261   3.627   4.911   3.406
   40X2IT    C3 1262   3.485   4.948   3.389
   40X2IT    C2 1263   3.458   5.027   3.517
   40X2IT    H2 1264   3.355   5.040   3.552
   40X2IT    N1 1265   3.557   5.134   3.540
   40X2IT   H14 1266   3.518   5.204   3.604
   40X2IT    C1 1267   3.570   5.006   3.613
   40X2IT    H1 1268   3.557   5.002   3.720
   40X2IT   C11 1269   3.669   4.910   3.548
   40X2IT    O3 1270   3.642   4.786   3.611
   40X2IT   C15 1271   3.690   4.668   3.546
   41X2IT   H18 1272   2.532   1.937   1.015
   41X2IT    N4 1273   2.592   1.923   0.936
   41X2IT   H17 1274   2.684   1.885   0.954
   41X2IT   C14 1275   2.531   1.895   0.817
   41X2IT    O5 1276   2.413   1.913   0.793
   41X2IT    O4 1277   2.623   1.849   0.727
   41X2IT   C13 1278   2.573   1.822   0.594
   41X2IT   C10 1279   2.568   1.950   0.509
   41X2IT    C9 1280   2.523   1.924   0.367
   41X2IT    C4 1281   2.620   1.967   0.278
   41X2IT    C5 1282   2.608   1.956   0.128
   41X2IT    O1 1283   2.698   2.000   0.056
   41X2IT    C6 1284   2.488   1.893   0.078
   41X2IT   C12 1285   2.469   1.878  -0.071
   41X2IT    C7 1286   2.391   1.851   0.167
   41X2IT    C8 1287   2.404   1.863   0.319
   41X2IT    O2 1288   2.313   1.818   0.390
   41X2IT    N3 1289   2.276   1.793   0.130
   41X2IT   H15 1290   2.251   1.775   0.034
   41X2IT   H16 1291   2.212   1.764   0.205
   41X2IT    N2 1292   2.724   2.028   0.341
   41X2IT    C3 1293   2.866   2.028   0.301
   41X2IT    C2 1294   2.933   1.964   0.423
   41X2IT    H2 1295   3.039   1.980   0.440
   41X2IT    N1 1296   2.870   1.835   0.460
   41X2IT   H14 1297   2.936   1.781   0.516
   41X2IT    C1 1298   2.836   1.958   0.535
   41X2IT    H1 1299   2.864   1.969   0.638
   41X2IT   C11 1300   2.706   2.023   0.488
   41X2IT    O3 1301   2.709   2.152   0.547
   41X2IT   C15 1302   2.621   2.251   0.491
   42X2IT   H18 1303   0.138   2.976   1.747
   42X2IT    N4 1304   0.209   3.037   1.710
   42X2IT   H17 1305   0.293   3.047   1.764
   42X2IT   C14 1306   0.216   3.047   1.574
   42X2IT    O5 1307   0.129   3.012   1.496
   42X2IT    O4 1308   0.333   3.106   1.537
   42X2IT   C13 1309   0.352   3.129   1.396
   42X2IT   C10 1310   0.283   3.259   1.351
   42X2IT    C9 1311   0.306   3.291   1.205
   42X2IT    C4 1312   0.366   3.415   1.192
   42X2IT    C5 1313   0.403   3.476   1.060
   42X2IT    O1 1314   0.454   3.590   1.058
   42X2IT    C6 1315   0.377   3.398   0.942
   42X2IT   C12 1316   0.412   3.453   0.806
   42X2IT    C7 1317   0.316   3.274   0.956
   42X2IT    C8 1318   0.277   3.213   1.091
   42X2IT    O2 1319   0.227   3.099   1.091
   42X2IT    N3 1320   0.285   3.195   0.852
   42X2IT   H15 1321   0.305   3.218   0.756
   42X2IT   H16 1322   0.241   3.104   0.873
   42X2IT    N2 1323   0.380   3.478   1.311
   42X2IT    C3 1324   0.488   3.569   1.354
   42X2IT    C2 1325   0.546   3.497   1.474
   42X2IT    H2 1326   0.605   3.552   1.547
   42X2IT    N1 1327   0.581   3.356   1.444
   42X2IT   H14 1328   0.649   3.322   1.512
   42X2IT    C1 1329   0.455   3.387   1.514
   42X2IT    H1 1330   0.441   3.356   1.617
   42X2IT   C11 1331   0.334   3.390   1.423
   42X2IT    O3 1332   0.233   3.453   1.501
   42X2IT   C15 1333   0.120   3.506   1.431
   43X2IT   H18 1334   1.275   1.867   0.631
   43X2IT    N4 1335   1.257   1.952   0.683
   43X2IT   H17 1336   1.324   2.027   0.672
   43X2IT   C14 1337   1.126   1.982   0.707
   43X2IT    O5 1338   1.033   1.904   0.696
   43X2IT    O4 1339   1.115   2.112   0.749
   43X2IT   C13 1340   0.983   2.156   0.784
   43X2IT   C10 1341   0.947   2.116   0.929
   43X2IT    C9 1342   0.812   2.167   0.972
   43X2IT    C4 1343   0.825   2.246   1.085
   43X2IT    C5 1344   0.709   2.313   1.154
   43X2IT    O1 1345   0.729   2.380   1.256
   43X2IT    C6 1346   0.579   2.294   1.094
   43X2IT   C12 1347   0.458   2.359   1.159
   43X2IT    C7 1348   0.566   2.214   0.983
   43X2IT    C8 1349   0.684   2.145   0.914
   43X2IT    O2 1350   0.662   2.079   0.812
   43X2IT    N3 1351   0.449   2.189   0.922
   43X2IT   H15 1352   0.362   2.227   0.953
   43X2IT   H16 1353   0.452   2.129   0.839
   43X2IT    N2 1354   0.952   2.250   1.130
   43X2IT    C3 1355   1.021   2.362   1.196
   43X2IT    C2 1356   1.138   2.389   1.102
   43X2IT    H2 1357   1.226   2.442   1.138
   43X2IT    N1 1358   1.093   2.406   0.962
   43X2IT   H14 1359   1.165   2.457   0.909
   43X2IT    C1 1360   1.149   2.276   1.005
   43X2IT    H1 1361   1.244   2.241   0.966
   43X2IT   C11 1362   1.043   2.174   1.040
   43X2IT    O3 1363   1.114   2.073   1.109
   43X2IT   C15 1364   1.037   1.981   1.189
   44X2IT   H18 1365   3.306   2.742   1.166
   44X2IT    N4 1366   3.350   2.807   1.104
   44X2IT   H17 1367   3.294   2.884   1.069
   44X2IT   C14 1368   3.485   2.826   1.121
   44X2IT    O5 1369   3.558   2.753   1.184
   44X2IT    O4 1370   3.525   2.937   1.052
   44X2IT   C13 1371   3.666   2.966   1.056
   44X2IT   C10 1372   3.743   2.885   0.950
   44X2IT    C9 1373   3.891   2.917   0.945
   44X2IT    C4 1374   3.926   2.960   0.819
   44X2IT    C5 1375   4.065   3.001   0.781
   44X2IT    O1 1376   4.089   3.035   0.664
   44X2IT    C6 1377   4.165   2.997   0.885
   44X2IT   C12 1378   4.307   3.038   0.853
   44X2IT    C7 1379   4.129   2.953   1.011
   44X2IT    C8 1380   3.987   2.911   1.049
   44X2IT    O2 1381   3.966   2.877   1.166
   44X2IT    N3 1382   4.215   2.945   1.114
   44X2IT   H15 1383   4.312   2.970   1.107
   44X2IT   H16 1384   4.177   2.912   1.204
   44X2IT    N2 1385   3.822   2.953   0.732
   44X2IT    C3 1386   3.794   3.042   0.618
   44X2IT    C2 1387   3.657   3.098   0.654
   44X2IT    H2 1388   3.594   3.141   0.576
   44X2IT    N1 1389   3.654   3.155   0.791
   44X2IT   H14 1390   3.576   3.221   0.798
   44X2IT    C1 1391   3.600   3.020   0.767
   44X2IT    H1 1392   3.494   3.000   0.777
   44X2IT   C11 1393   3.698   2.909   0.801
   44X2IT    O3 1394   3.642   2.794   0.740
   44X2IT   C15 1395   3.729   2.681   0.721
   45X2IT   H18 1396  -0.335   2.555   5.152
   45X2IT    N4 1397  -0.311   2.486   5.082
   45X2IT   H17 1398  -0.388   2.442   5.033
   45X2IT   C14 1399  -0.192   2.504   5.018
   45X2IT    O5 1400  -0.102   2.576   5.056
   45X2IT    O4 1401  -0.186   2.424   4.908
   45X2IT   C13 1402  -0.062   2.427   4.833
   45X2IT   C10 1403   0.042   2.333   4.895
   45X2IT    C9 1404   0.171   2.328   4.816
   45X2IT    C4 1405   0.198   2.198   4.777
   45X2IT    C5 1406   0.318   2.158   4.696
   45X2IT    O1 1407   0.336   2.039   4.668
   45X2IT    C6 1408   0.407   2.264   4.656
   45X2IT   C12 1409   0.530   2.231   4.574
   45X2IT    C7 1410   0.381   2.394   4.697
   45X2IT    C8 1411   0.259   2.433   4.780
   45X2IT    O2 1412   0.243   2.553   4.806
   45X2IT    N3 1413   0.459   2.499   4.666
   45X2IT   H15 1414   0.542   2.491   4.610
   45X2IT   H16 1415   0.429   2.591   4.700
   45X2IT    N2 1416   0.108   2.110   4.826
   45X2IT    C3 1417   0.058   1.986   4.764
   45X2IT    C2 1418  -0.091   2.013   4.753
   45X2IT    H2 1419  -0.160   1.929   4.742
   45X2IT    N1 1420  -0.121   2.142   4.687
   45X2IT   H14 1421  -0.216   2.141   4.651
   45X2IT    C1 1422  -0.126   2.132   4.834
   45X2IT    H1 1423  -0.220   2.143   4.887
   45X2IT   C11 1424   0.001   2.181   4.902
   45X2IT    O3 1425  -0.011   2.133   5.035
   45X2IT   C15 1426   0.109   2.129   5.114
   46X2IT   H18 1427   3.007   0.401   2.450
   46X2IT    N4 1428   3.074   0.352   2.505
   46X2IT   H17 1429   3.163   0.330   2.462
   46X2IT   C14 1430   3.070   0.374   2.640
   46X2IT    O5 1431   2.977   0.425   2.700
   46X2IT    O4 1432   3.184   0.326   2.699
   46X2IT   C13 1433   3.190   0.336   2.843
   46X2IT   C10 1434   3.117   0.219   2.911
   46X2IT    C9 1435   3.127   0.223   3.062
   46X2IT    C4 1436   3.185   0.106   3.108
   46X2IT    C5 1437   3.210   0.077   3.253
   46X2IT    O1 1438   3.259  -0.032   3.286
   46X2IT    C6 1439   3.175   0.181   3.347
   46X2IT   C12 1440   3.198   0.159   3.495
   46X2IT    C7 1441   3.116   0.297   3.300
   46X2IT    C8 1442   3.090   0.325   3.152
   46X2IT    O2 1443   3.041   0.435   3.121
   46X2IT    N3 1444   3.078   0.399   3.380
   46X2IT   H15 1445   3.090   0.398   3.479
   46X2IT   H16 1446   3.037   0.481   3.334
   46X2IT    N2 1447   3.208   0.017   3.008
   46X2IT    C3 1448   3.318  -0.081   2.997
   46X2IT    C2 1449   3.386  -0.038   2.868
   46X2IT    H2 1450   3.450  -0.108   2.815
   46X2IT    N1 1451   3.420   0.107   2.868
   46X2IT   H14 1452   3.494   0.124   2.800
   46X2IT    C1 1453   3.300   0.059   2.796
   46X2IT    H1 1454   3.295   0.064   2.688
   46X2IT   C11 1455   3.172   0.076   2.876
   46X2IT    O3 1456   3.077  -0.004   2.807
   46X2IT   C15 1457   2.958  -0.040   2.877
   47X2IT   H18 1458   1.084   4.787   0.798
   47X2IT    N4 1459   1.136   4.738   0.728
   47X2IT   H17 1460   1.187   4.655   0.757
   47X2IT   C14 1461   1.086   4.743   0.601
   47X2IT    O5 1462   1.003   4.823   0.561
   47X2IT    O4 1463   1.146   4.648   0.523
   47X2IT   C13 1464   1.107   4.647   0.384
   47X2IT   C10 1465   1.186   4.751   0.302
   47X2IT    C9 1466   1.154   4.747   0.154
   47X2IT    C4 1467   1.269   4.724   0.081
   47X2IT    C5 1468   1.272   4.714  -0.069
   47X2IT    O1 1469   1.380   4.696  -0.127
   47X2IT    C6 1470   1.145   4.727  -0.137
   47X2IT   C12 1471   1.141   4.717  -0.288
   47X2IT    C7 1472   1.031   4.751  -0.063
   47X2IT    C8 1473   1.029   4.762   0.089
   47X2IT    O2 1474   0.920   4.780   0.145
   47X2IT    N3 1475   0.909   4.767  -0.118
   47X2IT   H15 1476   0.891   4.760  -0.216
   47X2IT   H16 1477   0.831   4.783  -0.053
   47X2IT    N2 1478   1.380   4.719   0.159
   47X2IT    C3 1479   1.500   4.637   0.140
   47X2IT    C2 1480   1.503   4.553   0.267
   47X2IT    H2 1481   1.596   4.506   0.299
   47X2IT    N1 1482   1.374   4.484   0.291
   47X2IT   H14 1483   1.389   4.404   0.354
   47X2IT    C1 1484   1.406   4.608   0.365
   47X2IT    H1 1485   1.422   4.607   0.472
   47X2IT   C11 1486   1.343   4.732   0.303
   47X2IT    O3 1487   1.411   4.840   0.365
   47X2IT   C15 1488   1.402   4.968   0.302
   48X2IT   H18 1489   4.451   0.929   2.108
   48X2IT    N4 1490   4.369   0.917   2.165
   48X2IT   H17 1491   4.327   0.825   2.165
   48X2IT   C14 1492   4.361   0.994   2.278
   48X2IT    O5 1493   4.428   1.093   2.300
   48X2IT    O4 1494   4.264   0.946   2.360
   48X2IT   C13 1495   4.239   1.022   2.480
   48X2IT   C10 1496   4.145   1.141   2.453
   48X2IT    C9 1497   4.111   1.219   2.578
   48X2IT    C4 1498   3.974   1.221   2.598
   48X2IT    C5 1499   3.907   1.290   2.713
   48X2IT    O1 1500   3.783   1.290   2.720
   48X2IT    C6 1501   3.993   1.353   2.810
   48X2IT   C12 1502   3.932   1.424   2.929
   48X2IT    C7 1503   4.130   1.352   2.790
   48X2IT    C8 1504   4.197   1.282   2.671
   48X2IT    O2 1505   4.321   1.284   2.666
   48X2IT    N3 1506   4.218   1.410   2.873
   48X2IT   H15 1507   4.191   1.458   2.957
   48X2IT   H16 1508   4.318   1.401   2.849
   48X2IT    N2 1509   3.907   1.161   2.496
   48X2IT    C3 1510   3.781   1.085   2.503
   48X2IT    C2 1511   3.824   0.948   2.451
   48X2IT    H2 1512   3.748   0.879   2.413
   48X2IT    N1 1513   3.942   0.895   2.523
   48X2IT   H14 1514   3.946   0.793   2.511
   48X2IT    C1 1515   3.959   0.958   2.390
   48X2IT    H1 1516   3.989   0.899   2.305
   48X2IT   C11 1517   4.003   1.103   2.397
   48X2IT    O3 1518   3.980   1.152   2.266
   48X2IT   C15 1519   3.975   1.295   2.250
   49X2IT   H18 1520   2.842   4.788   4.450
   49X2IT    N4 1521   2.921   4.788   4.387
   49X2IT   H17 1522   2.969   4.701   4.373
   49X2IT   C14 1523   2.917   4.880   4.286
   49X2IT    O5 1524   2.843   4.976   4.281
   49X2IT    O4 1525   3.012   4.849   4.193
   49X2IT   C13 1526   3.025   4.941   4.082
   49X2IT   C10 1527   3.113   5.062   4.119
   49X2IT    C9 1528   3.134   5.158   4.004
   49X2IT    C4 1529   3.269   5.171   3.978
   49X2IT    C5 1530   3.325   5.258   3.869
   49X2IT    O1 1531   3.448   5.268   3.855
   49X2IT    C6 1532   3.229   5.328   3.786
   49X2IT   C12 1533   3.278   5.417   3.674
   49X2IT    C7 1534   3.094   5.315   3.813
   49X2IT    C8 1535   3.039   5.226   3.925
   49X2IT    O2 1536   2.915   5.218   3.937
   49X2IT    N3 1537   2.998   5.376   3.743
   49X2IT   H15 1538   3.016   5.437   3.665
   49X2IT   H16 1539   2.901   5.358   3.771
   49X2IT    N2 1540   3.346   5.104   4.067
   49X2IT    C3 1541   3.475   5.038   4.044
   49X2IT    C2 1542   3.445   4.893   4.079
   49X2IT    H2 1543   3.527   4.825   4.104
   49X2IT    N1 1544   3.326   4.842   4.008
   49X2IT   H14 1545   3.329   4.739   4.006
   49X2IT    C1 1546   3.314   4.886   4.148
   49X2IT    H1 1547   3.292   4.814   4.227
   49X2IT   C11 1548   3.260   5.027   4.162
   49X2IT    O3 1549   3.288   5.061   4.297
   49X2IT   C15 1550   3.285   5.200   4.331
   50X2IT   H18 1551   3.940   0.583   4.976
   50X2IT    N4 1552   3.940   0.490   4.940
   50X2IT   H17 1553   4.016   0.429   4.969
   50X2IT   C14 1554   3.818   0.435   4.913
   50X2IT    O5 1555   3.714   0.497   4.903
   50X2IT    O4 1556   3.830   0.300   4.896
   50X2IT   C13 1557   3.710   0.229   4.860
   50X2IT   C10 1558   3.683   0.237   4.709
   50X2IT    C9 1559   3.561   0.159   4.666
   50X2IT    C4 1560   3.596   0.064   4.571
   50X2IT    C5 1561   3.499  -0.032   4.509
   50X2IT    O1 1562   3.538  -0.111   4.422
   50X2IT    C6 1563   3.362  -0.024   4.554
   50X2IT   C12 1564   3.259  -0.118   4.495
   50X2IT    C7 1565   3.327   0.071   4.648
   50X2IT    C8 1566   3.427   0.169   4.711
   50X2IT    O2 1567   3.385   0.247   4.797
   50X2IT    N3 1568   3.202   0.087   4.695
   50X2IT   H15 1569   3.125   0.030   4.666
   50X2IT   H16 1570   3.188   0.160   4.766
   50X2IT    N2 1571   3.727   0.073   4.536
   50X2IT    C3 1572   3.817  -0.036   4.497
   50X2IT    C2 1573   3.927  -0.027   4.603
   50X2IT    H2 1574   4.024  -0.071   4.583
   50X2IT    N1 1575   3.872  -0.027   4.740
   50X2IT   H14 1576   3.945  -0.055   4.806
   50X2IT    C1 1577   3.912   0.101   4.677
   50X2IT    H1 1578   3.997   0.157   4.715
   50X2IT   C11 1579   3.796   0.178   4.617
   50X2IT    O3 1580   3.858   0.275   4.535
   50X2IT   C15 1581   3.776   0.338   4.435
   51X2IT   H18 1582   4.593   3.804   2.054
   51X2IT    N4 1583   4.686   3.819   2.089
   51X2IT   H17 1584   4.761   3.771   2.042
   51X2IT   C14 1585   4.710   3.941   2.146
   51X2IT    O5 1586   4.624   4.019   2.182
   51X2IT    O4 1587   4.844   3.959   2.160
   51X2IT   C13 1588   4.885   4.081   2.226
   51X2IT   C10 1589   4.880   4.067   2.379
   51X2IT    C9 1590   4.928   4.191   2.452
   51X2IT    C4 1591   5.034   4.159   2.535
   51X2IT    C5 1592   5.106   4.259   2.621
   51X2IT    O1 1593   5.198   4.221   2.695
   51X2IT    C6 1594   5.062   4.396   2.611
   51X2IT   C12 1595   5.130   4.502   2.695
   51X2IT    C7 1596   4.955   4.427   2.529
   51X2IT    C8 1597   4.882   4.324   2.442
   51X2IT    O2 1598   4.791   4.365   2.369
   51X2IT    N3 1599   4.906   4.551   2.515
   51X2IT   H15 1600   4.943   4.631   2.563
   51X2IT   H16 1601   4.828   4.563   2.450
   51X2IT    N2 1602   5.060   4.026   2.536
   51X2IT    C3 1603   5.190   3.959   2.551
   51X2IT    C2 1604   5.202   3.880   2.421
   51X2IT    H2 1605   5.270   3.796   2.415
   51X2IT    N1 1606   5.180   3.965   2.302
   51X2IT   H14 1607   5.222   3.920   2.220
   51X2IT    C1 1608   5.070   3.880   2.352
   51X2IT    H1 1609   5.035   3.796   2.293
   51X2IT   C11 1610   4.971   3.954   2.440
   51X2IT    O3 1611   4.897   3.851   2.503
   51X2IT   C15 1612   4.822   3.887   2.620
   52X2IT   H18 1613   0.921   2.668   0.016
   52X2IT    N4 1614   0.937   2.742   0.082
   52X2IT   H17 1615   0.927   2.837   0.048
   52X2IT   C14 1616   0.909   2.715   0.213
   52X2IT    O5 1617   0.892   2.604   0.260
   52X2IT    O4 1618   0.906   2.831   0.284
   52X2IT   C13 1619   0.883   2.818   0.426
   52X2IT   C10 1620   1.014   2.786   0.501
   52X2IT    C9 1621   0.996   2.778   0.651
   52X2IT    C4 1622   1.079   2.869   0.714
   52X2IT    C5 1623   1.085   2.888   0.863
   52X2IT    O1 1624   1.165   2.969   0.911
   52X2IT    C6 1625   0.996   2.806   0.942
   52X2IT   C12 1626   0.997   2.820   1.093
   52X2IT    C7 1627   0.914   2.714   0.879
   52X2IT    C8 1628   0.909   2.696   0.727
   52X2IT    O2 1629   0.829   2.613   0.681
   52X2IT    N3 1630   0.829   2.633   0.944
   52X2IT   H15 1631   0.819   2.633   1.044
   52X2IT   H16 1632   0.772   2.570   0.887
   52X2IT    N2 1633   1.159   2.934   0.626
   52X2IT    C3 1634   1.208   3.073   0.634
   52X2IT    C2 1635   1.152   3.135   0.507
   52X2IT    H2 1636   1.196   3.225   0.466
   52X2IT    N1 1637   1.006   3.112   0.494
   52X2IT   H14 1638   0.967   3.182   0.429
   52X2IT    C1 1639   1.100   3.027   0.418
   52X2IT    H1 1640   1.105   3.032   0.310
   52X2IT   C11 1641   1.128   2.894   0.486
   52X2IT    O3 1642   1.242   2.844   0.419
   52X2IT   C15 1643   1.316   2.740   0.484
   53X2IT   H18 1644   3.572   1.428   0.703
   53X2IT    N4 1645   3.639   1.372   0.753
   53X2IT   H17 1646   3.637   1.272   0.737
   53X2IT   C14 1647   3.757   1.433   0.784
   53X2IT    O5 1648   3.777   1.553   0.782
   53X2IT    O4 1649   3.848   1.339   0.823
   53X2IT   C13 1650   3.977   1.389   0.866
   53X2IT   C10 1651   3.974   1.434   1.013
   53X2IT    C9 1652   4.109   1.481   1.063
   53X2IT    C4 1653   4.148   1.406   1.172
   53X2IT    C5 1654   4.277   1.426   1.246
   53X2IT    O1 1655   4.302   1.356   1.345
   53X2IT    C6 1656   4.365   1.528   1.195
   53X2IT   C12 1657   4.497   1.554   1.265
   53X2IT    C7 1658   4.325   1.604   1.087
   53X2IT    C8 1659   4.193   1.583   1.013
   53X2IT    O2 1660   4.170   1.654   0.914
   53X2IT    N3 1661   4.399   1.703   1.034
   53X2IT   H15 1662   4.490   1.729   1.068
   53X2IT   H16 1663   4.361   1.751   0.952
   53X2IT    N2 1664   4.052   1.317   1.210
   53X2IT    C3 1665   4.071   1.183   1.269
   53X2IT    C2 1666   4.002   1.093   1.167
   53X2IT    H2 1667   3.970   0.994   1.196
   53X2IT    N1 1668   4.051   1.117   1.029
   53X2IT   H14 1669   4.031   1.035   0.971
   53X2IT    C1 1670   3.923   1.177   1.073
   53X2IT    H1 1671   3.830   1.144   1.029
   53X2IT   C11 1672   3.936   1.322   1.117
   53X2IT    O3 1673   3.814   1.348   1.184
   53X2IT   C15 1674   3.811   1.463   1.270
   54X2IT   H18 1675   0.252   1.020   4.399
   54X2IT    N4 1676   0.212   1.098   4.350
   54X2IT   H17 1677   0.179   1.175   4.406
   54X2IT   C14 1678   0.259   1.122   4.224
   54X2IT    O5 1679   0.323   1.043   4.157
   54X2IT    O4 1680   0.219   1.246   4.183
   54X2IT   C13 1681   0.256   1.283   4.048
   54X2IT   C10 1682   0.157   1.226   3.945
   54X2IT    C9 1683   0.188   1.268   3.803
   54X2IT    C4 1684   0.080   1.335   3.748
   54X2IT    C5 1685   0.079   1.391   3.609
   54X2IT    O1 1686  -0.024   1.447   3.567
   54X2IT    C6 1687   0.200   1.375   3.532
   54X2IT   C12 1688   0.205   1.430   3.391
   54X2IT    C7 1689   0.307   1.308   3.586
   54X2IT    C8 1690   0.307   1.250   3.728
   54X2IT    O2 1691   0.411   1.195   3.769
   54X2IT    N3 1692   0.423   1.286   3.522
   54X2IT   H15 1693   0.440   1.319   3.428
   54X2IT   H16 1694   0.496   1.236   3.572
   54X2IT    N2 1695  -0.026   1.337   3.832
   54X2IT    C3 1696  -0.128   1.443   3.847
   54X2IT    C2 1697  -0.112   1.483   3.993
   54X2IT    H2 1698  -0.194   1.534   4.044
   54X2IT    N1 1699   0.028   1.514   4.028
   54X2IT   H14 1700   0.030   1.572   4.112
   54X2IT    C1 1701  -0.028   1.382   4.063
   54X2IT    H1 1702  -0.043   1.354   4.166
   54X2IT   C11 1703   0.008   1.274   3.962
   54X2IT    O3 1704  -0.081   1.167   3.994
   54X2IT   C15 1705  -0.099   1.066   3.895
   55X2IT   H18 1706   2.290   2.446   0.957
   55X2IT    N4 1707   2.217   2.488   0.902
   55X2IT   H17 1708   2.241   2.570   0.848
   55X2IT   C14 1709   2.121   2.403   0.854
   55X2IT    O5 1710   2.101   2.290   0.894
   55X2IT    O4 1711   2.048   2.466   0.758
   55X2IT   C13 1712   1.938   2.391   0.703
   55X2IT   C10 1713   1.812   2.401   0.791
   55X2IT    C9 1714   1.692   2.330   0.734
   55X2IT    C4 1715   1.587   2.418   0.717
   55X2IT    C5 1716   1.454   2.379   0.661
   55X2IT    O1 1717   1.364   2.464   0.653
   55X2IT    C6 1718   1.438   2.242   0.620
   55X2IT   C12 1719   1.306   2.196   0.562
   55X2IT    C7 1720   1.543   2.153   0.638
   55X2IT    C8 1721   1.679   2.194   0.696
   55X2IT    O2 1722   1.767   2.107   0.703
   55X2IT    N3 1723   1.537   2.023   0.604
   55X2IT   H15 1724   1.456   1.981   0.563
   55X2IT   H16 1725   1.622   1.968   0.620
   55X2IT    N2 1726   1.617   2.542   0.765
   55X2IT    C3 1727   1.570   2.672   0.713
   55X2IT    C2 1728   1.701   2.741   0.677
   55X2IT    H2 1729   1.704   2.849   0.668
   55X2IT    N1 1730   1.787   2.657   0.590
   55X2IT   H14 1731   1.854   2.717   0.541
   55X2IT    C1 1732   1.815   2.664   0.735
   55X2IT    H1 1733   1.905   2.711   0.772
   55X2IT   C11 1734   1.757   2.547   0.814
   55X2IT    O3 1735   1.765   2.589   0.949
   55X2IT   C15 1736   1.684   2.519   1.044
   56X2IT   H18 1737  -0.308   3.504   1.099
   56X2IT    N4 1738  -0.242   3.576   1.076
   56X2IT   H17 1739  -0.221   3.645   1.147
   56X2IT   C14 1740  -0.145   3.542   0.985
   56X2IT    O5 1741  -0.148   3.445   0.912
   56X2IT    O4 1742  -0.046   3.637   0.986
   56X2IT   C13 1743   0.060   3.618   0.890
   56X2IT   C10 1744   0.022   3.672   0.752
   56X2IT    C9 1745   0.133   3.661   0.650
   56X2IT    C4 1746   0.165   3.786   0.600
   56X2IT    C5 1747   0.272   3.810   0.497
   56X2IT    O1 1748   0.291   3.925   0.455
   56X2IT    C6 1749   0.346   3.694   0.454
   56X2IT   C12 1750   0.456   3.711   0.351
   56X2IT    C7 1751   0.314   3.569   0.503
   56X2IT    C8 1752   0.204   3.546   0.607
   56X2IT    O2 1753   0.186   3.430   0.648
   56X2IT    N3 1754   0.376   3.456   0.467
   56X2IT   H15 1755   0.452   3.453   0.401
   56X2IT   H16 1756   0.345   3.369   0.512
   56X2IT    N2 1757   0.083   3.883   0.648
   56X2IT    C3 1758   0.116   4.023   0.675
   56X2IT    C2 1759   0.086   4.035   0.824
   56X2IT    H2 1760   0.068   4.133   0.869
   56X2IT    N1 1761   0.154   3.929   0.903
   56X2IT   H14 1762   0.161   3.959   1.001
   56X2IT    C1 1763   0.011   3.914   0.869
   56X2IT    H1 1764  -0.065   3.917   0.946
   56X2IT   C11 1765  -0.013   3.826   0.747
   56X2IT    O3 1766  -0.147   3.852   0.712
   56X2IT   C15 1767  -0.189   3.814   0.580
   57X2IT   H18 1768   4.454   4.508   4.048
   57X2IT    N4 1769   4.388   4.538   4.118
   57X2IT   H17 1770   4.290   4.525   4.098
   57X2IT   C14 1771   4.430   4.530   4.248
   57X2IT    O5 1772   4.546   4.517   4.284
   57X2IT    O4 1773   4.323   4.542   4.332
   57X2IT   C13 1774   4.353   4.542   4.474
   57X2IT   C10 1775   4.395   4.682   4.522
   57X2IT    C9 1776   4.421   4.688   4.671
   57X2IT    C4 1777   4.339   4.783   4.730
   57X2IT    C5 1778   4.338   4.813   4.877
   57X2IT    O1 1779   4.264   4.903   4.920
   57X2IT    C6 1780   4.427   4.735   4.959
   57X2IT   C12 1781   4.432   4.761   5.108
   57X2IT    C7 1782   4.510   4.641   4.900
   57X2IT    C8 1783   4.510   4.612   4.750
   57X2IT    O2 1784   4.585   4.522   4.709
   57X2IT    N3 1785   4.597   4.566   4.968
   57X2IT   H15 1786   4.609   4.571   5.068
   57X2IT   H16 1787   4.652   4.498   4.914
   57X2IT    N2 1788   4.265   4.850   4.638
   57X2IT    C3 1789   4.129   4.904   4.654
   57X2IT    C2 1790   4.052   4.830   4.545
   57X2IT    H2 1791   3.958   4.871   4.509
   57X2IT    N1 1792   4.070   4.684   4.553
   57X2IT   H14 1793   3.993   4.637   4.505
   57X2IT    C1 1794   4.148   4.762   4.455
   57X2IT    H1 1795   4.130   4.750   4.349
   57X2IT   C11 1796   4.288   4.796   4.501
   57X2IT    O3 1797   4.331   4.896   4.411
   57X2IT   C15 1798   4.444   4.976   4.451
   58X2IT   H18 1799   4.068   1.887   4.029
   58X2IT    N4 1800   4.067   1.833   3.944
   58X2IT   H17 1801   4.095   1.737   3.951
   58X2IT   C14 1802   3.976   1.870   3.850
   58X2IT    O5 1803   3.915   1.976   3.848
   58X2IT    O4 1804   3.965   1.772   3.755
   58X2IT   C13 1805   3.876   1.800   3.645
   58X2IT   C10 1806   3.945   1.884   3.537
   58X2IT    C9 1807   3.857   1.909   3.416
   58X2IT    C4 1808   3.918   1.861   3.302
   58X2IT    C5 1809   3.858   1.869   3.165
   58X2IT    O1 1810   3.921   1.827   3.067
   58X2IT    C6 1811   3.726   1.929   3.156
   58X2IT   C12 1812   3.659   1.940   3.021
   58X2IT    C7 1813   3.666   1.978   3.270
   58X2IT    C8 1814   3.729   1.970   3.409
   58X2IT    O2 1815   3.664   2.013   3.506
   58X2IT    N3 1816   3.545   2.037   3.272
   58X2IT   H15 1817   3.489   2.049   3.189
   58X2IT   H16 1818   3.510   2.068   3.362
   58X2IT    N2 1819   4.043   1.813   3.327
   58X2IT    C3 1820   4.111   1.701   3.260
   58X2IT    C2 1821   4.136   1.605   3.375
   58X2IT    H2 1822   4.213   1.528   3.366
   58X2IT    N1 1823   4.013   1.576   3.452
   58X2IT   H14 1824   4.025   1.488   3.504
   58X2IT    C1 1825   4.111   1.674   3.504
   58X2IT    H1 1826   4.167   1.654   3.594
   58X2IT   C11 1827   4.073   1.818   3.472
   58X2IT    O3 1828   4.192   1.891   3.499
   58X2IT   C15 1829   4.201   2.023   3.443
   59X2IT   H18 1830   4.269   3.313   0.697
   59X2IT    N4 1831   4.335   3.362   0.640
   59X2IT   H17 1832   4.421   3.313   0.616
   59X2IT   C14 1833   4.283   3.451   0.551
   59X2IT    O5 1834   4.170   3.496   0.555
   59X2IT    O4 1835   4.378   3.487   0.459
   59X2IT   C13 1836   4.339   3.586   0.362
   59X2IT   C10 1837   4.353   3.729   0.419
   59X2IT    C9 1838   4.320   3.837   0.319
   59X2IT    C4 1839   4.428   3.921   0.301
   59X2IT    C5 1840   4.429   4.038   0.207
   59X2IT    O1 1841   4.529   4.110   0.201
   59X2IT    C6 1842   4.309   4.059   0.130
   59X2IT   C12 1843   4.303   4.176   0.033
   59X2IT    C7 1844   4.200   3.976   0.148
   59X2IT    C8 1845   4.201   3.857   0.245
   59X2IT    O2 1846   4.099   3.786   0.250
   59X2IT    N3 1847   4.084   3.989   0.083
   59X2IT   H15 1848   4.067   4.060   0.014
   59X2IT   H16 1849   4.011   3.920   0.103
   59X2IT    N2 1850   4.531   3.890   0.384
   59X2IT    C3 1851   4.675   3.903   0.359
   59X2IT    C2 1852   4.724   3.760   0.373
   59X2IT    H2 1853   4.830   3.740   0.393
   59X2IT    N1 1854   4.646   3.665   0.290
   59X2IT   H14 1855   4.701   3.580   0.275
   59X2IT    C1 1856   4.617   3.677   0.434
   59X2IT    H1 1857   4.637   3.595   0.502
   59X2IT   C11 1858   4.499   3.768   0.464
   59X2IT    O3 1859   4.509   3.793   0.604
   59X2IT   C15 1860   4.436   3.905   0.656
   60X2IT   H18 1861   3.129   1.661   2.825
   60X2IT    N4 1862   3.049   1.603   2.843
   60X2IT   H17 1863   3.041   1.563   2.935
   60X2IT   C14 1864   2.935   1.632   2.772
   60X2IT    O5 1865   2.931   1.701   2.672
   60X2IT    O4 1866   2.829   1.567   2.828
   60X2IT   C13 1867   2.702   1.584   2.760
   60X2IT   C10 1868   2.689   1.485   2.642
   60X2IT    C9 1869   2.555   1.494   2.572
   60X2IT    C4 1870   2.491   1.371   2.576
   60X2IT    C5 1871   2.356   1.346   2.516
   60X2IT    O1 1872   2.308   1.232   2.520
   60X2IT    C6 1873   2.290   1.459   2.455
   60X2IT   C12 1874   2.153   1.440   2.394
   60X2IT    C7 1875   2.354   1.581   2.451
   60X2IT    C8 1876   2.492   1.606   2.512
   60X2IT    O2 1877   2.538   1.721   2.507
   60X2IT    N3 1878   2.301   1.692   2.396
   60X2IT   H15 1879   2.210   1.694   2.353
   60X2IT   H16 1880   2.357   1.777   2.400
   60X2IT    N2 1881   2.569   1.275   2.632
   60X2IT    C3 1882   2.525   1.159   2.711
   60X2IT    C2 1883   2.596   1.183   2.844
   60X2IT    H2 1884   2.612   1.100   2.913
   60X2IT    N1 1885   2.572   1.319   2.898
   60X2IT   H14 1886   2.590   1.319   2.998
   60X2IT    C1 1887   2.698   1.290   2.827
   60X2IT    H1 1888   2.793   1.291   2.880
   60X2IT   C11 1889   2.697   1.333   2.681
   60X2IT    O3 1890   2.809   1.267   2.625
   60X2IT   C15 1891   2.814   1.256   2.482
   61X2IT   H18 1892   4.151   2.949   2.580
   61X2IT    N4 1893   4.143   2.867   2.637
   61X2IT   H17 1894   4.148   2.777   2.590
   61X2IT   C14 1895   4.189   2.877   2.765
   61X2IT    O5 1896   4.212   2.981   2.824
   61X2IT    O4 1897   4.201   2.752   2.820
   61X2IT   C13 1898   4.242   2.747   2.958
   61X2IT   C10 1899   4.123   2.768   3.054
   61X2IT    C9 1900   4.161   2.757   3.200
   61X2IT    C4 1901   4.087   2.657   3.261
   61X2IT    C5 1902   4.101   2.620   3.405
   61X2IT    O1 1903   4.028   2.532   3.453
   61X2IT    C6 1904   4.201   2.691   3.481
   61X2IT   C12 1905   4.220   2.658   3.628
   61X2IT    C7 1906   4.274   2.791   3.421
   61X2IT    C8 1907   4.258   2.829   3.273
   61X2IT    O2 1908   4.333   2.918   3.228
   61X2IT    N3 1909   4.367   2.864   3.483
   61X2IT   H15 1910   4.392   2.851   3.580
   61X2IT   H16 1911   4.417   2.935   3.428
   61X2IT    N2 1912   3.995   2.603   3.177
   61X2IT    C3 1913   3.947   2.464   3.173
   61X2IT    C2 1914   3.985   2.420   3.033
   61X2IT    H2 1915   3.934   2.335   2.987
   61X2IT    N1 1916   4.128   2.446   3.003
   61X2IT   H14 1917   4.157   2.386   2.925
   61X2IT    C1 1918   4.025   2.539   2.953
   61X2IT    H1 1919   4.005   2.548   2.847
   61X2IT   C11 1920   4.007   2.662   3.041
   61X2IT    O3 1921   3.885   2.719   2.996
   61X2IT   C15 1922   3.822   2.813   3.084
   62X2IT   H18 1923   2.262   4.078   1.241
   62X2IT    N4 1924   2.336   4.032   1.291
   62X2IT   H17 1925   2.365   4.072   1.379
   62X2IT   C14 1926   2.345   3.896   1.273
   62X2IT    O5 1927   2.291   3.834   1.183
   62X2IT    O4 1928   2.427   3.843   1.367
   62X2IT   C13 1929   2.452   3.701   1.357
   62X2IT   C10 1930   2.564   3.670   1.255
   62X2IT    C9 1931   2.597   3.523   1.246
   62X2IT    C4 1932   2.731   3.503   1.275
   62X2IT    C5 1933   2.797   3.368   1.276
   62X2IT    O1 1934   2.918   3.360   1.300
   62X2IT    C6 1935   2.712   3.255   1.248
   62X2IT   C12 1936   2.772   3.116   1.248
   62X2IT    C7 1937   2.579   3.275   1.218
   62X2IT    C8 1938   2.513   3.413   1.217
   62X2IT    O2 1939   2.391   3.419   1.193
   62X2IT    N3 1940   2.493   3.176   1.188
   62X2IT   H15 1941   2.519   3.079   1.187
   62X2IT   H16 1942   2.396   3.203   1.169
   62X2IT    N2 1943   2.797   3.620   1.295
   62X2IT    C3 1944   2.910   3.645   1.386
   62X2IT    C2 1945   2.854   3.753   1.478
   62X2IT    H2 1946   2.921   3.817   1.534
   62X2IT    N1 1947   2.723   3.715   1.536
   62X2IT   H14 1948   2.706   3.770   1.621
   62X2IT    C1 1949   2.727   3.806   1.420
   62X2IT    H1 1950   2.696   3.909   1.430
   62X2IT   C11 1951   2.703   3.735   1.288
   62X2IT    O3 1952   2.744   3.830   1.191
   62X2IT   C15 1953   2.770   3.781   1.058
   63X2IT   H18 1954   2.037   4.930   4.807
   63X2IT    N4 1955   1.956   4.990   4.806
   63X2IT   H17 1956   1.958   5.071   4.865
   63X2IT   C14 1957   1.886   4.995   4.689
   63X2IT    O5 1958   1.896   4.915   4.597
   63X2IT    O4 1959   1.799   5.100   4.691
   63X2IT   C13 1960   1.713   5.114   4.576
   63X2IT   C10 1961   1.589   5.024   4.587
   63X2IT    C9 1962   1.493   5.041   4.472
   63X2IT    C4 1963   1.368   5.079   4.519
   63X2IT    C5 1964   1.250   5.105   4.430
   63X2IT    O1 1965   1.141   5.135   4.481
   63X2IT    C6 1966   1.271   5.092   4.288
   63X2IT   C12 1967   1.156   5.117   4.193
   63X2IT    C7 1968   1.396   5.053   4.241
   63X2IT    C8 1969   1.515   5.026   4.333
   63X2IT    O2 1970   1.623   4.996   4.280
   63X2IT    N3 1971   1.425   5.037   4.111
   63X2IT   H15 1972   1.358   5.052   4.038
   63X2IT   H16 1973   1.520   5.009   4.088
   63X2IT    N2 1974   1.364   5.082   4.654
   63X2IT    C3 1975   1.285   5.172   4.740
   63X2IT    C2 1976   1.393   5.243   4.821
   63X2IT    H2 1977   1.368   5.291   4.915
   63X2IT    N1 1978   1.499   5.301   4.735
   63X2IT   H14 1979   1.548   5.374   4.787
   63X2IT    C1 1980   1.523   5.172   4.802
   63X2IT    H1 1981   1.597   5.163   4.880
   63X2IT   C11 1982   1.497   5.052   4.712
   63X2IT    O3 1983   1.492   4.942   4.802
   63X2IT   C15 1984   1.432   4.821   4.754
   64X2IT   H18 1985   3.077   1.370   0.877
   64X2IT    N4 1986   3.012   1.351   0.952
   64X2IT   H17 1987   2.923   1.310   0.927
   64X2IT   C14 1988   3.067   1.321   1.074
   64X2IT    O5 1989   3.183   1.342   1.106
   64X2IT    O4 1990   2.972   1.268   1.156
   64X2IT   C13 1991   3.014   1.237   1.290
   64X2IT   C10 1992   3.009   1.362   1.380
   64X2IT    C9 1993   3.045   1.332   1.524
   64X2IT    C4 1994   2.942   1.368   1.608
   64X2IT    C5 1995   2.945   1.352   1.757
   64X2IT    O1 1996   2.849   1.390   1.825
   64X2IT    C6 1997   3.064   1.291   1.813
   64X2IT   C12 1998   3.073   1.271   1.963
   64X2IT    C7 1999   3.168   1.256   1.729
   64X2IT    C8 2000   3.163   1.274   1.577
   64X2IT    O2 2001   3.261   1.235   1.511
   64X2IT    N3 2002   3.283   1.201   1.771
   64X2IT   H15 2003   3.301   1.180   1.868
   64X2IT   H16 2004   3.352   1.177   1.700
   64X2IT    N2 2005   2.840   1.428   1.541
   64X2IT    C3 2006   2.696   1.421   1.571
   64X2IT    C2 2007   2.639   1.360   1.444
   64X2IT    H2 2008   2.533   1.372   1.420
   64X2IT    N1 2009   2.709   1.235   1.406
   64X2IT   H14 2010   2.649   1.180   1.344
   64X2IT    C1 2011   2.743   1.361   1.338
   64X2IT    H1 2012   2.720   1.375   1.233
   64X2IT   C11 2013   2.867   1.429   1.395
   64X2IT    O3 2014   2.862   1.560   1.341
   64X2IT   C15 2015   2.943   1.660   1.405
   65X2IT   H18 2016   5.164   1.931   1.342
   65X2IT    N4 2017   5.120   1.911   1.254
   65X2IT   H17 2018   5.080   1.989   1.204
   65X2IT   C14 2019   5.170   1.805   1.184
   65X2IT    O5 2020   5.243   1.719   1.230
   65X2IT    O4 2021   5.123   1.808   1.056
   65X2IT   C13 2022   5.163   1.698   0.971
   65X2IT   C10 2023   5.073   1.576   0.992
   65X2IT    C9 2024   5.107   1.461   0.900
   65X2IT    C4 2025   4.997   1.426   0.824
   65X2IT    C5 2026   4.996   1.316   0.721
   65X2IT    O1 2027   4.892   1.290   0.660
   65X2IT    C6 2028   5.121   1.247   0.702
   65X2IT   C12 2029   5.128   1.135   0.600
   65X2IT    C7 2030   5.231   1.280   0.779
   65X2IT    C8 2031   5.229   1.392   0.883
   65X2IT    O2 2032   5.335   1.417   0.944
   65X2IT    N3 2033   5.350   1.220   0.769
   65X2IT   H15 2034   5.369   1.145   0.704
   65X2IT   H16 2035   5.425   1.254   0.830
   65X2IT    N2 2036   4.886   1.498   0.857
   65X2IT    C3 2037   4.777   1.543   0.770
   65X2IT    C2 2038   4.784   1.694   0.785
   65X2IT    H2 2039   4.697   1.755   0.759
   65X2IT    N1 2040   4.920   1.747   0.760
   65X2IT   H14 2041   4.914   1.847   0.737
   65X2IT    C1 2042   4.872   1.729   0.899
   65X2IT    H1 2043   4.855   1.814   0.963
   65X2IT   C11 2044   4.920   1.599   0.962
   65X2IT    O3 2045   4.838   1.585   1.077
   65X2IT   C15 2046   4.831   1.455   1.137
   66X2IT   H18 2047   1.868   5.016   1.938
   66X2IT    N4 2048   1.808   4.971   2.006
   66X2IT   H17 2049   1.773   4.879   1.982
   66X2IT   C14 2050   1.832   5.001   2.137
   66X2IT    O5 2051   1.897   5.096   2.177
   66X2IT    O4 2052   1.767   4.911   2.217
   66X2IT   C13 2053   1.778   4.934   2.359
   66X2IT   C10 2054   1.674   5.037   2.407
   66X2IT    C9 2055   1.677   5.059   2.557
   66X2IT    C4 2056   1.553   5.031   2.611
   66X2IT    C5 2057   1.521   5.042   2.758
   66X2IT    O1 2058   1.406   5.019   2.798
   66X2IT    C6 2059   1.630   5.081   2.844
   66X2IT   C12 2060   1.605   5.094   2.993
   66X2IT    C7 2061   1.754   5.110   2.789
   66X2IT    C8 2062   1.784   5.099   2.640
   66X2IT    O2 2063   1.900   5.123   2.602
   66X2IT    N3 2064   1.860   5.149   2.861
   66X2IT   H15 2065   1.858   5.159   2.961
   66X2IT   H16 2066   1.947   5.166   2.810
   66X2IT    N2 2067   1.461   5.001   2.516
   66X2IT    C3 2068   1.348   4.907   2.527
   66X2IT    C2 2069   1.379   4.806   2.417
   66X2IT    H2 2070   1.299   4.744   2.377
   66X2IT    N1 2071   1.516   4.752   2.428
   66X2IT   H14 2072   1.522   4.663   2.377
   66X2IT    C1 2073   1.487   4.860   2.331
   66X2IT    H1 2074   1.492   4.841   2.224
   66X2IT   C11 2075   1.523   4.998   2.381
   66X2IT    O3 2076   1.458   5.086   2.291
   66X2IT   C15 2077   1.441   5.222   2.333
   67X2IT   H18 2078   2.498   4.021   5.008
   67X2IT    N4 2079   2.597   4.007   5.018
   67X2IT   H17 2080   2.631   3.979   5.109
   67X2IT   C14 2081   2.664   3.965   4.906
   67X2IT    O5 2082   2.620   3.970   4.792
   67X2IT    O4 2083   2.788   3.921   4.940
   67X2IT   C13 2084   2.873   3.879   4.831
   67X2IT   C10 2085   2.943   4.000   4.765
   67X2IT    C9 2086   3.038   3.960   4.655
   67X2IT    C4 2087   3.166   4.005   4.683
   67X2IT    C5 2088   3.285   3.981   4.594
   67X2IT    O1 2089   3.395   4.029   4.625
   67X2IT    C6 2090   3.261   3.904   4.474
   67X2IT   C12 2091   3.377   3.876   4.380
   67X2IT    C7 2092   3.134   3.860   4.446
   67X2IT    C8 2093   3.013   3.885   4.537
   67X2IT    O2 2094   2.904   3.837   4.504
   67X2IT    N3 2095   3.102   3.789   4.336
   67X2IT   H15 2096   3.169   3.762   4.267
   67X2IT   H16 2097   3.004   3.760   4.326
   67X2IT    N2 2098   3.170   4.080   4.796
   67X2IT    C3 2099   3.280   4.090   4.894
   67X2IT    C2 2100   3.213   4.042   5.022
   67X2IT    H2 2101   3.256   4.068   5.119
   67X2IT    N1 2102   3.146   3.911   5.005
   67X2IT   H14 2103   3.134   3.866   5.096
   67X2IT    C1 2104   3.066   4.035   5.002
   67X2IT    H1 2105   2.995   4.056   5.080
   67X2IT   C11 2106   3.036   4.084   4.861
   67X2IT    O3 2107   2.990   4.216   4.880
   67X2IT   C15 2108   2.990   4.302   4.765
   68X2IT   H18 2109   3.929   4.739   0.804
   68X2IT    N4 2110   3.950   4.644   0.825
   68X2IT   H17 2111   3.937   4.576   0.751
   68X2IT   C14 2112   4.049   4.623   0.917
   68X2IT    O5 2113   4.092   4.707   0.995
   68X2IT    O4 2114   4.089   4.492   0.913
   68X2IT   C13 2115   4.189   4.454   1.010
   68X2IT   C10 2116   4.125   4.420   1.146
   68X2IT    C9 2117   4.225   4.372   1.249
   68X2IT    C4 2118   4.191   4.246   1.294
   68X2IT    C5 2119   4.270   4.169   1.396
   68X2IT    O1 2120   4.230   4.058   1.433
   68X2IT    C6 2121   4.391   4.232   1.445
   68X2IT   C12 2122   4.475   4.160   1.547
   68X2IT    C7 2123   4.424   4.359   1.400
   68X2IT    C8 2124   4.342   4.436   1.297
   68X2IT    O2 2125   4.384   4.547   1.261
   68X2IT    N3 2126   4.533   4.426   1.441
   68X2IT   H15 2127   4.599   4.389   1.508
   68X2IT   H16 2128   4.549   4.518   1.400
   68X2IT    N2 2129   4.073   4.203   1.241
   68X2IT    C3 2130   4.034   4.066   1.208
   68X2IT    C2 2131   4.006   4.075   1.059
   68X2IT    H2 2132   3.944   4.000   1.010
   68X2IT    N1 2133   4.119   4.136   0.984
   68X2IT   H14 2134   4.113   4.110   0.886
   68X2IT    C1 2135   4.001   4.218   1.019
   68X2IT    H1 2136   3.935   4.256   0.941
   68X2IT   C11 2137   4.020   4.302   1.144
   68X2IT    O3 2138   3.889   4.345   1.177
   68X2IT   C15 2139   3.868   4.393   1.311
   69X2IT   H18 2140   0.528   2.367   2.977
   69X2IT    N4 2141   0.560   2.449   3.025
   69X2IT   H17 2142   0.657   2.450   3.054
   69X2IT   C14 2143   0.499   2.566   2.993
   69X2IT    O5 2144   0.393   2.577   2.933
   69X2IT    O4 2145   0.571   2.672   3.041
   69X2IT   C13 2146   0.515   2.803   3.020
   69X2IT   C10 2147   0.411   2.837   3.127
   69X2IT    C9 2148   0.354   2.977   3.113
   69X2IT    C4 2149   0.377   3.050   3.228
   69X2IT    C5 2150   0.335   3.193   3.246
   69X2IT    O1 2151   0.356   3.249   3.355
   69X2IT    C6 2152   0.269   3.256   3.134
   69X2IT   C12 2153   0.224   3.400   3.146
   69X2IT    C7 2154   0.246   3.182   3.019
   69X2IT    C8 2155   0.289   3.036   3.002
   69X2IT    O2 2156   0.267   2.982   2.893
   69X2IT    N3 2157   0.184   3.231   2.911
   69X2IT   H15 2158   0.151   3.326   2.904
   69X2IT   H16 2159   0.174   3.168   2.830
   69X2IT    N2 2160   0.435   2.975   3.325
   69X2IT    C3 2161   0.531   3.019   3.428
   69X2IT    C2 2162   0.652   2.932   3.398
   69X2IT    H2 2163   0.728   2.916   3.475
   69X2IT    N1 2164   0.693   2.939   3.256
   69X2IT   H14 2165   0.791   2.909   3.247
   69X2IT    C1 2166   0.613   2.824   3.304
   69X2IT    H1 2167   0.656   2.725   3.307
   69X2IT   C11 2168   0.465   2.838   3.275
   69X2IT    O3 2169   0.405   2.738   3.356
   69X2IT   C15 2170   0.264   2.750   3.382
   70X2IT   H18 2171   4.974  -0.036   4.737
   70X2IT    N4 2172   4.975   0.043   4.676
   70X2IT   H17 2173   5.002   0.132   4.716
   70X2IT   C14 2174   5.002   0.018   4.544
   70X2IT    O5 2175   4.997  -0.092   4.492
   70X2IT    O4 2176   5.030   0.135   4.479
   70X2IT   C13 2177   5.054   0.124   4.337
   70X2IT   C10 2178   4.923   0.123   4.258
   70X2IT    C9 2179   4.944   0.119   4.108
   70X2IT    C4 2180   4.883   0.228   4.049
   70X2IT    C5 2181   4.886   0.254   3.901
   70X2IT    O1 2182   4.825   0.353   3.856
   70X2IT    C6 2183   4.959   0.161   3.820
   70X2IT   C12 2184   4.967   0.182   3.670
   70X2IT    C7 2185   5.019   0.051   3.879
   70X2IT    C8 2186   5.015   0.025   4.030
   70X2IT    O2 2187   5.076  -0.074   4.073
   70X2IT    N3 2188   5.089  -0.042   3.812
   70X2IT   H15 2189   5.103  -0.039   3.713
   70X2IT   H16 2190   5.130  -0.118   3.867
   70X2IT    N2 2191   4.814   0.303   4.138
   70X2IT    C3 2192   4.793   0.449   4.136
   70X2IT    C2 2193   4.856   0.491   4.268
   70X2IT    H2 2194   4.829   0.587   4.313
   70X2IT    N1 2195   4.994   0.440   4.284
   70X2IT   H14 2196   5.044   0.497   4.353
   70X2IT    C1 2197   4.882   0.371   4.352
   70X2IT    H1 2198   4.875   0.372   4.460
   70X2IT   C11 2199   4.831   0.250   4.276
   70X2IT    O3 2200   4.707   0.221   4.338
   70X2IT   C15 2201   4.617   0.136   4.265
   71X2IT   H18 2202   2.470   2.931   0.638
   71X2IT    N4 2203   2.381   2.968   0.610
   71X2IT   H17 2204   2.333   3.027   0.676
   71X2IT   C14 2205   2.363   2.990   0.476
   71X2IT    O5 2206   2.433   2.944   0.387
   71X2IT    O4 2207   2.253   3.068   0.455
   71X2IT   C13 2208   2.218   3.094   0.318
   71X2IT   C10 2209   2.137   2.978   0.257
   71X2IT    C9 2210   2.092   3.005   0.115
   71X2IT    C4 2211   1.955   2.998   0.106
   71X2IT    C5 2212   1.878   3.021  -0.021
   71X2IT    O1 2213   1.754   3.009  -0.021
   71X2IT    C6 2214   1.955   3.054  -0.138
   71X2IT   C12 2215   1.884   3.078  -0.270
   71X2IT    C7 2216   2.093   3.060  -0.129
   71X2IT    C8 2217   2.170   3.036   0.001
   71X2IT    O2 2218   2.294   3.048  -0.002
   71X2IT    N3 2219   2.174   3.088  -0.233
   71X2IT   H15 2220   2.139   3.108  -0.325
   71X2IT   H16 2221   2.274   3.091  -0.214
   71X2IT    N2 2222   1.897   2.962   0.224
   71X2IT    C3 2223   1.767   3.003   0.278
   71X2IT    C2 2224   1.806   3.070   0.409
   71X2IT    H2 2225   1.732   3.083   0.487
   71X2IT    N1 2226   1.911   3.173   0.390
   71X2IT   H14 2227   1.909   3.238   0.469
   71X2IT    C1 2228   1.948   3.039   0.439
   71X2IT    H1 2229   1.985   3.026   0.540
   71X2IT   C11 2230   2.000   2.947   0.330
   71X2IT    O3 2231   1.998   2.819   0.389
   71X2IT   C15 2232   2.004   2.706   0.301
   72X2IT   H18 2233   0.622   1.287   0.614
   72X2IT    N4 2234   0.663   1.237   0.691
   72X2IT   H17 2235   0.739   1.280   0.740
   72X2IT   C14 2236   0.579   1.153   0.759
   72X2IT    O5 2237   0.470   1.115   0.720
   72X2IT    O4 2238   0.637   1.116   0.877
   72X2IT   C13 2239   0.562   1.022   0.958
   72X2IT   C10 2240   0.584   0.877   0.911
   72X2IT    C9 2241   0.513   0.775   0.997
   72X2IT    C4 2242   0.604   0.685   1.050
   72X2IT    C5 2243   0.567   0.572   1.140
   72X2IT    O1 2244   0.654   0.494   1.180
   72X2IT    C6 2245   0.427   0.561   1.175
   72X2IT   C12 2246   0.382   0.448   1.267
   72X2IT    C7 2247   0.336   0.650   1.122
   72X2IT    C8 2248   0.375   0.765   1.029
   72X2IT    O2 2249   0.286   0.842   0.990
   72X2IT    N3 2250   0.204   0.646   1.147
   72X2IT   H15 2251   0.162   0.579   1.208
   72X2IT   H16 2252   0.146   0.719   1.104
   72X2IT    N2 2253   0.730   0.707   1.003
   72X2IT    C3 2254   0.857   0.686   1.074
   72X2IT    C2 2255   0.918   0.825   1.074
   72X2IT    H2 2256   1.025   0.838   1.088
   72X2IT    N1 2257   0.824   0.927   1.126
   72X2IT   H14 2258   0.877   1.009   1.157
   72X2IT    C1 2259   0.842   0.912   0.980
   72X2IT    H1 2260   0.888   0.990   0.921
   72X2IT   C11 2261   0.734   0.827   0.915
   72X2IT    O3 2262   0.786   0.797   0.787
   72X2IT   C15 2263   0.726   0.688   0.716
   73X2IT   H18 2264   4.033   3.147   2.878
   73X2IT    N4 2265   4.015   3.234   2.924
   73X2IT   H17 2266   3.922   3.273   2.913
   73X2IT   C14 2267   4.084   3.259   3.039
   73X2IT    O5 2268   4.183   3.199   3.076
   73X2IT    O4 2269   4.027   3.364   3.105
   73X2IT   C13 2270   4.094   3.406   3.226
   73X2IT   C10 2271   4.212   3.500   3.196
   73X2IT    C9 2272   4.280   3.552   3.320
   73X2IT    C4 2273   4.277   3.690   3.323
   73X2IT    C5 2274   4.336   3.774   3.433
   73X2IT    O1 2275   4.332   3.897   3.425
   73X2IT    C6 2276   4.395   3.702   3.543
   73X2IT   C12 2277   4.456   3.780   3.658
   73X2IT    C7 2278   4.399   3.564   3.540
   73X2IT    C8 2279   4.340   3.480   3.427
   73X2IT    O2 2280   4.345   3.357   3.437
   73X2IT    N3 2281   4.454   3.489   3.637
   73X2IT   H15 2282   4.495   3.527   3.720
   73X2IT   H16 2283   4.449   3.387   3.626
   73X2IT    N2 2284   4.222   3.742   3.210
   73X2IT    C3 2285   4.143   3.865   3.196
   73X2IT    C2 2286   4.011   3.812   3.141
   73X2IT    H2 2287   3.943   3.879   3.090
   73X2IT    N1 2288   3.956   3.701   3.223
   73X2IT   H14 2289   3.856   3.693   3.206
   73X2IT    C1 2290   4.028   3.671   3.098
   73X2IT    H1 2291   3.976   3.628   3.013
   73X2IT   C11 2292   4.174   3.633   3.120
   73X2IT    O3 2293   4.232   3.641   2.991
   73X2IT   C15 2294   4.375   3.650   2.983
   74X2IT   H18 2295  -0.187   5.207   0.693
   74X2IT    N4 2296  -0.177   5.158   0.779
   74X2IT   H17 2297  -0.262   5.137   0.830
   74X2IT   C14 2298  -0.071   5.073   0.789
   74X2IT    O5 2299   0.026   5.073   0.716
   74X2IT    O4 2300  -0.087   4.991   0.897
   74X2IT   C13 2301   0.021   4.899   0.924
   74X2IT   C10 2302   0.133   4.968   1.005
   74X2IT    C9 2303   0.246   4.873   1.041
   74X2IT    C4 2304   0.262   4.869   1.179
   74X2IT    C5 2305   0.365   4.785   1.248
   74X2IT    O1 2306   0.375   4.791   1.372
   74X2IT    C6 2307   0.448   4.702   1.164
   74X2IT   C12 2308   0.553   4.614   1.228
   74X2IT    C7 2309   0.432   4.706   1.027
   74X2IT    C8 2310   0.327   4.794   0.957
   74X2IT    O2 2311   0.319   4.787   0.834
   74X2IT    N3 2312   0.505   4.634   0.941
   74X2IT   H15 2313   0.577   4.570   0.970
   74X2IT   H16 2314   0.484   4.644   0.842
   74X2IT    N2 2315   0.180   4.957   1.242
   74X2IT    C3 2316   0.117   4.942   1.375
   74X2IT    C2 2317  -0.031   4.949   1.341
   74X2IT    H2 2318  -0.103   4.974   1.419
   74X2IT    N1 2319  -0.069   4.854   1.234
   74X2IT   H14 2320  -0.170   4.836   1.239
   74X2IT    C1 2321  -0.048   4.996   1.201
   74X2IT    H1 2322  -0.130   5.058   1.170
   74X2IT   C11 2323   0.090   5.025   1.145
   74X2IT    O3 2324   0.102   5.166   1.153
   74X2IT   C15 2325   0.234   5.222   1.143
   75X2IT   H18 2326   2.500   4.475   0.433
   75X2IT    N4 2327   2.477   4.395   0.488
   75X2IT   H17 2328   2.391   4.397   0.540
   75X2IT   C14 2329   2.524   4.275   0.441
   75X2IT    O5 2330   2.611   4.261   0.357
   75X2IT    O4 2331   2.461   4.172   0.506
   75X2IT   C13 2332   2.505   4.039   0.472
   75X2IT   C10 2333   2.631   3.999   0.551
   75X2IT    C9 2334   2.676   3.858   0.523
   75X2IT    C4 2335   2.679   3.785   0.641
   75X2IT    C5 2336   2.719   3.640   0.648
   75X2IT    O1 2337   2.723   3.584   0.759
   75X2IT    C6 2338   2.752   3.576   0.524
   75X2IT   C12 2339   2.793   3.430   0.524
   75X2IT    C7 2340   2.750   3.649   0.406
   75X2IT    C8 2341   2.710   3.796   0.400
   75X2IT    O2 2342   2.707   3.851   0.289
   75X2IT    N3 2343   2.780   3.598   0.286
   75X2IT   H15 2344   2.807   3.502   0.272
   75X2IT   H16 2345   2.774   3.661   0.206
   75X2IT    N2 2346   2.650   3.861   0.749
   75X2IT    C3 2347   2.581   3.820   0.872
   75X2IT    C2 2348   2.459   3.913   0.873
   75X2IT    H2 2349   2.406   3.931   0.966
   75X2IT    N1 2350   2.385   3.908   0.745
   75X2IT   H14 2351   2.289   3.942   0.761
   75X2IT    C1 2352   2.478   4.020   0.772
   75X2IT    H1 2353   2.442   4.121   0.785
   75X2IT   C11 2354   2.615   4.000   0.708
   75X2IT    O3 2355   2.697   4.096   0.771
   75X2IT   C15 2356   2.839   4.078   0.761
   76SOL     OW 2357   0.230   0.628   0.113
   76SOL    HW1 2358   0.137   0.626   0.150
   76SOL    HW2 2359   0.231   0.589   0.021
   77SOL     OW 2360   0.019   0.368   0.647
   77SOL    HW1 2361  -0.063   0.411   0.686
   77SOL    HW2 2362  -0.009   0.295   0.584
   78SOL     OW 2363   0.569   1.275   1.165
   78SOL    HW1 2364   0.476   1.268   1.128
   78SOL    HW2 2365   0.580   1.364   1.209
   79SOL     OW 2366   1.555   1.511   0.703
   79SOL    HW1 2367   1.498   1.495   0.784
   79SOL    HW2 2368   1.496   1.521   0.623
   80SOL     OW 2369   1.135   0.703   0.717
   80SOL    HW1 2370   1.192   0.781   0.692
   80SOL    HW2 2371   1.075   0.729   0.793
   81SOL     OW 2372   1.755   0.607   0.231
   81SOL    HW1 2373   1.743   0.594   0.132
   81SOL    HW2 2374   1.725   0.526   0.280
   82SOL     OW 2375   0.768   1.144   1.023
   82SOL    HW1 2376   0.690   1.161   1.083
   82SOL    HW2 2377   0.802   1.231   0.987
   83SOL     OW 2378   0.850   0.798   1.823
   83SOL    HW1 2379   0.846   0.874   1.888
   83SOL    HW2 2380   0.872   0.834   1.732
   84SOL     OW 2381   1.460   1.505   1.339
   84SOL    HW1 2382   1.484   1.599   1.365
   84SOL    HW2 2383   1.444   1.451   1.421
   85SOL     OW 2384   0.438   0.392   1.499
   85SOL    HW1 2385   0.520   0.336   1.508
   85SOL    HW2 2386   0.357   0.334   1.503
   86SOL     OW 2387   1.603   0.447   0.737
   86SOL    HW1 2388   1.529   0.493   0.687
   86SOL    HW2 2389   1.654   0.515   0.790
   87SOL     OW 2390   0.231   1.713   0.483
   87SOL    HW1 2391   0.265   1.790   0.537
   87SOL    HW2 2392   0.275   1.713   0.393
   88SOL     OW 2393   1.127   1.341   1.690
   88SOL    HW1 2394   1.174   1.341   1.778
   88SOL    HW2 2395   1.079   1.254   1.679
   89SOL     OW 2396   0.230   1.434   0.538
   89SOL    HW1 2397   0.204   1.530   0.538
   89SOL    HW2 2398   0.159   1.380   0.583
   90SOL     OW 2399   0.240   1.091   0.886
   90SOL    HW1 2400   0.254   1.007   0.938
   90SOL    HW2 2401   0.185   1.155   0.941
   91SOL     OW 2402   0.620   1.786   1.439
   91SOL    HW1 2403   0.528   1.769   1.474
   91SOL    HW2 2404   0.648   1.878   1.465
   92SOL     OW 2405   1.594   0.114   1.480
   92SOL    HW1 2406   1.576   0.181   1.408
   92SOL    HW2 2407   1.591   0.160   1.569
   93SOL     OW 2408   0.122   0.643   0.563
   93SOL    HW1 2409   0.077   0.555   0.580
   93SOL    HW2 2410   0.121   0.697   0.647
   94SOL     OW 2411   1.842   1.767   0.359
   94SOL    HW1 2412   1.896   1.738   0.439
   94SOL    HW2 2413   1.872   1.857   0.330
   95SOL     OW 2414   0.027   1.596   0.117
   95SOL    HW1 2415   0.008   1.500   0.138
   95SOL    HW2 2416  -0.006   1.654   0.192
   96SOL     OW 2417   1.689   0.922   0.612
   96SOL    HW1 2418   1.784   0.893   0.620
   96SOL    HW2 2419   1.681   0.987   0.537
   97SOL     OW 2420   1.641   1.108   0.432
   97SOL    HW1 2421   1.727   1.110   0.380
   97SOL    HW2 2422   1.655   1.155   0.520
   98SOL     OW 2423   0.113   0.737   1.597
   98SOL    HW1 2424   0.201   0.724   1.642
   98SOL    HW2 2425   0.100   0.834   1.575
   99SOL     OW 2426   1.293   1.228   1.423
   99SOL    HW1 2427   1.330   1.155   1.365
   99SOL    HW2 2428   1.345   1.233   1.508
  100SOL     OW 2429   0.809   0.004   0.502
  100SOL    HW1 2430   0.849   0.095   0.493
  100SOL    HW2 2431   0.709   0.012   0.508
  101SOL     OW 2432   1.525   0.999   0.190
  101SOL    HW1 2433   1.462   0.923   0.203
  101SOL    HW2 2434   1.573   1.017   0.276
  102SOL     OW 2435   1.187   1.792   1.616
  102SOL    HW1 2436   1.211   1.852   1.540
  102SOL    HW2 2437   1.194   1.697   1.586
  103SOL     OW 2438   0.317   0.251   1.801
  103SOL    HW1 2439   0.388   0.322   1.807
  103SOL    HW2 2440   0.229   0.290   1.829
  104SOL     OW 2441   1.466   1.417   0.953
  104SOL    HW1 2442   1.407   1.423   1.033
  104SOL    HW2 2443   1.451   1.329   0.907
  105SOL     OW 2444   1.667   1.714   0.572
  105SOL    HW1 2445   1.626   1.691   0.484
  105SOL    HW2 2446   1.649   1.640   0.637
  106SOL     OW 2447   0.598   0.729   0.270
  106SOL    HW1 2448   0.622   0.798   0.202
  106SOL    HW2 2449   0.520   0.762   0.324
  107SOL     OW 2450   1.281   0.345   0.944
  107SOL    HW1 2451   1.195   0.295   0.931
  107SOL    HW2 2452   1.343   0.291   1.000
  108SOL     OW 2453   1.576   1.662   0.307
  108SOL    HW1 2454   1.665   1.708   0.310
  108SOL    HW2 2455   1.555   1.638   0.212
  109SOL     OW 2456   0.807   0.605   1.465
  109SOL    HW1 2457   0.760   0.602   1.554
  109SOL    HW2 2458   0.756   0.550   1.399
  110SOL     OW 2459   1.394   0.469   1.674
  110SOL    HW1 2460   1.374   0.512   1.762
  110SOL    HW2 2461   1.472   0.407   1.683
  111SOL     OW 2462   0.973   0.890   1.572
  111SOL    HW1 2463   1.019   0.806   1.543
  111SOL    HW2 2464   0.917   0.924   1.497
  112SOL     OW 2465   1.041   0.701   0.429
  112SOL    HW1 2466   1.067   0.697   0.525
  112SOL    HW2 2467   0.956   0.650   0.415
  113SOL     OW 2468   0.076   0.811   0.789
  113SOL    HW1 2469   0.175   0.799   0.798
  113SOL    HW2 2470   0.052   0.906   0.810
  114SOL     OW 2471   0.130   1.821   1.571
  114SOL    HW1 2472   0.120   1.806   1.670
  114SOL    HW2 2473   0.044   1.857   1.535
  115SOL     OW 2474   0.865   0.348   0.195
  115SOL    HW1 2475   0.924   0.411   0.146
  115SOL    HW2 2476   0.884   0.254   0.166
  116SOL     OW 2477   1.719   0.585   1.831
  116SOL    HW1 2478   1.693   0.674   1.795
  116SOL    HW2 2479   1.717   0.517   1.758
  117SOL     OW 2480   0.351   1.801   0.853
  117SOL    HW1 2481   0.401   1.715   0.859
  117SOL    HW2 2482   0.416   1.878   0.850
  118SOL     OW 2483   1.795   1.066   0.873
  118SOL    HW1 2484   1.733   1.051   0.797
  118SOL    HW2 2485   1.743   1.077   0.958
  119SOL     OW 2486   1.227   1.550   1.506
  119SOL    HW1 2487   1.233   1.473   1.570
  119SOL    HW2 2488   1.175   1.524   1.426
  120SOL     OW 2489   1.458   0.735   0.728
  120SOL    HW1 2490   1.453   0.670   0.803
  120SOL    HW2 2491   1.538   0.794   0.741
  121SOL     OW 2492   0.202   0.285   1.498
  121SOL    HW1 2493   0.122   0.345   1.485
  121SOL    HW2 2494   0.192   0.236   1.584
  122SOL     OW 2495   1.632   1.377   0.081
  122SOL    HW1 2496   1.600   1.471   0.071
  122SOL    HW2 2497   1.556   1.314   0.069
  123SOL     OW 2498   0.464   1.743   0.323
  123SOL    HW1 2499   0.497   1.782   0.409
  123SOL    HW2 2500   0.540   1.736   0.258
  124SOL     OW 2501   1.400   0.107   0.426
  124SOL    HW1 2502   1.376   0.070   0.336
  124SOL    HW2 2503   1.499   0.123   0.430
  125SOL     OW 2504   0.940   1.698   0.904
  125SOL    HW1 2505   1.020   1.641   0.925
  125SOL    HW2 2506   0.891   1.658   0.827
  126SOL     OW 2507   0.382   0.700   0.480
  126SOL    HW1 2508   0.427   0.610   0.477
  126SOL    HW2 2509   0.288   0.689   0.513
  127SOL     OW 2510   1.547   0.222   1.729
  127SOL    HW1 2511   1.542   0.259   1.821
  127SOL    HW2 2512   1.475   0.153   1.717
  128SOL     OW 2513   0.614   0.122   0.117
  128SOL    HW1 2514   0.712   0.100   0.124
  128SOL    HW2 2515   0.583   0.105   0.024
  129SOL     OW 2516   0.888   1.514   1.195
  129SOL    HW1 2517   0.865   1.489   1.101
  129SOL    HW2 2518   0.949   1.445   1.234
  130SOL     OW 2519   1.351   0.590   1.433
  130SOL    HW1 2520   1.379   0.547   1.518
  130SOL    HW2 2521   1.376   0.686   1.434
  131SOL     OW 2522   0.803   1.402   0.924
  131SOL    HW1 2523   0.893   1.416   0.882
  131SOL    HW2 2524   0.732   1.404   0.853
  132SOL     OW 2525   0.922   0.503   0.899
  132SOL    HW1 2526   0.897   0.494   0.803
  132SOL    HW2 2527   0.970   0.421   0.930
  133SOL     OW 2528   0.539   0.064   0.512
  133SOL    HW1 2529   0.458   0.065   0.570
  133SOL    HW2 2530   0.542   0.147   0.457
  134SOL     OW 2531   1.434   1.188   0.041
  134SOL    HW1 2532   1.466   1.112   0.098
  134SOL    HW2 2533   1.342   1.215   0.071
  135SOL     OW 2534   0.297   0.035   0.171
  135SOL    HW1 2535   0.346   0.119   0.150
  135SOL    HW2 2536   0.359  -0.030   0.216
  136SOL     OW 2537   1.076   0.683   1.464
  136SOL    HW1 2538   0.996   0.622   1.467
  136SOL    HW2 2539   1.157   0.630   1.440
  137SOL     OW 2540   1.227   1.570   0.793
  137SOL    HW1 2541   1.248   1.644   0.728
  137SOL    HW2 2542   1.295   1.570   0.866
  138SOL     OW 2543   1.032   0.549   0.016
  138SOL    HW1 2544   0.991   0.631  -0.023
  138SOL    HW2 2545   1.096   0.575   0.089
  139SOL     OW 2546   0.078   0.556   1.386
  139SOL    HW1 2547   0.170   0.555   1.345
  139SOL    HW2 2548   0.072   0.630   1.453
  140SOL     OW 2549   1.429   1.173   0.867
  140SOL    HW1 2550   1.374   1.089   0.860
  140SOL    HW2 2551   1.455   1.202   0.775
  141SOL     OW 2552   1.466   0.590   0.992
  141SOL    HW1 2553   1.436   0.495   0.999
  141SOL    HW2 2554   1.539   0.606   1.058
  142SOL     OW 2555   1.857   0.833   0.377
  142SOL    HW1 2556   1.899   0.769   0.441
  142SOL    HW2 2557   1.819   0.782   0.299
  143SOL     OW 2558   0.488   1.385   0.174
  143SOL    HW1 2559   0.401   1.370   0.221
  143SOL    HW2 2560   0.471   1.411   0.079
  144SOL     OW 2561   1.664   1.280   0.657
  144SOL    HW1 2562   1.763   1.288   0.671
  144SOL    HW2 2563   1.619   1.364   0.688
  145SOL     OW 2564   1.390   0.575   0.078
  145SOL    HW1 2565   1.336   0.554   0.159
  145SOL    HW2 2566   1.481   0.534   0.087
  146SOL     OW 2567   0.527   0.256   0.328
  146SOL    HW1 2568   0.554   0.197   0.253
  146SOL    HW2 2569   0.527   0.351   0.297
  147SOL     OW 2570   1.754   1.223   1.588
  147SOL    HW1 2571   1.845   1.184   1.575
  147SOL    HW2 2572   1.762   1.319   1.612
  148SOL     OW 2573   1.064   1.347   1.340
  148SOL    HW1 2574   0.984   1.324   1.395
  148SOL    HW2 2575   1.147   1.321   1.389
  149SOL     OW 2576   1.592   1.629   1.625
  149SOL    HW1 2577   1.619   1.663   1.535
  149SOL    HW2 2578   1.671   1.591   1.671
  150SOL     OW 2579   1.111   1.195   1.100
  150SOL    HW1 2580   1.071   1.239   1.181
  150SOL    HW2 2581   1.070   1.232   1.017
  151SOL     OW 2582   1.638   1.099   1.079
  151SOL    HW1 2583   1.643   1.180   1.138
  151SOL    HW2 2584   1.552   1.101   1.028
  152SOL     OW 2585   0.915   0.089   1.402
  152SOL    HW1 2586   0.940   0.069   1.307
  152SOL    HW2 2587   0.987   0.145   1.444
  153SOL     OW 2588   0.980   1.116   1.719
  153SOL    HW1 2589   0.881   1.122   1.729
  153SOL    HW2 2590   1.003   1.036   1.663
  154SOL     OW 2591   0.410   0.813   1.251
  154SOL    HW1 2592   0.496   0.825   1.301
  154SOL    HW2 2593   0.368   0.726   1.278
  155SOL     OW 2594   1.274   0.386   1.262
  155SOL    HW1 2595   1.295   0.460   1.326
  155SOL    HW2 2596   1.185   0.403   1.219
  156SOL     OW 2597   0.064   1.564   1.331
  156SOL    HW1 2598   0.018   1.646   1.297
  156SOL    HW2 2599   0.162   1.583   1.340
  157SOL     OW 2600   0.367   1.100   0.501
  157SOL    HW1 2601   0.360   1.183   0.445
  157SOL    HW2 2602   0.371   1.020   0.441
  158SOL     OW 2603   1.272   1.445   1.142
  158SOL    HW1 2604   1.319   1.458   1.229
  158SOL    HW2 2605   1.206   1.371   1.151
  159SOL     OW 2606   1.582   0.639   0.472
  159SOL    HW1 2607   1.551   0.700   0.545
  159SOL    HW2 2608   1.632   0.691   0.403
  160SOL     OW 2609   0.354   1.510   1.329
  160SOL    HW1 2610   0.333   1.466   1.242
  160SOL    HW2 2611   0.451   1.536   1.332
  161SOL     OW 2612   0.402   0.751   1.598
  161SOL    HW1 2613   0.470   0.806   1.551
  161SOL    HW2 2614   0.442   0.663   1.625
  162SOL     OW 2615   1.587   0.779   1.670
  162SOL    HW1 2616   1.495   0.817   1.665
  162SOL    HW2 2617   1.647   0.826   1.605
  163SOL     OW 2618   1.013   0.105   1.770
  163SOL    HW1 2619   1.019   0.190   1.718
  163SOL    HW2 2620   1.045   0.029   1.713
  164SOL     OW 2621   0.504   0.050   1.740
  164SOL    HW1 2622   0.462  -0.007   1.670
  164SOL    HW2 2623   0.438   0.119   1.772
  165SOL     OW 2624   1.360   0.862   1.045
  165SOL    HW1 2625   1.285   0.862   0.979
  165SOL    HW2 2626   1.397   0.770   1.054
  166SOL     OW 2627   1.209   0.525   0.275
  166SOL    HW1 2628   1.222   0.441   0.329
  166SOL    HW2 2629   1.180   0.599   0.335
  167SOL     OW 2630   1.728   0.935   1.854
  167SOL    HW1 2631   1.682   0.928   1.765
  167SOL    HW2 2632   1.666   0.979   1.920
  168SOL     OW 2633   0.307   0.063   0.618
  168SOL    HW1 2634   0.296   0.157   0.651
  168SOL    HW2 2635   0.302   0.000   0.695
  169SOL     OW 2636   1.622   0.367   0.374
  169SOL    HW1 2637   1.624   0.291   0.438
  169SOL    HW2 2638   1.574   0.444   0.414
  170SOL     OW 2639   0.980   1.573   1.700
  170SOL    HW1 2640   0.960   1.617   1.612
  170SOL    HW2 2641   1.019   1.482   1.684
  171SOL     OW 2642   1.859   1.518   1.605
  171SOL    HW1 2643   1.873   1.545   1.510
  171SOL    HW2 2644   1.942   1.540   1.658
  172SOL     OW 2645   0.350   0.898   1.804
  172SOL    HW1 2646   0.426   0.942   1.852
  172SOL    HW2 2647   0.385   0.851   1.722
  173SOL     OW 2648   1.540   0.274   0.125
  173SOL    HW1 2649   1.479   0.199   0.148
  173SOL    HW2 2650   1.562   0.326   0.208
  174SOL     OW 2651   1.303   0.838   0.042
  174SOL    HW1 2652   1.337   0.745   0.057
  174SOL    HW2 2653   1.321   0.865  -0.053
  175SOL     OW 2654   1.068   1.333   0.849
  175SOL    HW1 2655   1.075   1.249   0.794
  175SOL    HW2 2656   1.130   1.402   0.813
  176SOL     OW 2657   1.138   0.380   1.678
  176SOL    HW1 2658   1.093   0.443   1.742
  176SOL    HW2 2659   1.231   0.411   1.661
  177SOL     OW 2660   1.160   0.207   1.477
  177SOL    HW1 2661   1.160   0.271   1.554
  177SOL    HW2 2662   1.188   0.255   1.394
  178SOL     OW 2663   0.008   1.326   0.200
  178SOL    HW1 2664  -0.085   1.347   0.169
  178SOL    HW2 2665   0.018   1.227   0.213
  179SOL     OW 2666   0.504   1.568   0.910
  179SOL    HW1 2667   0.570   1.642   0.919
  179SOL    HW2 2668   0.548   1.489   0.868
  180SOL     OW 2669   1.002   0.796   1.238
  180SOL    HW1 2670   1.043   0.764   1.324
  180SOL    HW2 2671   0.906   0.769   1.235
  181SOL     OW 2672   0.189   0.520   1.722
  181SOL    HW1 2673   0.248   0.480   1.652
  181SOL    HW2 2674   0.131   0.591   1.681
  182SOL     OW 2675   1.369   0.950   1.660
  182SOL    HW1 2676   1.408   1.039   1.680
  182SOL    HW2 2677   1.379   0.930   1.563
  183SOL     OW 2678   0.815   0.572   0.325
  183SOL    HW1 2679   0.822   0.483   0.279
  183SOL    HW2 2680   0.721   0.606   0.317
  184SOL     OW 2681   1.657   0.604   1.206
  184SOL    HW1 2682   1.619   0.535   1.268
  184SOL    HW2 2683   1.739   0.568   1.162
  185SOL     OW 2684   0.252   1.564   1.744
  185SOL    HW1 2685   0.222   1.621   1.820
  185SOL    HW2 2686   0.245   1.467   1.770
  186SOL     OW 2687   0.930   1.678   1.465
  186SOL    HW1 2688   0.906   1.660   1.370
  186SOL    HW2 2689   0.960   1.772   1.475
  187SOL     OW 2690   0.473   0.500   0.191
  187SOL    HW1 2691   0.534   0.580   0.195
  187SOL    HW2 2692   0.378   0.531   0.198
  188SOL     OW 2693   1.347   1.059   1.234
  188SOL    HW1 2694   1.371   0.996   1.160
  188SOL    HW2 2695   1.257   1.099   1.216
  189SOL     OW 2696   1.302   0.855   0.309
  189SOL    HW1 2697   1.216   0.824   0.351
  189SOL    HW2 2698   1.298   0.841   0.210
  190SOL     OW 2699   1.759   1.747   1.154
  190SOL    HW1 2700   1.820   1.777   1.081
  190SOL    HW2 2701   1.721   1.658   1.132
  191SOL     OW 2702   1.252   1.731   1.128
  191SOL    HW1 2703   1.336   1.736   1.074
  191SOL    HW2 2704   1.229   1.635   1.146
  192SOL     OW 2705   0.688   1.662   1.716
  192SOL    HW1 2706   0.632   1.743   1.725
  192SOL    HW2 2707   0.740   1.666   1.630
  193SOL     OW 2708   0.903   0.086   0.133
  193SOL    HW1 2709   0.954   0.087   0.047
  193SOL    HW2 2710   0.959   0.044   0.204
  194SOL     OW 2711   1.726   0.135   0.523
  194SOL    HW1 2712   1.799   0.118   0.456
  194SOL    HW2 2713   1.695   0.048   0.561
  195SOL     OW 2714   0.130   1.794   1.851
  195SOL    HW1 2715   0.089   1.720   1.904
  195SOL    HW2 2716   0.194   1.845   1.909
  196SOL     OW 2717   0.830   1.273   1.422
  196SOL    HW1 2718   0.825   1.306   1.517
  196SOL    HW2 2719   0.744   1.292   1.376
  197SOL     OW 2720   0.672   1.616   0.154
  197SOL    HW1 2721   0.681   1.626   0.055
  197SOL    HW2 2722   0.632   1.527   0.175
  198SOL     OW 2723   1.650   1.720   1.394
  198SOL    HW1 2724   1.703   1.730   1.310
  198SOL    HW2 2725   1.623   1.810   1.428
  199SOL     OW 2726   1.841   0.175   0.963
  199SOL    HW1 2727   1.880   0.090   0.927
  199SOL    HW2 2728   1.743   0.177   0.944
  200SOL     OW 2729   0.263   0.326   0.720
  200SOL    HW1 2730   0.184   0.377   0.686
  200SOL    HW2 2731   0.254   0.311   0.818
  201SOL     OW 2732   1.194   1.612   0.031
  201SOL    HW1 2733   1.200   1.519   0.068
  201SOL    HW2 2734   1.135   1.612  -0.049
  202SOL     OW 2735   0.916   0.910   0.291
  202SOL    HW1 2736   0.979   0.948   0.223
  202SOL    HW2 2737   0.956   0.827   0.330
  203SOL     OW 2738   1.504   1.607   0.044
  203SOL    HW1 2739   1.412   1.644   0.051
  203SOL    HW2 2740   1.542   1.627  -0.046
  204SOL     OW 2741   1.614   1.292   1.289
  204SOL    HW1 2742   1.674   1.295   1.369
  204SOL    HW2 2743   1.539   1.356   1.302
  205SOL     OW 2744   1.039   1.098   0.696
  205SOL    HW1 2745   0.969   1.051   0.750
  205SOL    HW2 2746   1.098   1.030   0.653
  206SOL     OW 2747   0.590   1.487   0.491
  206SOL    HW1 2748   0.632   1.429   0.421
  206SOL    HW2 2749   0.546   1.566   0.447
  207SOL     OW 2750   1.709   0.385   1.381
  207SOL    HW1 2751   1.782   0.454   1.385
  207SOL    HW2 2752   1.737   0.310   1.322
  208SOL     OW 2753   0.255   1.348   0.290
  208SOL    HW1 2754   0.159   1.349   0.263
  208SOL    HW2 2755   0.267   1.401   0.374
  209SOL     OW 2756   0.105   1.013   1.726
  209SOL    HW1 2757   0.028   0.980   1.780
  209SOL    HW2 2758   0.190   0.983   1.768
  210SOL     OW 2759   0.672   0.203   1.489
  210SOL    HW1 2760   0.762   0.187   1.449
  210SOL    HW2 2761   0.680   0.208   1.588
  211SOL     OW 2762   0.075   0.345   0.033
  211SOL    HW1 2763  -0.017   0.317   0.004
  211SOL    HW2 2764   0.106   0.422  -0.023
  212SOL     OW 2765   1.440   0.856   1.398
  212SOL    HW1 2766   1.383   0.908   1.335
  212SOL    HW2 2767   1.536   0.868   1.374
  213SOL     OW 2768   0.072   0.166   0.318
  213SOL    HW1 2769   0.055   0.249   0.264
  213SOL    HW2 2770   0.162   0.129   0.296
  214SOL     OW 2771   0.613   0.842   1.431
  214SOL    HW1 2772   0.669   0.923   1.414
  214SOL    HW2 2773   0.672   0.762   1.434
  215SOL     OW 2774   1.493   1.767   0.959
  215SOL    HW1 2775   1.526   1.831   0.890
  215SOL    HW2 2776   1.559   1.761   1.034
  216SOL     OW 2777   1.450   1.220   1.633
  216SOL    HW1 2778   1.441   1.210   1.732
  216SOL    HW2 2779   1.546   1.213   1.607
  217SOL     OW 2780   0.390   1.741   1.560
  217SOL    HW1 2781   0.299   1.782   1.558
  217SOL    HW2 2782   0.383   1.647   1.592
  218SOL     OW 2783   1.674   0.883   1.254
  218SOL    HW1 2784   1.647   0.794   1.217
  218SOL    HW2 2785   1.675   0.951   1.181
  219SOL     OW 2786   1.777   0.342   1.642
  219SOL    HW1 2787   1.760   0.373   1.548
  219SOL    HW2 2788   1.693   0.305   1.680
  220SOL     OW 2789   1.730   0.934   1.517
  220SOL    HW1 2790   1.768   1.025   1.532
  220SOL    HW2 2791   1.722   0.917   1.418
  221SOL     OW 2792   0.661   1.790   0.953
  221SOL    HW1 2793   0.615   1.878   0.940
  221SOL    HW2 2794   0.760   1.802   0.946
  222SOL     OW 2795   1.083   0.984   0.087
  222SOL    HW1 2796   1.060   1.037   0.005
  222SOL    HW2 2797   1.164   0.928   0.068
  223SOL     OW 2798   1.861   1.569   0.851
  223SOL    HW1 2799   1.790   1.557   0.781
  223SOL    HW2 2800   1.862   1.490   0.911
  224SOL     OW 2801   0.672   1.391   1.624
  224SOL    HW1 2802   0.594   1.341   1.662
  224SOL    HW2 2803   0.669   1.486   1.655
  225SOL     OW 2804   1.824   0.192   1.227
  225SOL    HW1 2805   1.820   0.102   1.271
  225SOL    HW2 2806   1.827   0.181   1.128
  226SOL     OW 2807   0.428   0.424   0.520
  226SOL    HW1 2808   0.458   0.352   0.458
  226SOL    HW2 2809   0.389   0.384   0.603
  227SOL     OW 2810   1.705   1.487   1.104
  227SOL    HW1 2811   1.612   1.462   1.077
  227SOL    HW2 2812   1.731   1.437   1.186
  228SOL     OW 2813   1.424   0.214   1.112
  228SOL    HW1 2814   1.476   0.149   1.167
  228SOL    HW2 2815   1.375   0.277   1.173
  229SOL     OW 2816   0.618   1.567   1.284
  229SOL    HW1 2817   0.613   1.649   1.341
  229SOL    HW2 2818   0.707   1.564   1.239
  230SOL     OW 2819   1.352   0.052   0.168
  230SOL    HW1 2820   1.387   0.011   0.084
  230SOL    HW2 2821   1.262   0.014   0.188
  231SOL     OW 2822   1.300   0.453   0.691
  231SOL    HW1 2823   1.241   0.533   0.695
  231SOL    HW2 2824   1.315   0.418   0.784
  232SOL     OW 2825   1.593   0.221   0.882
  232SOL    HW1 2826   1.509   0.220   0.936
  232SOL    HW2 2827   1.595   0.304   0.826
  233SOL     OW 2828   0.039   1.077   0.300
  233SOL    HW1 2829   0.138   1.066   0.291
  233SOL    HW2 2830  -0.001   0.991   0.332
  234SOL     OW 2831   0.230   0.628   1.975
  234SOL    HW1 2832   0.137   0.626   2.012
  234SOL    HW2 2833   0.231   0.589   1.883
  235SOL     OW 2834   0.225   0.275   2.858
  235SOL    HW1 2835   0.260   0.258   2.950
  235SOL    HW2 2836   0.137   0.230   2.846
  236SOL     OW 2837   0.019   0.368   2.509
  236SOL    HW1 2838  -0.063   0.411   2.548
  236SOL    HW2 2839  -0.009   0.295   2.446
  237SOL     OW 2840   0.569   1.275   3.027
  237SOL    HW1 2841   0.476   1.268   2.990
  237SOL    HW2 2842   0.580   1.364   3.071
  238SOL     OW 2843   1.135   0.703   2.579
  238SOL    HW1 2844   1.192   0.781   2.554
  238SOL    HW2 2845   1.075   0.729   2.655
  239SOL     OW 2846   1.755   0.607   2.093
  239SOL    HW1 2847   1.743   0.594   1.994
  239SOL    HW2 2848   1.725   0.526   2.142
  240SOL     OW 2849   0.768   1.144   2.885
  240SOL    HW1 2850   0.690   1.161   2.945
  240SOL    HW2 2851   0.802   1.231   2.849
  241SOL     OW 2852   0.850   0.798   3.685
  241SOL    HW1 2853   0.846   0.874   3.750
  241SOL    HW2 2854   0.872   0.834   3.594
  242SOL     OW 2855   0.685   1.012   2.527
  242SOL    HW1 2856   0.754   0.996   2.597
  242SOL    HW2 2857   0.612   1.069   2.565
  243SOL     OW 2858   0.335   1.435   2.923
  243SOL    HW1 2859   0.257   1.404   2.870
  243SOL    HW2 2860   0.393   1.493   2.866
  244SOL     OW 2861   1.460   1.505   3.201
  244SOL    HW1 2862   1.484   1.599   3.227
  244SOL    HW2 2863   1.444   1.451   3.283
  245SOL     OW 2864   0.438   0.392   3.361
  245SOL    HW1 2865   0.520   0.336   3.370
  245SOL    HW2 2866   0.357   0.334   3.365
  246SOL     OW 2867   1.603   0.447   2.599
  246SOL    HW1 2868   1.529   0.493   2.549
  246SOL    HW2 2869   1.654   0.515   2.652
  247SOL     OW 2870   0.231   1.713   2.345
  247SOL    HW1 2871   0.265   1.790   2.399
  247SOL    HW2 2872   0.275   1.713   2.255
  248SOL     OW 2873   1.127   1.341   3.552
  248SOL    HW1 2874   1.174   1.341   3.640
  248SOL    HW2 2875   1.079   1.254   3.541
  249SOL     OW 2876   0.230   1.434   2.400
  249SOL    HW1 2877   0.204   1.530   2.400
  249SOL    HW2 2878   0.159   1.380   2.445
  250SOL     OW 2879   0.240   1.091   2.748
  250SOL    HW1 2880   0.254   1.007   2.800
  250SOL    HW2 2881   0.185   1.155   2.803
  251SOL     OW 2882   0.620   1.786   3.301
  251SOL    HW1 2883   0.528   1.769   3.336
  251SOL    HW2 2884   0.648   1.878   3.327
  252SOL     OW 2885   1.594   0.114   3.342
  252SOL    HW1 2886   1.576   0.181   3.270
  252SOL    HW2 2887   1.591   0.160   3.431
  253SOL     OW 2888   0.122   0.643   2.425
  253SOL    HW1 2889   0.077   0.555   2.442
  253SOL    HW2 2890   0.121   0.697   2.509
  254SOL     OW 2891   1.842   1.767   2.221
  254SOL    HW1 2892   1.896   1.738   2.301
  254SOL    HW2 2893   1.872   1.857   2.192
  255SOL     OW 2894   0.027   1.596   1.979
  255SOL    HW1 2895   0.008   1.500   2.000
  255SOL    HW2 2896  -0.006   1.654   2.054
  256SOL     OW 2897   1.689   0.922   2.474
  256SOL    HW1 2898   1.784   0.893   2.482
  256SOL    HW2 2899   1.681   0.987   2.399
  257SOL     OW 2900   1.641   1.108   2.294
  257SOL    HW1 2901   1.727   1.110   2.242
  257SOL    HW2 2902   1.655   1.155   2.382
  258SOL     OW 2903   0.113   0.737   3.459
  258SOL    HW1 2904   0.201   0.724   3.504
  258SOL    HW2 2905   0.100   0.834   3.437
  259SOL     OW 2906   0.613   1.365   2.588
  259SOL    HW1 2907   0.564   1.278   2.597
  259SOL    HW2 2908   0.590   1.408   2.501
  260SOL     OW 2909   1.293   1.228   3.285
  260SOL    HW1 2910   1.330   1.155   3.227
  260SOL    HW2 2911   1.345   1.233   3.370
  261SOL     OW 2912   0.809   0.004   2.364
  261SOL    HW1 2913   0.849   0.095   2.355
  261SOL    HW2 2914   0.709   0.012   2.370
  262SOL     OW 2915   0.197   0.976   3.126
  262SOL    HW1 2916   0.286   0.931   3.112
  262SOL    HW2 2917   0.124   0.911   3.107
  263SOL     OW 2918   1.525   0.999   2.052
  263SOL    HW1 2919   1.462   0.923   2.065
  263SOL    HW2 2920   1.573   1.017   2.138
  264SOL     OW 2921   1.187   1.792   3.478
  264SOL    HW1 2922   1.211   1.852   3.402
  264SOL    HW2 2923   1.194   1.697   3.448
  265SOL     OW 2924   0.317   0.251   3.663
  265SOL    HW1 2925   0.388   0.322   3.669
  265SOL    HW2 2926   0.229   0.290   3.691
  266SOL     OW 2927   1.466   1.417   2.815
  266SOL    HW1 2928   1.407   1.423   2.895
  266SOL    HW2 2929   1.451   1.329   2.769
  267SOL     OW 2930   1.667   1.714   2.434
  267SOL    HW1 2931   1.626   1.691   2.346
  267SOL    HW2 2932   1.649   1.640   2.499
  268SOL     OW 2933   0.598   0.729   2.132
  268SOL    HW1 2934   0.622   0.798   2.064
  268SOL    HW2 2935   0.520   0.762   2.186
  269SOL     OW 2936   1.281   0.345   2.806
  269SOL    HW1 2937   1.195   0.295   2.793
  269SOL    HW2 2938   1.343   0.291   2.862
  270SOL     OW 2939   1.576   1.662   2.169
  270SOL    HW1 2940   1.665   1.708   2.172
  270SOL    HW2 2941   1.555   1.638   2.074
  271SOL     OW 2942   0.807   0.605   3.327
  271SOL    HW1 2943   0.760   0.602   3.416
  271SOL    HW2 2944   0.756   0.550   3.261
  272SOL     OW 2945   1.394   0.469   3.536
  272SOL    HW1 2946   1.374   0.512   3.624
  272SOL    HW2 2947   1.472   0.407   3.545
  273SOL     OW 2948   0.973   0.890   3.434
  273SOL    HW1 2949   1.019   0.806   3.405
  273SOL    HW2 2950   0.917   0.924   3.359
  274SOL     OW 2951   0.991   0.410   3.104
  274SOL    HW1 2952   0.914   0.444   3.158
  274SOL    HW2 2953   0.957   0.359   3.025
  275SOL     OW 2954   1.041   0.701   2.291
  275SOL    HW1 2955   1.067   0.697   2.387
  275SOL    HW2 2956   0.956   0.650   2.277
  276SOL     OW 2957   0.076   0.811   2.651
  276SOL    HW1 2958   0.175   0.799   2.660
  276SOL    HW2 2959   0.052   0.906   2.672
  277SOL     OW 2960   0.130   1.821   3.433
  277SOL    HW1 2961   0.120   1.806   3.532
  277SOL    HW2 2962   0.044   1.857   3.397
  278SOL     OW 2963   1.719   0.585   3.693
  278SOL    HW1 2964   1.693   0.674   3.657
  278SOL    HW2 2965   1.717   0.517   3.620
  279SOL     OW 2966   1.362   1.144   2.407
  279SOL    HW1 2967   1.445   1.115   2.359
  279SOL    HW2 2968   1.313   1.211   2.351
  280SOL     OW 2969   0.550   0.196   2.747
  280SOL    HW1 2970   0.545   0.191   2.847
  280SOL    HW2 2971   0.552   0.292   2.718
  281SOL     OW 2972   0.351   1.801   2.715
  281SOL    HW1 2973   0.401   1.715   2.721
  281SOL    HW2 2974   0.416   1.878   2.712
  282SOL     OW 2975   1.795   1.066   2.735
  282SOL    HW1 2976   1.733   1.051   2.659
  282SOL    HW2 2977   1.743   1.077   2.820
  283SOL     OW 2978   1.227   1.550   3.368
  283SOL    HW1 2979   1.233   1.473   3.432
  283SOL    HW2 2980   1.175   1.524   3.288
  284SOL     OW 2981   1.458   0.735   2.590
  284SOL    HW1 2982   1.453   0.670   2.665
  284SOL    HW2 2983   1.538   0.794   2.603
  285SOL     OW 2984   1.111   1.776   2.099
  285SOL    HW1 2985   1.051   1.714   2.149
  285SOL    HW2 2986   1.142   1.732   2.014
  286SOL     OW 2987   0.202   0.285   3.360
  286SOL    HW1 2988   0.122   0.345   3.347
  286SOL    HW2 2989   0.192   0.236   3.446
  287SOL     OW 2990   1.632   1.377   1.943
  287SOL    HW1 2991   1.600   1.471   1.933
  287SOL    HW2 2992   1.556   1.314   1.931
  288SOL     OW 2993   0.464   1.743   2.185
  288SOL    HW1 2994   0.497   1.782   2.271
  288SOL    HW2 2995   0.540   1.736   2.120
  289SOL     OW 2996   0.249   1.785   3.103
  289SOL    HW1 2997   0.306   1.720   3.153
  289SOL    HW2 2998   0.233   1.752   3.010
  290SOL     OW 2999   0.940   1.698   2.766
  290SOL    HW1 3000   1.020   1.641   2.787
  290SOL    HW2 3001   0.891   1.658   2.689
  291SOL     OW 3002   0.382   0.700   2.342
  291SOL    HW1 3003   0.427   0.610   2.339
  291SOL    HW2 3004   0.288   0.689   2.375
  292SOL     OW 3005   1.547   0.222   3.591
  292SOL    HW1 3006   1.542   0.259   3.683
  292SOL    HW2 3007   1.475   0.153   3.579
  293SOL     OW 3008   0.614   0.122   1.979
  293SOL    HW1 3009   0.712   0.100   1.986
  293SOL    HW2 3010   0.583   0.105   1.886
  294SOL     OW 3011   0.781   0.264   3.611
  294SOL    HW1 3012   0.848   0.203   3.654
  294SOL    HW2 3013   0.708   0.283   3.676
  295SOL     OW 3014   0.888   1.514   3.057
  295SOL    HW1 3015   0.865   1.489   2.963
  295SOL    HW2 3016   0.949   1.445   3.096
  296SOL     OW 3017   1.351   0.590   3.295
  296SOL    HW1 3018   1.379   0.547   3.380
  296SOL    HW2 3019   1.376   0.686   3.296
  297SOL     OW 3020   0.922   0.503   2.761
  297SOL    HW1 3021   0.897   0.494   2.665
  297SOL    HW2 3022   0.970   0.421   2.792
  298SOL     OW 3023   0.539   0.064   2.374
  298SOL    HW1 3024   0.458   0.065   2.432
  298SOL    HW2 3025   0.542   0.147   2.319
  299SOL     OW 3026   1.434   1.188   1.903
  299SOL    HW1 3027   1.466   1.112   1.960
  299SOL    HW2 3028   1.342   1.215   1.933
  300SOL     OW 3029   0.297   0.035   2.033
  300SOL    HW1 3030   0.346   0.119   2.012
  300SOL    HW2 3031   0.359  -0.030   2.078
  301SOL     OW 3032   0.935   0.236   2.342
  301SOL    HW1 3033   0.887   0.277   2.264
  301SOL    HW2 3034   1.034   0.234   2.323
  302SOL     OW 3035   1.076   0.683   3.326
  302SOL    HW1 3036   0.996   0.622   3.329
  302SOL    HW2 3037   1.157   0.630   3.302
  303SOL     OW 3038   0.459   1.152   2.603
  303SOL    HW1 3039   0.388   1.125   2.668
  303SOL    HW2 3040   0.433   1.124   2.510
  304SOL     OW 3041   0.078   0.556   3.248
  304SOL    HW1 3042   0.170   0.555   3.207
  304SOL    HW2 3043   0.072   0.630   3.315
  305SOL     OW 3044   0.561   0.222   3.009
  305SOL    HW1 3045   0.599   0.138   3.046
  305SOL    HW2 3046   0.473   0.241   3.053
  306SOL     OW 3047   0.866   0.454   2.504
  306SOL    HW1 3048   0.834   0.526   2.442
  306SOL    HW2 3049   0.890   0.373   2.451
  307SOL     OW 3050   1.017   0.039   2.615
  307SOL    HW1 3051   0.945   0.044   2.546
  307SOL    HW2 3052   0.993  -0.030   2.684
  308SOL     OW 3053   1.466   0.590   2.854
  308SOL    HW1 3054   1.436   0.495   2.861
  308SOL    HW2 3055   1.539   0.606   2.920
  309SOL     OW 3056   1.857   0.833   2.239
  309SOL    HW1 3057   1.899   0.769   2.303
  309SOL    HW2 3058   1.819   0.782   2.161
  310SOL     OW 3059   0.488   1.385   2.036
  310SOL    HW1 3060   0.401   1.370   2.083
  310SOL    HW2 3061   0.471   1.411   1.941
  311SOL     OW 3062   1.390   0.575   1.940
  311SOL    HW1 3063   1.336   0.554   2.021
  311SOL    HW2 3064   1.481   0.534   1.949
  312SOL     OW 3065   0.527   0.256   2.190
  312SOL    HW1 3066   0.554   0.197   2.115
  312SOL    HW2 3067   0.527   0.351   2.159
  313SOL     OW 3068   1.754   1.223   3.450
  313SOL    HW1 3069   1.845   1.184   3.437
  313SOL    HW2 3070   1.762   1.319   3.474
  314SOL     OW 3071   1.064   1.347   3.202
  314SOL    HW1 3072   0.984   1.324   3.257
  314SOL    HW2 3073   1.147   1.321   3.251
  315SOL     OW 3074   1.592   1.629   3.487
  315SOL    HW1 3075   1.619   1.663   3.397
  315SOL    HW2 3076   1.671   1.591   3.533
  316SOL     OW 3077   1.111   1.195   2.962
  316SOL    HW1 3078   1.071   1.239   3.043
  316SOL    HW2 3079   1.070   1.232   2.879
  317SOL     OW 3080   1.638   1.099   2.941
  317SOL    HW1 3081   1.643   1.180   3.000
  317SOL    HW2 3082   1.552   1.101   2.890
  318SOL     OW 3083   0.915   0.089   3.264
  318SOL    HW1 3084   0.940   0.069   3.169
  318SOL    HW2 3085   0.987   0.145   3.306
  319SOL     OW 3086   0.980   1.116   3.581
  319SOL    HW1 3087   0.881   1.122   3.591
  319SOL    HW2 3088   1.003   1.036   3.525
  320SOL     OW 3089   0.410   0.813   3.113
  320SOL    HW1 3090   0.496   0.825   3.163
  320SOL    HW2 3091   0.368   0.726   3.140
  321SOL     OW 3092   1.274   0.386   3.124
  321SOL    HW1 3093   1.295   0.460   3.188
  321SOL    HW2 3094   1.185   0.403   3.081
  322SOL     OW 3095   0.064   1.564   3.193
  322SOL    HW1 3096   0.018   1.646   3.159
  322SOL    HW2 3097   0.162   1.583   3.202
  323SOL     OW 3098   0.566   0.537   2.727
  323SOL    HW1 3099   0.578   0.603   2.653
  323SOL    HW2 3100   0.612   0.571   2.810
  324SOL     OW 3101   1.272   1.445   3.004
  324SOL    HW1 3102   1.319   1.458   3.091
  324SOL    HW2 3103   1.206   1.371   3.013
  325SOL     OW 3104   1.582   0.639   2.334
  325SOL    HW1 3105   1.551   0.700   2.407
  325SOL    HW2 3106   1.632   0.691   2.265
  326SOL     OW 3107   0.354   1.510   3.191
  326SOL    HW1 3108   0.333   1.466   3.104
  326SOL    HW2 3109   0.451   1.536   3.194
  327SOL     OW 3110   0.402   0.751   3.460
  327SOL    HW1 3111   0.470   0.806   3.413
  327SOL    HW2 3112   0.442   0.663   3.487
  328SOL     OW 3113   1.587   0.779   3.532
  328SOL    HW1 3114   1.495   0.817   3.527
  328SOL    HW2 3115   1.647   0.826   3.467
  329SOL     OW 3116   1.013   0.105   3.632
  329SOL    HW1 3117   1.019   0.190   3.580
  329SOL    HW2 3118   1.045   0.029   3.575
  330SOL     OW 3119   0.504   0.050   3.602
  330SOL    HW1 3120   0.462  -0.007   3.532
  330SOL    HW2 3121   0.438   0.119   3.634
  331SOL     OW 3122   0.573   0.870   2.891
  331SOL    HW1 3123   0.617   0.959   2.882
  331SOL    HW2 3124   0.510   0.870   2.968
  332SOL     OW 3125   1.360   0.862   2.907
  332SOL    HW1 3126   1.285   0.862   2.841
  332SOL    HW2 3127   1.397   0.770   2.916
  333SOL     OW 3128   0.307   0.213   3.093
  333SOL    HW1 3129   0.284   0.250   3.183
  333SOL    HW2 3130   0.277   0.118   3.087
  334SOL     OW 3131   0.037   1.310   3.144
  334SOL    HW1 3132   0.090   1.261   3.212
  334SOL    HW2 3133   0.059   1.408   3.149
  335SOL     OW 3134   0.732   0.634   2.926
  335SOL    HW1 3135   0.791   0.608   2.850
  335SOL    HW2 3136   0.704   0.730   2.915
  336SOL     OW 3137   1.728   0.935   3.716
  336SOL    HW1 3138   1.682   0.928   3.627
  336SOL    HW2 3139   1.666   0.979   3.782
  337SOL     OW 3140   0.307   0.063   2.480
  337SOL    HW1 3141   0.296   0.157   2.513
  337SOL    HW2 3142   0.302   0.000   2.557
  338SOL     OW 3143   1.622   0.367   2.236
  338SOL    HW1 3144   1.624   0.291   2.300
  338SOL    HW2 3145   1.574   0.444   2.276
  339SOL     OW 3146   1.023   0.766   2.828
  339SOL    HW1 3147   1.038   0.787   2.924
  339SOL    HW2 3148   0.993   0.671   2.819
  340SOL     OW 3149   0.980   1.573   3.562
  340SOL    HW1 3150   0.960   1.617   3.474
  340SOL    HW2 3151   1.019   1.482   3.546
  341SOL     OW 3152   1.859   1.518   3.467
  341SOL    HW1 3153   1.873   1.545   3.372
  341SOL    HW2 3154   1.942   1.540   3.520
  342SOL     OW 3155   0.350   0.898   3.666
  342SOL    HW1 3156   0.426   0.942   3.714
  342SOL    HW2 3157   0.385   0.851   3.584
  343SOL     OW 3158   1.540   0.274   1.987
  343SOL    HW1 3159   1.479   0.199   2.010
  343SOL    HW2 3160   1.562   0.326   2.070
  344SOL     OW 3161   1.303   0.838   1.904
  344SOL    HW1 3162   1.337   0.745   1.919
  344SOL    HW2 3163   1.321   0.865   1.809
  345SOL     OW 3164   1.068   1.333   2.711
  345SOL    HW1 3165   1.075   1.249   2.656
  345SOL    HW2 3166   1.130   1.402   2.675
  346SOL     OW 3167   0.319   0.810   2.811
  346SOL    HW1 3168   0.412   0.846   2.816
  346SOL    HW2 3169   0.313   0.725   2.863
  347SOL     OW 3170   0.339   0.509   2.868
  347SOL    HW1 3171   0.287   0.426   2.851
  347SOL    HW2 3172   0.416   0.514   2.804
  348SOL     OW 3173   1.138   0.380   3.540
  348SOL    HW1 3174   1.093   0.443   3.604
  348SOL    HW2 3175   1.231   0.411   3.523
  349SOL     OW 3176   1.160   0.207   3.339
  349SOL    HW1 3177   1.160   0.271   3.416
  349SOL    HW2 3178   1.188   0.255   3.256
  350SOL     OW 3179   0.008   1.326   2.062
  350SOL    HW1 3180  -0.085   1.347   2.031
  350SOL    HW2 3181   0.018   1.227   2.075
  351SOL     OW 3182   0.088   1.801   2.789
  351SOL    HW1 3183   0.046   1.715   2.762
  351SOL    HW2 3184   0.182   1.804   2.755
  352SOL     OW 3185   0.504   1.568   2.772
  352SOL    HW1 3186   0.570   1.642   2.781
  352SOL    HW2 3187   0.548   1.489   2.730
  353SOL     OW 3188   1.002   0.796   3.100
  353SOL    HW1 3189   1.043   0.764   3.186
  353SOL    HW2 3190   0.906   0.769   3.097
  354SOL     OW 3191   0.040   0.544   2.976
  354SOL    HW1 3192   0.125   0.511   2.935
  354SOL    HW2 3193   0.053   0.559   3.074
  355SOL     OW 3194   0.189   0.520   3.584
  355SOL    HW1 3195   0.248   0.480   3.514
  355SOL    HW2 3196   0.131   0.591   3.543
  356SOL     OW 3197   1.369   0.950   3.522
  356SOL    HW1 3198   1.408   1.039   3.542
  356SOL    HW2 3199   1.379   0.930   3.425
  357SOL     OW 3200   1.657   0.604   3.068
  357SOL    HW1 3201   1.619   0.535   3.130
  357SOL    HW2 3202   1.739   0.568   3.024
  358SOL     OW 3203   0.671   0.464   3.131
  358SOL    HW1 3204   0.637   0.375   3.101
  358SOL    HW2 3205   0.697   0.518   3.051
  359SOL     OW 3206   0.930   1.678   3.327
  359SOL    HW1 3207   0.906   1.660   3.232
  359SOL    HW2 3208   0.960   1.772   3.337
  360SOL     OW 3209   0.473   0.500   2.053
  360SOL    HW1 3210   0.534   0.580   2.057
  360SOL    HW2 3211   0.378   0.531   2.060
  361SOL     OW 3212   0.159   1.137   3.328
  361SOL    HW1 3213   0.181   1.076   3.404
  361SOL    HW2 3214   0.169   1.088   3.242
  362SOL     OW 3215   1.347   1.059   3.096
  362SOL    HW1 3216   1.371   0.996   3.022
  362SOL    HW2 3217   1.257   1.099   3.078
  363SOL     OW 3218   1.302   0.855   2.171
  363SOL    HW1 3219   1.216   0.824   2.213
  363SOL    HW2 3220   1.298   0.841   2.072
  364SOL     OW 3221   1.759   1.747   3.016
  364SOL    HW1 3222   1.820   1.777   2.943
  364SOL    HW2 3223   1.721   1.658   2.994
  365SOL     OW 3224   1.252   1.731   2.990
  365SOL    HW1 3225   1.336   1.736   2.936
  365SOL    HW2 3226   1.229   1.635   3.008
  366SOL     OW 3227   0.083   1.258   2.884
  366SOL    HW1 3228   0.078   1.257   2.984
  366SOL    HW2 3229   0.000   1.217   2.846
  367SOL     OW 3230   0.688   1.662   3.578
  367SOL    HW1 3231   0.632   1.743   3.587
  367SOL    HW2 3232   0.740   1.666   3.492
  368SOL     OW 3233   0.130   1.794   3.713
  368SOL    HW1 3234   0.089   1.720   3.766
  368SOL    HW2 3235   0.194   1.845   3.771
  369SOL     OW 3236   1.280   0.927   2.534
  369SOL    HW1 3237   1.340   0.846   2.536
  369SOL    HW2 3238   1.320   0.996   2.474
  370SOL     OW 3239   0.830   1.273   3.284
  370SOL    HW1 3240   0.825   1.306   3.379
  370SOL    HW2 3241   0.744   1.292   3.238
  371SOL     OW 3242   0.672   1.616   2.016
  371SOL    HW1 3243   0.681   1.626   1.917
  371SOL    HW2 3244   0.632   1.527   2.037
  372SOL     OW 3245   1.650   1.720   3.256
  372SOL    HW1 3246   1.703   1.730   3.172
  372SOL    HW2 3247   1.623   1.810   3.290
  373SOL     OW 3248   0.263   0.326   2.582
  373SOL    HW1 3249   0.184   0.377   2.548
  373SOL    HW2 3250   0.254   0.311   2.680
  374SOL     OW 3251   1.194   1.612   1.893
  374SOL    HW1 3252   1.200   1.519   1.930
  374SOL    HW2 3253   1.135   1.612   1.813
  375SOL     OW 3254   0.822   1.002   3.234
  375SOL    HW1 3255   0.862   1.001   3.142
  375SOL    HW2 3256   0.832   1.094   3.274
  376SOL     OW 3257   1.504   1.607   1.906
  376SOL    HW1 3258   1.412   1.644   1.913
  376SOL    HW2 3259   1.542   1.627   1.816
  377SOL     OW 3260   1.614   1.292   3.151
  377SOL    HW1 3261   1.674   1.295   3.231
  377SOL    HW2 3262   1.539   1.356   3.164
  378SOL     OW 3263   1.039   1.098   2.558
  378SOL    HW1 3264   0.969   1.051   2.612
  378SOL    HW2 3265   1.098   1.030   2.515
  379SOL     OW 3266   1.014   0.236   2.833
  379SOL    HW1 3267   1.006   0.200   2.740
  379SOL    HW2 3268   1.012   0.160   2.898
  380SOL     OW 3269   0.590   1.487   2.353
  380SOL    HW1 3270   0.632   1.429   2.283
  380SOL    HW2 3271   0.546   1.566   2.309
  381SOL     OW 3272   1.709   0.385   3.243
  381SOL    HW1 3273   1.782   0.454   3.247
  381SOL    HW2 3274   1.737   0.310   3.184
  382SOL     OW 3275   0.105   1.013   3.588
  382SOL    HW1 3276   0.028   0.980   3.642
  382SOL    HW2 3277   0.190   0.983   3.630
  383SOL     OW 3278   0.672   0.203   3.351
  383SOL    HW1 3279   0.762   0.187   3.311
  383SOL    HW2 3280   0.680   0.208   3.450
  384SOL     OW 3281   0.075   0.345   1.895
  384SOL    HW1 3282  -0.017   0.317   1.866
  384SOL    HW2 3283   0.106   0.422   1.839
  385SOL     OW 3284   1.440   0.856   3.260
  385SOL    HW1 3285   1.383   0.908   3.197
  385SOL    HW2 3286   1.536   0.868   3.236
  386SOL     OW 3287   0.072   0.166   2.180
  386SOL    HW1 3288   0.055   0.249   2.126
  386SOL    HW2 3289   0.162   0.129   2.158
  387SOL     OW 3290   1.183   1.335   1.981
  387SOL    HW1 3291   1.084   1.324   1.983
  387SOL    HW2 3292   1.217   1.350   2.074
  388SOL     OW 3293   0.613   0.842   3.293
  388SOL    HW1 3294   0.669   0.923   3.276
  388SOL    HW2 3295   0.672   0.762   3.296
  389SOL     OW 3296   1.493   1.767   2.821
  389SOL    HW1 3297   1.526   1.831   2.752
  389SOL    HW2 3298   1.559   1.761   2.896
  390SOL     OW 3299   0.716   0.565   3.570
  390SOL    HW1 3300   0.735   0.630   3.644
  390SOL    HW2 3301   0.776   0.485   3.579
  391SOL     OW 3302   1.450   1.220   3.495
  391SOL    HW1 3303   1.441   1.210   3.594
  391SOL    HW2 3304   1.546   1.213   3.469
  392SOL     OW 3305   0.390   1.741   3.422
  392SOL    HW1 3306   0.299   1.782   3.420
  392SOL    HW2 3307   0.383   1.647   3.454
  393SOL     OW 3308   1.674   0.883   3.116
  393SOL    HW1 3309   1.647   0.794   3.079
  393SOL    HW2 3310   1.675   0.951   3.043
  394SOL     OW 3311   1.777   0.342   3.504
  394SOL    HW1 3312   1.760   0.373   3.410
  394SOL    HW2 3313   1.693   0.305   3.542
  395SOL     OW 3314   1.730   0.934   3.379
  395SOL    HW1 3315   1.768   1.025   3.394
  395SOL    HW2 3316   1.722   0.917   3.280
  396SOL     OW 3317   0.859   1.374   1.878
  396SOL    HW1 3318   0.813   1.389   1.966
  396SOL    HW2 3319   0.903   1.459   1.848
  397SOL     OW 3320   0.661   1.790   2.815
  397SOL    HW1 3321   0.615   1.878   2.802
  397SOL    HW2 3322   0.760   1.802   2.808
  398SOL     OW 3323   0.859   0.956   2.723
  398SOL    HW1 3324   0.913   0.887   2.771
  398SOL    HW2 3325   0.827   1.025   2.789
  399SOL     OW 3326   1.083   0.984   1.949
  399SOL    HW1 3327   1.060   1.037   1.867
  399SOL    HW2 3328   1.164   0.928   1.930
  400SOL     OW 3329   1.861   1.569   2.713
  400SOL    HW1 3330   1.790   1.557   2.643
  400SOL    HW2 3331   1.862   1.490   2.773
  401SOL     OW 3332   0.079   1.240   2.515
  401SOL    HW1 3333   0.078   1.193   2.603
  401SOL    HW2 3334   0.161   1.212   2.464
  402SOL     OW 3335   0.672   1.391   3.486
  402SOL    HW1 3336   0.594   1.341   3.524
  402SOL    HW2 3337   0.669   1.486   3.517
  403SOL     OW 3338   0.428   0.424   2.382
  403SOL    HW1 3339   0.458   0.352   2.320
  403SOL    HW2 3340   0.389   0.384   2.465
  404SOL     OW 3341   1.705   1.487   2.966
  404SOL    HW1 3342   1.612   1.462   2.939
  404SOL    HW2 3343   1.731   1.437   3.048
  405SOL     OW 3344   0.317   0.547   3.142
  405SOL    HW1 3345   0.355   0.488   3.214
  405SOL    HW2 3346   0.357   0.521   3.054
  406SOL     OW 3347   1.424   0.214   2.974
  406SOL    HW1 3348   1.476   0.149   3.029
  406SOL    HW2 3349   1.375   0.277   3.035
  407SOL     OW 3350   1.001   0.034   3.016
  407SOL    HW1 3351   0.938  -0.038   2.985
  407SOL    HW2 3352   1.094  -0.002   3.016
  408SOL     OW 3353   0.770   1.330   2.163
  408SOL    HW1 3354   0.724   1.243   2.180
  408SOL    HW2 3355   0.861   1.327   2.204
  409SOL     OW 3356   0.618   1.567   3.146
  409SOL    HW1 3357   0.613   1.649   3.203
  409SOL    HW2 3358   0.707   1.564   3.101
  410SOL     OW 3359   1.352   0.052   2.030
  410SOL    HW1 3360   1.387   0.011   1.946
  410SOL    HW2 3361   1.262   0.014   2.050
  411SOL     OW 3362   1.300   0.453   2.553
  411SOL    HW1 3363   1.241   0.533   2.557
  411SOL    HW2 3364   1.315   0.418   2.646
  412SOL     OW 3365   1.593   0.221   2.744
  412SOL    HW1 3366   1.509   0.220   2.798
  412SOL    HW2 3367   1.595   0.304   2.688
  413SOL     OW 3368   0.875   1.646   2.199
  413SOL    HW1 3369   0.798   1.611   2.145
  413SOL    HW2 3370   0.843   1.717   2.261
  414SOL     OW 3371   0.230   0.628   3.837
  414SOL    HW1 3372   0.137   0.626   3.874
  414SOL    HW2 3373   0.231   0.589   3.745
  415SOL     OW 3374   0.225   0.275   4.720
  415SOL    HW1 3375   0.260   0.258   4.812
  415SOL    HW2 3376   0.137   0.230   4.708
  416SOL     OW 3377   1.555   1.511   4.427
  416SOL    HW1 3378   1.498   1.495   4.508
  416SOL    HW2 3379   1.496   1.521   4.347
  417SOL     OW 3380   1.135   0.703   4.441
  417SOL    HW1 3381   1.192   0.781   4.416
  417SOL    HW2 3382   1.075   0.729   4.517
  418SOL     OW 3383   1.755   0.607   3.955
  418SOL    HW1 3384   1.743   0.594   3.856
  418SOL    HW2 3385   1.725   0.526   4.004
  419SOL     OW 3386   0.685   1.012   4.389
  419SOL    HW1 3387   0.754   0.996   4.459
  419SOL    HW2 3388   0.612   1.069   4.427
  420SOL     OW 3389   1.603   0.447   4.461
  420SOL    HW1 3390   1.529   0.493   4.411
  420SOL    HW2 3391   1.654   0.515   4.514
  421SOL     OW 3392   0.231   1.713   4.207
  421SOL    HW1 3393   0.265   1.790   4.261
  421SOL    HW2 3394   0.275   1.713   4.117
  422SOL     OW 3395   0.230   1.434   4.262
  422SOL    HW1 3396   0.204   1.530   4.262
  422SOL    HW2 3397   0.159   1.380   4.307
  423SOL     OW 3398   0.240   1.091   4.610
  423SOL    HW1 3399   0.254   1.007   4.662
  423SOL    HW2 3400   0.185   1.155   4.665
  424SOL     OW 3401   0.620   1.786   5.163
  424SOL    HW1 3402   0.528   1.769   5.198
  424SOL    HW2 3403   0.648   1.878   5.189
  425SOL     OW 3404   0.606   0.964   3.847
  425SOL    HW1 3405   0.613   1.048   3.793
  425SOL    HW2 3406   0.652   0.977   3.935
  426SOL     OW 3407   0.122   0.643   4.287
  426SOL    HW1 3408   0.077   0.555   4.304
  426SOL    HW2 3409   0.121   0.697   4.371
  427SOL     OW 3410   1.842   1.767   4.083
  427SOL    HW1 3411   1.896   1.738   4.163
  427SOL    HW2 3412   1.872   1.857   4.054
  428SOL     OW 3413   1.689   0.922   4.336
  428SOL    HW1 3414   1.784   0.893   4.344
  428SOL    HW2 3415   1.681   0.987   4.261
  429SOL     OW 3416   1.641   1.108   4.156
  429SOL    HW1 3417   1.727   1.110   4.104
  429SOL    HW2 3418   1.655   1.155   4.244
  430SOL     OW 3419   0.809   0.004   4.226
  430SOL    HW1 3420   0.849   0.095   4.217
  430SOL    HW2 3421   0.709   0.012   4.232
  431SOL     OW 3422   0.197   0.976   4.988
  431SOL    HW1 3423   0.286   0.931   4.974
  431SOL    HW2 3424   0.124   0.911   4.969
  432SOL     OW 3425   1.525   0.999   3.914
  432SOL    HW1 3426   1.462   0.923   3.927
  432SOL    HW2 3427   1.573   1.017   4.000
  433SOL     OW 3428   1.466   1.417   4.677
  433SOL    HW1 3429   1.407   1.423   4.757
  433SOL    HW2 3430   1.451   1.329   4.631
  434SOL     OW 3431   1.667   1.714   4.296
  434SOL    HW1 3432   1.626   1.691   4.208
  434SOL    HW2 3433   1.649   1.640   4.361
  435SOL     OW 3434   0.598   0.729   3.994
  435SOL    HW1 3435   0.622   0.798   3.926
  435SOL    HW2 3436   0.520   0.762   4.048
  436SOL     OW 3437   1.281   0.345   4.668
  436SOL    HW1 3438   1.195   0.295   4.655
  436SOL    HW2 3439   1.343   0.291   4.724
  437SOL     OW 3440   1.576   1.662   4.031
  437SOL    HW1 3441   1.665   1.708   4.034
  437SOL    HW2 3442   1.555   1.638   3.936
  438SOL     OW 3443   0.991   0.410   4.966
  438SOL    HW1 3444   0.914   0.444   5.020
  438SOL    HW2 3445   0.957   0.359   4.887
  439SOL     OW 3446   1.041   0.701   4.153
  439SOL    HW1 3447   1.067   0.697   4.249
  439SOL    HW2 3448   0.956   0.650   4.139
  440SOL     OW 3449   0.076   0.811   4.513
  440SOL    HW1 3450   0.175   0.799   4.522
  440SOL    HW2 3451   0.052   0.906   4.534
  441SOL     OW 3452   0.130   1.821   5.295
  441SOL    HW1 3453   0.120   1.806   5.394
  441SOL    HW2 3454   0.044   1.857   5.259
  442SOL     OW 3455   0.865   0.348   3.919
  442SOL    HW1 3456   0.924   0.411   3.870
  442SOL    HW2 3457   0.884   0.254   3.890
  443SOL     OW 3458   1.362   1.144   4.269
  443SOL    HW1 3459   1.445   1.115   4.221
  443SOL    HW2 3460   1.313   1.211   4.213
  444SOL     OW 3461   0.550   0.196   4.609
  444SOL    HW1 3462   0.545   0.191   4.709
  444SOL    HW2 3463   0.552   0.292   4.580
  445SOL     OW 3464   0.351   1.801   4.577
  445SOL    HW1 3465   0.401   1.715   4.583
  445SOL    HW2 3466   0.416   1.878   4.574
  446SOL     OW 3467   1.795   1.066   4.597
  446SOL    HW1 3468   1.733   1.051   4.521
  446SOL    HW2 3469   1.743   1.077   4.682
  447SOL     OW 3470   0.321   0.943   3.966
  447SOL    HW1 3471   0.403   0.982   3.924
  447SOL    HW2 3472   0.294   0.861   3.917
  448SOL     OW 3473   1.458   0.735   4.452
  448SOL    HW1 3474   1.453   0.670   4.527
  448SOL    HW2 3475   1.538   0.794   4.465
  449SOL     OW 3476   1.111   1.776   3.961
  449SOL    HW1 3477   1.051   1.714   4.011
  449SOL    HW2 3478   1.142   1.732   3.876
  450SOL     OW 3479   1.632   1.377   3.805
  450SOL    HW1 3480   1.600   1.471   3.795
  450SOL    HW2 3481   1.556   1.314   3.793
  451SOL     OW 3482   0.249   1.785   4.965
  451SOL    HW1 3483   0.306   1.720   5.015
  451SOL    HW2 3484   0.233   1.752   4.872
  452SOL     OW 3485   0.940   1.698   4.628
  452SOL    HW1 3486   1.020   1.641   4.649
  452SOL    HW2 3487   0.891   1.658   4.551
  453SOL     OW 3488   0.382   0.700   4.204
  453SOL    HW1 3489   0.427   0.610   4.201
  453SOL    HW2 3490   0.288   0.689   4.237
  454SOL     OW 3491   0.614   0.122   3.841
  454SOL    HW1 3492   0.712   0.100   3.848
  454SOL    HW2 3493   0.583   0.105   3.748
  455SOL     OW 3494   0.922   0.503   4.623
  455SOL    HW1 3495   0.897   0.494   4.527
  455SOL    HW2 3496   0.970   0.421   4.654
  456SOL     OW 3497   0.539   0.064   4.236
  456SOL    HW1 3498   0.458   0.065   4.294
  456SOL    HW2 3499   0.542   0.147   4.181
  457SOL     OW 3500   1.434   1.188   3.765
  457SOL    HW1 3501   1.466   1.112   3.822
  457SOL    HW2 3502   1.342   1.215   3.795
  458SOL     OW 3503   0.297   0.035   3.895
  458SOL    HW1 3504   0.346   0.119   3.874
  458SOL    HW2 3505   0.359  -0.030   3.940
  459SOL     OW 3506   0.935   0.236   4.204
  459SOL    HW1 3507   0.887   0.277   4.126
  459SOL    HW2 3508   1.034   0.234   4.185
  460SOL     OW 3509   1.227   1.570   4.517
  460SOL    HW1 3510   1.248   1.644   4.452
  460SOL    HW2 3511   1.295   1.570   4.590
  461SOL     OW 3512   0.459   1.152   4.465
  461SOL    HW1 3513   0.388   1.125   4.530
  461SOL    HW2 3514   0.433   1.124   4.372
  462SOL     OW 3515   1.271   1.797   4.315
  462SOL    HW1 3516   1.315   1.861   4.251
  462SOL    HW2 3517   1.221   1.849   4.385
  463SOL     OW 3518   1.032   0.549   3.740
  463SOL    HW1 3519   0.991   0.631   3.701
  463SOL    HW2 3520   1.096   0.575   3.813
  464SOL     OW 3521   0.561   0.222   4.871
  464SOL    HW1 3522   0.599   0.138   4.908
  464SOL    HW2 3523   0.473   0.241   4.915
  465SOL     OW 3524   0.866   0.454   4.366
  465SOL    HW1 3525   0.834   0.526   4.304
  465SOL    HW2 3526   0.890   0.373   4.313
  466SOL     OW 3527   1.429   1.173   4.591
  466SOL    HW1 3528   1.374   1.089   4.584
  466SOL    HW2 3529   1.455   1.202   4.499
  467SOL     OW 3530   1.466   0.590   4.716
  467SOL    HW1 3531   1.436   0.495   4.723
  467SOL    HW2 3532   1.539   0.606   4.782
  468SOL     OW 3533   1.857   0.833   4.101
  468SOL    HW1 3534   1.899   0.769   4.165
  468SOL    HW2 3535   1.819   0.782   4.023
  469SOL     OW 3536   0.488   1.385   3.898
  469SOL    HW1 3537   0.401   1.370   3.945
  469SOL    HW2 3538   0.471   1.411   3.803
  470SOL     OW 3539   1.664   1.280   4.381
  470SOL    HW1 3540   1.763   1.288   4.395
  470SOL    HW2 3541   1.619   1.364   4.412
  471SOL     OW 3542   1.390   0.575   3.802
  471SOL    HW1 3543   1.336   0.554   3.883
  471SOL    HW2 3544   1.481   0.534   3.811
  472SOL     OW 3545   0.527   0.256   4.052
  472SOL    HW1 3546   0.554   0.197   3.977
  472SOL    HW2 3547   0.527   0.351   4.021
  473SOL     OW 3548   1.111   1.195   4.824
  473SOL    HW1 3549   1.071   1.239   4.905
  473SOL    HW2 3550   1.070   1.232   4.741
  474SOL     OW 3551   1.638   1.099   4.803
  474SOL    HW1 3552   1.643   1.180   4.862
  474SOL    HW2 3553   1.552   1.101   4.752
  475SOL     OW 3554   0.410   0.813   4.975
  475SOL    HW1 3555   0.496   0.825   5.025
  475SOL    HW2 3556   0.368   0.726   5.002
  476SOL     OW 3557   1.274   0.386   4.986
  476SOL    HW1 3558   1.295   0.460   5.050
  476SOL    HW2 3559   1.185   0.403   4.943
  477SOL     OW 3560   0.566   0.537   4.589
  477SOL    HW1 3561   0.578   0.603   4.515
  477SOL    HW2 3562   0.612   0.571   4.672
  478SOL     OW 3563   1.272   1.445   4.866
  478SOL    HW1 3564   1.319   1.458   4.953
  478SOL    HW2 3565   1.206   1.371   4.875
  479SOL     OW 3566   1.582   0.639   4.196
  479SOL    HW1 3567   1.551   0.700   4.269
  479SOL    HW2 3568   1.632   0.691   4.127
  480SOL     OW 3569   0.354   1.510   5.053
  480SOL    HW1 3570   0.333   1.466   4.966
  480SOL    HW2 3571   0.451   1.536   5.056
  481SOL     OW 3572   0.573   0.870   4.753
  481SOL    HW1 3573   0.617   0.959   4.744
  481SOL    HW2 3574   0.510   0.870   4.830
  482SOL     OW 3575   1.360   0.862   4.769
  482SOL    HW1 3576   1.285   0.862   4.703
  482SOL    HW2 3577   1.397   0.770   4.778
  483SOL     OW 3578   1.209   0.525   3.999
  483SOL    HW1 3579   1.222   0.441   4.053
  483SOL    HW2 3580   1.180   0.599   4.059
  484SOL     OW 3581   0.307   0.213   4.955
  484SOL    HW1 3582   0.284   0.250   5.045
  484SOL    HW2 3583   0.277   0.118   4.949
  485SOL     OW 3584   0.037   1.310   5.006
  485SOL    HW1 3585   0.090   1.261   5.074
  485SOL    HW2 3586   0.059   1.408   5.011
  486SOL     OW 3587   0.732   0.634   4.788
  486SOL    HW1 3588   0.791   0.608   4.712
  486SOL    HW2 3589   0.704   0.730   4.777
  487SOL     OW 3590   0.307   0.063   4.342
  487SOL    HW1 3591   0.296   0.157   4.375
  487SOL    HW2 3592   0.302   0.000   4.419
  488SOL     OW 3593   1.622   0.367   4.098
  488SOL    HW1 3594   1.624   0.291   4.162
  488SOL    HW2 3595   1.574   0.444   4.138
  489SOL     OW 3596   1.023   0.766   4.690
  489SOL    HW1 3597   1.038   0.787   4.786
  489SOL    HW2 3598   0.993   0.671   4.681
  490SOL     OW 3599   1.540   0.274   3.849
  490SOL    HW1 3600   1.479   0.199   3.872
  490SOL    HW2 3601   1.562   0.326   3.932
  491SOL     OW 3602   1.303   0.838   3.766
  491SOL    HW1 3603   1.337   0.745   3.781
  491SOL    HW2 3604   1.321   0.865   3.671
  492SOL     OW 3605   1.068   1.333   4.573
  492SOL    HW1 3606   1.075   1.249   4.518
  492SOL    HW2 3607   1.130   1.402   4.537
  493SOL     OW 3608   0.319   0.810   4.673
  493SOL    HW1 3609   0.412   0.846   4.678
  493SOL    HW2 3610   0.313   0.725   4.725
  494SOL     OW 3611   0.339   0.509   4.730
  494SOL    HW1 3612   0.287   0.426   4.713
  494SOL    HW2 3613   0.416   0.514   4.666
  495SOL     OW 3614   1.160   0.207   5.201
  495SOL    HW1 3615   1.160   0.271   5.278
  495SOL    HW2 3616   1.188   0.255   5.118
  496SOL     OW 3617   0.088   1.801   4.651
  496SOL    HW1 3618   0.046   1.715   4.624
  496SOL    HW2 3619   0.182   1.804   4.617
  497SOL     OW 3620   1.002   0.796   4.962
  497SOL    HW1 3621   1.043   0.764   5.048
  497SOL    HW2 3622   0.906   0.769   4.959
  498SOL     OW 3623   0.040   0.544   4.838
  498SOL    HW1 3624   0.125   0.511   4.797
  498SOL    HW2 3625   0.053   0.559   4.936
  499SOL     OW 3626   0.815   0.572   4.049
  499SOL    HW1 3627   0.822   0.483   4.003
  499SOL    HW2 3628   0.721   0.606   4.041
  500SOL     OW 3629   1.657   0.604   4.930
  500SOL    HW1 3630   1.619   0.535   4.992
  500SOL    HW2 3631   1.739   0.568   4.886
  501SOL     OW 3632   0.671   0.464   4.993
  501SOL    HW1 3633   0.637   0.375   4.963
  501SOL    HW2 3634   0.697   0.518   4.913
  502SOL     OW 3635   0.930   1.678   5.189
  502SOL    HW1 3636   0.906   1.660   5.094
  502SOL    HW2 3637   0.960   1.772   5.199
  503SOL     OW 3638   0.473   0.500   3.915
  503SOL    HW1 3639   0.534   0.580   3.919
  503SOL    HW2 3640   0.378   0.531   3.922
  504SOL     OW 3641   1.347   1.059   4.958
  504SOL    HW1 3642   1.371   0.996   4.884
  504SOL    HW2 3643   1.257   1.099   4.940
  505SOL     OW 3644   1.302   0.855   4.033
  505SOL    HW1 3645   1.216   0.824   4.075
  505SOL    HW2 3646   1.298   0.841   3.934
  506SOL     OW 3647   1.759   1.747   4.878
  506SOL    HW1 3648   1.820   1.777   4.805
  506SOL    HW2 3649   1.721   1.658   4.856
  507SOL     OW 3650   1.252   1.731   4.852
  507SOL    HW1 3651   1.336   1.736   4.798
  507SOL    HW2 3652   1.229   1.635   4.870
  508SOL     OW 3653   0.083   1.258   4.746
  508SOL    HW1 3654   0.078   1.257   4.846
  508SOL    HW2 3655   0.000   1.217   4.708
  509SOL     OW 3656   1.726   0.135   4.247
  509SOL    HW1 3657   1.799   0.118   4.180
  509SOL    HW2 3658   1.695   0.048   4.285
  510SOL     OW 3659   1.388   1.573   4.201
  510SOL    HW1 3660   1.455   1.585   4.127
  510SOL    HW2 3661   1.348   1.662   4.224
  511SOL     OW 3662   1.280   0.927   4.396
  511SOL    HW1 3663   1.340   0.846   4.398
  511SOL    HW2 3664   1.320   0.996   4.336
  512SOL     OW 3665   1.650   1.720   5.118
  512SOL    HW1 3666   1.703   1.730   5.034
  512SOL    HW2 3667   1.623   1.810   5.152
  513SOL     OW 3668   0.263   0.326   4.444
  513SOL    HW1 3669   0.184   0.377   4.410
  513SOL    HW2 3670   0.254   0.311   4.542
  514SOL     OW 3671   1.194   1.612   3.755
  514SOL    HW1 3672   1.200   1.519   3.792
  514SOL    HW2 3673   1.135   1.612   3.675
  515SOL     OW 3674   0.822   1.002   5.096
  515SOL    HW1 3675   0.862   1.001   5.004
  515SOL    HW2 3676   0.832   1.094   5.136
  516SOL     OW 3677   0.916   0.910   4.015
  516SOL    HW1 3678   0.979   0.948   3.947
  516SOL    HW2 3679   0.956   0.827   4.054
  517SOL     OW 3680   1.504   1.607   3.768
  517SOL    HW1 3681   1.412   1.644   3.775
  517SOL    HW2 3682   1.542   1.627   3.678
  518SOL     OW 3683   1.014   0.236   4.695
  518SOL    HW1 3684   1.006   0.200   4.602
  518SOL    HW2 3685   1.012   0.160   4.760
  519SOL     OW 3686   0.075   0.345   3.757
  519SOL    HW1 3687  -0.017   0.317   3.728
  519SOL    HW2 3688   0.106   0.422   3.701
  520SOL     OW 3689   0.072   0.166   4.042
  520SOL    HW1 3690   0.055   0.249   3.988
  520SOL    HW2 3691   0.162   0.129   4.020
  521SOL     OW 3692   1.183   1.335   3.843
  521SOL    HW1 3693   1.084   1.324   3.845
  521SOL    HW2 3694   1.217   1.350   3.936
  522SOL     OW 3695   1.493   1.767   4.683
  522SOL    HW1 3696   1.526   1.831   4.614
  522SOL    HW2 3697   1.559   1.761   4.758
  523SOL     OW 3698   1.674   0.883   4.978
  523SOL    HW1 3699   1.647   0.794   4.941
  523SOL    HW2 3700   1.675   0.951   4.905
  524SOL     OW 3701   1.225   0.325   4.173
  524SOL    HW1 3702   1.290   0.251   4.162
  524SOL    HW2 3703   1.245   0.375   4.257
  525SOL     OW 3704   0.594   0.745   4.376
  525SOL    HW1 3705   0.644   0.830   4.357
  525SOL    HW2 3706   0.506   0.747   4.328
  526SOL     OW 3707   1.730   0.934   5.241
  526SOL    HW1 3708   1.768   1.025   5.256
  526SOL    HW2 3709   1.722   0.917   5.142
  527SOL     OW 3710   0.859   1.374   3.740
  527SOL    HW1 3711   0.813   1.389   3.828
  527SOL    HW2 3712   0.903   1.459   3.710
  528SOL     OW 3713   0.661   1.790   4.677
  528SOL    HW1 3714   0.615   1.878   4.664
  528SOL    HW2 3715   0.760   1.802   4.670
  529SOL     OW 3716   0.859   0.956   4.585
  529SOL    HW1 3717   0.913   0.887   4.633
  529SOL    HW2 3718   0.827   1.025   4.651
  530SOL     OW 3719   1.083   0.984   3.811
  530SOL    HW1 3720   1.060   1.037   3.729
  530SOL    HW2 3721   1.164   0.928   3.792
  531SOL     OW 3722   1.861   1.569   4.575
  531SOL    HW1 3723   1.790   1.557   4.505
  531SOL    HW2 3724   1.862   1.490   4.635
  532SOL     OW 3725   0.428   0.424   4.244
  532SOL    HW1 3726   0.458   0.352   4.182
  532SOL    HW2 3727   0.389   0.384   4.327
  533SOL     OW 3728   1.705   1.487   4.828
  533SOL    HW1 3729   1.612   1.462   4.801
  533SOL    HW2 3730   1.731   1.437   4.910
  534SOL     OW 3731   1.001   0.034   4.878
  534SOL    HW1 3732   0.938  -0.038   4.847
  534SOL    HW2 3733   1.094  -0.002   4.878
  535SOL     OW 3734   1.352   0.052   3.892
  535SOL    HW1 3735   1.387   0.011   3.808
  535SOL    HW2 3736   1.262   0.014   3.912
  536SOL     OW 3737   1.300   0.453   4.415
  536SOL    HW1 3738   1.241   0.533   4.419
  536SOL    HW2 3739   1.315   0.418   4.508
  537SOL     OW 3740   0.230   2.490   0.113
  537SOL    HW1 3741   0.137   2.488   0.150
  537SOL    HW2 3742   0.231   2.451   0.021
  538SOL     OW 3743   0.225   2.137   0.996
  538SOL    HW1 3744   0.260   2.120   1.088
  538SOL    HW2 3745   0.137   2.092   0.984
  539SOL     OW 3746   0.019   2.230   0.647
  539SOL    HW1 3747  -0.063   2.273   0.686
  539SOL    HW2 3748  -0.009   2.157   0.584
  540SOL     OW 3749   0.569   3.137   1.165
  540SOL    HW1 3750   0.476   3.130   1.128
  540SOL    HW2 3751   0.580   3.226   1.209
  541SOL     OW 3752   1.555   3.373   0.703
  541SOL    HW1 3753   1.498   3.357   0.784
  541SOL    HW2 3754   1.496   3.383   0.623
  542SOL     OW 3755   1.135   2.565   0.717
  542SOL    HW1 3756   1.192   2.643   0.692
  542SOL    HW2 3757   1.075   2.591   0.793
  543SOL     OW 3758   1.755   2.469   0.231
  543SOL    HW1 3759   1.743   2.456   0.132
  543SOL    HW2 3760   1.725   2.388   0.280
  544SOL     OW 3761   0.768   3.006   1.023
  544SOL    HW1 3762   0.690   3.023   1.083
  544SOL    HW2 3763   0.802   3.093   0.987
  545SOL     OW 3764   0.850   2.660   1.823
  545SOL    HW1 3765   0.846   2.736   1.888
  545SOL    HW2 3766   0.872   2.696   1.732
  546SOL     OW 3767   0.685   2.874   0.665
  546SOL    HW1 3768   0.754   2.858   0.735
  546SOL    HW2 3769   0.612   2.931   0.703
  547SOL     OW 3770   0.686   3.023   1.803
  547SOL    HW1 3771   0.746   3.102   1.817
  547SOL    HW2 3772   0.600   3.054   1.762
  548SOL     OW 3773   1.460   3.367   1.339
  548SOL    HW1 3774   1.484   3.461   1.365
  548SOL    HW2 3775   1.444   3.313   1.421
  549SOL     OW 3776   0.438   2.254   1.499
  549SOL    HW1 3777   0.520   2.198   1.508
  549SOL    HW2 3778   0.357   2.196   1.503
  550SOL     OW 3779   1.127   3.203   1.690
  550SOL    HW1 3780   1.174   3.203   1.778
  550SOL    HW2 3781   1.079   3.116   1.679
  551SOL     OW 3782   0.606   2.826   0.123
  551SOL    HW1 3783   0.613   2.910   0.069
  551SOL    HW2 3784   0.652   2.839   0.211
  552SOL     OW 3785   1.594   1.976   1.480
  552SOL    HW1 3786   1.576   2.043   1.408
  552SOL    HW2 3787   1.591   2.022   1.569
  553SOL     OW 3788   0.122   2.505   0.563
  553SOL    HW1 3789   0.077   2.417   0.580
  553SOL    HW2 3790   0.121   2.559   0.647
  554SOL     OW 3791   0.027   3.458   0.117
  554SOL    HW1 3792   0.008   3.362   0.138
  554SOL    HW2 3793  -0.006   3.516   0.192
  555SOL     OW 3794   0.113   2.599   1.597
  555SOL    HW1 3795   0.201   2.586   1.642
  555SOL    HW2 3796   0.100   2.696   1.575
  556SOL     OW 3797   0.613   3.227   0.726
  556SOL    HW1 3798   0.564   3.140   0.735
  556SOL    HW2 3799   0.590   3.270   0.639
  557SOL     OW 3800   1.293   3.090   1.423
  557SOL    HW1 3801   1.330   3.017   1.365
  557SOL    HW2 3802   1.345   3.095   1.508
  558SOL     OW 3803   0.809   1.866   0.502
  558SOL    HW1 3804   0.849   1.957   0.493
  558SOL    HW2 3805   0.709   1.874   0.508
  559SOL     OW 3806   0.197   2.838   1.264
  559SOL    HW1 3807   0.286   2.793   1.250
  559SOL    HW2 3808   0.124   2.773   1.245
  560SOL     OW 3809   1.525   2.861   0.190
  560SOL    HW1 3810   1.462   2.785   0.203
  560SOL    HW2 3811   1.573   2.879   0.276
  561SOL     OW 3812   0.317   2.113   1.801
  561SOL    HW1 3813   0.388   2.184   1.807
  561SOL    HW2 3814   0.229   2.152   1.829
  562SOL     OW 3815   1.466   3.279   0.953
  562SOL    HW1 3816   1.407   3.285   1.033
  562SOL    HW2 3817   1.451   3.191   0.907
  563SOL     OW 3818   1.667   3.576   0.572
  563SOL    HW1 3819   1.626   3.553   0.484
  563SOL    HW2 3820   1.649   3.502   0.637
  564SOL     OW 3821   0.598   2.591   0.270
  564SOL    HW1 3822   0.622   2.660   0.202
  564SOL    HW2 3823   0.520   2.624   0.324
  565SOL     OW 3824   1.576   3.524   0.307
  565SOL    HW1 3825   1.665   3.570   0.310
  565SOL    HW2 3826   1.555   3.500   0.212
  566SOL     OW 3827   1.394   2.331   1.674
  566SOL    HW1 3828   1.374   2.374   1.762
  566SOL    HW2 3829   1.472   2.269   1.683
  567SOL     OW 3830   0.973   2.752   1.572
  567SOL    HW1 3831   1.019   2.668   1.543
  567SOL    HW2 3832   0.917   2.786   1.497
  568SOL     OW 3833   1.041   2.563   0.429
  568SOL    HW1 3834   1.067   2.559   0.525
  568SOL    HW2 3835   0.956   2.512   0.415
  569SOL     OW 3836   0.076   2.673   0.789
  569SOL    HW1 3837   0.175   2.661   0.798
  569SOL    HW2 3838   0.052   2.768   0.810
  570SOL     OW 3839   0.130   3.683   1.571
  570SOL    HW1 3840   0.120   3.668   1.670
  570SOL    HW2 3841   0.044   3.719   1.535
  571SOL     OW 3842   0.865   2.210   0.195
  571SOL    HW1 3843   0.924   2.273   0.146
  571SOL    HW2 3844   0.884   2.116   0.166
  572SOL     OW 3845   1.719   2.447   1.831
  572SOL    HW1 3846   1.693   2.536   1.795
  572SOL    HW2 3847   1.717   2.379   1.758
  573SOL     OW 3848   1.362   3.006   0.545
  573SOL    HW1 3849   1.445   2.977   0.497
  573SOL    HW2 3850   1.313   3.073   0.489
  574SOL     OW 3851   1.795   2.928   0.873
  574SOL    HW1 3852   1.733   2.913   0.797
  574SOL    HW2 3853   1.743   2.939   0.958
  575SOL     OW 3854   0.321   2.805   0.242
  575SOL    HW1 3855   0.403   2.844   0.200
  575SOL    HW2 3856   0.294   2.723   0.193
  576SOL     OW 3857   1.111   3.638   0.237
  576SOL    HW1 3858   1.051   3.576   0.287
  576SOL    HW2 3859   1.142   3.594   0.152
  577SOL     OW 3860   0.202   2.147   1.498
  577SOL    HW1 3861   0.122   2.207   1.485
  577SOL    HW2 3862   0.192   2.098   1.584
  578SOL     OW 3863   1.632   3.239   0.081
  578SOL    HW1 3864   1.600   3.333   0.071
  578SOL    HW2 3865   1.556   3.176   0.069
  579SOL     OW 3866   0.382   2.562   0.480
  579SOL    HW1 3867   0.427   2.472   0.477
  579SOL    HW2 3868   0.288   2.551   0.513
  580SOL     OW 3869   1.547   2.084   1.729
  580SOL    HW1 3870   1.542   2.121   1.821
  580SOL    HW2 3871   1.475   2.015   1.717
  581SOL     OW 3872   0.781   2.126   1.749
  581SOL    HW1 3873   0.848   2.065   1.792
  581SOL    HW2 3874   0.708   2.145   1.814
  582SOL     OW 3875   0.888   3.376   1.195
  582SOL    HW1 3876   0.865   3.351   1.101
  582SOL    HW2 3877   0.949   3.307   1.234
  583SOL     OW 3878   1.351   2.452   1.433
  583SOL    HW1 3879   1.379   2.409   1.518
  583SOL    HW2 3880   1.376   2.548   1.434
  584SOL     OW 3881   0.803   3.264   0.924
  584SOL    HW1 3882   0.893   3.278   0.882
  584SOL    HW2 3883   0.732   3.266   0.853
  585SOL     OW 3884   0.922   2.365   0.899
  585SOL    HW1 3885   0.897   2.356   0.803
  585SOL    HW2 3886   0.970   2.283   0.930
  586SOL     OW 3887   0.539   1.926   0.512
  586SOL    HW1 3888   0.458   1.927   0.570
  586SOL    HW2 3889   0.542   2.009   0.457
  587SOL     OW 3890   1.434   3.050   0.041
  587SOL    HW1 3891   1.466   2.974   0.098
  587SOL    HW2 3892   1.342   3.077   0.071
  588SOL     OW 3893   0.297   1.897   0.171
  588SOL    HW1 3894   0.346   1.981   0.150
  588SOL    HW2 3895   0.359   1.832   0.216
  589SOL     OW 3896   0.935   2.098   0.480
  589SOL    HW1 3897   0.887   2.139   0.402
  589SOL    HW2 3898   1.034   2.096   0.461
  590SOL     OW 3899   1.076   2.545   1.464
  590SOL    HW1 3900   0.996   2.484   1.467
  590SOL    HW2 3901   1.157   2.492   1.440
  591SOL     OW 3902   1.227   3.432   0.793
  591SOL    HW1 3903   1.248   3.506   0.728
  591SOL    HW2 3904   1.295   3.432   0.866
  592SOL     OW 3905   0.459   3.014   0.741
  592SOL    HW1 3906   0.388   2.987   0.806
  592SOL    HW2 3907   0.433   2.986   0.648
  593SOL     OW 3908   1.271   3.659   0.591
  593SOL    HW1 3909   1.315   3.723   0.527
  593SOL    HW2 3910   1.221   3.711   0.661
  594SOL     OW 3911   1.032   2.411   0.016
  594SOL    HW1 3912   0.991   2.493  -0.023
  594SOL    HW2 3913   1.096   2.437   0.089
  595SOL     OW 3914   0.078   2.418   1.386
  595SOL    HW1 3915   0.170   2.417   1.345
  595SOL    HW2 3916   0.072   2.492   1.453
  596SOL     OW 3917   0.561   2.084   1.147
  596SOL    HW1 3918   0.599   2.000   1.184
  596SOL    HW2 3919   0.473   2.103   1.191
  597SOL     OW 3920   0.866   2.316   0.642
  597SOL    HW1 3921   0.834   2.388   0.580
  597SOL    HW2 3922   0.890   2.235   0.589
  598SOL     OW 3923   1.429   3.035   0.867
  598SOL    HW1 3924   1.374   2.951   0.860
  598SOL    HW2 3925   1.455   3.064   0.775
  599SOL     OW 3926   0.488   3.247   0.174
  599SOL    HW1 3927   0.401   3.232   0.221
  599SOL    HW2 3928   0.471   3.273   0.079
  600SOL     OW 3929   1.664   3.142   0.657
  600SOL    HW1 3930   1.763   3.150   0.671
  600SOL    HW2 3931   1.619   3.226   0.688
  601SOL     OW 3932   1.390   2.437   0.078
  601SOL    HW1 3933   1.336   2.416   0.159
  601SOL    HW2 3934   1.481   2.396   0.087
  602SOL     OW 3935   0.527   2.118   0.328
  602SOL    HW1 3936   0.554   2.059   0.253
  602SOL    HW2 3937   0.527   2.213   0.297
  603SOL     OW 3938   1.754   3.085   1.588
  603SOL    HW1 3939   1.845   3.046   1.575
  603SOL    HW2 3940   1.762   3.181   1.612
  604SOL     OW 3941   1.064   3.209   1.340
  604SOL    HW1 3942   0.984   3.186   1.395
  604SOL    HW2 3943   1.147   3.183   1.389
  605SOL     OW 3944   1.592   3.491   1.625
  605SOL    HW1 3945   1.619   3.525   1.535
  605SOL    HW2 3946   1.671   3.453   1.671
  606SOL     OW 3947   1.111   3.057   1.100
  606SOL    HW1 3948   1.071   3.101   1.181
  606SOL    HW2 3949   1.070   3.094   1.017
  607SOL     OW 3950   1.638   2.961   1.079
  607SOL    HW1 3951   1.643   3.042   1.138
  607SOL    HW2 3952   1.552   2.963   1.028
  608SOL     OW 3953   0.980   2.978   1.719
  608SOL    HW1 3954   0.881   2.984   1.729
  608SOL    HW2 3955   1.003   2.898   1.663
  609SOL     OW 3956   0.410   2.675   1.251
  609SOL    HW1 3957   0.496   2.687   1.301
  609SOL    HW2 3958   0.368   2.588   1.278
  610SOL     OW 3959   1.274   2.248   1.262
  610SOL    HW1 3960   1.295   2.322   1.326
  610SOL    HW2 3961   1.185   2.265   1.219
  611SOL     OW 3962   0.367   2.962   0.501
  611SOL    HW1 3963   0.360   3.045   0.445
  611SOL    HW2 3964   0.371   2.882   0.441
  612SOL     OW 3965   0.566   2.399   0.865
  612SOL    HW1 3966   0.578   2.465   0.791
  612SOL    HW2 3967   0.612   2.433   0.948
  613SOL     OW 3968   1.272   3.307   1.142
  613SOL    HW1 3969   1.319   3.320   1.229
  613SOL    HW2 3970   1.206   3.233   1.151
  614SOL     OW 3971   1.582   2.501   0.472
  614SOL    HW1 3972   1.551   2.562   0.545
  614SOL    HW2 3973   1.632   2.553   0.403
  615SOL     OW 3974   0.402   2.613   1.598
  615SOL    HW1 3975   0.470   2.668   1.551
  615SOL    HW2 3976   0.442   2.525   1.625
  616SOL     OW 3977   1.587   2.641   1.670
  616SOL    HW1 3978   1.495   2.679   1.665
  616SOL    HW2 3979   1.647   2.688   1.605
  617SOL     OW 3980   1.013   1.967   1.770
  617SOL    HW1 3981   1.019   2.052   1.718
  617SOL    HW2 3982   1.045   1.891   1.713
  618SOL     OW 3983   0.504   1.912   1.740
  618SOL    HW1 3984   0.462   1.855   1.670
  618SOL    HW2 3985   0.438   1.981   1.772
  619SOL     OW 3986   0.573   2.732   1.029
  619SOL    HW1 3987   0.617   2.821   1.020
  619SOL    HW2 3988   0.510   2.732   1.106
  620SOL     OW 3989   1.360   2.724   1.045
  620SOL    HW1 3990   1.285   2.724   0.979
  620SOL    HW2 3991   1.397   2.632   1.054
  621SOL     OW 3992   1.209   2.387   0.275
  621SOL    HW1 3993   1.222   2.303   0.329
  621SOL    HW2 3994   1.180   2.461   0.335
  622SOL     OW 3995   0.307   2.075   1.231
  622SOL    HW1 3996   0.284   2.112   1.321
  622SOL    HW2 3997   0.277   1.980   1.225
  623SOL     OW 3998   0.037   3.172   1.282
  623SOL    HW1 3999   0.090   3.123   1.350
  623SOL    HW2 4000   0.059   3.270   1.287
  624SOL     OW 4001   1.728   2.797   1.854
  624SOL    HW1 4002   1.682   2.790   1.765
  624SOL    HW2 4003   1.666   2.841   1.920
  625SOL     OW 4004   0.307   1.925   0.618
  625SOL    HW1 4005   0.296   2.019   0.651
  625SOL    HW2 4006   0.302   1.862   0.695
  626SOL     OW 4007   1.622   2.229   0.374
  626SOL    HW1 4008   1.624   2.153   0.438
  626SOL    HW2 4009   1.574   2.306   0.414
  627SOL     OW 4010   0.980   3.435   1.700
  627SOL    HW1 4011   0.960   3.479   1.612
  627SOL    HW2 4012   1.019   3.344   1.684
  628SOL     OW 4013   1.859   3.380   1.605
  628SOL    HW1 4014   1.873   3.407   1.510
  628SOL    HW2 4015   1.942   3.402   1.658
  629SOL     OW 4016   0.350   2.760   1.804
  629SOL    HW1 4017   0.426   2.804   1.852
  629SOL    HW2 4018   0.385   2.713   1.722
  630SOL     OW 4019   1.540   2.136   0.125
  630SOL    HW1 4020   1.479   2.061   0.148
  630SOL    HW2 4021   1.562   2.188   0.208
  631SOL     OW 4022   1.303   2.700   0.042
  631SOL    HW1 4023   1.337   2.607   0.057
  631SOL    HW2 4024   1.321   2.727  -0.053
  632SOL     OW 4025   1.068   3.195   0.849
  632SOL    HW1 4026   1.075   3.111   0.794
  632SOL    HW2 4027   1.130   3.264   0.813
  633SOL     OW 4028   0.319   2.672   0.949
  633SOL    HW1 4029   0.412   2.708   0.954
  633SOL    HW2 4030   0.313   2.587   1.001
  634SOL     OW 4031   1.138   2.242   1.678
  634SOL    HW1 4032   1.093   2.305   1.742
  634SOL    HW2 4033   1.231   2.273   1.661
  635SOL     OW 4034   1.160   2.069   1.477
  635SOL    HW1 4035   1.160   2.133   1.554
  635SOL    HW2 4036   1.188   2.117   1.394
  636SOL     OW 4037   0.008   3.188   0.200
  636SOL    HW1 4038  -0.085   3.209   0.169
  636SOL    HW2 4039   0.018   3.089   0.213
  637SOL     OW 4040   1.002   2.658   1.238
  637SOL    HW1 4041   1.043   2.626   1.324
  637SOL    HW2 4042   0.906   2.631   1.235
  638SOL     OW 4043   0.040   2.406   1.114
  638SOL    HW1 4044   0.125   2.373   1.073
  638SOL    HW2 4045   0.053   2.421   1.212
  639SOL     OW 4046   0.189   2.382   1.722
  639SOL    HW1 4047   0.248   2.342   1.652
  639SOL    HW2 4048   0.131   2.453   1.681
  640SOL     OW 4049   1.369   2.812   1.660
  640SOL    HW1 4050   1.408   2.901   1.680
  640SOL    HW2 4051   1.379   2.792   1.563
  641SOL     OW 4052   0.815   2.434   0.325
  641SOL    HW1 4053   0.822   2.345   0.279
  641SOL    HW2 4054   0.721   2.468   0.317
  642SOL     OW 4055   0.252   3.426   1.744
  642SOL    HW1 4056   0.222   3.483   1.820
  642SOL    HW2 4057   0.245   3.329   1.770
  643SOL     OW 4058   0.930   3.540   1.465
  643SOL    HW1 4059   0.906   3.522   1.370
  643SOL    HW2 4060   0.960   3.634   1.475
  644SOL     OW 4061   0.473   2.362   0.191
  644SOL    HW1 4062   0.534   2.442   0.195
  644SOL    HW2 4063   0.378   2.393   0.198
  645SOL     OW 4064   1.347   2.921   1.234
  645SOL    HW1 4065   1.371   2.858   1.160
  645SOL    HW2 4066   1.257   2.961   1.216
  646SOL     OW 4067   1.759   3.609   1.154
  646SOL    HW1 4068   1.820   3.639   1.081
  646SOL    HW2 4069   1.721   3.520   1.132
  647SOL     OW 4070   0.688   3.524   1.716
  647SOL    HW1 4071   0.632   3.605   1.725
  647SOL    HW2 4072   0.740   3.528   1.630
  648SOL     OW 4073   0.903   1.948   0.133
  648SOL    HW1 4074   0.954   1.949   0.047
  648SOL    HW2 4075   0.959   1.906   0.204
  649SOL     OW 4076   1.388   3.435   0.477
  649SOL    HW1 4077   1.455   3.447   0.403
  649SOL    HW2 4078   1.348   3.524   0.500
  650SOL     OW 4079   0.130   3.656   1.851
  650SOL    HW1 4080   0.089   3.582   1.904
  650SOL    HW2 4081   0.194   3.707   1.909
  651SOL     OW 4082   1.280   2.789   0.672
  651SOL    HW1 4083   1.340   2.708   0.674
  651SOL    HW2 4084   1.320   2.858   0.612
  652SOL     OW 4085   0.830   3.135   1.422
  652SOL    HW1 4086   0.825   3.168   1.517
  652SOL    HW2 4087   0.744   3.154   1.376
  653SOL     OW 4088   0.672   3.478   0.154
  653SOL    HW1 4089   0.681   3.488   0.055
  653SOL    HW2 4090   0.632   3.389   0.175
  654SOL     OW 4091   1.650   3.582   1.394
  654SOL    HW1 4092   1.703   3.592   1.310
  654SOL    HW2 4093   1.623   3.672   1.428
  655SOL     OW 4094   1.841   2.037   0.963
  655SOL    HW1 4095   1.880   1.952   0.927
  655SOL    HW2 4096   1.743   2.039   0.944
  656SOL     OW 4097   0.263   2.188   0.720
  656SOL    HW1 4098   0.184   2.239   0.686
  656SOL    HW2 4099   0.254   2.173   0.818
  657SOL     OW 4100   1.194   3.474   0.031
  657SOL    HW1 4101   1.200   3.381   0.068
  657SOL    HW2 4102   1.135   3.474  -0.049
  658SOL     OW 4103   0.822   2.864   1.372
  658SOL    HW1 4104   0.862   2.863   1.280
  658SOL    HW2 4105   0.832   2.956   1.412
  659SOL     OW 4106   1.504   3.469   0.044
  659SOL    HW1 4107   1.412   3.506   0.051
  659SOL    HW2 4108   1.542   3.489  -0.046
  660SOL     OW 4109   1.614   3.154   1.289
  660SOL    HW1 4110   1.674   3.157   1.369
  660SOL    HW2 4111   1.539   3.218   1.302
  661SOL     OW 4112   1.709   2.247   1.381
  661SOL    HW1 4113   1.782   2.316   1.385
  661SOL    HW2 4114   1.737   2.172   1.322
  662SOL     OW 4115   0.255   3.210   0.290
  662SOL    HW1 4116   0.159   3.211   0.263
  662SOL    HW2 4117   0.267   3.263   0.374
  663SOL     OW 4118   0.672   2.065   1.489
  663SOL    HW1 4119   0.762   2.049   1.449
  663SOL    HW2 4120   0.680   2.070   1.588
  664SOL     OW 4121   1.440   2.718   1.398
  664SOL    HW1 4122   1.383   2.770   1.335
  664SOL    HW2 4123   1.536   2.730   1.374
  665SOL     OW 4124   0.072   2.028   0.318
  665SOL    HW1 4125   0.055   2.111   0.264
  665SOL    HW2 4126   0.162   1.991   0.296
  666SOL     OW 4127   1.183   3.197   0.119
  666SOL    HW1 4128   1.084   3.186   0.121
  666SOL    HW2 4129   1.217   3.212   0.212
  667SOL     OW 4130   0.613   2.704   1.431
  667SOL    HW1 4131   0.669   2.785   1.414
  667SOL    HW2 4132   0.672   2.624   1.434
  668SOL     OW 4133   1.493   3.629   0.959
  668SOL    HW1 4134   1.526   3.693   0.890
  668SOL    HW2 4135   1.559   3.623   1.034
  669SOL     OW 4136   0.716   2.427   1.708
  669SOL    HW1 4137   0.735   2.492   1.782
  669SOL    HW2 4138   0.776   2.347   1.717
  670SOL     OW 4139   1.450   3.082   1.633
  670SOL    HW1 4140   1.441   3.072   1.732
  670SOL    HW2 4141   1.546   3.075   1.607
  671SOL     OW 4142   1.674   2.745   1.254
  671SOL    HW1 4143   1.647   2.656   1.217
  671SOL    HW2 4144   1.675   2.813   1.181
  672SOL     OW 4145   0.594   2.607   0.652
  672SOL    HW1 4146   0.644   2.692   0.633
  672SOL    HW2 4147   0.506   2.609   0.604
  673SOL     OW 4148   1.777   2.204   1.642
  673SOL    HW1 4149   1.760   2.235   1.548
  673SOL    HW2 4150   1.693   2.167   1.680
  674SOL     OW 4151   1.730   2.796   1.517
  674SOL    HW1 4152   1.768   2.887   1.532
  674SOL    HW2 4153   1.722   2.779   1.418
  675SOL     OW 4154   0.859   3.236   0.016
  675SOL    HW1 4155   0.813   3.251   0.104
  675SOL    HW2 4156   0.903   3.321  -0.014
  676SOL     OW 4157   0.661   3.652   0.953
  676SOL    HW1 4158   0.615   3.740   0.940
  676SOL    HW2 4159   0.760   3.664   0.946
  677SOL     OW 4160   1.083   2.846   0.087
  677SOL    HW1 4161   1.060   2.899   0.005
  677SOL    HW2 4162   1.164   2.790   0.068
  678SOL     OW 4163   1.861   3.431   0.851
  678SOL    HW1 4164   1.790   3.419   0.781
  678SOL    HW2 4165   1.862   3.352   0.911
  679SOL     OW 4166   0.079   3.102   0.653
  679SOL    HW1 4167   0.078   3.055   0.741
  679SOL    HW2 4168   0.161   3.074   0.602
  680SOL     OW 4169   1.824   2.054   1.227
  680SOL    HW1 4170   1.820   1.964   1.271
  680SOL    HW2 4171   1.827   2.043   1.128
  681SOL     OW 4172   0.428   2.286   0.520
  681SOL    HW1 4173   0.458   2.214   0.458
  681SOL    HW2 4174   0.389   2.246   0.603
  682SOL     OW 4175   1.705   3.349   1.104
  682SOL    HW1 4176   1.612   3.324   1.077
  682SOL    HW2 4177   1.731   3.299   1.186
  683SOL     OW 4178   0.812   3.448   0.687
  683SOL    HW1 4179   0.844   3.458   0.593
  683SOL    HW2 4180   0.733   3.386   0.689
  684SOL     OW 4181   1.424   2.076   1.112
  684SOL    HW1 4182   1.476   2.011   1.167
  684SOL    HW2 4183   1.375   2.139   1.173
  685SOL     OW 4184   0.770   3.192   0.301
  685SOL    HW1 4185   0.724   3.105   0.318
  685SOL    HW2 4186   0.861   3.189   0.342
  686SOL     OW 4187   1.352   1.914   0.168
  686SOL    HW1 4188   1.387   1.873   0.084
  686SOL    HW2 4189   1.262   1.876   0.188
  687SOL     OW 4190   0.039   2.939   0.300
  687SOL    HW1 4191   0.138   2.928   0.291
  687SOL    HW2 4192  -0.001   2.853   0.332
  688SOL     OW 4193   0.875   3.508   0.337
  688SOL    HW1 4194   0.798   3.473   0.283
  688SOL    HW2 4195   0.843   3.579   0.399
  689SOL     OW 4196   0.225   2.137   2.858
  689SOL    HW1 4197   0.260   2.120   2.950
  689SOL    HW2 4198   0.137   2.092   2.846
  690SOL     OW 4199   0.019   2.230   2.509
  690SOL    HW1 4200  -0.063   2.273   2.548
  690SOL    HW2 4201  -0.009   2.157   2.446
  691SOL     OW 4202   0.569   3.137   3.027
  691SOL    HW1 4203   0.476   3.130   2.990
  691SOL    HW2 4204   0.580   3.226   3.071
  692SOL     OW 4205   1.555   3.373   2.565
  692SOL    HW1 4206   1.498   3.357   2.646
  692SOL    HW2 4207   1.496   3.383   2.485
  693SOL     OW 4208   1.135   2.565   2.579
  693SOL    HW1 4209   1.192   2.643   2.554
  693SOL    HW2 4210   1.075   2.591   2.655
  694SOL     OW 4211   1.755   2.469   2.093
  694SOL    HW1 4212   1.743   2.456   1.994
  694SOL    HW2 4213   1.725   2.388   2.142
  695SOL     OW 4214   0.768   3.006   2.885
  695SOL    HW1 4215   0.690   3.023   2.945
  695SOL    HW2 4216   0.802   3.093   2.849
  696SOL     OW 4217   0.850   2.660   3.685
  696SOL    HW1 4218   0.846   2.736   3.750
  696SOL    HW2 4219   0.872   2.696   3.594
  697SOL     OW 4220   0.685   2.874   2.527
  697SOL    HW1 4221   0.754   2.858   2.597
  697SOL    HW2 4222   0.612   2.931   2.565
  698SOL     OW 4223   0.686   3.023   3.665
  698SOL    HW1 4224   0.746   3.102   3.679
  698SOL    HW2 4225   0.600   3.054   3.624
  699SOL     OW 4226   0.438   2.254   3.361
  699SOL    HW1 4227   0.520   2.198   3.370
  699SOL    HW2 4228   0.357   2.196   3.365
  700SOL     OW 4229   0.231   3.575   2.345
  700SOL    HW1 4230   0.265   3.652   2.399
  700SOL    HW2 4231   0.275   3.575   2.255
  701SOL     OW 4232   1.127   3.203   3.552
  701SOL    HW1 4233   1.174   3.203   3.640
  701SOL    HW2 4234   1.079   3.116   3.541
  702SOL     OW 4235   0.230   3.296   2.400
  702SOL    HW1 4236   0.204   3.392   2.400
  702SOL    HW2 4237   0.159   3.242   2.445
  703SOL     OW 4238   0.620   3.648   3.301
  703SOL    HW1 4239   0.528   3.631   3.336
  703SOL    HW2 4240   0.648   3.740   3.327
  704SOL     OW 4241   0.606   2.826   1.985
  704SOL    HW1 4242   0.613   2.910   1.931
  704SOL    HW2 4243   0.652   2.839   2.073
  705SOL     OW 4244   0.122   2.505   2.425
  705SOL    HW1 4245   0.077   2.417   2.442
  705SOL    HW2 4246   0.121   2.559   2.509
  706SOL     OW 4247   0.027   3.458   1.979
  706SOL    HW1 4248   0.008   3.362   2.000
  706SOL    HW2 4249  -0.006   3.516   2.054
  707SOL     OW 4250   1.689   2.784   2.474
  707SOL    HW1 4251   1.784   2.755   2.482
  707SOL    HW2 4252   1.681   2.849   2.399
  708SOL     OW 4253   1.641   2.970   2.294
  708SOL    HW1 4254   1.727   2.972   2.242
  708SOL    HW2 4255   1.655   3.017   2.382
  709SOL     OW 4256   0.113   2.599   3.459
  709SOL    HW1 4257   0.201   2.586   3.504
  709SOL    HW2 4258   0.100   2.696   3.437
  710SOL     OW 4259   0.613   3.227   2.588
  710SOL    HW1 4260   0.564   3.140   2.597
  710SOL    HW2 4261   0.590   3.270   2.501
  711SOL     OW 4262   1.293   3.090   3.285
  711SOL    HW1 4263   1.330   3.017   3.227
  711SOL    HW2 4264   1.345   3.095   3.370
  712SOL     OW 4265   1.525   2.861   2.052
  712SOL    HW1 4266   1.462   2.785   2.065
  712SOL    HW2 4267   1.573   2.879   2.138
  713SOL     OW 4268   0.317   2.113   3.663
  713SOL    HW1 4269   0.388   2.184   3.669
  713SOL    HW2 4270   0.229   2.152   3.691
  714SOL     OW 4271   1.466   3.279   2.815
  714SOL    HW1 4272   1.407   3.285   2.895
  714SOL    HW2 4273   1.451   3.191   2.769
  715SOL     OW 4274   1.667   3.576   2.434
  715SOL    HW1 4275   1.626   3.553   2.346
  715SOL    HW2 4276   1.649   3.502   2.499
  716SOL     OW 4277   0.598   2.591   2.132
  716SOL    HW1 4278   0.622   2.660   2.064
  716SOL    HW2 4279   0.520   2.624   2.186
  717SOL     OW 4280   1.576   3.524   2.169
  717SOL    HW1 4281   1.665   3.570   2.172
  717SOL    HW2 4282   1.555   3.500   2.074
  718SOL     OW 4283   0.807   2.467   3.327
  718SOL    HW1 4284   0.760   2.464   3.416
  718SOL    HW2 4285   0.756   2.412   3.261
  719SOL     OW 4286   0.973   2.752   3.434
  719SOL    HW1 4287   1.019   2.668   3.405
  719SOL    HW2 4288   0.917   2.786   3.359
  720SOL     OW 4289   1.041   2.563   2.291
  720SOL    HW1 4290   1.067   2.559   2.387
  720SOL    HW2 4291   0.956   2.512   2.277
  721SOL     OW 4292   0.076   2.673   2.651
  721SOL    HW1 4293   0.175   2.661   2.660
  721SOL    HW2 4294   0.052   2.768   2.672
  722SOL     OW 4295   0.130   3.683   3.433
  722SOL    HW1 4296   0.120   3.668   3.532
  722SOL    HW2 4297   0.044   3.719   3.397
  723SOL     OW 4298   0.865   2.210   2.057
  723SOL    HW1 4299   0.924   2.273   2.008
  723SOL    HW2 4300   0.884   2.116   2.028
  724SOL     OW 4301   1.719   2.447   3.693
  724SOL    HW1 4302   1.693   2.536   3.657
  724SOL    HW2 4303   1.717   2.379   3.620
  725SOL     OW 4304   1.362   3.006   2.407
  725SOL    HW1 4305   1.445   2.977   2.359
  725SOL    HW2 4306   1.313   3.073   2.351
  726SOL     OW 4307   0.550   2.058   2.747
  726SOL    HW1 4308   0.545   2.053   2.847
  726SOL    HW2 4309   0.552   2.154   2.718
  727SOL     OW 4310   1.008   3.318   2.339
  727SOL    HW1 4311   0.962   3.390   2.287
  727SOL    HW2 4312   1.004   3.338   2.437
  728SOL     OW 4313   0.351   3.663   2.715
  728SOL    HW1 4314   0.401   3.577   2.721
  728SOL    HW2 4315   0.416   3.740   2.712
  729SOL     OW 4316   0.321   2.805   2.104
  729SOL    HW1 4317   0.403   2.844   2.062
  729SOL    HW2 4318   0.294   2.723   2.055
  730SOL     OW 4319   1.458   2.597   2.590
  730SOL    HW1 4320   1.453   2.532   2.665
  730SOL    HW2 4321   1.538   2.656   2.603
  731SOL     OW 4322   0.461   3.128   3.589
  731SOL    HW1 4323   0.411   3.129   3.503
  731SOL    HW2 4324   0.398   3.110   3.665
  732SOL     OW 4325   1.111   3.638   2.099
  732SOL    HW1 4326   1.051   3.576   2.149
  732SOL    HW2 4327   1.142   3.594   2.014
  733SOL     OW 4328   0.202   2.147   3.360
  733SOL    HW1 4329   0.122   2.207   3.347
  733SOL    HW2 4330   0.192   2.098   3.446
  734SOL     OW 4331   1.632   3.239   1.943
  734SOL    HW1 4332   1.600   3.333   1.933
  734SOL    HW2 4333   1.556   3.176   1.931
  735SOL     OW 4334   0.464   3.605   2.185
  735SOL    HW1 4335   0.497   3.644   2.271
  735SOL    HW2 4336   0.540   3.598   2.120
  736SOL     OW 4337   1.400   1.969   2.288
  736SOL    HW1 4338   1.376   1.932   2.198
  736SOL    HW2 4339   1.499   1.985   2.292
  737SOL     OW 4340   0.249   3.647   3.103
  737SOL    HW1 4341   0.306   3.582   3.153
  737SOL    HW2 4342   0.233   3.614   3.010
  738SOL     OW 4343   0.940   3.560   2.766
  738SOL    HW1 4344   1.020   3.503   2.787
  738SOL    HW2 4345   0.891   3.520   2.689
  739SOL     OW 4346   0.382   2.562   2.342
  739SOL    HW1 4347   0.427   2.472   2.339
  739SOL    HW2 4348   0.288   2.551   2.375
  740SOL     OW 4349   1.547   2.084   3.591
  740SOL    HW1 4350   1.542   2.121   3.683
  740SOL    HW2 4351   1.475   2.015   3.579
  741SOL     OW 4352   0.614   1.984   1.979
  741SOL    HW1 4353   0.712   1.962   1.986
  741SOL    HW2 4354   0.583   1.967   1.886
  742SOL     OW 4355   0.781   2.126   3.611
  742SOL    HW1 4356   0.848   2.065   3.654
  742SOL    HW2 4357   0.708   2.145   3.676
  743SOL     OW 4358   0.888   3.376   3.057
  743SOL    HW1 4359   0.865   3.351   2.963
  743SOL    HW2 4360   0.949   3.307   3.096
  744SOL     OW 4361   0.803   3.264   2.786
  744SOL    HW1 4362   0.893   3.278   2.744
  744SOL    HW2 4363   0.732   3.266   2.715
  745SOL     OW 4364   0.922   2.365   2.761
  745SOL    HW1 4365   0.897   2.356   2.665
  745SOL    HW2 4366   0.970   2.283   2.792
  746SOL     OW 4367   0.539   1.926   2.374
  746SOL    HW1 4368   0.458   1.927   2.432
  746SOL    HW2 4369   0.542   2.009   2.319
  747SOL     OW 4370   1.434   3.050   1.903
  747SOL    HW1 4371   1.466   2.974   1.960
  747SOL    HW2 4372   1.342   3.077   1.933
  748SOL     OW 4373   0.297   1.897   2.033
  748SOL    HW1 4374   0.346   1.981   2.012
  748SOL    HW2 4375   0.359   1.832   2.078
  749SOL     OW 4376   1.076   2.545   3.326
  749SOL    HW1 4377   0.996   2.484   3.329
  749SOL    HW2 4378   1.157   2.492   3.302
  750SOL     OW 4379   1.227   3.432   2.655
  750SOL    HW1 4380   1.248   3.506   2.590
  750SOL    HW2 4381   1.295   3.432   2.728
  751SOL     OW 4382   0.459   3.014   2.603
  751SOL    HW1 4383   0.388   2.987   2.668
  751SOL    HW2 4384   0.433   2.986   2.510
  752SOL     OW 4385   1.271   3.659   2.453
  752SOL    HW1 4386   1.315   3.723   2.389
  752SOL    HW2 4387   1.221   3.711   2.523
  753SOL     OW 4388   1.032   2.411   1.878
  753SOL    HW1 4389   0.991   2.493   1.839
  753SOL    HW2 4390   1.096   2.437   1.951
  754SOL     OW 4391   0.078   2.418   3.248
  754SOL    HW1 4392   0.170   2.417   3.207
  754SOL    HW2 4393   0.072   2.492   3.315
  755SOL     OW 4394   0.561   2.084   3.009
  755SOL    HW1 4395   0.599   2.000   3.046
  755SOL    HW2 4396   0.473   2.103   3.053
  756SOL     OW 4397   1.017   1.901   2.615
  756SOL    HW1 4398   0.945   1.906   2.546
  756SOL    HW2 4399   0.993   1.832   2.684
  757SOL     OW 4400   1.429   3.035   2.729
  757SOL    HW1 4401   1.374   2.951   2.722
  757SOL    HW2 4402   1.455   3.064   2.637
  758SOL     OW 4403   1.857   2.695   2.239
  758SOL    HW1 4404   1.899   2.631   2.303
  758SOL    HW2 4405   1.819   2.644   2.161
  759SOL     OW 4406   0.488   3.247   2.036
  759SOL    HW1 4407   0.401   3.232   2.083
  759SOL    HW2 4408   0.471   3.273   1.941
  760SOL     OW 4409   1.664   3.142   2.519
  760SOL    HW1 4410   1.763   3.150   2.533
  760SOL    HW2 4411   1.619   3.226   2.550
  761SOL     OW 4412   1.390   2.437   1.940
  761SOL    HW1 4413   1.336   2.416   2.021
  761SOL    HW2 4414   1.481   2.396   1.949
  762SOL     OW 4415   0.527   2.118   2.190
  762SOL    HW1 4416   0.554   2.059   2.115
  762SOL    HW2 4417   0.527   2.213   2.159
  763SOL     OW 4418   1.754   3.085   3.450
  763SOL    HW1 4419   1.845   3.046   3.437
  763SOL    HW2 4420   1.762   3.181   3.474
  764SOL     OW 4421   1.064   3.209   3.202
  764SOL    HW1 4422   0.984   3.186   3.257
  764SOL    HW2 4423   1.147   3.183   3.251
  765SOL     OW 4424   1.111   3.057   2.962
  765SOL    HW1 4425   1.071   3.101   3.043
  765SOL    HW2 4426   1.070   3.094   2.879
  766SOL     OW 4427   1.638   2.961   2.941
  766SOL    HW1 4428   1.643   3.042   3.000
  766SOL    HW2 4429   1.552   2.963   2.890
  767SOL     OW 4430   0.915   1.951   3.264
  767SOL    HW1 4431   0.940   1.931   3.169
  767SOL    HW2 4432   0.987   2.007   3.306
  768SOL     OW 4433   0.980   2.978   3.581
  768SOL    HW1 4434   0.881   2.984   3.591
  768SOL    HW2 4435   1.003   2.898   3.525
  769SOL     OW 4436   0.705   2.912   2.230
  769SOL    HW1 4437   0.691   2.919   2.329
  769SOL    HW2 4438   0.789   2.861   2.212
  770SOL     OW 4439   0.367   2.962   2.363
  770SOL    HW1 4440   0.360   3.045   2.307
  770SOL    HW2 4441   0.371   2.882   2.303
  771SOL     OW 4442   0.566   2.399   2.727
  771SOL    HW1 4443   0.578   2.465   2.653
  771SOL    HW2 4444   0.612   2.433   2.810
  772SOL     OW 4445   1.252   3.210   2.250
  772SOL    HW1 4446   1.302   3.287   2.290
  772SOL    HW2 4447   1.157   3.212   2.282
  773SOL     OW 4448   1.272   3.307   3.004
  773SOL    HW1 4449   1.319   3.320   3.091
  773SOL    HW2 4450   1.206   3.233   3.013
  774SOL     OW 4451   1.582   2.501   2.334
  774SOL    HW1 4452   1.551   2.562   2.407
  774SOL    HW2 4453   1.632   2.553   2.265
  775SOL     OW 4454   1.587   2.641   3.532
  775SOL    HW1 4455   1.495   2.679   3.527
  775SOL    HW2 4456   1.647   2.688   3.467
  776SOL     OW 4457   1.013   1.967   3.632
  776SOL    HW1 4458   1.019   2.052   3.580
  776SOL    HW2 4459   1.045   1.891   3.575
  777SOL     OW 4460   0.504   1.912   3.602
  777SOL    HW1 4461   0.462   1.855   3.532
  777SOL    HW2 4462   0.438   1.981   3.634
  778SOL     OW 4463   1.360   2.724   2.907
  778SOL    HW1 4464   1.285   2.724   2.841
  778SOL    HW2 4465   1.397   2.632   2.916
  779SOL     OW 4466   1.209   2.387   2.137
  779SOL    HW1 4467   1.222   2.303   2.191
  779SOL    HW2 4468   1.180   2.461   2.197
  780SOL     OW 4469   0.307   2.075   3.093
  780SOL    HW1 4470   0.284   2.112   3.183
  780SOL    HW2 4471   0.277   1.980   3.087
  781SOL     OW 4472   0.037   3.172   3.144
  781SOL    HW1 4473   0.090   3.123   3.212
  781SOL    HW2 4474   0.059   3.270   3.149
  782SOL     OW 4475   0.732   2.496   2.926
  782SOL    HW1 4476   0.791   2.470   2.850
  782SOL    HW2 4477   0.704   2.592   2.915
  783SOL     OW 4478   1.728   2.797   3.716
  783SOL    HW1 4479   1.682   2.790   3.627
  783SOL    HW2 4480   1.666   2.841   3.782
  784SOL     OW 4481   0.307   1.925   2.480
  784SOL    HW1 4482   0.296   2.019   2.513
  784SOL    HW2 4483   0.302   1.862   2.557
  785SOL     OW 4484   1.622   2.229   2.236
  785SOL    HW1 4485   1.624   2.153   2.300
  785SOL    HW2 4486   1.574   2.306   2.276
  786SOL     OW 4487   1.023   2.628   2.828
  786SOL    HW1 4488   1.038   2.649   2.924
  786SOL    HW2 4489   0.993   2.533   2.819
  787SOL     OW 4490   0.980   3.435   3.562
  787SOL    HW1 4491   0.960   3.479   3.474
  787SOL    HW2 4492   1.019   3.344   3.546
  788SOL     OW 4493   1.859   3.380   3.467
  788SOL    HW1 4494   1.873   3.407   3.372
  788SOL    HW2 4495   1.942   3.402   3.520
  789SOL     OW 4496   0.350   2.760   3.666
  789SOL    HW1 4497   0.426   2.804   3.714
  789SOL    HW2 4498   0.385   2.713   3.584
  790SOL     OW 4499   1.540   2.136   1.987
  790SOL    HW1 4500   1.479   2.061   2.010
  790SOL    HW2 4501   1.562   2.188   2.070
  791SOL     OW 4502   1.303   2.700   1.904
  791SOL    HW1 4503   1.337   2.607   1.919
  791SOL    HW2 4504   1.321   2.727   1.809
  792SOL     OW 4505   1.068   3.195   2.711
  792SOL    HW1 4506   1.075   3.111   2.656
  792SOL    HW2 4507   1.130   3.264   2.675
  793SOL     OW 4508   0.339   2.371   2.868
  793SOL    HW1 4509   0.287   2.288   2.851
  793SOL    HW2 4510   0.416   2.376   2.804
  794SOL     OW 4511   1.138   2.242   3.540
  794SOL    HW1 4512   1.093   2.305   3.604
  794SOL    HW2 4513   1.231   2.273   3.523
  795SOL     OW 4514   1.160   2.069   3.339
  795SOL    HW1 4515   1.160   2.133   3.416
  795SOL    HW2 4516   1.188   2.117   3.256
  796SOL     OW 4517   0.008   3.188   2.062
  796SOL    HW1 4518  -0.085   3.209   2.031
  796SOL    HW2 4519   0.018   3.089   2.075
  797SOL     OW 4520   0.088   3.663   2.789
  797SOL    HW1 4521   0.046   3.577   2.762
  797SOL    HW2 4522   0.182   3.666   2.755
  798SOL     OW 4523   0.504   3.430   2.772
  798SOL    HW1 4524   0.570   3.504   2.781
  798SOL    HW2 4525   0.548   3.351   2.730
  799SOL     OW 4526   1.002   2.658   3.100
  799SOL    HW1 4527   1.043   2.626   3.186
  799SOL    HW2 4528   0.906   2.631   3.097
  800SOL     OW 4529   0.040   2.406   2.976
  800SOL    HW1 4530   0.125   2.373   2.935
  800SOL    HW2 4531   0.053   2.421   3.074
  801SOL     OW 4532   0.189   2.382   3.584
  801SOL    HW1 4533   0.248   2.342   3.514
  801SOL    HW2 4534   0.131   2.453   3.543
  802SOL     OW 4535   1.369   2.812   3.522
  802SOL    HW1 4536   1.408   2.901   3.542
  802SOL    HW2 4537   1.379   2.792   3.425
  803SOL     OW 4538   0.815   2.434   2.187
  803SOL    HW1 4539   0.822   2.345   2.141
  803SOL    HW2 4540   0.721   2.468   2.179
  804SOL     OW 4541   0.252   3.426   3.606
  804SOL    HW1 4542   0.222   3.483   3.682
  804SOL    HW2 4543   0.245   3.329   3.632
  805SOL     OW 4544   0.473   2.362   2.053
  805SOL    HW1 4545   0.534   2.442   2.057
  805SOL    HW2 4546   0.378   2.393   2.060
  806SOL     OW 4547   0.159   2.999   3.328
  806SOL    HW1 4548   0.181   2.938   3.404
  806SOL    HW2 4549   0.169   2.950   3.242
  807SOL     OW 4550   1.347   2.921   3.096
  807SOL    HW1 4551   1.371   2.858   3.022
  807SOL    HW2 4552   1.257   2.961   3.078
  808SOL     OW 4553   1.302   2.717   2.171
  808SOL    HW1 4554   1.216   2.686   2.213
  808SOL    HW2 4555   1.298   2.703   2.072
  809SOL     OW 4556   1.252   3.593   2.990
  809SOL    HW1 4557   1.336   3.598   2.936
  809SOL    HW2 4558   1.229   3.497   3.008
  810SOL     OW 4559   0.688   3.524   3.578
  810SOL    HW1 4560   0.632   3.605   3.587
  810SOL    HW2 4561   0.740   3.528   3.492
  811SOL     OW 4562   1.726   1.997   2.385
  811SOL    HW1 4563   1.799   1.980   2.318
  811SOL    HW2 4564   1.695   1.910   2.423
  812SOL     OW 4565   1.388   3.435   2.339
  812SOL    HW1 4566   1.455   3.447   2.265
  812SOL    HW2 4567   1.348   3.524   2.362
  813SOL     OW 4568   0.130   3.656   3.713
  813SOL    HW1 4569   0.089   3.582   3.766
  813SOL    HW2 4570   0.194   3.707   3.771
  814SOL     OW 4571   1.280   2.789   2.534
  814SOL    HW1 4572   1.340   2.708   2.536
  814SOL    HW2 4573   1.320   2.858   2.474
  815SOL     OW 4574   0.830   3.135   3.284
  815SOL    HW1 4575   0.825   3.168   3.379
  815SOL    HW2 4576   0.744   3.154   3.238
  816SOL     OW 4577   0.672   3.478   2.016
  816SOL    HW1 4578   0.681   3.488   1.917
  816SOL    HW2 4579   0.632   3.389   2.037
  817SOL     OW 4580   1.841   2.037   2.825
  817SOL    HW1 4581   1.880   1.952   2.789
  817SOL    HW2 4582   1.743   2.039   2.806
  818SOL     OW 4583   0.263   2.188   2.582
  818SOL    HW1 4584   0.184   2.239   2.548
  818SOL    HW2 4585   0.254   2.173   2.680
  819SOL     OW 4586   1.194   3.474   1.893
  819SOL    HW1 4587   1.200   3.381   1.930
  819SOL    HW2 4588   1.135   3.474   1.813
  820SOL     OW 4589   0.916   2.772   2.153
  820SOL    HW1 4590   0.979   2.810   2.085
  820SOL    HW2 4591   0.956   2.689   2.192
  821SOL     OW 4592   1.504   3.469   1.906
  821SOL    HW1 4593   1.412   3.506   1.913
  821SOL    HW2 4594   1.542   3.489   1.816
  822SOL     OW 4595   1.039   2.960   2.558
  822SOL    HW1 4596   0.969   2.913   2.612
  822SOL    HW2 4597   1.098   2.892   2.515
  823SOL     OW 4598   1.014   2.098   2.833
  823SOL    HW1 4599   1.006   2.062   2.740
  823SOL    HW2 4600   1.012   2.022   2.898
  824SOL     OW 4601   0.590   3.349   2.353
  824SOL    HW1 4602   0.632   3.291   2.283
  824SOL    HW2 4603   0.546   3.428   2.309
  825SOL     OW 4604   1.709   2.247   3.243
  825SOL    HW1 4605   1.782   2.316   3.247
  825SOL    HW2 4606   1.737   2.172   3.184
  826SOL     OW 4607   0.255   3.210   2.152
  826SOL    HW1 4608   0.159   3.211   2.125
  826SOL    HW2 4609   0.267   3.263   2.236
  827SOL     OW 4610   0.105   2.875   3.588
  827SOL    HW1 4611   0.028   2.842   3.642
  827SOL    HW2 4612   0.190   2.845   3.630
  828SOL     OW 4613   0.672   2.065   3.351
  828SOL    HW1 4614   0.762   2.049   3.311
  828SOL    HW2 4615   0.680   2.070   3.450
  829SOL     OW 4616   0.075   2.207   1.895
  829SOL    HW1 4617  -0.017   2.179   1.866
  829SOL    HW2 4618   0.106   2.284   1.839
  830SOL     OW 4619   1.440   2.718   3.260
  830SOL    HW1 4620   1.383   2.770   3.197
  830SOL    HW2 4621   1.536   2.730   3.236
  831SOL     OW 4622   0.072   2.028   2.180
  831SOL    HW1 4623   0.055   2.111   2.126
  831SOL    HW2 4624   0.162   1.991   2.158
  832SOL     OW 4625   1.183   3.197   1.981
  832SOL    HW1 4626   1.084   3.186   1.983
  832SOL    HW2 4627   1.217   3.212   2.074
  833SOL     OW 4628   1.493   3.629   2.821
  833SOL    HW1 4629   1.526   3.693   2.752
  833SOL    HW2 4630   1.559   3.623   2.896
  834SOL     OW 4631   0.716   2.427   3.570
  834SOL    HW1 4632   0.735   2.492   3.644
  834SOL    HW2 4633   0.776   2.347   3.579
  835SOL     OW 4634   1.450   3.082   3.495
  835SOL    HW1 4635   1.441   3.072   3.594
  835SOL    HW2 4636   1.546   3.075   3.469
  836SOL     OW 4637   0.390   3.603   3.422
  836SOL    HW1 4638   0.299   3.644   3.420
  836SOL    HW2 4639   0.383   3.509   3.454
  837SOL     OW 4640   0.594   2.607   2.514
  837SOL    HW1 4641   0.644   2.692   2.495
  837SOL    HW2 4642   0.506   2.609   2.466
  838SOL     OW 4643   1.777   2.204   3.504
  838SOL    HW1 4644   1.760   2.235   3.410
  838SOL    HW2 4645   1.693   2.167   3.542
  839SOL     OW 4646   0.859   3.236   1.878
  839SOL    HW1 4647   0.813   3.251   1.966
  839SOL    HW2 4648   0.903   3.321   1.848
  840SOL     OW 4649   0.661   3.652   2.815
  840SOL    HW1 4650   0.615   3.740   2.802
  840SOL    HW2 4651   0.760   3.664   2.808
  841SOL     OW 4652   0.859   2.818   2.723
  841SOL    HW1 4653   0.913   2.749   2.771
  841SOL    HW2 4654   0.827   2.887   2.789
  842SOL     OW 4655   1.083   2.846   1.949
  842SOL    HW1 4656   1.060   2.899   1.867
  842SOL    HW2 4657   1.164   2.790   1.930
  843SOL     OW 4658   1.861   3.431   2.713
  843SOL    HW1 4659   1.790   3.419   2.643
  843SOL    HW2 4660   1.862   3.352   2.773
  844SOL     OW 4661   0.221   3.176   3.706
  844SOL    HW1 4662   0.156   3.103   3.685
  844SOL    HW2 4663   0.225   3.190   3.804
  845SOL     OW 4664   0.079   3.102   2.515
  845SOL    HW1 4665   0.078   3.055   2.603
  845SOL    HW2 4666   0.161   3.074   2.464
  846SOL     OW 4667   0.672   3.253   3.486
  846SOL    HW1 4668   0.594   3.203   3.524
  846SOL    HW2 4669   0.669   3.348   3.517
  847SOL     OW 4670   1.824   2.054   3.089
  847SOL    HW1 4671   1.820   1.964   3.133
  847SOL    HW2 4672   1.827   2.043   2.990
  848SOL     OW 4673   0.428   2.286   2.382
  848SOL    HW1 4674   0.458   2.214   2.320
  848SOL    HW2 4675   0.389   2.246   2.465
  849SOL     OW 4676   0.317   2.409   3.142
  849SOL    HW1 4677   0.355   2.350   3.214
  849SOL    HW2 4678   0.357   2.383   3.054
  850SOL     OW 4679   0.812   3.448   2.549
  850SOL    HW1 4680   0.844   3.458   2.455
  850SOL    HW2 4681   0.733   3.386   2.551
  851SOL     OW 4682   1.001   1.896   3.016
  851SOL    HW1 4683   0.938   1.824   2.985
  851SOL    HW2 4684   1.094   1.860   3.016
  852SOL     OW 4685   0.770   3.192   2.163
  852SOL    HW1 4686   0.724   3.105   2.180
  852SOL    HW2 4687   0.861   3.189   2.204
  853SOL     OW 4688   0.618   3.429   3.146
  853SOL    HW1 4689   0.613   3.511   3.203
  853SOL    HW2 4690   0.707   3.426   3.101
  854SOL     OW 4691   1.352   1.914   2.030
  854SOL    HW1 4692   1.387   1.873   1.946
  854SOL    HW2 4693   1.262   1.876   2.050
  855SOL     OW 4694   1.593   2.083   2.744
  855SOL    HW1 4695   1.509   2.082   2.798
  855SOL    HW2 4696   1.595   2.166   2.688
  856SOL     OW 4697   0.039   2.939   2.162
  856SOL    HW1 4698   0.138   2.928   2.153
  856SOL    HW2 4699  -0.001   2.853   2.194
  857SOL     OW 4700   0.875   3.508   2.199
  857SOL    HW1 4701   0.798   3.473   2.145
  857SOL    HW2 4702   0.843   3.579   2.261
  858SOL     OW 4703   0.230   2.490   3.837
  858SOL    HW1 4704   0.137   2.488   3.874
  858SOL    HW2 4705   0.231   2.451   3.745
  859SOL     OW 4706   0.019   2.230   4.371
  859SOL    HW1 4707  -0.063   2.273   4.410
  859SOL    HW2 4708  -0.009   2.157   4.308
  860SOL     OW 4709   0.569   3.137   4.889
  860SOL    HW1 4710   0.476   3.130   4.852
  860SOL    HW2 4711   0.580   3.226   4.933
  861SOL     OW 4712   1.555   3.373   4.427
  861SOL    HW1 4713   1.498   3.357   4.508
  861SOL    HW2 4714   1.496   3.383   4.347
  862SOL     OW 4715   1.755   2.469   3.955
  862SOL    HW1 4716   1.743   2.456   3.856
  862SOL    HW2 4717   1.725   2.388   4.004
  863SOL     OW 4718   0.768   3.006   4.747
  863SOL    HW1 4719   0.690   3.023   4.807
  863SOL    HW2 4720   0.802   3.093   4.711
  864SOL     OW 4721   0.685   2.874   4.389
  864SOL    HW1 4722   0.754   2.858   4.459
  864SOL    HW2 4723   0.612   2.931   4.427
  865SOL     OW 4724   0.335   3.297   4.785
  865SOL    HW1 4725   0.257   3.266   4.732
  865SOL    HW2 4726   0.393   3.355   4.728
  866SOL     OW 4727   1.603   2.309   4.461
  866SOL    HW1 4728   1.529   2.355   4.411
  866SOL    HW2 4729   1.654   2.377   4.514
  867SOL     OW 4730   0.231   3.575   4.207
  867SOL    HW1 4731   0.265   3.652   4.261
  867SOL    HW2 4732   0.275   3.575   4.117
  868SOL     OW 4733   0.230   3.296   4.262
  868SOL    HW1 4734   0.204   3.392   4.262
  868SOL    HW2 4735   0.159   3.242   4.307
  869SOL     OW 4736   0.240   2.953   4.610
  869SOL    HW1 4737   0.254   2.869   4.662
  869SOL    HW2 4738   0.185   3.017   4.665
  870SOL     OW 4739   0.620   3.648   5.163
  870SOL    HW1 4740   0.528   3.631   5.198
  870SOL    HW2 4741   0.648   3.740   5.189
  871SOL     OW 4742   0.606   2.826   3.847
  871SOL    HW1 4743   0.613   2.910   3.793
  871SOL    HW2 4744   0.652   2.839   3.935
  872SOL     OW 4745   0.122   2.505   4.287
  872SOL    HW1 4746   0.077   2.417   4.304
  872SOL    HW2 4747   0.121   2.559   4.371
  873SOL     OW 4748   0.027   3.458   3.841
  873SOL    HW1 4749   0.008   3.362   3.862
  873SOL    HW2 4750  -0.006   3.516   3.916
  874SOL     OW 4751   1.689   2.784   4.336
  874SOL    HW1 4752   1.784   2.755   4.344
  874SOL    HW2 4753   1.681   2.849   4.261
  875SOL     OW 4754   1.641   2.970   4.156
  875SOL    HW1 4755   1.727   2.972   4.104
  875SOL    HW2 4756   1.655   3.017   4.244
  876SOL     OW 4757   0.613   3.227   4.450
  876SOL    HW1 4758   0.564   3.140   4.459
  876SOL    HW2 4759   0.590   3.270   4.363
  877SOL     OW 4760   0.809   1.866   4.226
  877SOL    HW1 4761   0.849   1.957   4.217
  877SOL    HW2 4762   0.709   1.874   4.232
  878SOL     OW 4763   0.197   2.838   4.988
  878SOL    HW1 4764   0.286   2.793   4.974
  878SOL    HW2 4765   0.124   2.773   4.969
  879SOL     OW 4766   1.525   2.861   3.914
  879SOL    HW1 4767   1.462   2.785   3.927
  879SOL    HW2 4768   1.573   2.879   4.000
  880SOL     OW 4769   1.466   3.279   4.677
  880SOL    HW1 4770   1.407   3.285   4.757
  880SOL    HW2 4771   1.451   3.191   4.631
  881SOL     OW 4772   1.667   3.576   4.296
  881SOL    HW1 4773   1.626   3.553   4.208
  881SOL    HW2 4774   1.649   3.502   4.361
  882SOL     OW 4775   0.598   2.591   3.994
  882SOL    HW1 4776   0.622   2.660   3.926
  882SOL    HW2 4777   0.520   2.624   4.048
  883SOL     OW 4778   1.576   3.524   4.031
  883SOL    HW1 4779   1.665   3.570   4.034
  883SOL    HW2 4780   1.555   3.500   3.936
  884SOL     OW 4781   0.991   2.272   4.966
  884SOL    HW1 4782   0.914   2.306   5.020
  884SOL    HW2 4783   0.957   2.221   4.887
  885SOL     OW 4784   0.076   2.673   4.513
  885SOL    HW1 4785   0.175   2.661   4.522
  885SOL    HW2 4786   0.052   2.768   4.534
  886SOL     OW 4787   0.130   3.683   5.295
  886SOL    HW1 4788   0.120   3.668   5.394
  886SOL    HW2 4789   0.044   3.719   5.259
  887SOL     OW 4790   0.865   2.210   3.919
  887SOL    HW1 4791   0.924   2.273   3.870
  887SOL    HW2 4792   0.884   2.116   3.890
  888SOL     OW 4793   1.362   3.006   4.269
  888SOL    HW1 4794   1.445   2.977   4.221
  888SOL    HW2 4795   1.313   3.073   4.213
  889SOL     OW 4796   1.008   3.318   4.201
  889SOL    HW1 4797   0.962   3.390   4.149
  889SOL    HW2 4798   1.004   3.338   4.299
  890SOL     OW 4799   0.351   3.663   4.577
  890SOL    HW1 4800   0.401   3.577   4.583
  890SOL    HW2 4801   0.416   3.740   4.574
  891SOL     OW 4802   1.795   2.928   4.597
  891SOL    HW1 4803   1.733   2.913   4.521
  891SOL    HW2 4804   1.743   2.939   4.682
  892SOL     OW 4805   0.321   2.805   3.966
  892SOL    HW1 4806   0.403   2.844   3.924
  892SOL    HW2 4807   0.294   2.723   3.917
  893SOL     OW 4808   1.458   2.597   4.452
  893SOL    HW1 4809   1.453   2.532   4.527
  893SOL    HW2 4810   1.538   2.656   4.465
  894SOL     OW 4811   1.632   3.239   3.805
  894SOL    HW1 4812   1.600   3.333   3.795
  894SOL    HW2 4813   1.556   3.176   3.793
  895SOL     OW 4814   0.464   3.605   4.047
  895SOL    HW1 4815   0.497   3.644   4.133
  895SOL    HW2 4816   0.540   3.598   3.982
  896SOL     OW 4817   1.400   1.969   4.150
  896SOL    HW1 4818   1.376   1.932   4.060
  896SOL    HW2 4819   1.499   1.985   4.154
  897SOL     OW 4820   0.249   3.647   4.965
  897SOL    HW1 4821   0.306   3.582   5.015
  897SOL    HW2 4822   0.233   3.614   4.872
  898SOL     OW 4823   0.940   3.560   4.628
  898SOL    HW1 4824   1.020   3.503   4.649
  898SOL    HW2 4825   0.891   3.520   4.551
  899SOL     OW 4826   0.382   2.562   4.204
  899SOL    HW1 4827   0.427   2.472   4.201
  899SOL    HW2 4828   0.288   2.551   4.237
  900SOL     OW 4829   0.614   1.984   3.841
  900SOL    HW1 4830   0.712   1.962   3.848
  900SOL    HW2 4831   0.583   1.967   3.748
  901SOL     OW 4832   0.803   3.264   4.648
  901SOL    HW1 4833   0.893   3.278   4.606
  901SOL    HW2 4834   0.732   3.266   4.577
  902SOL     OW 4835   0.922   2.365   4.623
  902SOL    HW1 4836   0.897   2.356   4.527
  902SOL    HW2 4837   0.970   2.283   4.654
  903SOL     OW 4838   0.539   1.926   4.236
  903SOL    HW1 4839   0.458   1.927   4.294
  903SOL    HW2 4840   0.542   2.009   4.181
  904SOL     OW 4841   1.434   3.050   3.765
  904SOL    HW1 4842   1.466   2.974   3.822
  904SOL    HW2 4843   1.342   3.077   3.795
  905SOL     OW 4844   0.297   1.897   3.895
  905SOL    HW1 4845   0.346   1.981   3.874
  905SOL    HW2 4846   0.359   1.832   3.940
  906SOL     OW 4847   1.227   3.432   4.517
  906SOL    HW1 4848   1.248   3.506   4.452
  906SOL    HW2 4849   1.295   3.432   4.590
  907SOL     OW 4850   0.459   3.014   4.465
  907SOL    HW1 4851   0.388   2.987   4.530
  907SOL    HW2 4852   0.433   2.986   4.372
  908SOL     OW 4853   1.271   3.659   4.315
  908SOL    HW1 4854   1.315   3.723   4.251
  908SOL    HW2 4855   1.221   3.711   4.385
  909SOL     OW 4856   1.032   2.411   3.740
  909SOL    HW1 4857   0.991   2.493   3.701
  909SOL    HW2 4858   1.096   2.437   3.813
  910SOL     OW 4859   0.561   2.084   4.871
  910SOL    HW1 4860   0.599   2.000   4.908
  910SOL    HW2 4861   0.473   2.103   4.915
  911SOL     OW 4862   1.017   1.901   4.477
  911SOL    HW1 4863   0.945   1.906   4.408
  911SOL    HW2 4864   0.993   1.832   4.546
  912SOL     OW 4865   1.429   3.035   4.591
  912SOL    HW1 4866   1.374   2.951   4.584
  912SOL    HW2 4867   1.455   3.064   4.499
  913SOL     OW 4868   1.466   2.452   4.716
  913SOL    HW1 4869   1.436   2.357   4.723
  913SOL    HW2 4870   1.539   2.468   4.782
  914SOL     OW 4871   1.857   2.695   4.101
  914SOL    HW1 4872   1.899   2.631   4.165
  914SOL    HW2 4873   1.819   2.644   4.023
  915SOL     OW 4874   0.488   3.247   3.898
  915SOL    HW1 4875   0.401   3.232   3.945
  915SOL    HW2 4876   0.471   3.273   3.803
  916SOL     OW 4877   1.664   3.142   4.381
  916SOL    HW1 4878   1.763   3.150   4.395
  916SOL    HW2 4879   1.619   3.226   4.412
  917SOL     OW 4880   1.390   2.437   3.802
  917SOL    HW1 4881   1.336   2.416   3.883
  917SOL    HW2 4882   1.481   2.396   3.811
  918SOL     OW 4883   0.527   2.118   4.052
  918SOL    HW1 4884   0.554   2.059   3.977
  918SOL    HW2 4885   0.527   2.213   4.021
  919SOL     OW 4886   1.111   3.057   4.824
  919SOL    HW1 4887   1.071   3.101   4.905
  919SOL    HW2 4888   1.070   3.094   4.741
  920SOL     OW 4889   1.638   2.961   4.803
  920SOL    HW1 4890   1.643   3.042   4.862
  920SOL    HW2 4891   1.552   2.963   4.752
  921SOL     OW 4892   0.410   2.675   4.975
  921SOL    HW1 4893   0.496   2.687   5.025
  921SOL    HW2 4894   0.368   2.588   5.002
  922SOL     OW 4895   1.274   2.248   4.986
  922SOL    HW1 4896   1.295   2.322   5.050
  922SOL    HW2 4897   1.185   2.265   4.943
  923SOL     OW 4898   0.367   2.962   4.225
  923SOL    HW1 4899   0.360   3.045   4.169
  923SOL    HW2 4900   0.371   2.882   4.165
  924SOL     OW 4901   1.252   3.210   4.112
  924SOL    HW1 4902   1.302   3.287   4.152
  924SOL    HW2 4903   1.157   3.212   4.144
  925SOL     OW 4904   1.272   3.307   4.866
  925SOL    HW1 4905   1.319   3.320   4.953
  925SOL    HW2 4906   1.206   3.233   4.875
  926SOL     OW 4907   1.582   2.501   4.196
  926SOL    HW1 4908   1.551   2.562   4.269
  926SOL    HW2 4909   1.632   2.553   4.127
  927SOL     OW 4910   0.354   3.372   5.053
  927SOL    HW1 4911   0.333   3.328   4.966
  927SOL    HW2 4912   0.451   3.398   5.056
  928SOL     OW 4913   0.573   2.732   4.753
  928SOL    HW1 4914   0.617   2.821   4.744
  928SOL    HW2 4915   0.510   2.732   4.830
  929SOL     OW 4916   1.360   2.724   4.769
  929SOL    HW1 4917   1.285   2.724   4.703
  929SOL    HW2 4918   1.397   2.632   4.778
  930SOL     OW 4919   1.209   2.387   3.999
  930SOL    HW1 4920   1.222   2.303   4.053
  930SOL    HW2 4921   1.180   2.461   4.059
  931SOL     OW 4922   0.307   2.075   4.955
  931SOL    HW1 4923   0.284   2.112   5.045
  931SOL    HW2 4924   0.277   1.980   4.949
  932SOL     OW 4925   0.037   3.172   5.006
  932SOL    HW1 4926   0.090   3.123   5.074
  932SOL    HW2 4927   0.059   3.270   5.011
  933SOL     OW 4928   0.732   2.496   4.788
  933SOL    HW1 4929   0.791   2.470   4.712
  933SOL    HW2 4930   0.704   2.592   4.777
  934SOL     OW 4931   0.307   1.925   4.342
  934SOL    HW1 4932   0.296   2.019   4.375
  934SOL    HW2 4933   0.302   1.862   4.419
  935SOL     OW 4934   1.622   2.229   4.098
  935SOL    HW1 4935   1.624   2.153   4.162
  935SOL    HW2 4936   1.574   2.306   4.138
  936SOL     OW 4937   1.023   2.628   4.690
  936SOL    HW1 4938   1.038   2.649   4.786
  936SOL    HW2 4939   0.993   2.533   4.681
  937SOL     OW 4940   1.540   2.136   3.849
  937SOL    HW1 4941   1.479   2.061   3.872
  937SOL    HW2 4942   1.562   2.188   3.932
  938SOL     OW 4943   1.303   2.700   3.766
  938SOL    HW1 4944   1.337   2.607   3.781
  938SOL    HW2 4945   1.321   2.727   3.671
  939SOL     OW 4946   1.160   2.069   5.201
  939SOL    HW1 4947   1.160   2.133   5.278
  939SOL    HW2 4948   1.188   2.117   5.118
  940SOL     OW 4949   0.008   3.188   3.924
  940SOL    HW1 4950  -0.085   3.209   3.893
  940SOL    HW2 4951   0.018   3.089   3.937
  941SOL     OW 4952   0.088   3.663   4.651
  941SOL    HW1 4953   0.046   3.577   4.624
  941SOL    HW2 4954   0.182   3.666   4.617
  942SOL     OW 4955   0.504   3.430   4.634
  942SOL    HW1 4956   0.570   3.504   4.643
  942SOL    HW2 4957   0.548   3.351   4.592
  943SOL     OW 4958   1.002   2.658   4.962
  943SOL    HW1 4959   1.043   2.626   5.048
  943SOL    HW2 4960   0.906   2.631   4.959
  944SOL     OW 4961   1.657   2.466   4.930
  944SOL    HW1 4962   1.619   2.397   4.992
  944SOL    HW2 4963   1.739   2.430   4.886
  945SOL     OW 4964   0.671   2.326   4.993
  945SOL    HW1 4965   0.637   2.237   4.963
  945SOL    HW2 4966   0.697   2.380   4.913
  946SOL     OW 4967   0.930   3.540   5.189
  946SOL    HW1 4968   0.906   3.522   5.094
  946SOL    HW2 4969   0.960   3.634   5.199
  947SOL     OW 4970   0.473   2.362   3.915
  947SOL    HW1 4971   0.534   2.442   3.919
  947SOL    HW2 4972   0.378   2.393   3.922
  948SOL     OW 4973   1.347   2.921   4.958
  948SOL    HW1 4974   1.371   2.858   4.884
  948SOL    HW2 4975   1.257   2.961   4.940
  949SOL     OW 4976   1.302   2.717   4.033
  949SOL    HW1 4977   1.216   2.686   4.075
  949SOL    HW2 4978   1.298   2.703   3.934
  950SOL     OW 4979   1.759   3.609   4.878
  950SOL    HW1 4980   1.820   3.639   4.805
  950SOL    HW2 4981   1.721   3.520   4.856
  951SOL     OW 4982   1.252   3.593   4.852
  951SOL    HW1 4983   1.336   3.598   4.798
  951SOL    HW2 4984   1.229   3.497   4.870
  952SOL     OW 4985   0.083   3.120   4.746
  952SOL    HW1 4986   0.078   3.119   4.846
  952SOL    HW2 4987   0.000   3.079   4.708
  953SOL     OW 4988   1.726   1.997   4.247
  953SOL    HW1 4989   1.799   1.980   4.180
  953SOL    HW2 4990   1.695   1.910   4.285
  954SOL     OW 4991   1.388   3.435   4.201
  954SOL    HW1 4992   1.455   3.447   4.127
  954SOL    HW2 4993   1.348   3.524   4.224
  955SOL     OW 4994   1.280   2.789   4.396
  955SOL    HW1 4995   1.340   2.708   4.398
  955SOL    HW2 4996   1.320   2.858   4.336
  956SOL     OW 4997   0.672   3.478   3.878
  956SOL    HW1 4998   0.681   3.488   3.779
  956SOL    HW2 4999   0.632   3.389   3.899
  957SOL     OW 5000   1.650   3.582   5.118
  957SOL    HW1 5001   1.703   3.592   5.034
  957SOL    HW2 5002   1.623   3.672   5.152
  958SOL     OW 5003   1.841   2.037   4.687
  958SOL    HW1 5004   1.880   1.952   4.651
  958SOL    HW2 5005   1.743   2.039   4.668
  959SOL     OW 5006   0.263   2.188   4.444
  959SOL    HW1 5007   0.184   2.239   4.410
  959SOL    HW2 5008   0.254   2.173   4.542
  960SOL     OW 5009   1.504   3.469   3.768
  960SOL    HW1 5010   1.412   3.506   3.775
  960SOL    HW2 5011   1.542   3.489   3.678
  961SOL     OW 5012   1.014   2.098   4.695
  961SOL    HW1 5013   1.006   2.062   4.602
  961SOL    HW2 5014   1.012   2.022   4.760
  962SOL     OW 5015   0.590   3.349   4.215
  962SOL    HW1 5016   0.632   3.291   4.145
  962SOL    HW2 5017   0.546   3.428   4.171
  963SOL     OW 5018   1.709   2.247   5.105
  963SOL    HW1 5019   1.782   2.316   5.109
  963SOL    HW2 5020   1.737   2.172   5.046
  964SOL     OW 5021   0.255   3.210   4.014
  964SOL    HW1 5022   0.159   3.211   3.987
  964SOL    HW2 5023   0.267   3.263   4.098
  965SOL     OW 5024   0.075   2.207   3.757
  965SOL    HW1 5025  -0.017   2.179   3.728
  965SOL    HW2 5026   0.106   2.284   3.701
  966SOL     OW 5027   0.072   2.028   4.042
  966SOL    HW1 5028   0.055   2.111   3.988
  966SOL    HW2 5029   0.162   1.991   4.020
  967SOL     OW 5030   1.183   3.197   3.843
  967SOL    HW1 5031   1.084   3.186   3.845
  967SOL    HW2 5032   1.217   3.212   3.936
  968SOL     OW 5033   1.493   3.629   4.683
  968SOL    HW1 5034   1.526   3.693   4.614
  968SOL    HW2 5035   1.559   3.623   4.758
  969SOL     OW 5036   1.450   3.082   5.357
  969SOL    HW1 5037   1.441   3.072   5.456
  969SOL    HW2 5038   1.546   3.075   5.331
  970SOL     OW 5039   1.674   2.745   4.978
  970SOL    HW1 5040   1.647   2.656   4.941
  970SOL    HW2 5041   1.675   2.813   4.905
  971SOL     OW 5042   1.225   2.187   4.173
  971SOL    HW1 5043   1.290   2.113   4.162
  971SOL    HW2 5044   1.245   2.237   4.257
  972SOL     OW 5045   0.859   3.236   3.740
  972SOL    HW1 5046   0.813   3.251   3.828
  972SOL    HW2 5047   0.903   3.321   3.710
  973SOL     OW 5048   0.661   3.652   4.677
  973SOL    HW1 5049   0.615   3.740   4.664
  973SOL    HW2 5050   0.760   3.664   4.670
  974SOL     OW 5051   0.859   2.818   4.585
  974SOL    HW1 5052   0.913   2.749   4.633
  974SOL    HW2 5053   0.827   2.887   4.651
  975SOL     OW 5054   1.083   2.846   3.811
  975SOL    HW1 5055   1.060   2.899   3.729
  975SOL    HW2 5056   1.164   2.790   3.792
  976SOL     OW 5057   1.861   3.431   4.575
  976SOL    HW1 5058   1.790   3.419   4.505
  976SOL    HW2 5059   1.862   3.352   4.635
  977SOL     OW 5060   0.079   3.102   4.377
  977SOL    HW1 5061   0.078   3.055   4.465
  977SOL    HW2 5062   0.161   3.074   4.326
  978SOL     OW 5063   1.824   2.054   4.951
  978SOL    HW1 5064   1.820   1.964   4.995
  978SOL    HW2 5065   1.827   2.043   4.852
  979SOL     OW 5066   0.428   2.286   4.244
  979SOL    HW1 5067   0.458   2.214   4.182
  979SOL    HW2 5068   0.389   2.246   4.327
  980SOL     OW 5069   1.705   3.349   4.828
  980SOL    HW1 5070   1.612   3.324   4.801
  980SOL    HW2 5071   1.731   3.299   4.910
  981SOL     OW 5072   0.812   3.448   4.411
  981SOL    HW1 5073   0.844   3.458   4.317
  981SOL    HW2 5074   0.733   3.386   4.413
  982SOL     OW 5075   1.424   2.076   4.836
  982SOL    HW1 5076   1.476   2.011   4.891
  982SOL    HW2 5077   1.375   2.139   4.897
  983SOL     OW 5078   1.001   1.896   4.878
  983SOL    HW1 5079   0.938   1.824   4.847
  983SOL    HW2 5080   1.094   1.860   4.878
  984SOL     OW 5081   0.770   3.192   4.025
  984SOL    HW1 5082   0.724   3.105   4.042
  984SOL    HW2 5083   0.861   3.189   4.066
  985SOL     OW 5084   1.352   1.914   3.892
  985SOL    HW1 5085   1.387   1.873   3.808
  985SOL    HW2 5086   1.262   1.876   3.912
  986SOL     OW 5087   1.593   2.083   4.606
  986SOL    HW1 5088   1.509   2.082   4.660
  986SOL    HW2 5089   1.595   2.166   4.550
  987SOL     OW 5090   0.039   2.939   4.024
  987SOL    HW1 5091   0.138   2.928   4.015
  987SOL    HW2 5092  -0.001   2.853   4.056
  988SOL     OW 5093   0.875   3.508   4.061
  988SOL    HW1 5094   0.798   3.473   4.007
  988SOL    HW2 5095   0.843   3.579   4.123
  989SOL     OW 5096   0.230   4.352   0.113
  989SOL    HW1 5097   0.137   4.350   0.150
  989SOL    HW2 5098   0.231   4.313   0.021
  990SOL     OW 5099   1.555   5.235   0.703
  990SOL    HW1 5100   1.498   5.219   0.784
  990SOL    HW2 5101   1.496   5.245   0.623
  991SOL     OW 5102   1.135   4.427   0.717
  991SOL    HW1 5103   1.192   4.505   0.692
  991SOL    HW2 5104   1.075   4.453   0.793
  992SOL     OW 5105   1.755   4.331   0.231
  992SOL    HW1 5106   1.743   4.318   0.132
  992SOL    HW2 5107   1.725   4.250   0.280
  993SOL     OW 5108   0.850   4.522   1.823
  993SOL    HW1 5109   0.846   4.598   1.888
  993SOL    HW2 5110   0.872   4.558   1.732
  994SOL     OW 5111   0.685   4.736   0.665
  994SOL    HW1 5112   0.754   4.720   0.735
  994SOL    HW2 5113   0.612   4.793   0.703
  995SOL     OW 5114   0.686   4.885   1.803
  995SOL    HW1 5115   0.746   4.964   1.817
  995SOL    HW2 5116   0.600   4.916   1.762
  996SOL     OW 5117   0.438   4.116   1.499
  996SOL    HW1 5118   0.520   4.060   1.508
  996SOL    HW2 5119   0.357   4.058   1.503
  997SOL     OW 5120   1.603   4.171   0.737
  997SOL    HW1 5121   1.529   4.217   0.687
  997SOL    HW2 5122   1.654   4.239   0.790
  998SOL     OW 5123   0.606   4.688   0.123
  998SOL    HW1 5124   0.613   4.772   0.069
  998SOL    HW2 5125   0.652   4.701   0.211
  999SOL     OW 5126   1.594   3.838   1.480
  999SOL    HW1 5127   1.576   3.905   1.408
  999SOL    HW2 5128   1.591   3.884   1.569
 1000SOL     OW 5129   0.122   4.367   0.563
 1000SOL    HW1 5130   0.077   4.279   0.580
 1000SOL    HW2 5131   0.121   4.421   0.647
 1001SOL     OW 5132   1.689   4.646   0.612
 1001SOL    HW1 5133   1.784   4.617   0.620
 1001SOL    HW2 5134   1.681   4.711   0.537
 1002SOL     OW 5135   1.641   4.832   0.432
 1002SOL    HW1 5136   1.727   4.834   0.380
 1002SOL    HW2 5137   1.655   4.879   0.520
 1003SOL     OW 5138   0.113   4.461   1.597
 1003SOL    HW1 5139   0.201   4.448   1.642
 1003SOL    HW2 5140   0.100   4.558   1.575
 1004SOL     OW 5141   1.293   4.952   1.423
 1004SOL    HW1 5142   1.330   4.879   1.365
 1004SOL    HW2 5143   1.345   4.957   1.508
 1005SOL     OW 5144   0.317   3.975   1.801
 1005SOL    HW1 5145   0.388   4.046   1.807
 1005SOL    HW2 5146   0.229   4.014   1.829
 1006SOL     OW 5147   1.466   5.141   0.953
 1006SOL    HW1 5148   1.407   5.147   1.033
 1006SOL    HW2 5149   1.451   5.053   0.907
 1007SOL     OW 5150   0.598   4.453   0.270
 1007SOL    HW1 5151   0.622   4.522   0.202
 1007SOL    HW2 5152   0.520   4.486   0.324
 1008SOL     OW 5153   0.807   4.329   1.465
 1008SOL    HW1 5154   0.760   4.326   1.554
 1008SOL    HW2 5155   0.756   4.274   1.399
 1009SOL     OW 5156   1.394   4.193   1.674
 1009SOL    HW1 5157   1.374   4.236   1.762
 1009SOL    HW2 5158   1.472   4.131   1.683
 1010SOL     OW 5159   0.973   4.614   1.572
 1010SOL    HW1 5160   1.019   4.530   1.543
 1010SOL    HW2 5161   0.917   4.648   1.497
 1011SOL     OW 5162   1.041   4.425   0.429
 1011SOL    HW1 5163   1.067   4.421   0.525
 1011SOL    HW2 5164   0.956   4.374   0.415
 1012SOL     OW 5165   0.076   4.535   0.789
 1012SOL    HW1 5166   0.175   4.523   0.798
 1012SOL    HW2 5167   0.052   4.630   0.810
 1013SOL     OW 5168   0.865   4.072   0.195
 1013SOL    HW1 5169   0.924   4.135   0.146
 1013SOL    HW2 5170   0.884   3.978   0.166
 1014SOL     OW 5171   1.719   4.309   1.831
 1014SOL    HW1 5172   1.693   4.398   1.795
 1014SOL    HW2 5173   1.717   4.241   1.758
 1015SOL     OW 5174   0.550   3.920   0.885
 1015SOL    HW1 5175   0.545   3.915   0.985
 1015SOL    HW2 5176   0.552   4.016   0.856
 1016SOL     OW 5177   1.795   4.790   0.873
 1016SOL    HW1 5178   1.733   4.775   0.797
 1016SOL    HW2 5179   1.743   4.801   0.958
 1017SOL     OW 5180   0.321   4.667   0.242
 1017SOL    HW1 5181   0.403   4.706   0.200
 1017SOL    HW2 5182   0.294   4.585   0.193
 1018SOL     OW 5183   1.458   4.459   0.728
 1018SOL    HW1 5184   1.453   4.394   0.803
 1018SOL    HW2 5185   1.538   4.518   0.741
 1019SOL     OW 5186   0.202   4.009   1.498
 1019SOL    HW1 5187   0.122   4.069   1.485
 1019SOL    HW2 5188   0.192   3.960   1.584
 1020SOL     OW 5189   1.632   5.101   0.081
 1020SOL    HW1 5190   1.600   5.195   0.071
 1020SOL    HW2 5191   1.556   5.038   0.069
 1021SOL     OW 5192   1.400   3.831   0.426
 1021SOL    HW1 5193   1.376   3.794   0.336
 1021SOL    HW2 5194   1.499   3.847   0.430
 1022SOL     OW 5195   0.382   4.424   0.480
 1022SOL    HW1 5196   0.427   4.334   0.477
 1022SOL    HW2 5197   0.288   4.413   0.513
 1023SOL     OW 5198   1.547   3.946   1.729
 1023SOL    HW1 5199   1.542   3.983   1.821
 1023SOL    HW2 5200   1.475   3.877   1.717
 1024SOL     OW 5201   0.781   3.988   1.749
 1024SOL    HW1 5202   0.848   3.927   1.792
 1024SOL    HW2 5203   0.708   4.007   1.814
 1025SOL     OW 5204   1.351   4.314   1.433
 1025SOL    HW1 5205   1.379   4.271   1.518
 1025SOL    HW2 5206   1.376   4.410   1.434
 1026SOL     OW 5207   0.539   3.788   0.512
 1026SOL    HW1 5208   0.458   3.789   0.570
 1026SOL    HW2 5209   0.542   3.871   0.457
 1027SOL     OW 5210   1.434   4.912   0.041
 1027SOL    HW1 5211   1.466   4.836   0.098
 1027SOL    HW2 5212   1.342   4.939   0.071
 1028SOL     OW 5213   0.297   3.759   0.171
 1028SOL    HW1 5214   0.346   3.843   0.150
 1028SOL    HW2 5215   0.359   3.694   0.216
 1029SOL     OW 5216   0.935   3.960   0.480
 1029SOL    HW1 5217   0.887   4.001   0.402
 1029SOL    HW2 5218   1.034   3.958   0.461
 1030SOL     OW 5219   1.076   4.407   1.464
 1030SOL    HW1 5220   0.996   4.346   1.467
 1030SOL    HW2 5221   1.157   4.354   1.440
 1031SOL     OW 5222   1.032   4.273   0.016
 1031SOL    HW1 5223   0.991   4.355  -0.023
 1031SOL    HW2 5224   1.096   4.299   0.089
 1032SOL     OW 5225   0.078   4.280   1.386
 1032SOL    HW1 5226   0.170   4.279   1.345
 1032SOL    HW2 5227   0.072   4.354   1.453
 1033SOL     OW 5228   0.561   3.946   1.147
 1033SOL    HW1 5229   0.599   3.862   1.184
 1033SOL    HW2 5230   0.473   3.965   1.191
 1034SOL     OW 5231   0.866   4.178   0.642
 1034SOL    HW1 5232   0.834   4.250   0.580
 1034SOL    HW2 5233   0.890   4.097   0.589
 1035SOL     OW 5234   1.429   4.897   0.867
 1035SOL    HW1 5235   1.374   4.813   0.860
 1035SOL    HW2 5236   1.455   4.926   0.775
 1036SOL     OW 5237   1.466   4.314   0.992
 1036SOL    HW1 5238   1.436   4.219   0.999
 1036SOL    HW2 5239   1.539   4.330   1.058
 1037SOL     OW 5240   1.857   4.557   0.377
 1037SOL    HW1 5241   1.899   4.493   0.441
 1037SOL    HW2 5242   1.819   4.506   0.299
 1038SOL     OW 5243   1.664   5.004   0.657
 1038SOL    HW1 5244   1.763   5.012   0.671
 1038SOL    HW2 5245   1.619   5.088   0.688
 1039SOL     OW 5246   1.390   4.299   0.078
 1039SOL    HW1 5247   1.336   4.278   0.159
 1039SOL    HW2 5248   1.481   4.258   0.087
 1040SOL     OW 5249   0.527   3.980   0.328
 1040SOL    HW1 5250   0.554   3.921   0.253
 1040SOL    HW2 5251   0.527   4.075   0.297
 1041SOL     OW 5252   1.754   4.947   1.588
 1041SOL    HW1 5253   1.845   4.908   1.575
 1041SOL    HW2 5254   1.762   5.043   1.612
 1042SOL     OW 5255   1.638   4.823   1.079
 1042SOL    HW1 5256   1.643   4.904   1.138
 1042SOL    HW2 5257   1.552   4.825   1.028
 1043SOL     OW 5258   0.915   3.813   1.402
 1043SOL    HW1 5259   0.940   3.793   1.307
 1043SOL    HW2 5260   0.987   3.869   1.444
 1044SOL     OW 5261   0.980   4.840   1.719
 1044SOL    HW1 5262   0.881   4.846   1.729
 1044SOL    HW2 5263   1.003   4.760   1.663
 1045SOL     OW 5264   0.705   4.774   0.368
 1045SOL    HW1 5265   0.691   4.781   0.467
 1045SOL    HW2 5266   0.789   4.723   0.350
 1046SOL     OW 5267   1.274   4.110   1.262
 1046SOL    HW1 5268   1.295   4.184   1.326
 1046SOL    HW2 5269   1.185   4.127   1.219
 1047SOL     OW 5270   0.367   4.824   0.501
 1047SOL    HW1 5271   0.360   4.907   0.445
 1047SOL    HW2 5272   0.371   4.744   0.441
 1048SOL     OW 5273   0.566   4.261   0.865
 1048SOL    HW1 5274   0.578   4.327   0.791
 1048SOL    HW2 5275   0.612   4.295   0.948
 1049SOL     OW 5276   1.582   4.363   0.472
 1049SOL    HW1 5277   1.551   4.424   0.545
 1049SOL    HW2 5278   1.632   4.415   0.403
 1050SOL     OW 5279   0.402   4.475   1.598
 1050SOL    HW1 5280   0.470   4.530   1.551
 1050SOL    HW2 5281   0.442   4.387   1.625
 1051SOL     OW 5282   1.587   4.503   1.670
 1051SOL    HW1 5283   1.495   4.541   1.665
 1051SOL    HW2 5284   1.647   4.550   1.605
 1052SOL     OW 5285   1.013   3.829   1.770
 1052SOL    HW1 5286   1.019   3.914   1.718
 1052SOL    HW2 5287   1.045   3.753   1.713
 1053SOL     OW 5288   0.504   3.774   1.740
 1053SOL    HW1 5289   0.462   3.717   1.670
 1053SOL    HW2 5290   0.438   3.843   1.772
 1054SOL     OW 5291   1.360   4.586   1.045
 1054SOL    HW1 5292   1.285   4.586   0.979
 1054SOL    HW2 5293   1.397   4.494   1.054
 1055SOL     OW 5294   1.209   4.249   0.275
 1055SOL    HW1 5295   1.222   4.165   0.329
 1055SOL    HW2 5296   1.180   4.323   0.335
 1056SOL     OW 5297   0.307   3.937   1.231
 1056SOL    HW1 5298   0.284   3.974   1.321
 1056SOL    HW2 5299   0.277   3.842   1.225
 1057SOL     OW 5300   0.732   4.358   1.064
 1057SOL    HW1 5301   0.791   4.332   0.988
 1057SOL    HW2 5302   0.704   4.454   1.053
 1058SOL     OW 5303   1.728   4.659   1.854
 1058SOL    HW1 5304   1.682   4.652   1.765
 1058SOL    HW2 5305   1.666   4.703   1.920
 1059SOL     OW 5306   1.622   4.091   0.374
 1059SOL    HW1 5307   1.624   4.015   0.438
 1059SOL    HW2 5308   1.574   4.168   0.414
 1060SOL     OW 5309   1.023   4.490   0.966
 1060SOL    HW1 5310   1.038   4.511   1.062
 1060SOL    HW2 5311   0.993   4.395   0.957
 1061SOL     OW 5312   1.859   5.242   1.605
 1061SOL    HW1 5313   1.873   5.269   1.510
 1061SOL    HW2 5314   1.942   5.264   1.658
 1062SOL     OW 5315   0.350   4.622   1.804
 1062SOL    HW1 5316   0.426   4.666   1.852
 1062SOL    HW2 5317   0.385   4.575   1.722
 1063SOL     OW 5318   1.540   3.998   0.125
 1063SOL    HW1 5319   1.479   3.923   0.148
 1063SOL    HW2 5320   1.562   4.050   0.208
 1064SOL     OW 5321   0.339   4.233   1.006
 1064SOL    HW1 5322   0.287   4.150   0.989
 1064SOL    HW2 5323   0.416   4.238   0.942
 1065SOL     OW 5324   1.138   4.104   1.678
 1065SOL    HW1 5325   1.093   4.167   1.742
 1065SOL    HW2 5326   1.231   4.135   1.661
 1066SOL     OW 5327   0.008   5.050   0.200
 1066SOL    HW1 5328  -0.085   5.071   0.169
 1066SOL    HW2 5329   0.018   4.951   0.213
 1067SOL     OW 5330   1.002   4.520   1.238
 1067SOL    HW1 5331   1.043   4.488   1.324
 1067SOL    HW2 5332   0.906   4.493   1.235
 1068SOL     OW 5333   0.040   4.268   1.114
 1068SOL    HW1 5334   0.125   4.235   1.073
 1068SOL    HW2 5335   0.053   4.283   1.212
 1069SOL     OW 5336   0.189   4.244   1.722
 1069SOL    HW1 5337   0.248   4.204   1.652
 1069SOL    HW2 5338   0.131   4.315   1.681
 1070SOL     OW 5339   1.369   4.674   1.660
 1070SOL    HW1 5340   1.408   4.763   1.680
 1070SOL    HW2 5341   1.379   4.654   1.563
 1071SOL     OW 5342   0.815   4.296   0.325
 1071SOL    HW1 5343   0.822   4.207   0.279
 1071SOL    HW2 5344   0.721   4.330   0.317
 1072SOL     OW 5345   1.657   4.328   1.206
 1072SOL    HW1 5346   1.619   4.259   1.268
 1072SOL    HW2 5347   1.739   4.292   1.162
 1073SOL     OW 5348   0.671   4.188   1.269
 1073SOL    HW1 5349   0.637   4.099   1.239
 1073SOL    HW2 5350   0.697   4.242   1.189
 1074SOL     OW 5351   0.473   4.224   0.191
 1074SOL    HW1 5352   0.534   4.304   0.195
 1074SOL    HW2 5353   0.378   4.255   0.198
 1075SOL     OW 5354   1.347   4.783   1.234
 1075SOL    HW1 5355   1.371   4.720   1.160
 1075SOL    HW2 5356   1.257   4.823   1.216
 1076SOL     OW 5357   0.903   3.810   0.133
 1076SOL    HW1 5358   0.954   3.811   0.047
 1076SOL    HW2 5359   0.959   3.768   0.204
 1077SOL     OW 5360   1.726   3.859   0.523
 1077SOL    HW1 5361   1.799   3.842   0.456
 1077SOL    HW2 5362   1.695   3.772   0.561
 1078SOL     OW 5363   0.830   4.997   1.422
 1078SOL    HW1 5364   0.825   5.030   1.517
 1078SOL    HW2 5365   0.744   5.016   1.376
 1079SOL     OW 5366   1.841   3.899   0.963
 1079SOL    HW1 5367   1.880   3.814   0.927
 1079SOL    HW2 5368   1.743   3.901   0.944
 1080SOL     OW 5369   0.822   4.726   1.372
 1080SOL    HW1 5370   0.862   4.725   1.280
 1080SOL    HW2 5371   0.832   4.818   1.412
 1081SOL     OW 5372   0.372   5.012   1.490
 1081SOL    HW1 5373   0.359   5.105   1.456
 1081SOL    HW2 5374   0.288   4.960   1.477
 1082SOL     OW 5375   1.614   5.016   1.289
 1082SOL    HW1 5376   1.674   5.019   1.369
 1082SOL    HW2 5377   1.539   5.080   1.302
 1083SOL     OW 5378   1.709   4.109   1.381
 1083SOL    HW1 5379   1.782   4.178   1.385
 1083SOL    HW2 5380   1.737   4.034   1.322
 1084SOL     OW 5381   0.105   4.737   1.726
 1084SOL    HW1 5382   0.028   4.704   1.780
 1084SOL    HW2 5383   0.190   4.707   1.768
 1085SOL     OW 5384   0.672   3.927   1.489
 1085SOL    HW1 5385   0.762   3.911   1.449
 1085SOL    HW2 5386   0.680   3.932   1.588
 1086SOL     OW 5387   0.075   4.069   0.033
 1086SOL    HW1 5388  -0.017   4.041   0.004
 1086SOL    HW2 5389   0.106   4.146  -0.023
 1087SOL     OW 5390   1.440   4.580   1.398
 1087SOL    HW1 5391   1.383   4.632   1.335
 1087SOL    HW2 5392   1.536   4.592   1.374
 1088SOL     OW 5393   0.072   3.890   0.318
 1088SOL    HW1 5394   0.055   3.973   0.264
 1088SOL    HW2 5395   0.162   3.853   0.296
 1089SOL     OW 5396   0.613   4.566   1.431
 1089SOL    HW1 5397   0.669   4.647   1.414
 1089SOL    HW2 5398   0.672   4.486   1.434
 1090SOL     OW 5399   0.716   4.289   1.708
 1090SOL    HW1 5400   0.735   4.354   1.782
 1090SOL    HW2 5401   0.776   4.209   1.717
 1091SOL     OW 5402   1.450   4.944   1.633
 1091SOL    HW1 5403   1.441   4.934   1.732
 1091SOL    HW2 5404   1.546   4.937   1.607
 1092SOL     OW 5405   1.674   4.607   1.254
 1092SOL    HW1 5406   1.647   4.518   1.217
 1092SOL    HW2 5407   1.675   4.675   1.181
 1093SOL     OW 5408   1.225   4.049   0.449
 1093SOL    HW1 5409   1.290   3.975   0.438
 1093SOL    HW2 5410   1.245   4.099   0.533
 1094SOL     OW 5411   0.594   4.469   0.652
 1094SOL    HW1 5412   0.644   4.554   0.633
 1094SOL    HW2 5413   0.506   4.471   0.604
 1095SOL     OW 5414   1.777   4.066   1.642
 1095SOL    HW1 5415   1.760   4.097   1.548
 1095SOL    HW2 5416   1.693   4.029   1.680
 1096SOL     OW 5417   1.730   4.658   1.517
 1096SOL    HW1 5418   1.768   4.749   1.532
 1096SOL    HW2 5419   1.722   4.641   1.418
 1097SOL     OW 5420   1.824   3.916   1.227
 1097SOL    HW1 5421   1.820   3.826   1.271
 1097SOL    HW2 5422   1.827   3.905   1.128
 1098SOL     OW 5423   0.428   4.148   0.520
 1098SOL    HW1 5424   0.458   4.076   0.458
 1098SOL    HW2 5425   0.389   4.108   0.603
 1099SOL     OW 5426   0.317   4.271   1.280
 1099SOL    HW1 5427   0.355   4.212   1.352
 1099SOL    HW2 5428   0.357   4.245   1.192
 1100SOL     OW 5429   1.424   3.938   1.112
 1100SOL    HW1 5430   1.476   3.873   1.167
 1100SOL    HW2 5431   1.375   4.001   1.173
 1101SOL     OW 5432   0.770   5.054   0.301
 1101SOL    HW1 5433   0.724   4.967   0.318
 1101SOL    HW2 5434   0.861   5.051   0.342
 1102SOL     OW 5435   1.352   3.776   0.168
 1102SOL    HW1 5436   1.387   3.735   0.084
 1102SOL    HW2 5437   1.262   3.738   0.188
 1103SOL     OW 5438   1.593   3.945   0.882
 1103SOL    HW1 5439   1.509   3.944   0.936
 1103SOL    HW2 5440   1.595   4.028   0.826
 1104SOL     OW 5441   0.039   4.801   0.300
 1104SOL    HW1 5442   0.138   4.790   0.291
 1104SOL    HW2 5443  -0.001   4.715   0.332
 1105SOL     OW 5444   0.230   4.352   1.975
 1105SOL    HW1 5445   0.137   4.350   2.012
 1105SOL    HW2 5446   0.231   4.313   1.883
 1106SOL     OW 5447   0.225   3.999   2.858
 1106SOL    HW1 5448   0.260   3.982   2.950
 1106SOL    HW2 5449   0.137   3.954   2.846
 1107SOL     OW 5450   0.569   4.999   3.027
 1107SOL    HW1 5451   0.476   4.992   2.990
 1107SOL    HW2 5452   0.580   5.088   3.071
 1108SOL     OW 5453   1.135   4.427   2.579
 1108SOL    HW1 5454   1.192   4.505   2.554
 1108SOL    HW2 5455   1.075   4.453   2.655
 1109SOL     OW 5456   1.755   4.331   2.093
 1109SOL    HW1 5457   1.743   4.318   1.994
 1109SOL    HW2 5458   1.725   4.250   2.142
 1110SOL     OW 5459   0.768   4.868   2.885
 1110SOL    HW1 5460   0.690   4.885   2.945
 1110SOL    HW2 5461   0.802   4.955   2.849
 1111SOL     OW 5462   0.850   4.522   3.685
 1111SOL    HW1 5463   0.846   4.598   3.750
 1111SOL    HW2 5464   0.872   4.558   3.594
 1112SOL     OW 5465   0.685   4.736   2.527
 1112SOL    HW1 5466   0.754   4.720   2.597
 1112SOL    HW2 5467   0.612   4.793   2.565
 1113SOL     OW 5468   0.686   4.885   3.665
 1113SOL    HW1 5469   0.746   4.964   3.679
 1113SOL    HW2 5470   0.600   4.916   3.624
 1114SOL     OW 5471   0.335   5.159   2.923
 1114SOL    HW1 5472   0.257   5.128   2.870
 1114SOL    HW2 5473   0.393   5.217   2.866
 1115SOL     OW 5474   0.438   4.116   3.361
 1115SOL    HW1 5475   0.520   4.060   3.370
 1115SOL    HW2 5476   0.357   4.058   3.365
 1116SOL     OW 5477   1.603   4.171   2.599
 1116SOL    HW1 5478   1.529   4.217   2.549
 1116SOL    HW2 5479   1.654   4.239   2.652
 1117SOL     OW 5480   0.240   4.815   2.748
 1117SOL    HW1 5481   0.254   4.731   2.800
 1117SOL    HW2 5482   0.185   4.879   2.803
 1118SOL     OW 5483   0.606   4.688   1.985
 1118SOL    HW1 5484   0.613   4.772   1.931
 1118SOL    HW2 5485   0.652   4.701   2.073
 1119SOL     OW 5486   1.594   3.838   3.342
 1119SOL    HW1 5487   1.576   3.905   3.270
 1119SOL    HW2 5488   1.591   3.884   3.431
 1120SOL     OW 5489   0.122   4.367   2.425
 1120SOL    HW1 5490   0.077   4.279   2.442
 1120SOL    HW2 5491   0.121   4.421   2.509
 1121SOL     OW 5492   1.689   4.646   2.474
 1121SOL    HW1 5493   1.784   4.617   2.482
 1121SOL    HW2 5494   1.681   4.711   2.399
 1122SOL     OW 5495   0.113   4.461   3.459
 1122SOL    HW1 5496   0.201   4.448   3.504
 1122SOL    HW2 5497   0.100   4.558   3.437
 1123SOL     OW 5498   1.293   4.952   3.285
 1123SOL    HW1 5499   1.330   4.879   3.227
 1123SOL    HW2 5500   1.345   4.957   3.370
 1124SOL     OW 5501   0.809   3.728   2.364
 1124SOL    HW1 5502   0.849   3.819   2.355
 1124SOL    HW2 5503   0.709   3.736   2.370
 1125SOL     OW 5504   0.197   4.700   3.126
 1125SOL    HW1 5505   0.286   4.655   3.112
 1125SOL    HW2 5506   0.124   4.635   3.107
 1126SOL     OW 5507   1.525   4.723   2.052
 1126SOL    HW1 5508   1.462   4.647   2.065
 1126SOL    HW2 5509   1.573   4.741   2.138
 1127SOL     OW 5510   0.317   3.975   3.663
 1127SOL    HW1 5511   0.388   4.046   3.669
 1127SOL    HW2 5512   0.229   4.014   3.691
 1128SOL     OW 5513   0.598   4.453   2.132
 1128SOL    HW1 5514   0.622   4.522   2.064
 1128SOL    HW2 5515   0.520   4.486   2.186
 1129SOL     OW 5516   0.807   4.329   3.327
 1129SOL    HW1 5517   0.760   4.326   3.416
 1129SOL    HW2 5518   0.756   4.274   3.261
 1130SOL     OW 5519   1.394   4.193   3.536
 1130SOL    HW1 5520   1.374   4.236   3.624
 1130SOL    HW2 5521   1.472   4.131   3.545
 1131SOL     OW 5522   0.973   4.614   3.434
 1131SOL    HW1 5523   1.019   4.530   3.405
 1131SOL    HW2 5524   0.917   4.648   3.359
 1132SOL     OW 5525   0.991   4.134   3.104
 1132SOL    HW1 5526   0.914   4.168   3.158
 1132SOL    HW2 5527   0.957   4.083   3.025
 1133SOL     OW 5528   1.041   4.425   2.291
 1133SOL    HW1 5529   1.067   4.421   2.387
 1133SOL    HW2 5530   0.956   4.374   2.277
 1134SOL     OW 5531   0.865   4.072   2.057
 1134SOL    HW1 5532   0.924   4.135   2.008
 1134SOL    HW2 5533   0.884   3.978   2.028
 1135SOL     OW 5534   1.719   4.309   3.693
 1135SOL    HW1 5535   1.693   4.398   3.657
 1135SOL    HW2 5536   1.717   4.241   3.620
 1136SOL     OW 5537   0.550   3.920   2.747
 1136SOL    HW1 5538   0.545   3.915   2.847
 1136SOL    HW2 5539   0.552   4.016   2.718
 1137SOL     OW 5540   1.795   4.790   2.735
 1137SOL    HW1 5541   1.733   4.775   2.659
 1137SOL    HW2 5542   1.743   4.801   2.820
 1138SOL     OW 5543   0.321   4.667   2.104
 1138SOL    HW1 5544   0.403   4.706   2.062
 1138SOL    HW2 5545   0.294   4.585   2.055
 1139SOL     OW 5546   1.458   4.459   2.590
 1139SOL    HW1 5547   1.453   4.394   2.665
 1139SOL    HW2 5548   1.538   4.518   2.603
 1140SOL     OW 5549   0.202   4.009   3.360
 1140SOL    HW1 5550   0.122   4.069   3.347
 1140SOL    HW2 5551   0.192   3.960   3.446
 1141SOL     OW 5552   1.632   5.101   1.943
 1141SOL    HW1 5553   1.600   5.195   1.933
 1141SOL    HW2 5554   1.556   5.038   1.931
 1142SOL     OW 5555   1.400   3.831   2.288
 1142SOL    HW1 5556   1.376   3.794   2.198
 1142SOL    HW2 5557   1.499   3.847   2.292
 1143SOL     OW 5558   0.382   4.424   2.342
 1143SOL    HW1 5559   0.427   4.334   2.339
 1143SOL    HW2 5560   0.288   4.413   2.375
 1144SOL     OW 5561   1.547   3.946   3.591
 1144SOL    HW1 5562   1.542   3.983   3.683
 1144SOL    HW2 5563   1.475   3.877   3.579
 1145SOL     OW 5564   0.614   3.846   1.979
 1145SOL    HW1 5565   0.712   3.824   1.986
 1145SOL    HW2 5566   0.583   3.829   1.886
 1146SOL     OW 5567   0.781   3.988   3.611
 1146SOL    HW1 5568   0.848   3.927   3.654
 1146SOL    HW2 5569   0.708   4.007   3.676
 1147SOL     OW 5570   0.803   5.126   2.786
 1147SOL    HW1 5571   0.893   5.140   2.744
 1147SOL    HW2 5572   0.732   5.128   2.715
 1148SOL     OW 5573   0.922   4.227   2.761
 1148SOL    HW1 5574   0.897   4.218   2.665
 1148SOL    HW2 5575   0.970   4.145   2.792
 1149SOL     OW 5576   0.539   3.788   2.374
 1149SOL    HW1 5577   0.458   3.789   2.432
 1149SOL    HW2 5578   0.542   3.871   2.319
 1150SOL     OW 5579   1.434   4.912   1.903
 1150SOL    HW1 5580   1.466   4.836   1.960
 1150SOL    HW2 5581   1.342   4.939   1.933
 1151SOL     OW 5582   0.297   3.759   2.033
 1151SOL    HW1 5583   0.346   3.843   2.012
 1151SOL    HW2 5584   0.359   3.694   2.078
 1152SOL     OW 5585   0.935   3.960   2.342
 1152SOL    HW1 5586   0.887   4.001   2.264
 1152SOL    HW2 5587   1.034   3.958   2.323
 1153SOL     OW 5588   1.076   4.407   3.326
 1153SOL    HW1 5589   0.996   4.346   3.329
 1153SOL    HW2 5590   1.157   4.354   3.302
 1154SOL     OW 5591   1.227   5.294   2.655
 1154SOL    HW1 5592   1.248   5.368   2.590
 1154SOL    HW2 5593   1.295   5.294   2.728
 1155SOL     OW 5594   0.459   4.876   2.603
 1155SOL    HW1 5595   0.388   4.849   2.668
 1155SOL    HW2 5596   0.433   4.848   2.510
 1156SOL     OW 5597   1.032   4.273   1.878
 1156SOL    HW1 5598   0.991   4.355   1.839
 1156SOL    HW2 5599   1.096   4.299   1.951
 1157SOL     OW 5600   0.078   4.280   3.248
 1157SOL    HW1 5601   0.170   4.279   3.207
 1157SOL    HW2 5602   0.072   4.354   3.315
 1158SOL     OW 5603   0.561   3.946   3.009
 1158SOL    HW1 5604   0.599   3.862   3.046
 1158SOL    HW2 5605   0.473   3.965   3.053
 1159SOL     OW 5606   0.866   4.178   2.504
 1159SOL    HW1 5607   0.834   4.250   2.442
 1159SOL    HW2 5608   0.890   4.097   2.451
 1160SOL     OW 5609   1.017   3.763   2.615
 1160SOL    HW1 5610   0.945   3.768   2.546
 1160SOL    HW2 5611   0.993   3.694   2.684
 1161SOL     OW 5612   1.466   4.314   2.854
 1161SOL    HW1 5613   1.436   4.219   2.861
 1161SOL    HW2 5614   1.539   4.330   2.920
 1162SOL     OW 5615   1.857   4.557   2.239
 1162SOL    HW1 5616   1.899   4.493   2.303
 1162SOL    HW2 5617   1.819   4.506   2.161
 1163SOL     OW 5618   1.390   4.299   1.940
 1163SOL    HW1 5619   1.336   4.278   2.021
 1163SOL    HW2 5620   1.481   4.258   1.949
 1164SOL     OW 5621   0.527   3.980   2.190
 1164SOL    HW1 5622   0.554   3.921   2.115
 1164SOL    HW2 5623   0.527   4.075   2.159
 1165SOL     OW 5624   1.754   4.947   3.450
 1165SOL    HW1 5625   1.845   4.908   3.437
 1165SOL    HW2 5626   1.762   5.043   3.474
 1166SOL     OW 5627   1.638   4.823   2.941
 1166SOL    HW1 5628   1.643   4.904   3.000
 1166SOL    HW2 5629   1.552   4.825   2.890
 1167SOL     OW 5630   0.915   3.813   3.264
 1167SOL    HW1 5631   0.940   3.793   3.169
 1167SOL    HW2 5632   0.987   3.869   3.306
 1168SOL     OW 5633   0.980   4.840   3.581
 1168SOL    HW1 5634   0.881   4.846   3.591
 1168SOL    HW2 5635   1.003   4.760   3.525
 1169SOL     OW 5636   0.705   4.774   2.230
 1169SOL    HW1 5637   0.691   4.781   2.329
 1169SOL    HW2 5638   0.789   4.723   2.212
 1170SOL     OW 5639   0.410   4.537   3.113
 1170SOL    HW1 5640   0.496   4.549   3.163
 1170SOL    HW2 5641   0.368   4.450   3.140
 1171SOL     OW 5642   0.367   4.824   2.363
 1171SOL    HW1 5643   0.360   4.907   2.307
 1171SOL    HW2 5644   0.371   4.744   2.303
 1172SOL     OW 5645   0.566   4.261   2.727
 1172SOL    HW1 5646   0.578   4.327   2.653
 1172SOL    HW2 5647   0.612   4.295   2.810
 1173SOL     OW 5648   1.582   4.363   2.334
 1173SOL    HW1 5649   1.551   4.424   2.407
 1173SOL    HW2 5650   1.632   4.415   2.265
 1174SOL     OW 5651   0.402   4.475   3.460
 1174SOL    HW1 5652   0.470   4.530   3.413
 1174SOL    HW2 5653   0.442   4.387   3.487
 1175SOL     OW 5654   1.013   3.829   3.632
 1175SOL    HW1 5655   1.019   3.914   3.580
 1175SOL    HW2 5656   1.045   3.753   3.575
 1176SOL     OW 5657   0.504   3.774   3.602
 1176SOL    HW1 5658   0.462   3.717   3.532
 1176SOL    HW2 5659   0.438   3.843   3.634
 1177SOL     OW 5660   0.573   4.594   2.891
 1177SOL    HW1 5661   0.617   4.683   2.882
 1177SOL    HW2 5662   0.510   4.594   2.968
 1178SOL     OW 5663   1.360   4.586   2.907
 1178SOL    HW1 5664   1.285   4.586   2.841
 1178SOL    HW2 5665   1.397   4.494   2.916
 1179SOL     OW 5666   1.209   4.249   2.137
 1179SOL    HW1 5667   1.222   4.165   2.191
 1179SOL    HW2 5668   1.180   4.323   2.197
 1180SOL     OW 5669   0.307   3.937   3.093
 1180SOL    HW1 5670   0.284   3.974   3.183
 1180SOL    HW2 5671   0.277   3.842   3.087
 1181SOL     OW 5672   0.037   5.034   3.144
 1181SOL    HW1 5673   0.090   4.985   3.212
 1181SOL    HW2 5674   0.059   5.132   3.149
 1182SOL     OW 5675   0.732   4.358   2.926
 1182SOL    HW1 5676   0.791   4.332   2.850
 1182SOL    HW2 5677   0.704   4.454   2.915
 1183SOL     OW 5678   1.728   4.659   3.716
 1183SOL    HW1 5679   1.682   4.652   3.627
 1183SOL    HW2 5680   1.666   4.703   3.782
 1184SOL     OW 5681   1.622   4.091   2.236
 1184SOL    HW1 5682   1.624   4.015   2.300
 1184SOL    HW2 5683   1.574   4.168   2.276
 1185SOL     OW 5684   1.023   4.490   2.828
 1185SOL    HW1 5685   1.038   4.511   2.924
 1185SOL    HW2 5686   0.993   4.395   2.819
 1186SOL     OW 5687   1.859   5.242   3.467
 1186SOL    HW1 5688   1.873   5.269   3.372
 1186SOL    HW2 5689   1.942   5.264   3.520
 1187SOL     OW 5690   0.350   4.622   3.666
 1187SOL    HW1 5691   0.426   4.666   3.714
 1187SOL    HW2 5692   0.385   4.575   3.584
 1188SOL     OW 5693   1.540   3.998   1.987
 1188SOL    HW1 5694   1.479   3.923   2.010
 1188SOL    HW2 5695   1.562   4.050   2.070
 1189SOL     OW 5696   1.303   4.562   1.904
 1189SOL    HW1 5697   1.337   4.469   1.919
 1189SOL    HW2 5698   1.321   4.589   1.809
 1190SOL     OW 5699   0.319   4.534   2.811
 1190SOL    HW1 5700   0.412   4.570   2.816
 1190SOL    HW2 5701   0.313   4.449   2.863
 1191SOL     OW 5702   0.339   4.233   2.868
 1191SOL    HW1 5703   0.287   4.150   2.851
 1191SOL    HW2 5704   0.416   4.238   2.804
 1192SOL     OW 5705   0.008   5.050   2.062
 1192SOL    HW1 5706  -0.085   5.071   2.031
 1192SOL    HW2 5707   0.018   4.951   2.075
 1193SOL     OW 5708   1.002   4.520   3.100
 1193SOL    HW1 5709   1.043   4.488   3.186
 1193SOL    HW2 5710   0.906   4.493   3.097
 1194SOL     OW 5711   0.040   4.268   2.976
 1194SOL    HW1 5712   0.125   4.235   2.935
 1194SOL    HW2 5713   0.053   4.283   3.074
 1195SOL     OW 5714   0.189   4.244   3.584
 1195SOL    HW1 5715   0.248   4.204   3.514
 1195SOL    HW2 5716   0.131   4.315   3.543
 1196SOL     OW 5717   1.369   4.674   3.522
 1196SOL    HW1 5718   1.408   4.763   3.542
 1196SOL    HW2 5719   1.379   4.654   3.425
 1197SOL     OW 5720   0.815   4.296   2.187
 1197SOL    HW1 5721   0.822   4.207   2.141
 1197SOL    HW2 5722   0.721   4.330   2.179
 1198SOL     OW 5723   0.671   4.188   3.131
 1198SOL    HW1 5724   0.637   4.099   3.101
 1198SOL    HW2 5725   0.697   4.242   3.051
 1199SOL     OW 5726   0.473   4.224   2.053
 1199SOL    HW1 5727   0.534   4.304   2.057
 1199SOL    HW2 5728   0.378   4.255   2.060
 1200SOL     OW 5729   0.159   4.861   3.328
 1200SOL    HW1 5730   0.181   4.800   3.404
 1200SOL    HW2 5731   0.169   4.812   3.242
 1201SOL     OW 5732   1.347   4.783   3.096
 1201SOL    HW1 5733   1.371   4.720   3.022
 1201SOL    HW2 5734   1.257   4.823   3.078
 1202SOL     OW 5735   1.302   4.579   2.171
 1202SOL    HW1 5736   1.216   4.548   2.213
 1202SOL    HW2 5737   1.298   4.565   2.072
 1203SOL     OW 5738   0.083   4.982   2.884
 1203SOL    HW1 5739   0.078   4.981   2.984
 1203SOL    HW2 5740   0.000   4.941   2.846
 1204SOL     OW 5741   1.726   3.859   2.385
 1204SOL    HW1 5742   1.799   3.842   2.318
 1204SOL    HW2 5743   1.695   3.772   2.423
 1205SOL     OW 5744   0.830   4.997   3.284
 1205SOL    HW1 5745   0.825   5.030   3.379
 1205SOL    HW2 5746   0.744   5.016   3.238
 1206SOL     OW 5747   1.841   3.899   2.825
 1206SOL    HW1 5748   1.880   3.814   2.789
 1206SOL    HW2 5749   1.743   3.901   2.806
 1207SOL     OW 5750   0.822   4.726   3.234
 1207SOL    HW1 5751   0.862   4.725   3.142
 1207SOL    HW2 5752   0.832   4.818   3.274
 1208SOL     OW 5753   0.916   4.634   2.153
 1208SOL    HW1 5754   0.979   4.672   2.085
 1208SOL    HW2 5755   0.956   4.551   2.192
 1209SOL     OW 5756   0.372   5.012   3.352
 1209SOL    HW1 5757   0.359   5.105   3.318
 1209SOL    HW2 5758   0.288   4.960   3.339
 1210SOL     OW 5759   1.039   4.822   2.558
 1210SOL    HW1 5760   0.969   4.775   2.612
 1210SOL    HW2 5761   1.098   4.754   2.515
 1211SOL     OW 5762   1.014   3.960   2.833
 1211SOL    HW1 5763   1.006   3.924   2.740
 1211SOL    HW2 5764   1.012   3.884   2.898
 1212SOL     OW 5765   0.105   4.737   3.588
 1212SOL    HW1 5766   0.028   4.704   3.642
 1212SOL    HW2 5767   0.190   4.707   3.630
 1213SOL     OW 5768   0.672   3.927   3.351
 1213SOL    HW1 5769   0.762   3.911   3.311
 1213SOL    HW2 5770   0.680   3.932   3.450
 1214SOL     OW 5771   0.075   4.069   1.895
 1214SOL    HW1 5772  -0.017   4.041   1.866
 1214SOL    HW2 5773   0.106   4.146   1.839
 1215SOL     OW 5774   1.440   4.580   3.260
 1215SOL    HW1 5775   1.383   4.632   3.197
 1215SOL    HW2 5776   1.536   4.592   3.236
 1216SOL     OW 5777   0.613   4.566   3.293
 1216SOL    HW1 5778   0.669   4.647   3.276
 1216SOL    HW2 5779   0.672   4.486   3.296
 1217SOL     OW 5780   0.716   4.289   3.570
 1217SOL    HW1 5781   0.735   4.354   3.644
 1217SOL    HW2 5782   0.776   4.209   3.579
 1218SOL     OW 5783   1.450   4.944   3.495
 1218SOL    HW1 5784   1.441   4.934   3.594
 1218SOL    HW2 5785   1.546   4.937   3.469
 1219SOL     OW 5786   1.225   4.049   2.311
 1219SOL    HW1 5787   1.290   3.975   2.300
 1219SOL    HW2 5788   1.245   4.099   2.395
 1220SOL     OW 5789   0.594   4.469   2.514
 1220SOL    HW1 5790   0.644   4.554   2.495
 1220SOL    HW2 5791   0.506   4.471   2.466
 1221SOL     OW 5792   0.859   4.680   2.723
 1221SOL    HW1 5793   0.913   4.611   2.771
 1221SOL    HW2 5794   0.827   4.749   2.789
 1222SOL     OW 5795   1.083   4.708   1.949
 1222SOL    HW1 5796   1.060   4.761   1.867
 1222SOL    HW2 5797   1.164   4.652   1.930
 1223SOL     OW 5798   0.079   4.964   2.515
 1223SOL    HW1 5799   0.078   4.917   2.603
 1223SOL    HW2 5800   0.161   4.936   2.464
 1224SOL     OW 5801   1.824   3.916   3.089
 1224SOL    HW1 5802   1.820   3.826   3.133
 1224SOL    HW2 5803   1.827   3.905   2.990
 1225SOL     OW 5804   0.428   4.148   2.382
 1225SOL    HW1 5805   0.458   4.076   2.320
 1225SOL    HW2 5806   0.389   4.108   2.465
 1226SOL     OW 5807   0.317   4.271   3.142
 1226SOL    HW1 5808   0.355   4.212   3.214
 1226SOL    HW2 5809   0.357   4.245   3.054
 1227SOL     OW 5810   1.001   3.758   3.016
 1227SOL    HW1 5811   0.938   3.686   2.985
 1227SOL    HW2 5812   1.094   3.722   3.016
 1228SOL     OW 5813   1.352   3.776   2.030
 1228SOL    HW1 5814   1.387   3.735   1.946
 1228SOL    HW2 5815   1.262   3.738   2.050
 1229SOL     OW 5816   1.300   4.177   2.553
 1229SOL    HW1 5817   1.241   4.257   2.557
 1229SOL    HW2 5818   1.315   4.142   2.646
 1230SOL     OW 5819   1.593   3.945   2.744
 1230SOL    HW1 5820   1.509   3.944   2.798
 1230SOL    HW2 5821   1.595   4.028   2.688
 1231SOL     OW 5822   0.039   4.801   2.162
 1231SOL    HW1 5823   0.138   4.790   2.153
 1231SOL    HW2 5824  -0.001   4.715   2.194
 1232SOL     OW 5825   0.230   4.352   3.837
 1232SOL    HW1 5826   0.137   4.350   3.874
 1232SOL    HW2 5827   0.231   4.313   3.745
 1233SOL     OW 5828   0.225   3.999   4.720
 1233SOL    HW1 5829   0.260   3.982   4.812
 1233SOL    HW2 5830   0.137   3.954   4.708
 1234SOL     OW 5831   0.019   4.092   4.371
 1234SOL    HW1 5832  -0.063   4.135   4.410
 1234SOL    HW2 5833  -0.009   4.019   4.308
 1235SOL     OW 5834   0.569   4.999   4.889
 1235SOL    HW1 5835   0.476   4.992   4.852
 1235SOL    HW2 5836   0.580   5.088   4.933
 1236SOL     OW 5837   1.555   5.235   4.427
 1236SOL    HW1 5838   1.498   5.219   4.508
 1236SOL    HW2 5839   1.496   5.245   4.347
 1237SOL     OW 5840   1.135   4.427   4.441
 1237SOL    HW1 5841   1.192   4.505   4.416
 1237SOL    HW2 5842   1.075   4.453   4.517
 1238SOL     OW 5843   0.768   4.868   4.747
 1238SOL    HW1 5844   0.690   4.885   4.807
 1238SOL    HW2 5845   0.802   4.955   4.711
 1239SOL     OW 5846   0.335   5.159   4.785
 1239SOL    HW1 5847   0.257   5.128   4.732
 1239SOL    HW2 5848   0.393   5.217   4.728
 1240SOL     OW 5849   0.240   4.815   4.610
 1240SOL    HW1 5850   0.254   4.731   4.662
 1240SOL    HW2 5851   0.185   4.879   4.665
 1241SOL     OW 5852   0.122   4.367   4.287
 1241SOL    HW1 5853   0.077   4.279   4.304
 1241SOL    HW2 5854   0.121   4.421   4.371
 1242SOL     OW 5855   0.809   3.728   4.226
 1242SOL    HW1 5856   0.849   3.819   4.217
 1242SOL    HW2 5857   0.709   3.736   4.232
 1243SOL     OW 5858   0.197   4.700   4.988
 1243SOL    HW1 5859   0.286   4.655   4.974
 1243SOL    HW2 5860   0.124   4.635   4.969
 1244SOL     OW 5861   1.525   4.723   3.914
 1244SOL    HW1 5862   1.462   4.647   3.927
 1244SOL    HW2 5863   1.573   4.741   4.000
 1245SOL     OW 5864   1.281   4.069   4.668
 1245SOL    HW1 5865   1.195   4.019   4.655
 1245SOL    HW2 5866   1.343   4.015   4.724
 1246SOL     OW 5867   0.991   4.134   4.966
 1246SOL    HW1 5868   0.914   4.168   5.020
 1246SOL    HW2 5869   0.957   4.083   4.887
 1247SOL     OW 5870   1.041   4.425   4.153
 1247SOL    HW1 5871   1.067   4.421   4.249
 1247SOL    HW2 5872   0.956   4.374   4.139
 1248SOL     OW 5873   0.865   4.072   3.919
 1248SOL    HW1 5874   0.924   4.135   3.870
 1248SOL    HW2 5875   0.884   3.978   3.890
 1249SOL     OW 5876   0.550   3.920   4.609
 1249SOL    HW1 5877   0.545   3.915   4.709
 1249SOL    HW2 5878   0.552   4.016   4.580
 1250SOL     OW 5879   1.632   5.101   3.805
 1250SOL    HW1 5880   1.600   5.195   3.795
 1250SOL    HW2 5881   1.556   5.038   3.793
 1251SOL     OW 5882   1.400   3.831   4.150
 1251SOL    HW1 5883   1.376   3.794   4.060
 1251SOL    HW2 5884   1.499   3.847   4.154
 1252SOL     OW 5885   0.382   4.424   4.204
 1252SOL    HW1 5886   0.427   4.334   4.201
 1252SOL    HW2 5887   0.288   4.413   4.237
 1253SOL     OW 5888   0.614   3.846   3.841
 1253SOL    HW1 5889   0.712   3.824   3.848
 1253SOL    HW2 5890   0.583   3.829   3.748
 1254SOL     OW 5891   0.803   5.126   4.648
 1254SOL    HW1 5892   0.893   5.140   4.606
 1254SOL    HW2 5893   0.732   5.128   4.577
 1255SOL     OW 5894   0.922   4.227   4.623
 1255SOL    HW1 5895   0.897   4.218   4.527
 1255SOL    HW2 5896   0.970   4.145   4.654
 1256SOL     OW 5897   0.539   3.788   4.236
 1256SOL    HW1 5898   0.458   3.789   4.294
 1256SOL    HW2 5899   0.542   3.871   4.181
 1257SOL     OW 5900   1.434   4.912   3.765
 1257SOL    HW1 5901   1.466   4.836   3.822
 1257SOL    HW2 5902   1.342   4.939   3.795
 1258SOL     OW 5903   0.297   3.759   3.895
 1258SOL    HW1 5904   0.346   3.843   3.874
 1258SOL    HW2 5905   0.359   3.694   3.940
 1259SOL     OW 5906   0.935   3.960   4.204
 1259SOL    HW1 5907   0.887   4.001   4.126
 1259SOL    HW2 5908   1.034   3.958   4.185
 1260SOL     OW 5909   1.227   5.294   4.517
 1260SOL    HW1 5910   1.248   5.368   4.452
 1260SOL    HW2 5911   1.295   5.294   4.590
 1261SOL     OW 5912   0.459   4.876   4.465
 1261SOL    HW1 5913   0.388   4.849   4.530
 1261SOL    HW2 5914   0.433   4.848   4.372
 1262SOL     OW 5915   1.032   4.273   3.740
 1262SOL    HW1 5916   0.991   4.355   3.701
 1262SOL    HW2 5917   1.096   4.299   3.813
 1263SOL     OW 5918   0.561   3.946   4.871
 1263SOL    HW1 5919   0.599   3.862   4.908
 1263SOL    HW2 5920   0.473   3.965   4.915
 1264SOL     OW 5921   0.866   4.178   4.366
 1264SOL    HW1 5922   0.834   4.250   4.304
 1264SOL    HW2 5923   0.890   4.097   4.313
 1265SOL     OW 5924   1.017   3.763   4.477
 1265SOL    HW1 5925   0.945   3.768   4.408
 1265SOL    HW2 5926   0.993   3.694   4.546
 1266SOL     OW 5927   1.466   4.314   4.716
 1266SOL    HW1 5928   1.436   4.219   4.723
 1266SOL    HW2 5929   1.539   4.330   4.782
 1267SOL     OW 5930   1.390   4.299   3.802
 1267SOL    HW1 5931   1.336   4.278   3.883
 1267SOL    HW2 5932   1.481   4.258   3.811
 1268SOL     OW 5933   0.527   3.980   4.052
 1268SOL    HW1 5934   0.554   3.921   3.977
 1268SOL    HW2 5935   0.527   4.075   4.021
 1269SOL     OW 5936   0.410   4.537   4.975
 1269SOL    HW1 5937   0.496   4.549   5.025
 1269SOL    HW2 5938   0.368   4.450   5.002
 1270SOL     OW 5939   1.274   4.110   4.986
 1270SOL    HW1 5940   1.295   4.184   5.050
 1270SOL    HW2 5941   1.185   4.127   4.943
 1271SOL     OW 5942   0.566   4.261   4.589
 1271SOL    HW1 5943   0.578   4.327   4.515
 1271SOL    HW2 5944   0.612   4.295   4.672
 1272SOL     OW 5945   0.573   4.594   4.753
 1272SOL    HW1 5946   0.617   4.683   4.744
 1272SOL    HW2 5947   0.510   4.594   4.830
 1273SOL     OW 5948   1.360   4.586   4.769
 1273SOL    HW1 5949   1.285   4.586   4.703
 1273SOL    HW2 5950   1.397   4.494   4.778
 1274SOL     OW 5951   1.209   4.249   3.999
 1274SOL    HW1 5952   1.222   4.165   4.053
 1274SOL    HW2 5953   1.180   4.323   4.059
 1275SOL     OW 5954   0.307   3.937   4.955
 1275SOL    HW1 5955   0.284   3.974   5.045
 1275SOL    HW2 5956   0.277   3.842   4.949
 1276SOL     OW 5957   0.037   5.034   5.006
 1276SOL    HW1 5958   0.090   4.985   5.074
 1276SOL    HW2 5959   0.059   5.132   5.011
 1277SOL     OW 5960   0.732   4.358   4.788
 1277SOL    HW1 5961   0.791   4.332   4.712
 1277SOL    HW2 5962   0.704   4.454   4.777
 1278SOL     OW 5963   0.307   3.787   4.342
 1278SOL    HW1 5964   0.296   3.881   4.375
 1278SOL    HW2 5965   0.302   3.724   4.419
 1279SOL     OW 5966   1.622   4.091   4.098
 1279SOL    HW1 5967   1.624   4.015   4.162
 1279SOL    HW2 5968   1.574   4.168   4.138
 1280SOL     OW 5969   1.023   4.490   4.690
 1280SOL    HW1 5970   1.038   4.511   4.786
 1280SOL    HW2 5971   0.993   4.395   4.681
 1281SOL     OW 5972   1.540   3.998   3.849
 1281SOL    HW1 5973   1.479   3.923   3.872
 1281SOL    HW2 5974   1.562   4.050   3.932
 1282SOL     OW 5975   1.303   4.562   3.766
 1282SOL    HW1 5976   1.337   4.469   3.781
 1282SOL    HW2 5977   1.321   4.589   3.671
 1283SOL     OW 5978   0.319   4.534   4.673
 1283SOL    HW1 5979   0.412   4.570   4.678
 1283SOL    HW2 5980   0.313   4.449   4.725
 1284SOL     OW 5981   0.339   4.233   4.730
 1284SOL    HW1 5982   0.287   4.150   4.713
 1284SOL    HW2 5983   0.416   4.238   4.666
 1285SOL     OW 5984   1.160   3.931   5.201
 1285SOL    HW1 5985   1.160   3.995   5.278
 1285SOL    HW2 5986   1.188   3.979   5.118
 1286SOL     OW 5987   1.002   4.520   4.962
 1286SOL    HW1 5988   1.043   4.488   5.048
 1286SOL    HW2 5989   0.906   4.493   4.959
 1287SOL     OW 5990   0.040   4.268   4.838
 1287SOL    HW1 5991   0.125   4.235   4.797
 1287SOL    HW2 5992   0.053   4.283   4.936
 1288SOL     OW 5993   1.657   4.328   4.930
 1288SOL    HW1 5994   1.619   4.259   4.992
 1288SOL    HW2 5995   1.739   4.292   4.886
 1289SOL     OW 5996   0.671   4.188   4.993
 1289SOL    HW1 5997   0.637   4.099   4.963
 1289SOL    HW2 5998   0.697   4.242   4.913
 1290SOL     OW 5999   0.473   4.224   3.915
 1290SOL    HW1 6000   0.534   4.304   3.919
 1290SOL    HW2 6001   0.378   4.255   3.922
 1291SOL     OW 6002   1.302   4.579   4.033
 1291SOL    HW1 6003   1.216   4.548   4.075
 1291SOL    HW2 6004   1.298   4.565   3.934
 1292SOL     OW 6005   0.083   4.982   4.746
 1292SOL    HW1 6006   0.078   4.981   4.846
 1292SOL    HW2 6007   0.000   4.941   4.708
 1293SOL     OW 6008   1.726   3.859   4.247
 1293SOL    HW1 6009   1.799   3.842   4.180
 1293SOL    HW2 6010   1.695   3.772   4.285
 1294SOL     OW 6011   1.280   4.651   4.396
 1294SOL    HW1 6012   1.340   4.570   4.398
 1294SOL    HW2 6013   1.320   4.720   4.336
 1295SOL     OW 6014   0.830   4.997   5.146
 1295SOL    HW1 6015   0.825   5.030   5.241
 1295SOL    HW2 6016   0.744   5.016   5.100
 1296SOL     OW 6017   0.263   4.050   4.444
 1296SOL    HW1 6018   0.184   4.101   4.410
 1296SOL    HW2 6019   0.254   4.035   4.542
 1297SOL     OW 6020   1.194   5.336   3.755
 1297SOL    HW1 6021   1.200   5.243   3.792
 1297SOL    HW2 6022   1.135   5.336   3.675
 1298SOL     OW 6023   1.014   3.960   4.695
 1298SOL    HW1 6024   1.006   3.924   4.602
 1298SOL    HW2 6025   1.012   3.884   4.760
 1299SOL     OW 6026   1.709   4.109   5.105
 1299SOL    HW1 6027   1.782   4.178   5.109
 1299SOL    HW2 6028   1.737   4.034   5.046
 1300SOL     OW 6029   0.075   4.069   3.757
 1300SOL    HW1 6030  -0.017   4.041   3.728
 1300SOL    HW2 6031   0.106   4.146   3.701
 1301SOL     OW 6032   0.072   3.890   4.042
 1301SOL    HW1 6033   0.055   3.973   3.988
 1301SOL    HW2 6034   0.162   3.853   4.020
 1302SOL     OW 6035   1.674   4.607   4.978
 1302SOL    HW1 6036   1.647   4.518   4.941
 1302SOL    HW2 6037   1.675   4.675   4.905
 1303SOL     OW 6038   1.225   4.049   4.173
 1303SOL    HW1 6039   1.290   3.975   4.162
 1303SOL    HW2 6040   1.245   4.099   4.257
 1304SOL     OW 6041   1.730   4.658   5.241
 1304SOL    HW1 6042   1.768   4.749   5.256
 1304SOL    HW2 6043   1.722   4.641   5.142
 1305SOL     OW 6044   1.083   4.708   3.811
 1305SOL    HW1 6045   1.060   4.761   3.729
 1305SOL    HW2 6046   1.164   4.652   3.792
 1306SOL     OW 6047   0.079   4.964   4.377
 1306SOL    HW1 6048   0.078   4.917   4.465
 1306SOL    HW2 6049   0.161   4.936   4.326
 1307SOL     OW 6050   1.824   3.916   4.951
 1307SOL    HW1 6051   1.820   3.826   4.995
 1307SOL    HW2 6052   1.827   3.905   4.852
 1308SOL     OW 6053   0.428   4.148   4.244
 1308SOL    HW1 6054   0.458   4.076   4.182
 1308SOL    HW2 6055   0.389   4.108   4.327
 1309SOL     OW 6056   1.424   3.938   4.836
 1309SOL    HW1 6057   1.476   3.873   4.891
 1309SOL    HW2 6058   1.375   4.001   4.897
 1310SOL     OW 6059   1.001   3.758   4.878
 1310SOL    HW1 6060   0.938   3.686   4.847
 1310SOL    HW2 6061   1.094   3.722   4.878
 1311SOL     OW 6062   0.039   4.801   4.024
 1311SOL    HW1 6063   0.138   4.790   4.015
 1311SOL    HW2 6064  -0.001   4.715   4.056
 1312SOL     OW 6065   2.087   0.275   0.996
 1312SOL    HW1 6066   2.122   0.258   1.088
 1312SOL    HW2 6067   1.999   0.230   0.984
 1313SOL     OW 6068   1.881   0.368   0.647
 1313SOL    HW1 6069   1.799   0.411   0.686
 1313SOL    HW2 6070   1.853   0.295   0.584
 1314SOL     OW 6071   2.431   1.275   1.165
 1314SOL    HW1 6072   2.338   1.268   1.128
 1314SOL    HW2 6073   2.442   1.364   1.209
 1315SOL     OW 6074   3.417   1.511   0.703
 1315SOL    HW1 6075   3.360   1.495   0.784
 1315SOL    HW2 6076   3.358   1.521   0.623
 1316SOL     OW 6077   2.997   0.703   0.717
 1316SOL    HW1 6078   3.054   0.781   0.692
 1316SOL    HW2 6079   2.937   0.729   0.793
 1317SOL     OW 6080   2.630   1.144   1.023
 1317SOL    HW1 6081   2.552   1.161   1.083
 1317SOL    HW2 6082   2.664   1.231   0.987
 1318SOL     OW 6083   2.712   0.798   1.823
 1318SOL    HW1 6084   2.708   0.874   1.888
 1318SOL    HW2 6085   2.734   0.834   1.732
 1319SOL     OW 6086   2.547   1.012   0.665
 1319SOL    HW1 6087   2.616   0.996   0.735
 1319SOL    HW2 6088   2.474   1.069   0.703
 1320SOL     OW 6089   2.548   1.161   1.803
 1320SOL    HW1 6090   2.608   1.240   1.817
 1320SOL    HW2 6091   2.462   1.192   1.762
 1321SOL     OW 6092   2.197   1.435   1.061
 1321SOL    HW1 6093   2.119   1.404   1.008
 1321SOL    HW2 6094   2.255   1.493   1.004
 1322SOL     OW 6095   3.322   1.505   1.339
 1322SOL    HW1 6096   3.346   1.599   1.365
 1322SOL    HW2 6097   3.306   1.451   1.421
 1323SOL     OW 6098   2.300   0.392   1.499
 1323SOL    HW1 6099   2.382   0.336   1.508
 1323SOL    HW2 6100   2.219   0.334   1.503
 1324SOL     OW 6101   3.465   0.447   0.737
 1324SOL    HW1 6102   3.391   0.493   0.687
 1324SOL    HW2 6103   3.516   0.515   0.790
 1325SOL     OW 6104   2.093   1.713   0.483
 1325SOL    HW1 6105   2.127   1.790   0.537
 1325SOL    HW2 6106   2.137   1.713   0.393
 1326SOL     OW 6107   2.092   1.434   0.538
 1326SOL    HW1 6108   2.066   1.530   0.538
 1326SOL    HW2 6109   2.021   1.380   0.583
 1327SOL     OW 6110   2.102   1.091   0.886
 1327SOL    HW1 6111   2.116   1.007   0.938
 1327SOL    HW2 6112   2.047   1.155   0.941
 1328SOL     OW 6113   2.482   1.786   1.439
 1328SOL    HW1 6114   2.390   1.769   1.474
 1328SOL    HW2 6115   2.510   1.878   1.465
 1329SOL     OW 6116   2.468   0.964   0.123
 1329SOL    HW1 6117   2.475   1.048   0.069
 1329SOL    HW2 6118   2.514   0.977   0.211
 1330SOL     OW 6119   3.456   0.114   1.480
 1330SOL    HW1 6120   3.438   0.181   1.408
 1330SOL    HW2 6121   3.453   0.160   1.569
 1331SOL     OW 6122   1.984   0.643   0.563
 1331SOL    HW1 6123   1.939   0.555   0.580
 1331SOL    HW2 6124   1.983   0.697   0.647
 1332SOL     OW 6125   3.704   1.767   0.359
 1332SOL    HW1 6126   3.758   1.738   0.439
 1332SOL    HW2 6127   3.734   1.857   0.330
 1333SOL     OW 6128   1.889   1.596   0.117
 1333SOL    HW1 6129   1.870   1.500   0.138
 1333SOL    HW2 6130   1.856   1.654   0.192
 1334SOL     OW 6131   3.551   0.922   0.612
 1334SOL    HW1 6132   3.646   0.893   0.620
 1334SOL    HW2 6133   3.543   0.987   0.537
 1335SOL     OW 6134   3.503   1.108   0.432
 1335SOL    HW1 6135   3.589   1.110   0.380
 1335SOL    HW2 6136   3.517   1.155   0.520
 1336SOL     OW 6137   2.475   1.365   0.726
 1336SOL    HW1 6138   2.426   1.278   0.735
 1336SOL    HW2 6139   2.452   1.408   0.639
 1337SOL     OW 6140   2.671   0.004   0.502
 1337SOL    HW1 6141   2.711   0.095   0.493
 1337SOL    HW2 6142   2.571   0.012   0.508
 1338SOL     OW 6143   2.059   0.976   1.264
 1338SOL    HW1 6144   2.148   0.931   1.250
 1338SOL    HW2 6145   1.986   0.911   1.245
 1339SOL     OW 6146   3.049   1.792   1.616
 1339SOL    HW1 6147   3.073   1.852   1.540
 1339SOL    HW2 6148   3.056   1.697   1.586
 1340SOL     OW 6149   2.179   0.251   1.801
 1340SOL    HW1 6150   2.250   0.322   1.807
 1340SOL    HW2 6151   2.091   0.290   1.829
 1341SOL     OW 6152   3.529   1.714   0.572
 1341SOL    HW1 6153   3.488   1.691   0.484
 1341SOL    HW2 6154   3.511   1.640   0.637
 1342SOL     OW 6155   2.460   0.729   0.270
 1342SOL    HW1 6156   2.484   0.798   0.202
 1342SOL    HW2 6157   2.382   0.762   0.324
 1343SOL     OW 6158   3.143   0.345   0.944
 1343SOL    HW1 6159   3.057   0.295   0.931
 1343SOL    HW2 6160   3.205   0.291   1.000
 1344SOL     OW 6161   3.438   1.662   0.307
 1344SOL    HW1 6162   3.527   1.708   0.310
 1344SOL    HW2 6163   3.417   1.638   0.212
 1345SOL     OW 6164   2.669   0.605   1.465
 1345SOL    HW1 6165   2.622   0.602   1.554
 1345SOL    HW2 6166   2.618   0.550   1.399
 1346SOL     OW 6167   3.256   0.469   1.674
 1346SOL    HW1 6168   3.236   0.512   1.762
 1346SOL    HW2 6169   3.334   0.407   1.683
 1347SOL     OW 6170   2.835   0.890   1.572
 1347SOL    HW1 6171   2.881   0.806   1.543
 1347SOL    HW2 6172   2.779   0.924   1.497
 1348SOL     OW 6173   2.853   0.410   1.242
 1348SOL    HW1 6174   2.776   0.444   1.296
 1348SOL    HW2 6175   2.819   0.359   1.163
 1349SOL     OW 6176   2.903   0.701   0.429
 1349SOL    HW1 6177   2.929   0.697   0.525
 1349SOL    HW2 6178   2.818   0.650   0.415
 1350SOL     OW 6179   1.938   0.811   0.789
 1350SOL    HW1 6180   2.037   0.799   0.798
 1350SOL    HW2 6181   1.914   0.906   0.810
 1351SOL     OW 6182   1.992   1.821   1.571
 1351SOL    HW1 6183   1.982   1.806   1.670
 1351SOL    HW2 6184   1.906   1.857   1.535
 1352SOL     OW 6185   3.581   0.585   1.831
 1352SOL    HW1 6186   3.555   0.674   1.795
 1352SOL    HW2 6187   3.579   0.517   1.758
 1353SOL     OW 6188   3.224   1.144   0.545
 1353SOL    HW1 6189   3.307   1.115   0.497
 1353SOL    HW2 6190   3.175   1.211   0.489
 1354SOL     OW 6191   2.412   0.196   0.885
 1354SOL    HW1 6192   2.407   0.191   0.985
 1354SOL    HW2 6193   2.414   0.292   0.856
 1355SOL     OW 6194   2.870   1.456   0.477
 1355SOL    HW1 6195   2.824   1.528   0.425
 1355SOL    HW2 6196   2.866   1.476   0.575
 1356SOL     OW 6197   3.657   1.066   0.873
 1356SOL    HW1 6198   3.595   1.051   0.797
 1356SOL    HW2 6199   3.605   1.077   0.958
 1357SOL     OW 6200   2.183   0.943   0.242
 1357SOL    HW1 6201   2.265   0.982   0.200
 1357SOL    HW2 6202   2.156   0.861   0.193
 1358SOL     OW 6203   3.320   0.735   0.728
 1358SOL    HW1 6204   3.315   0.670   0.803
 1358SOL    HW2 6205   3.400   0.794   0.741
 1359SOL     OW 6206   2.323   1.266   1.727
 1359SOL    HW1 6207   2.273   1.267   1.641
 1359SOL    HW2 6208   2.260   1.248   1.803
 1360SOL     OW 6209   2.973   1.776   0.237
 1360SOL    HW1 6210   2.913   1.714   0.287
 1360SOL    HW2 6211   3.004   1.732   0.152
 1361SOL     OW 6212   2.064   0.285   1.498
 1361SOL    HW1 6213   1.984   0.345   1.485
 1361SOL    HW2 6214   2.054   0.236   1.584
 1362SOL     OW 6215   3.494   1.377   0.081
 1362SOL    HW1 6216   3.462   1.471   0.071
 1362SOL    HW2 6217   3.418   1.314   0.069
 1363SOL     OW 6218   3.262   0.107   0.426
 1363SOL    HW1 6219   3.238   0.070   0.336
 1363SOL    HW2 6220   3.361   0.123   0.430
 1364SOL     OW 6221   2.111   1.785   1.241
 1364SOL    HW1 6222   2.168   1.720   1.291
 1364SOL    HW2 6223   2.095   1.752   1.148
 1365SOL     OW 6224   2.802   1.698   0.904
 1365SOL    HW1 6225   2.882   1.641   0.925
 1365SOL    HW2 6226   2.753   1.658   0.827
 1366SOL     OW 6227   2.244   0.700   0.480
 1366SOL    HW1 6228   2.289   0.610   0.477
 1366SOL    HW2 6229   2.150   0.689   0.513
 1367SOL     OW 6230   3.409   0.222   1.729
 1367SOL    HW1 6231   3.404   0.259   1.821
 1367SOL    HW2 6232   3.337   0.153   1.717
 1368SOL     OW 6233   2.643   0.264   1.749
 1368SOL    HW1 6234   2.710   0.203   1.792
 1368SOL    HW2 6235   2.570   0.283   1.814
 1369SOL     OW 6236   3.213   0.590   1.433
 1369SOL    HW1 6237   3.241   0.547   1.518
 1369SOL    HW2 6238   3.238   0.686   1.434
 1370SOL     OW 6239   2.665   1.402   0.924
 1370SOL    HW1 6240   2.755   1.416   0.882
 1370SOL    HW2 6241   2.594   1.404   0.853
 1371SOL     OW 6242   2.784   0.503   0.899
 1371SOL    HW1 6243   2.759   0.494   0.803
 1371SOL    HW2 6244   2.832   0.421   0.930
 1372SOL     OW 6245   2.401   0.064   0.512
 1372SOL    HW1 6246   2.320   0.065   0.570
 1372SOL    HW2 6247   2.404   0.147   0.457
 1373SOL     OW 6248   2.797   0.236   0.480
 1373SOL    HW1 6249   2.749   0.277   0.402
 1373SOL    HW2 6250   2.896   0.234   0.461
 1374SOL     OW 6251   2.938   0.683   1.464
 1374SOL    HW1 6252   2.858   0.622   1.467
 1374SOL    HW2 6253   3.019   0.630   1.440
 1375SOL     OW 6254   3.089   1.570   0.793
 1375SOL    HW1 6255   3.110   1.644   0.728
 1375SOL    HW2 6256   3.157   1.570   0.866
 1376SOL     OW 6257   2.321   1.152   0.741
 1376SOL    HW1 6258   2.250   1.125   0.806
 1376SOL    HW2 6259   2.295   1.124   0.648
 1377SOL     OW 6260   3.133   1.797   0.591
 1377SOL    HW1 6261   3.177   1.861   0.527
 1377SOL    HW2 6262   3.083   1.849   0.661
 1378SOL     OW 6263   1.940   0.556   1.386
 1378SOL    HW1 6264   2.032   0.555   1.345
 1378SOL    HW2 6265   1.934   0.630   1.453
 1379SOL     OW 6266   2.423   0.222   1.147
 1379SOL    HW1 6267   2.461   0.138   1.184
 1379SOL    HW2 6268   2.335   0.241   1.191
 1380SOL     OW 6269   2.728   0.454   0.642
 1380SOL    HW1 6270   2.696   0.526   0.580
 1380SOL    HW2 6271   2.752   0.373   0.589
 1381SOL     OW 6272   2.879   0.039   0.753
 1381SOL    HW1 6273   2.807   0.044   0.684
 1381SOL    HW2 6274   2.855  -0.030   0.822
 1382SOL     OW 6275   3.291   1.173   0.867
 1382SOL    HW1 6276   3.236   1.089   0.860
 1382SOL    HW2 6277   3.317   1.202   0.775
 1383SOL     OW 6278   3.328   0.590   0.992
 1383SOL    HW1 6279   3.298   0.495   0.999
 1383SOL    HW2 6280   3.401   0.606   1.058
 1384SOL     OW 6281   3.719   0.833   0.377
 1384SOL    HW1 6282   3.761   0.769   0.441
 1384SOL    HW2 6283   3.681   0.782   0.299
 1385SOL     OW 6284   2.350   1.385   0.174
 1385SOL    HW1 6285   2.263   1.370   0.221
 1385SOL    HW2 6286   2.333   1.411   0.079
 1386SOL     OW 6287   3.616   1.223   1.588
 1386SOL    HW1 6288   3.707   1.184   1.575
 1386SOL    HW2 6289   3.624   1.319   1.612
 1387SOL     OW 6290   3.454   1.629   1.625
 1387SOL    HW1 6291   3.481   1.663   1.535
 1387SOL    HW2 6292   3.533   1.591   1.671
 1388SOL     OW 6293   3.500   1.099   1.079
 1388SOL    HW1 6294   3.505   1.180   1.138
 1388SOL    HW2 6295   3.414   1.101   1.028
 1389SOL     OW 6296   2.777   0.089   1.402
 1389SOL    HW1 6297   2.802   0.069   1.307
 1389SOL    HW2 6298   2.849   0.145   1.444
 1390SOL     OW 6299   2.842   1.116   1.719
 1390SOL    HW1 6300   2.743   1.122   1.729
 1390SOL    HW2 6301   2.865   1.036   1.663
 1391SOL     OW 6302   2.567   1.050   0.368
 1391SOL    HW1 6303   2.553   1.057   0.467
 1391SOL    HW2 6304   2.651   0.999   0.350
 1392SOL     OW 6305   2.272   0.813   1.251
 1392SOL    HW1 6306   2.358   0.825   1.301
 1392SOL    HW2 6307   2.230   0.726   1.278
 1393SOL     OW 6308   3.136   0.386   1.262
 1393SOL    HW1 6309   3.157   0.460   1.326
 1393SOL    HW2 6310   3.047   0.403   1.219
 1394SOL     OW 6311   1.926   1.564   1.331
 1394SOL    HW1 6312   1.880   1.646   1.297
 1394SOL    HW2 6313   2.024   1.583   1.340
 1395SOL     OW 6314   2.229   1.100   0.501
 1395SOL    HW1 6315   2.222   1.183   0.445
 1395SOL    HW2 6316   2.233   1.020   0.441
 1396SOL     OW 6317   2.428   0.537   0.865
 1396SOL    HW1 6318   2.440   0.603   0.791
 1396SOL    HW2 6319   2.474   0.571   0.948
 1397SOL     OW 6320   3.114   1.348   0.388
 1397SOL    HW1 6321   3.164   1.425   0.428
 1397SOL    HW2 6322   3.019   1.350   0.420
 1398SOL     OW 6323   3.444   0.639   0.472
 1398SOL    HW1 6324   3.413   0.700   0.545
 1398SOL    HW2 6325   3.494   0.691   0.403
 1399SOL     OW 6326   2.216   1.510   1.329
 1399SOL    HW1 6327   2.195   1.466   1.242
 1399SOL    HW2 6328   2.313   1.536   1.332
 1400SOL     OW 6329   3.449   0.779   1.670
 1400SOL    HW1 6330   3.357   0.817   1.665
 1400SOL    HW2 6331   3.509   0.826   1.605
 1401SOL     OW 6332   2.366   0.050   1.740
 1401SOL    HW1 6333   2.324  -0.007   1.670
 1401SOL    HW2 6334   2.300   0.119   1.772
 1402SOL     OW 6335   2.435   0.870   1.029
 1402SOL    HW1 6336   2.479   0.959   1.020
 1402SOL    HW2 6337   2.372   0.870   1.106
 1403SOL     OW 6338   3.222   0.862   1.045
 1403SOL    HW1 6339   3.147   0.862   0.979
 1403SOL    HW2 6340   3.259   0.770   1.054
 1404SOL     OW 6341   2.169   0.213   1.231
 1404SOL    HW1 6342   2.146   0.250   1.321
 1404SOL    HW2 6343   2.139   0.118   1.225
 1405SOL     OW 6344   1.899   1.310   1.282
 1405SOL    HW1 6345   1.952   1.261   1.350
 1405SOL    HW2 6346   1.921   1.408   1.287
 1406SOL     OW 6347   2.594   0.634   1.064
 1406SOL    HW1 6348   2.653   0.608   0.988
 1406SOL    HW2 6349   2.566   0.730   1.053
 1407SOL     OW 6350   3.590   0.935   1.854
 1407SOL    HW1 6351   3.544   0.928   1.765
 1407SOL    HW2 6352   3.528   0.979   1.920
 1408SOL     OW 6353   2.169   0.063   0.618
 1408SOL    HW1 6354   2.158   0.157   0.651
 1408SOL    HW2 6355   2.164   0.000   0.695
 1409SOL     OW 6356   3.484   0.367   0.374
 1409SOL    HW1 6357   3.486   0.291   0.438
 1409SOL    HW2 6358   3.436   0.444   0.414
 1410SOL     OW 6359   2.885   0.766   0.966
 1410SOL    HW1 6360   2.900   0.787   1.062
 1410SOL    HW2 6361   2.855   0.671   0.957
 1411SOL     OW 6362   3.721   1.518   1.605
 1411SOL    HW1 6363   3.735   1.545   1.510
 1411SOL    HW2 6364   3.804   1.540   1.658
 1412SOL     OW 6365   3.402   0.274   0.125
 1412SOL    HW1 6366   3.341   0.199   0.148
 1412SOL    HW2 6367   3.424   0.326   0.208
 1413SOL     OW 6368   2.181   0.810   0.949
 1413SOL    HW1 6369   2.274   0.846   0.954
 1413SOL    HW2 6370   2.175   0.725   1.001
 1414SOL     OW 6371   2.201   0.509   1.006
 1414SOL    HW1 6372   2.149   0.426   0.989
 1414SOL    HW2 6373   2.278   0.514   0.942
 1415SOL     OW 6374   3.000   0.380   1.678
 1415SOL    HW1 6375   2.955   0.443   1.742
 1415SOL    HW2 6376   3.093   0.411   1.661
 1416SOL     OW 6377   3.022   0.207   1.477
 1416SOL    HW1 6378   3.022   0.271   1.554
 1416SOL    HW2 6379   3.050   0.255   1.394
 1417SOL     OW 6380   1.950   1.801   0.927
 1417SOL    HW1 6381   1.908   1.715   0.900
 1417SOL    HW2 6382   2.044   1.804   0.893
 1418SOL     OW 6383   2.366   1.568   0.910
 1418SOL    HW1 6384   2.432   1.642   0.919
 1418SOL    HW2 6385   2.410   1.489   0.868
 1419SOL     OW 6386   2.864   0.796   1.238
 1419SOL    HW1 6387   2.905   0.764   1.324
 1419SOL    HW2 6388   2.768   0.769   1.235
 1420SOL     OW 6389   1.902   0.544   1.114
 1420SOL    HW1 6390   1.987   0.511   1.073
 1420SOL    HW2 6391   1.915   0.559   1.212
 1421SOL     OW 6392   2.051   0.520   1.722
 1421SOL    HW1 6393   2.110   0.480   1.652
 1421SOL    HW2 6394   1.993   0.591   1.681
 1422SOL     OW 6395   3.231   0.950   1.660
 1422SOL    HW1 6396   3.270   1.039   1.680
 1422SOL    HW2 6397   3.241   0.930   1.563
 1423SOL     OW 6398   2.677   0.572   0.325
 1423SOL    HW1 6399   2.684   0.483   0.279
 1423SOL    HW2 6400   2.583   0.606   0.317
 1424SOL     OW 6401   3.519   0.604   1.206
 1424SOL    HW1 6402   3.481   0.535   1.268
 1424SOL    HW2 6403   3.601   0.568   1.162
 1425SOL     OW 6404   2.114   1.564   1.744
 1425SOL    HW1 6405   2.084   1.621   1.820
 1425SOL    HW2 6406   2.107   1.467   1.770
 1426SOL     OW 6407   2.533   0.464   1.269
 1426SOL    HW1 6408   2.499   0.375   1.239
 1426SOL    HW2 6409   2.559   0.518   1.189
 1427SOL     OW 6410   2.021   1.137   1.466
 1427SOL    HW1 6411   2.043   1.076   1.542
 1427SOL    HW2 6412   2.031   1.088   1.380
 1428SOL     OW 6413   3.209   1.059   1.234
 1428SOL    HW1 6414   3.233   0.996   1.160
 1428SOL    HW2 6415   3.119   1.099   1.216
 1429SOL     OW 6416   3.621   1.747   1.154
 1429SOL    HW1 6417   3.682   1.777   1.081
 1429SOL    HW2 6418   3.583   1.658   1.132
 1430SOL     OW 6419   3.114   1.731   1.128
 1430SOL    HW1 6420   3.198   1.736   1.074
 1430SOL    HW2 6421   3.091   1.635   1.146
 1431SOL     OW 6422   1.945   1.258   1.022
 1431SOL    HW1 6423   1.940   1.257   1.122
 1431SOL    HW2 6424   1.862   1.217   0.984
 1432SOL     OW 6425   2.550   1.662   1.716
 1432SOL    HW1 6426   2.494   1.743   1.725
 1432SOL    HW2 6427   2.602   1.666   1.630
 1433SOL     OW 6428   3.588   0.135   0.523
 1433SOL    HW1 6429   3.661   0.118   0.456
 1433SOL    HW2 6430   3.557   0.048   0.561
 1434SOL     OW 6431   3.250   1.573   0.477
 1434SOL    HW1 6432   3.317   1.585   0.403
 1434SOL    HW2 6433   3.210   1.662   0.500
 1435SOL     OW 6434   1.992   1.794   1.851
 1435SOL    HW1 6435   1.951   1.720   1.904
 1435SOL    HW2 6436   2.056   1.845   1.909
 1436SOL     OW 6437   3.142   0.927   0.672
 1436SOL    HW1 6438   3.202   0.846   0.674
 1436SOL    HW2 6439   3.182   0.996   0.612
 1437SOL     OW 6440   2.534   1.616   0.154
 1437SOL    HW1 6441   2.543   1.626   0.055
 1437SOL    HW2 6442   2.494   1.527   0.175
 1438SOL     OW 6443   3.512   1.720   1.394
 1438SOL    HW1 6444   3.565   1.730   1.310
 1438SOL    HW2 6445   3.485   1.810   1.428
 1439SOL     OW 6446   3.703   0.175   0.963
 1439SOL    HW1 6447   3.742   0.090   0.927
 1439SOL    HW2 6448   3.605   0.177   0.944
 1440SOL     OW 6449   2.125   0.326   0.720
 1440SOL    HW1 6450   2.046   0.377   0.686
 1440SOL    HW2 6451   2.116   0.311   0.818
 1441SOL     OW 6452   3.056   1.612   0.031
 1441SOL    HW1 6453   3.062   1.519   0.068
 1441SOL    HW2 6454   2.997   1.612  -0.049
 1442SOL     OW 6455   2.778   0.910   0.291
 1442SOL    HW1 6456   2.841   0.948   0.223
 1442SOL    HW2 6457   2.818   0.827   0.330
 1443SOL     OW 6458   3.366   1.607   0.044
 1443SOL    HW1 6459   3.274   1.644   0.051
 1443SOL    HW2 6460   3.404   1.627  -0.046
 1444SOL     OW 6461   2.234   1.288   1.490
 1444SOL    HW1 6462   2.221   1.381   1.456
 1444SOL    HW2 6463   2.150   1.236   1.477
 1445SOL     OW 6464   3.476   1.292   1.289
 1445SOL    HW1 6465   3.536   1.295   1.369
 1445SOL    HW2 6466   3.401   1.356   1.302
 1446SOL     OW 6467   2.901   1.098   0.696
 1446SOL    HW1 6468   2.831   1.051   0.750
 1446SOL    HW2 6469   2.960   1.030   0.653
 1447SOL     OW 6470   2.876   0.236   0.971
 1447SOL    HW1 6471   2.868   0.200   0.878
 1447SOL    HW2 6472   2.874   0.160   1.036
 1448SOL     OW 6473   2.452   1.487   0.491
 1448SOL    HW1 6474   2.494   1.429   0.421
 1448SOL    HW2 6475   2.408   1.566   0.447
 1449SOL     OW 6476   3.571   0.385   1.381
 1449SOL    HW1 6477   3.644   0.454   1.385
 1449SOL    HW2 6478   3.599   0.310   1.322
 1450SOL     OW 6479   2.117   1.348   0.290
 1450SOL    HW1 6480   2.021   1.349   0.263
 1450SOL    HW2 6481   2.129   1.401   0.374
 1451SOL     OW 6482   1.967   1.013   1.726
 1451SOL    HW1 6483   1.890   0.980   1.780
 1451SOL    HW2 6484   2.052   0.983   1.768
 1452SOL     OW 6485   2.534   0.203   1.489
 1452SOL    HW1 6486   2.624   0.187   1.449
 1452SOL    HW2 6487   2.542   0.208   1.588
 1453SOL     OW 6488   3.302   0.856   1.398
 1453SOL    HW1 6489   3.245   0.908   1.335
 1453SOL    HW2 6490   3.398   0.868   1.374
 1454SOL     OW 6491   1.934   0.166   0.318
 1454SOL    HW1 6492   1.917   0.249   0.264
 1454SOL    HW2 6493   2.024   0.129   0.296
 1455SOL     OW 6494   2.475   0.842   1.431
 1455SOL    HW1 6495   2.531   0.923   1.414
 1455SOL    HW2 6496   2.534   0.762   1.434
 1456SOL     OW 6497   3.355   1.767   0.959
 1456SOL    HW1 6498   3.388   1.831   0.890
 1456SOL    HW2 6499   3.421   1.761   1.034
 1457SOL     OW 6500   2.252   1.741   1.560
 1457SOL    HW1 6501   2.161   1.782   1.558
 1457SOL    HW2 6502   2.245   1.647   1.592
 1458SOL     OW 6503   3.536   0.883   1.254
 1458SOL    HW1 6504   3.509   0.794   1.217
 1458SOL    HW2 6505   3.537   0.951   1.181
 1459SOL     OW 6506   3.087   0.325   0.449
 1459SOL    HW1 6507   3.152   0.251   0.438
 1459SOL    HW2 6508   3.107   0.375   0.533
 1460SOL     OW 6509   2.456   0.745   0.652
 1460SOL    HW1 6510   2.506   0.830   0.633
 1460SOL    HW2 6511   2.368   0.747   0.604
 1461SOL     OW 6512   3.639   0.342   1.642
 1461SOL    HW1 6513   3.622   0.373   1.548
 1461SOL    HW2 6514   3.555   0.305   1.680
 1462SOL     OW 6515   3.592   0.934   1.517
 1462SOL    HW1 6516   3.630   1.025   1.532
 1462SOL    HW2 6517   3.584   0.917   1.418
 1463SOL     OW 6518   2.721   1.374   0.016
 1463SOL    HW1 6519   2.675   1.389   0.104
 1463SOL    HW2 6520   2.765   1.459  -0.014
 1464SOL     OW 6521   2.721   0.956   0.861
 1464SOL    HW1 6522   2.775   0.887   0.909
 1464SOL    HW2 6523   2.689   1.025   0.927
 1465SOL     OW 6524   2.083   1.314   1.844
 1465SOL    HW1 6525   2.018   1.241   1.823
 1465SOL    HW2 6526   2.087   1.328   1.942
 1466SOL     OW 6527   1.941   1.240   0.653
 1466SOL    HW1 6528   1.940   1.193   0.741
 1466SOL    HW2 6529   2.023   1.212   0.602
 1467SOL     OW 6530   3.686   0.192   1.227
 1467SOL    HW1 6531   3.682   0.102   1.271
 1467SOL    HW2 6532   3.689   0.181   1.128
 1468SOL     OW 6533   2.290   0.424   0.520
 1468SOL    HW1 6534   2.320   0.352   0.458
 1468SOL    HW2 6535   2.251   0.384   0.603
 1469SOL     OW 6536   3.567   1.487   1.104
 1469SOL    HW1 6537   3.474   1.462   1.077
 1469SOL    HW2 6538   3.593   1.437   1.186
 1470SOL     OW 6539   2.179   0.547   1.280
 1470SOL    HW1 6540   2.217   0.488   1.352
 1470SOL    HW2 6541   2.219   0.521   1.192
 1471SOL     OW 6542   2.674   1.586   0.687
 1471SOL    HW1 6543   2.706   1.596   0.593
 1471SOL    HW2 6544   2.595   1.524   0.689
 1472SOL     OW 6545   3.286   0.214   1.112
 1472SOL    HW1 6546   3.338   0.149   1.167
 1472SOL    HW2 6547   3.237   0.277   1.173
 1473SOL     OW 6548   2.863   0.034   1.154
 1473SOL    HW1 6549   2.800  -0.038   1.123
 1473SOL    HW2 6550   2.956  -0.002   1.154
 1474SOL     OW 6551   2.632   1.330   0.301
 1474SOL    HW1 6552   2.586   1.243   0.318
 1474SOL    HW2 6553   2.723   1.327   0.342
 1475SOL     OW 6554   2.480   1.567   1.284
 1475SOL    HW1 6555   2.475   1.649   1.341
 1475SOL    HW2 6556   2.569   1.564   1.239
 1476SOL     OW 6557   3.214   0.052   0.168
 1476SOL    HW1 6558   3.249   0.011   0.084
 1476SOL    HW2 6559   3.124   0.014   0.188
 1477SOL     OW 6560   3.162   0.453   0.691
 1477SOL    HW1 6561   3.103   0.533   0.695
 1477SOL    HW2 6562   3.177   0.418   0.784
 1478SOL     OW 6563   3.455   0.221   0.882
 1478SOL    HW1 6564   3.371   0.220   0.936
 1478SOL    HW2 6565   3.457   0.304   0.826
 1479SOL     OW 6566   1.901   1.077   0.300
 1479SOL    HW1 6567   2.000   1.066   0.291
 1479SOL    HW2 6568   1.861   0.991   0.332
 1480SOL     OW 6569   2.737   1.646   0.337
 1480SOL    HW1 6570   2.660   1.611   0.283
 1480SOL    HW2 6571   2.705   1.717   0.399
 1481SOL     OW 6572   2.087   0.275   2.858
 1481SOL    HW1 6573   2.122   0.258   2.950
 1481SOL    HW2 6574   1.999   0.230   2.846
 1482SOL     OW 6575   1.881   0.368   2.509
 1482SOL    HW1 6576   1.799   0.411   2.548
 1482SOL    HW2 6577   1.853   0.295   2.446
 1483SOL     OW 6578   2.431   1.275   3.027
 1483SOL    HW1 6579   2.338   1.268   2.990
 1483SOL    HW2 6580   2.442   1.364   3.071
 1484SOL     OW 6581   3.417   1.511   2.565
 1484SOL    HW1 6582   3.360   1.495   2.646
 1484SOL    HW2 6583   3.358   1.521   2.485
 1485SOL     OW 6584   2.997   0.703   2.579
 1485SOL    HW1 6585   3.054   0.781   2.554
 1485SOL    HW2 6586   2.937   0.729   2.655
 1486SOL     OW 6587   3.617   0.607   2.093
 1486SOL    HW1 6588   3.605   0.594   1.994
 1486SOL    HW2 6589   3.587   0.526   2.142
 1487SOL     OW 6590   2.712   0.798   3.685
 1487SOL    HW1 6591   2.708   0.874   3.750
 1487SOL    HW2 6592   2.734   0.834   3.594
 1488SOL     OW 6593   2.547   1.012   2.527
 1488SOL    HW1 6594   2.616   0.996   2.597
 1488SOL    HW2 6595   2.474   1.069   2.565
 1489SOL     OW 6596   2.548   1.161   3.665
 1489SOL    HW1 6597   2.608   1.240   3.679
 1489SOL    HW2 6598   2.462   1.192   3.624
 1490SOL     OW 6599   2.197   1.435   2.923
 1490SOL    HW1 6600   2.119   1.404   2.870
 1490SOL    HW2 6601   2.255   1.493   2.866
 1491SOL     OW 6602   3.322   1.505   3.201
 1491SOL    HW1 6603   3.346   1.599   3.227
 1491SOL    HW2 6604   3.306   1.451   3.283
 1492SOL     OW 6605   2.300   0.392   3.361
 1492SOL    HW1 6606   2.382   0.336   3.370
 1492SOL    HW2 6607   2.219   0.334   3.365
 1493SOL     OW 6608   3.465   0.447   2.599
 1493SOL    HW1 6609   3.391   0.493   2.549
 1493SOL    HW2 6610   3.516   0.515   2.652
 1494SOL     OW 6611   2.989   1.341   3.552
 1494SOL    HW1 6612   3.036   1.341   3.640
 1494SOL    HW2 6613   2.941   1.254   3.541
 1495SOL     OW 6614   2.102   1.091   2.748
 1495SOL    HW1 6615   2.116   1.007   2.800
 1495SOL    HW2 6616   2.047   1.155   2.803
 1496SOL     OW 6617   2.468   0.964   1.985
 1496SOL    HW1 6618   2.475   1.048   1.931
 1496SOL    HW2 6619   2.514   0.977   2.073
 1497SOL     OW 6620   3.456   0.114   3.342
 1497SOL    HW1 6621   3.438   0.181   3.270
 1497SOL    HW2 6622   3.453   0.160   3.431
 1498SOL     OW 6623   3.704   1.767   2.221
 1498SOL    HW1 6624   3.758   1.738   2.301
 1498SOL    HW2 6625   3.734   1.857   2.192
 1499SOL     OW 6626   1.889   1.596   1.979
 1499SOL    HW1 6627   1.870   1.500   2.000
 1499SOL    HW2 6628   1.856   1.654   2.054
 1500SOL     OW 6629   3.503   1.108   2.294
 1500SOL    HW1 6630   3.589   1.110   2.242
 1500SOL    HW2 6631   3.517   1.155   2.382
 1501SOL     OW 6632   1.975   0.737   3.459
 1501SOL    HW1 6633   2.063   0.724   3.504
 1501SOL    HW2 6634   1.962   0.834   3.437
 1502SOL     OW 6635   3.155   1.228   3.285
 1502SOL    HW1 6636   3.192   1.155   3.227
 1502SOL    HW2 6637   3.207   1.233   3.370
 1503SOL     OW 6638   2.671   0.004   2.364
 1503SOL    HW1 6639   2.711   0.095   2.355
 1503SOL    HW2 6640   2.571   0.012   2.370
 1504SOL     OW 6641   2.059   0.976   3.126
 1504SOL    HW1 6642   2.148   0.931   3.112
 1504SOL    HW2 6643   1.986   0.911   3.107
 1505SOL     OW 6644   3.387   0.999   2.052
 1505SOL    HW1 6645   3.324   0.923   2.065
 1505SOL    HW2 6646   3.435   1.017   2.138
 1506SOL     OW 6647   3.049   1.792   3.478
 1506SOL    HW1 6648   3.073   1.852   3.402
 1506SOL    HW2 6649   3.056   1.697   3.448
 1507SOL     OW 6650   2.179   0.251   3.663
 1507SOL    HW1 6651   2.250   0.322   3.669
 1507SOL    HW2 6652   2.091   0.290   3.691
 1508SOL     OW 6653   3.328   1.417   2.815
 1508SOL    HW1 6654   3.269   1.423   2.895
 1508SOL    HW2 6655   3.313   1.329   2.769
 1509SOL     OW 6656   3.529   1.714   2.434
 1509SOL    HW1 6657   3.488   1.691   2.346
 1509SOL    HW2 6658   3.511   1.640   2.499
 1510SOL     OW 6659   3.438   1.662   2.169
 1510SOL    HW1 6660   3.527   1.708   2.172
 1510SOL    HW2 6661   3.417   1.638   2.074
 1511SOL     OW 6662   2.669   0.605   3.327
 1511SOL    HW1 6663   2.622   0.602   3.416
 1511SOL    HW2 6664   2.618   0.550   3.261
 1512SOL     OW 6665   2.835   0.890   3.434
 1512SOL    HW1 6666   2.881   0.806   3.405
 1512SOL    HW2 6667   2.779   0.924   3.359
 1513SOL     OW 6668   2.853   0.410   3.104
 1513SOL    HW1 6669   2.776   0.444   3.158
 1513SOL    HW2 6670   2.819   0.359   3.025
 1514SOL     OW 6671   2.903   0.701   2.291
 1514SOL    HW1 6672   2.929   0.697   2.387
 1514SOL    HW2 6673   2.818   0.650   2.277
 1515SOL     OW 6674   1.938   0.811   2.651
 1515SOL    HW1 6675   2.037   0.799   2.660
 1515SOL    HW2 6676   1.914   0.906   2.672
 1516SOL     OW 6677   1.992   1.821   3.433
 1516SOL    HW1 6678   1.982   1.806   3.532
 1516SOL    HW2 6679   1.906   1.857   3.397
 1517SOL     OW 6680   3.581   0.585   3.693
 1517SOL    HW1 6681   3.555   0.674   3.657
 1517SOL    HW2 6682   3.579   0.517   3.620
 1518SOL     OW 6683   3.224   1.144   2.407
 1518SOL    HW1 6684   3.307   1.115   2.359
 1518SOL    HW2 6685   3.175   1.211   2.351
 1519SOL     OW 6686   2.412   0.196   2.747
 1519SOL    HW1 6687   2.407   0.191   2.847
 1519SOL    HW2 6688   2.414   0.292   2.718
 1520SOL     OW 6689   2.870   1.456   2.339
 1520SOL    HW1 6690   2.824   1.528   2.287
 1520SOL    HW2 6691   2.866   1.476   2.437
 1521SOL     OW 6692   2.213   1.801   2.715
 1521SOL    HW1 6693   2.263   1.715   2.721
 1521SOL    HW2 6694   2.278   1.878   2.712
 1522SOL     OW 6695   3.657   1.066   2.735
 1522SOL    HW1 6696   3.595   1.051   2.659
 1522SOL    HW2 6697   3.605   1.077   2.820
 1523SOL     OW 6698   3.089   1.550   3.368
 1523SOL    HW1 6699   3.095   1.473   3.432
 1523SOL    HW2 6700   3.037   1.524   3.288
 1524SOL     OW 6701   2.183   0.943   2.104
 1524SOL    HW1 6702   2.265   0.982   2.062
 1524SOL    HW2 6703   2.156   0.861   2.055
 1525SOL     OW 6704   3.320   0.735   2.590
 1525SOL    HW1 6705   3.315   0.670   2.665
 1525SOL    HW2 6706   3.400   0.794   2.603
 1526SOL     OW 6707   2.323   1.266   3.589
 1526SOL    HW1 6708   2.273   1.267   3.503
 1526SOL    HW2 6709   2.260   1.248   3.665
 1527SOL     OW 6710   2.973   1.776   2.099
 1527SOL    HW1 6711   2.913   1.714   2.149
 1527SOL    HW2 6712   3.004   1.732   2.014
 1528SOL     OW 6713   2.064   0.285   3.360
 1528SOL    HW1 6714   1.984   0.345   3.347
 1528SOL    HW2 6715   2.054   0.236   3.446
 1529SOL     OW 6716   3.494   1.377   1.943
 1529SOL    HW1 6717   3.462   1.471   1.933
 1529SOL    HW2 6718   3.418   1.314   1.931
 1530SOL     OW 6719   2.111   1.785   3.103
 1530SOL    HW1 6720   2.168   1.720   3.153
 1530SOL    HW2 6721   2.095   1.752   3.010
 1531SOL     OW 6722   2.476   0.122   1.979
 1531SOL    HW1 6723   2.574   0.100   1.986
 1531SOL    HW2 6724   2.445   0.105   1.886
 1532SOL     OW 6725   2.643   0.264   3.611
 1532SOL    HW1 6726   2.710   0.203   3.654
 1532SOL    HW2 6727   2.570   0.283   3.676
 1533SOL     OW 6728   2.750   1.514   3.057
 1533SOL    HW1 6729   2.727   1.489   2.963
 1533SOL    HW2 6730   2.811   1.445   3.096
 1534SOL     OW 6731   3.213   0.590   3.295
 1534SOL    HW1 6732   3.241   0.547   3.380
 1534SOL    HW2 6733   3.238   0.686   3.296
 1535SOL     OW 6734   2.784   0.503   2.761
 1535SOL    HW1 6735   2.759   0.494   2.665
 1535SOL    HW2 6736   2.832   0.421   2.792
 1536SOL     OW 6737   2.401   0.064   2.374
 1536SOL    HW1 6738   2.320   0.065   2.432
 1536SOL    HW2 6739   2.404   0.147   2.319
 1537SOL     OW 6740   2.159   0.035   2.033
 1537SOL    HW1 6741   2.208   0.119   2.012
 1537SOL    HW2 6742   2.221  -0.030   2.078
 1538SOL     OW 6743   2.938   0.683   3.326
 1538SOL    HW1 6744   2.858   0.622   3.329
 1538SOL    HW2 6745   3.019   0.630   3.302
 1539SOL     OW 6746   3.133   1.797   2.453
 1539SOL    HW1 6747   3.177   1.861   2.389
 1539SOL    HW2 6748   3.083   1.849   2.523
 1540SOL     OW 6749   2.894   0.549   1.878
 1540SOL    HW1 6750   2.853   0.631   1.839
 1540SOL    HW2 6751   2.958   0.575   1.951
 1541SOL     OW 6752   1.940   0.556   3.248
 1541SOL    HW1 6753   2.032   0.555   3.207
 1541SOL    HW2 6754   1.934   0.630   3.315
 1542SOL     OW 6755   2.728   0.454   2.504
 1542SOL    HW1 6756   2.696   0.526   2.442
 1542SOL    HW2 6757   2.752   0.373   2.451
 1543SOL     OW 6758   2.879   0.039   2.615
 1543SOL    HW1 6759   2.807   0.044   2.546
 1543SOL    HW2 6760   2.855  -0.030   2.684
 1544SOL     OW 6761   3.291   1.173   2.729
 1544SOL    HW1 6762   3.236   1.089   2.722
 1544SOL    HW2 6763   3.317   1.202   2.637
 1545SOL     OW 6764   3.328   0.590   2.854
 1545SOL    HW1 6765   3.298   0.495   2.861
 1545SOL    HW2 6766   3.401   0.606   2.920
 1546SOL     OW 6767   3.719   0.833   2.239
 1546SOL    HW1 6768   3.761   0.769   2.303
 1546SOL    HW2 6769   3.681   0.782   2.161
 1547SOL     OW 6770   2.350   1.385   2.036
 1547SOL    HW1 6771   2.263   1.370   2.083
 1547SOL    HW2 6772   2.333   1.411   1.941
 1548SOL     OW 6773   3.526   1.280   2.519
 1548SOL    HW1 6774   3.625   1.288   2.533
 1548SOL    HW2 6775   3.481   1.364   2.550
 1549SOL     OW 6776   3.252   0.575   1.940
 1549SOL    HW1 6777   3.198   0.554   2.021
 1549SOL    HW2 6778   3.343   0.534   1.949
 1550SOL     OW 6779   3.616   1.223   3.450
 1550SOL    HW1 6780   3.707   1.184   3.437
 1550SOL    HW2 6781   3.624   1.319   3.474
 1551SOL     OW 6782   2.926   1.347   3.202
 1551SOL    HW1 6783   2.846   1.324   3.257
 1551SOL    HW2 6784   3.009   1.321   3.251
 1552SOL     OW 6785   3.454   1.629   3.487
 1552SOL    HW1 6786   3.481   1.663   3.397
 1552SOL    HW2 6787   3.533   1.591   3.533
 1553SOL     OW 6788   2.973   1.195   2.962
 1553SOL    HW1 6789   2.933   1.239   3.043
 1553SOL    HW2 6790   2.932   1.232   2.879
 1554SOL     OW 6791   3.500   1.099   2.941
 1554SOL    HW1 6792   3.505   1.180   3.000
 1554SOL    HW2 6793   3.414   1.101   2.890
 1555SOL     OW 6794   2.842   1.116   3.581
 1555SOL    HW1 6795   2.743   1.122   3.591
 1555SOL    HW2 6796   2.865   1.036   3.525
 1556SOL     OW 6797   2.567   1.050   2.230
 1556SOL    HW1 6798   2.553   1.057   2.329
 1556SOL    HW2 6799   2.651   0.999   2.212
 1557SOL     OW 6800   2.272   0.813   3.113
 1557SOL    HW1 6801   2.358   0.825   3.163
 1557SOL    HW2 6802   2.230   0.726   3.140
 1558SOL     OW 6803   1.926   1.564   3.193
 1558SOL    HW1 6804   1.880   1.646   3.159
 1558SOL    HW2 6805   2.024   1.583   3.202
 1559SOL     OW 6806   2.229   1.100   2.363
 1559SOL    HW1 6807   2.222   1.183   2.307
 1559SOL    HW2 6808   2.233   1.020   2.303
 1560SOL     OW 6809   2.428   0.537   2.727
 1560SOL    HW1 6810   2.440   0.603   2.653
 1560SOL    HW2 6811   2.474   0.571   2.810
 1561SOL     OW 6812   3.114   1.348   2.250
 1561SOL    HW1 6813   3.164   1.425   2.290
 1561SOL    HW2 6814   3.019   1.350   2.282
 1562SOL     OW 6815   3.134   1.445   3.004
 1562SOL    HW1 6816   3.181   1.458   3.091
 1562SOL    HW2 6817   3.068   1.371   3.013
 1563SOL     OW 6818   3.444   0.639   2.334
 1563SOL    HW1 6819   3.413   0.700   2.407
 1563SOL    HW2 6820   3.494   0.691   2.265
 1564SOL     OW 6821   2.216   1.510   3.191
 1564SOL    HW1 6822   2.195   1.466   3.104
 1564SOL    HW2 6823   2.313   1.536   3.194
 1565SOL     OW 6824   2.264   0.751   3.460
 1565SOL    HW1 6825   2.332   0.806   3.413
 1565SOL    HW2 6826   2.304   0.663   3.487
 1566SOL     OW 6827   3.449   0.779   3.532
 1566SOL    HW1 6828   3.357   0.817   3.527
 1566SOL    HW2 6829   3.509   0.826   3.467
 1567SOL     OW 6830   2.875   0.105   3.632
 1567SOL    HW1 6831   2.881   0.190   3.580
 1567SOL    HW2 6832   2.907   0.029   3.575
 1568SOL     OW 6833   2.366   0.050   3.602
 1568SOL    HW1 6834   2.324  -0.007   3.532
 1568SOL    HW2 6835   2.300   0.119   3.634
 1569SOL     OW 6836   2.435   0.870   2.891
 1569SOL    HW1 6837   2.479   0.959   2.882
 1569SOL    HW2 6838   2.372   0.870   2.968
 1570SOL     OW 6839   3.222   0.862   2.907
 1570SOL    HW1 6840   3.147   0.862   2.841
 1570SOL    HW2 6841   3.259   0.770   2.916
 1571SOL     OW 6842   3.071   0.525   2.137
 1571SOL    HW1 6843   3.084   0.441   2.191
 1571SOL    HW2 6844   3.042   0.599   2.197
 1572SOL     OW 6845   2.169   0.213   3.093
 1572SOL    HW1 6846   2.146   0.250   3.183
 1572SOL    HW2 6847   2.139   0.118   3.087
 1573SOL     OW 6848   1.899   1.310   3.144
 1573SOL    HW1 6849   1.952   1.261   3.212
 1573SOL    HW2 6850   1.921   1.408   3.149
 1574SOL     OW 6851   2.594   0.634   2.926
 1574SOL    HW1 6852   2.653   0.608   2.850
 1574SOL    HW2 6853   2.566   0.730   2.915
 1575SOL     OW 6854   3.590   0.935   3.716
 1575SOL    HW1 6855   3.544   0.928   3.627
 1575SOL    HW2 6856   3.528   0.979   3.782
 1576SOL     OW 6857   2.169   0.063   2.480
 1576SOL    HW1 6858   2.158   0.157   2.513
 1576SOL    HW2 6859   2.164   0.000   2.557
 1577SOL     OW 6860   3.484   0.367   2.236
 1577SOL    HW1 6861   3.486   0.291   2.300
 1577SOL    HW2 6862   3.436   0.444   2.276
 1578SOL     OW 6863   2.885   0.766   2.828
 1578SOL    HW1 6864   2.900   0.787   2.924
 1578SOL    HW2 6865   2.855   0.671   2.819
 1579SOL     OW 6866   2.842   1.573   3.562
 1579SOL    HW1 6867   2.822   1.617   3.474
 1579SOL    HW2 6868   2.881   1.482   3.546
 1580SOL     OW 6869   3.721   1.518   3.467
 1580SOL    HW1 6870   3.735   1.545   3.372
 1580SOL    HW2 6871   3.804   1.540   3.520
 1581SOL     OW 6872   2.212   0.898   3.666
 1581SOL    HW1 6873   2.288   0.942   3.714
 1581SOL    HW2 6874   2.247   0.851   3.584
 1582SOL     OW 6875   3.402   0.274   1.987
 1582SOL    HW1 6876   3.341   0.199   2.010
 1582SOL    HW2 6877   3.424   0.326   2.070
 1583SOL     OW 6878   3.165   0.838   1.904
 1583SOL    HW1 6879   3.199   0.745   1.919
 1583SOL    HW2 6880   3.183   0.865   1.809
 1584SOL     OW 6881   2.181   0.810   2.811
 1584SOL    HW1 6882   2.274   0.846   2.816
 1584SOL    HW2 6883   2.175   0.725   2.863
 1585SOL     OW 6884   2.201   0.509   2.868
 1585SOL    HW1 6885   2.149   0.426   2.851
 1585SOL    HW2 6886   2.278   0.514   2.804
 1586SOL     OW 6887   1.870   1.326   2.062
 1586SOL    HW1 6888   1.777   1.347   2.031
 1586SOL    HW2 6889   1.880   1.227   2.075
 1587SOL     OW 6890   1.950   1.801   2.789
 1587SOL    HW1 6891   1.908   1.715   2.762
 1587SOL    HW2 6892   2.044   1.804   2.755
 1588SOL     OW 6893   2.366   1.568   2.772
 1588SOL    HW1 6894   2.432   1.642   2.781
 1588SOL    HW2 6895   2.410   1.489   2.730
 1589SOL     OW 6896   2.864   0.796   3.100
 1589SOL    HW1 6897   2.905   0.764   3.186
 1589SOL    HW2 6898   2.768   0.769   3.097
 1590SOL     OW 6899   1.902   0.544   2.976
 1590SOL    HW1 6900   1.987   0.511   2.935
 1590SOL    HW2 6901   1.915   0.559   3.074
 1591SOL     OW 6902   2.051   0.520   3.584
 1591SOL    HW1 6903   2.110   0.480   3.514
 1591SOL    HW2 6904   1.993   0.591   3.543
 1592SOL     OW 6905   3.231   0.950   3.522
 1592SOL    HW1 6906   3.270   1.039   3.542
 1592SOL    HW2 6907   3.241   0.930   3.425
 1593SOL     OW 6908   3.519   0.604   3.068
 1593SOL    HW1 6909   3.481   0.535   3.130
 1593SOL    HW2 6910   3.601   0.568   3.024
 1594SOL     OW 6911   2.114   1.564   3.606
 1594SOL    HW1 6912   2.084   1.621   3.682
 1594SOL    HW2 6913   2.107   1.467   3.632
 1595SOL     OW 6914   2.533   0.464   3.131
 1595SOL    HW1 6915   2.499   0.375   3.101
 1595SOL    HW2 6916   2.559   0.518   3.051
 1596SOL     OW 6917   2.792   1.678   3.327
 1596SOL    HW1 6918   2.768   1.660   3.232
 1596SOL    HW2 6919   2.822   1.772   3.337
 1597SOL     OW 6920   2.021   1.137   3.328
 1597SOL    HW1 6921   2.043   1.076   3.404
 1597SOL    HW2 6922   2.031   1.088   3.242
 1598SOL     OW 6923   3.209   1.059   3.096
 1598SOL    HW1 6924   3.233   0.996   3.022
 1598SOL    HW2 6925   3.119   1.099   3.078
 1599SOL     OW 6926   3.164   0.855   2.171
 1599SOL    HW1 6927   3.078   0.824   2.213
 1599SOL    HW2 6928   3.160   0.841   2.072
 1600SOL     OW 6929   3.621   1.747   3.016
 1600SOL    HW1 6930   3.682   1.777   2.943
 1600SOL    HW2 6931   3.583   1.658   2.994
 1601SOL     OW 6932   1.945   1.258   2.884
 1601SOL    HW1 6933   1.940   1.257   2.984
 1601SOL    HW2 6934   1.862   1.217   2.846
 1602SOL     OW 6935   2.550   1.662   3.578
 1602SOL    HW1 6936   2.494   1.743   3.587
 1602SOL    HW2 6937   2.602   1.666   3.492
 1603SOL     OW 6938   3.588   0.135   2.385
 1603SOL    HW1 6939   3.661   0.118   2.318
 1603SOL    HW2 6940   3.557   0.048   2.423
 1604SOL     OW 6941   3.250   1.573   2.339
 1604SOL    HW1 6942   3.317   1.585   2.265
 1604SOL    HW2 6943   3.210   1.662   2.362
 1605SOL     OW 6944   1.992   1.794   3.713
 1605SOL    HW1 6945   1.951   1.720   3.766
 1605SOL    HW2 6946   2.056   1.845   3.771
 1606SOL     OW 6947   3.142   0.927   2.534
 1606SOL    HW1 6948   3.202   0.846   2.536
 1606SOL    HW2 6949   3.182   0.996   2.474
 1607SOL     OW 6950   2.692   1.273   3.284
 1607SOL    HW1 6951   2.687   1.306   3.379
 1607SOL    HW2 6952   2.606   1.292   3.238
 1608SOL     OW 6953   2.534   1.616   2.016
 1608SOL    HW1 6954   2.543   1.626   1.917
 1608SOL    HW2 6955   2.494   1.527   2.037
 1609SOL     OW 6956   3.512   1.720   3.256
 1609SOL    HW1 6957   3.565   1.730   3.172
 1609SOL    HW2 6958   3.485   1.810   3.290
 1610SOL     OW 6959   2.125   0.326   2.582
 1610SOL    HW1 6960   2.046   0.377   2.548
 1610SOL    HW2 6961   2.116   0.311   2.680
 1611SOL     OW 6962   3.056   1.612   1.893
 1611SOL    HW1 6963   3.062   1.519   1.930
 1611SOL    HW2 6964   2.997   1.612   1.813
 1612SOL     OW 6965   2.684   1.002   3.234
 1612SOL    HW1 6966   2.724   1.001   3.142
 1612SOL    HW2 6967   2.694   1.094   3.274
 1613SOL     OW 6968   2.778   0.910   2.153
 1613SOL    HW1 6969   2.841   0.948   2.085
 1613SOL    HW2 6970   2.818   0.827   2.192
 1614SOL     OW 6971   3.366   1.607   1.906
 1614SOL    HW1 6972   3.274   1.644   1.913
 1614SOL    HW2 6973   3.404   1.627   1.816
 1615SOL     OW 6974   2.234   1.288   3.352
 1615SOL    HW1 6975   2.221   1.381   3.318
 1615SOL    HW2 6976   2.150   1.236   3.339
 1616SOL     OW 6977   3.476   1.292   3.151
 1616SOL    HW1 6978   3.536   1.295   3.231
 1616SOL    HW2 6979   3.401   1.356   3.164
 1617SOL     OW 6980   2.901   1.098   2.558
 1617SOL    HW1 6981   2.831   1.051   2.612
 1617SOL    HW2 6982   2.960   1.030   2.515
 1618SOL     OW 6983   2.876   0.236   2.833
 1618SOL    HW1 6984   2.868   0.200   2.740
 1618SOL    HW2 6985   2.874   0.160   2.898
 1619SOL     OW 6986   3.571   0.385   3.243
 1619SOL    HW1 6987   3.644   0.454   3.247
 1619SOL    HW2 6988   3.599   0.310   3.184
 1620SOL     OW 6989   1.967   1.013   3.588
 1620SOL    HW1 6990   1.890   0.980   3.642
 1620SOL    HW2 6991   2.052   0.983   3.630
 1621SOL     OW 6992   2.534   0.203   3.351
 1621SOL    HW1 6993   2.624   0.187   3.311
 1621SOL    HW2 6994   2.542   0.208   3.450
 1622SOL     OW 6995   1.937   0.345   1.895
 1622SOL    HW1 6996   1.845   0.317   1.866
 1622SOL    HW2 6997   1.968   0.422   1.839
 1623SOL     OW 6998   3.302   0.856   3.260
 1623SOL    HW1 6999   3.245   0.908   3.197
 1623SOL    HW2 7000   3.398   0.868   3.236
 1624SOL     OW 7001   2.475   0.842   3.293
 1624SOL    HW1 7002   2.531   0.923   3.276
 1624SOL    HW2 7003   2.534   0.762   3.296
 1625SOL     OW 7004   3.355   1.767   2.821
 1625SOL    HW1 7005   3.388   1.831   2.752
 1625SOL    HW2 7006   3.421   1.761   2.896
 1626SOL     OW 7007   2.578   0.565   3.570
 1626SOL    HW1 7008   2.597   0.630   3.644
 1626SOL    HW2 7009   2.638   0.485   3.579
 1627SOL     OW 7010   3.312   1.220   3.495
 1627SOL    HW1 7011   3.303   1.210   3.594
 1627SOL    HW2 7012   3.408   1.213   3.469
 1628SOL     OW 7013   2.252   1.741   3.422
 1628SOL    HW1 7014   2.161   1.782   3.420
 1628SOL    HW2 7015   2.245   1.647   3.454
 1629SOL     OW 7016   3.536   0.883   3.116
 1629SOL    HW1 7017   3.509   0.794   3.079
 1629SOL    HW2 7018   3.537   0.951   3.043
 1630SOL     OW 7019   3.639   0.342   3.504
 1630SOL    HW1 7020   3.622   0.373   3.410
 1630SOL    HW2 7021   3.555   0.305   3.542
 1631SOL     OW 7022   3.592   0.934   3.379
 1631SOL    HW1 7023   3.630   1.025   3.394
 1631SOL    HW2 7024   3.584   0.917   3.280
 1632SOL     OW 7025   2.523   1.790   2.815
 1632SOL    HW1 7026   2.477   1.878   2.802
 1632SOL    HW2 7027   2.622   1.802   2.808
 1633SOL     OW 7028   2.721   0.956   2.723
 1633SOL    HW1 7029   2.775   0.887   2.771
 1633SOL    HW2 7030   2.689   1.025   2.789
 1634SOL     OW 7031   2.945   0.984   1.949
 1634SOL    HW1 7032   2.922   1.037   1.867
 1634SOL    HW2 7033   3.026   0.928   1.930
 1635SOL     OW 7034   3.723   1.569   2.713
 1635SOL    HW1 7035   3.652   1.557   2.643
 1635SOL    HW2 7036   3.724   1.490   2.773
 1636SOL     OW 7037   2.083   1.314   3.706
 1636SOL    HW1 7038   2.018   1.241   3.685
 1636SOL    HW2 7039   2.087   1.328   3.804
 1637SOL     OW 7040   1.941   1.240   2.515
 1637SOL    HW1 7041   1.940   1.193   2.603
 1637SOL    HW2 7042   2.023   1.212   2.464
 1638SOL     OW 7043   2.534   1.391   3.486
 1638SOL    HW1 7044   2.456   1.341   3.524
 1638SOL    HW2 7045   2.531   1.486   3.517
 1639SOL     OW 7046   3.686   0.192   3.089
 1639SOL    HW1 7047   3.682   0.102   3.133
 1639SOL    HW2 7048   3.689   0.181   2.990
 1640SOL     OW 7049   3.567   1.487   2.966
 1640SOL    HW1 7050   3.474   1.462   2.939
 1640SOL    HW2 7051   3.593   1.437   3.048
 1641SOL     OW 7052   2.179   0.547   3.142
 1641SOL    HW1 7053   2.217   0.488   3.214
 1641SOL    HW2 7054   2.219   0.521   3.054
 1642SOL     OW 7055   2.632   1.330   2.163
 1642SOL    HW1 7056   2.586   1.243   2.180
 1642SOL    HW2 7057   2.723   1.327   2.204
 1643SOL     OW 7058   2.480   1.567   3.146
 1643SOL    HW1 7059   2.475   1.649   3.203
 1643SOL    HW2 7060   2.569   1.564   3.101
 1644SOL     OW 7061   1.901   1.077   2.162
 1644SOL    HW1 7062   2.000   1.066   2.153
 1644SOL    HW2 7063   1.861   0.991   2.194
 1645SOL     OW 7064   2.737   1.646   2.199
 1645SOL    HW1 7065   2.660   1.611   2.145
 1645SOL    HW2 7066   2.705   1.717   2.261
 1646SOL     OW 7067   2.092   0.628   3.837
 1646SOL    HW1 7068   1.999   0.626   3.874
 1646SOL    HW2 7069   2.093   0.589   3.745
 1647SOL     OW 7070   1.881   0.368   4.371
 1647SOL    HW1 7071   1.799   0.411   4.410
 1647SOL    HW2 7072   1.853   0.295   4.308
 1648SOL     OW 7073   2.431   1.275   4.889
 1648SOL    HW1 7074   2.338   1.268   4.852
 1648SOL    HW2 7075   2.442   1.364   4.933
 1649SOL     OW 7076   3.417   1.511   4.427
 1649SOL    HW1 7077   3.360   1.495   4.508
 1649SOL    HW2 7078   3.358   1.521   4.347
 1650SOL     OW 7079   2.997   0.703   4.441
 1650SOL    HW1 7080   3.054   0.781   4.416
 1650SOL    HW2 7081   2.937   0.729   4.517
 1651SOL     OW 7082   3.617   0.607   3.955
 1651SOL    HW1 7083   3.605   0.594   3.856
 1651SOL    HW2 7084   3.587   0.526   4.004
 1652SOL     OW 7085   2.630   1.144   4.747
 1652SOL    HW1 7086   2.552   1.161   4.807
 1652SOL    HW2 7087   2.664   1.231   4.711
 1653SOL     OW 7088   2.547   1.012   4.389
 1653SOL    HW1 7089   2.616   0.996   4.459
 1653SOL    HW2 7090   2.474   1.069   4.427
 1654SOL     OW 7091   2.197   1.435   4.785
 1654SOL    HW1 7092   2.119   1.404   4.732
 1654SOL    HW2 7093   2.255   1.493   4.728
 1655SOL     OW 7094   3.465   0.447   4.461
 1655SOL    HW1 7095   3.391   0.493   4.411
 1655SOL    HW2 7096   3.516   0.515   4.514
 1656SOL     OW 7097   2.093   1.713   4.207
 1656SOL    HW1 7098   2.127   1.790   4.261
 1656SOL    HW2 7099   2.137   1.713   4.117
 1657SOL     OW 7100   2.468   0.964   3.847
 1657SOL    HW1 7101   2.475   1.048   3.793
 1657SOL    HW2 7102   2.514   0.977   3.935
 1658SOL     OW 7103   3.704   1.767   4.083
 1658SOL    HW1 7104   3.758   1.738   4.163
 1658SOL    HW2 7105   3.734   1.857   4.054
 1659SOL     OW 7106   1.889   1.596   3.841
 1659SOL    HW1 7107   1.870   1.500   3.862
 1659SOL    HW2 7108   1.856   1.654   3.916
 1660SOL     OW 7109   3.551   0.922   4.336
 1660SOL    HW1 7110   3.646   0.893   4.344
 1660SOL    HW2 7111   3.543   0.987   4.261
 1661SOL     OW 7112   3.503   1.108   4.156
 1661SOL    HW1 7113   3.589   1.110   4.104
 1661SOL    HW2 7114   3.517   1.155   4.244
 1662SOL     OW 7115   2.475   1.365   4.450
 1662SOL    HW1 7116   2.426   1.278   4.459
 1662SOL    HW2 7117   2.452   1.408   4.363
 1663SOL     OW 7118   2.671   0.004   4.226
 1663SOL    HW1 7119   2.711   0.095   4.217
 1663SOL    HW2 7120   2.571   0.012   4.232
 1664SOL     OW 7121   2.059   0.976   4.988
 1664SOL    HW1 7122   2.148   0.931   4.974
 1664SOL    HW2 7123   1.986   0.911   4.969
 1665SOL     OW 7124   3.387   0.999   3.914
 1665SOL    HW1 7125   3.324   0.923   3.927
 1665SOL    HW2 7126   3.435   1.017   4.000
 1666SOL     OW 7127   3.328   1.417   4.677
 1666SOL    HW1 7128   3.269   1.423   4.757
 1666SOL    HW2 7129   3.313   1.329   4.631
 1667SOL     OW 7130   3.529   1.714   4.296
 1667SOL    HW1 7131   3.488   1.691   4.208
 1667SOL    HW2 7132   3.511   1.640   4.361
 1668SOL     OW 7133   3.143   0.345   4.668
 1668SOL    HW1 7134   3.057   0.295   4.655
 1668SOL    HW2 7135   3.205   0.291   4.724
 1669SOL     OW 7136   3.438   1.662   4.031
 1669SOL    HW1 7137   3.527   1.708   4.034
 1669SOL    HW2 7138   3.417   1.638   3.936
 1670SOL     OW 7139   2.903   0.701   4.153
 1670SOL    HW1 7140   2.929   0.697   4.249
 1670SOL    HW2 7141   2.818   0.650   4.139
 1671SOL     OW 7142   1.938   0.811   4.513
 1671SOL    HW1 7143   2.037   0.799   4.522
 1671SOL    HW2 7144   1.914   0.906   4.534
 1672SOL     OW 7145   2.727   0.348   3.919
 1672SOL    HW1 7146   2.786   0.411   3.870
 1672SOL    HW2 7147   2.746   0.254   3.890
 1673SOL     OW 7148   3.224   1.144   4.269
 1673SOL    HW1 7149   3.307   1.115   4.221
 1673SOL    HW2 7150   3.175   1.211   4.213
 1674SOL     OW 7151   2.412   0.196   4.609
 1674SOL    HW1 7152   2.407   0.191   4.709
 1674SOL    HW2 7153   2.414   0.292   4.580
 1675SOL     OW 7154   2.870   1.456   4.201
 1675SOL    HW1 7155   2.824   1.528   4.149
 1675SOL    HW2 7156   2.866   1.476   4.299
 1676SOL     OW 7157   2.213   1.801   4.577
 1676SOL    HW1 7158   2.263   1.715   4.583
 1676SOL    HW2 7159   2.278   1.878   4.574
 1677SOL     OW 7160   3.657   1.066   4.597
 1677SOL    HW1 7161   3.595   1.051   4.521
 1677SOL    HW2 7162   3.605   1.077   4.682
 1678SOL     OW 7163   3.320   0.735   4.452
 1678SOL    HW1 7164   3.315   0.670   4.527
 1678SOL    HW2 7165   3.400   0.794   4.465
 1679SOL     OW 7166   2.973   1.776   3.961
 1679SOL    HW1 7167   2.913   1.714   4.011
 1679SOL    HW2 7168   3.004   1.732   3.876
 1680SOL     OW 7169   3.494   1.377   3.805
 1680SOL    HW1 7170   3.462   1.471   3.795
 1680SOL    HW2 7171   3.418   1.314   3.793
 1681SOL     OW 7172   2.326   1.743   4.047
 1681SOL    HW1 7173   2.359   1.782   4.133
 1681SOL    HW2 7174   2.402   1.736   3.982
 1682SOL     OW 7175   2.111   1.785   4.965
 1682SOL    HW1 7176   2.168   1.720   5.015
 1682SOL    HW2 7177   2.095   1.752   4.872
 1683SOL     OW 7178   2.802   1.698   4.628
 1683SOL    HW1 7179   2.882   1.641   4.649
 1683SOL    HW2 7180   2.753   1.658   4.551
 1684SOL     OW 7181   2.476   0.122   3.841
 1684SOL    HW1 7182   2.574   0.100   3.848
 1684SOL    HW2 7183   2.445   0.105   3.748
 1685SOL     OW 7184   2.665   1.402   4.648
 1685SOL    HW1 7185   2.755   1.416   4.606
 1685SOL    HW2 7186   2.594   1.404   4.577
 1686SOL     OW 7187   2.784   0.503   4.623
 1686SOL    HW1 7188   2.759   0.494   4.527
 1686SOL    HW2 7189   2.832   0.421   4.654
 1687SOL     OW 7190   2.401   0.064   4.236
 1687SOL    HW1 7191   2.320   0.065   4.294
 1687SOL    HW2 7192   2.404   0.147   4.181
 1688SOL     OW 7193   3.296   1.188   3.765
 1688SOL    HW1 7194   3.328   1.112   3.822
 1688SOL    HW2 7195   3.204   1.215   3.795
 1689SOL     OW 7196   2.159   0.035   3.895
 1689SOL    HW1 7197   2.208   0.119   3.874
 1689SOL    HW2 7198   2.221  -0.030   3.940
 1690SOL     OW 7199   2.797   0.236   4.204
 1690SOL    HW1 7200   2.749   0.277   4.126
 1690SOL    HW2 7201   2.896   0.234   4.185
 1691SOL     OW 7202   3.089   1.570   4.517
 1691SOL    HW1 7203   3.110   1.644   4.452
 1691SOL    HW2 7204   3.157   1.570   4.590
 1692SOL     OW 7205   2.321   1.152   4.465
 1692SOL    HW1 7206   2.250   1.125   4.530
 1692SOL    HW2 7207   2.295   1.124   4.372
 1693SOL     OW 7208   3.133   1.797   4.315
 1693SOL    HW1 7209   3.177   1.861   4.251
 1693SOL    HW2 7210   3.083   1.849   4.385
 1694SOL     OW 7211   2.894   0.549   3.740
 1694SOL    HW1 7212   2.853   0.631   3.701
 1694SOL    HW2 7213   2.958   0.575   3.813
 1695SOL     OW 7214   2.423   0.222   4.871
 1695SOL    HW1 7215   2.461   0.138   4.908
 1695SOL    HW2 7216   2.335   0.241   4.915
 1696SOL     OW 7217   2.728   0.454   4.366
 1696SOL    HW1 7218   2.696   0.526   4.304
 1696SOL    HW2 7219   2.752   0.373   4.313
 1697SOL     OW 7220   2.879   0.039   4.477
 1697SOL    HW1 7221   2.807   0.044   4.408
 1697SOL    HW2 7222   2.855  -0.030   4.546
 1698SOL     OW 7223   3.291   1.173   4.591
 1698SOL    HW1 7224   3.236   1.089   4.584
 1698SOL    HW2 7225   3.317   1.202   4.499
 1699SOL     OW 7226   3.719   0.833   4.101
 1699SOL    HW1 7227   3.761   0.769   4.165
 1699SOL    HW2 7228   3.681   0.782   4.023
 1700SOL     OW 7229   2.350   1.385   3.898
 1700SOL    HW1 7230   2.263   1.370   3.945
 1700SOL    HW2 7231   2.333   1.411   3.803
 1701SOL     OW 7232   3.526   1.280   4.381
 1701SOL    HW1 7233   3.625   1.288   4.395
 1701SOL    HW2 7234   3.481   1.364   4.412
 1702SOL     OW 7235   3.252   0.575   3.802
 1702SOL    HW1 7236   3.198   0.554   3.883
 1702SOL    HW2 7237   3.343   0.534   3.811
 1703SOL     OW 7238   2.389   0.256   4.052
 1703SOL    HW1 7239   2.416   0.197   3.977
 1703SOL    HW2 7240   2.389   0.351   4.021
 1704SOL     OW 7241   3.500   1.099   4.803
 1704SOL    HW1 7242   3.505   1.180   4.862
 1704SOL    HW2 7243   3.414   1.101   4.752
 1705SOL     OW 7244   2.567   1.050   4.092
 1705SOL    HW1 7245   2.553   1.057   4.191
 1705SOL    HW2 7246   2.651   0.999   4.074
 1706SOL     OW 7247   2.272   0.813   4.975
 1706SOL    HW1 7248   2.358   0.825   5.025
 1706SOL    HW2 7249   2.230   0.726   5.002
 1707SOL     OW 7250   2.428   0.537   4.589
 1707SOL    HW1 7251   2.440   0.603   4.515
 1707SOL    HW2 7252   2.474   0.571   4.672
 1708SOL     OW 7253   3.114   1.348   4.112
 1708SOL    HW1 7254   3.164   1.425   4.152
 1708SOL    HW2 7255   3.019   1.350   4.144
 1709SOL     OW 7256   3.134   1.445   4.866
 1709SOL    HW1 7257   3.181   1.458   4.953
 1709SOL    HW2 7258   3.068   1.371   4.875
 1710SOL     OW 7259   3.444   0.639   4.196
 1710SOL    HW1 7260   3.413   0.700   4.269
 1710SOL    HW2 7261   3.494   0.691   4.127
 1711SOL     OW 7262   2.216   1.510   5.053
 1711SOL    HW1 7263   2.195   1.466   4.966
 1711SOL    HW2 7264   2.313   1.536   5.056
 1712SOL     OW 7265   2.435   0.870   4.753
 1712SOL    HW1 7266   2.479   0.959   4.744
 1712SOL    HW2 7267   2.372   0.870   4.830
 1713SOL     OW 7268   3.071   0.525   3.999
 1713SOL    HW1 7269   3.084   0.441   4.053
 1713SOL    HW2 7270   3.042   0.599   4.059
 1714SOL     OW 7271   1.899   1.310   5.006
 1714SOL    HW1 7272   1.952   1.261   5.074
 1714SOL    HW2 7273   1.921   1.408   5.011
 1715SOL     OW 7274   2.594   0.634   4.788
 1715SOL    HW1 7275   2.653   0.608   4.712
 1715SOL    HW2 7276   2.566   0.730   4.777
 1716SOL     OW 7277   2.169   0.063   4.342
 1716SOL    HW1 7278   2.158   0.157   4.375
 1716SOL    HW2 7279   2.164   0.000   4.419
 1717SOL     OW 7280   3.484   0.367   4.098
 1717SOL    HW1 7281   3.486   0.291   4.162
 1717SOL    HW2 7282   3.436   0.444   4.138
 1718SOL     OW 7283   2.885   0.766   4.690
 1718SOL    HW1 7284   2.900   0.787   4.786
 1718SOL    HW2 7285   2.855   0.671   4.681
 1719SOL     OW 7286   3.165   0.838   3.766
 1719SOL    HW1 7287   3.199   0.745   3.781
 1719SOL    HW2 7288   3.183   0.865   3.671
 1720SOL     OW 7289   2.930   1.333   4.573
 1720SOL    HW1 7290   2.937   1.249   4.518
 1720SOL    HW2 7291   2.992   1.402   4.537
 1721SOL     OW 7292   3.022   0.207   5.201
 1721SOL    HW1 7293   3.022   0.271   5.278
 1721SOL    HW2 7294   3.050   0.255   5.118
 1722SOL     OW 7295   1.870   1.326   3.924
 1722SOL    HW1 7296   1.777   1.347   3.893
 1722SOL    HW2 7297   1.880   1.227   3.937
 1723SOL     OW 7298   1.950   1.801   4.651
 1723SOL    HW1 7299   1.908   1.715   4.624
 1723SOL    HW2 7300   2.044   1.804   4.617
 1724SOL     OW 7301   2.366   1.568   4.634
 1724SOL    HW1 7302   2.432   1.642   4.643
 1724SOL    HW2 7303   2.410   1.489   4.592
 1725SOL     OW 7304   1.902   0.544   4.838
 1725SOL    HW1 7305   1.987   0.511   4.797
 1725SOL    HW2 7306   1.915   0.559   4.936
 1726SOL     OW 7307   2.677   0.572   4.049
 1726SOL    HW1 7308   2.684   0.483   4.003
 1726SOL    HW2 7309   2.583   0.606   4.041
 1727SOL     OW 7310   2.533   0.464   4.993
 1727SOL    HW1 7311   2.499   0.375   4.963
 1727SOL    HW2 7312   2.559   0.518   4.913
 1728SOL     OW 7313   2.792   1.678   5.189
 1728SOL    HW1 7314   2.768   1.660   5.094
 1728SOL    HW2 7315   2.822   1.772   5.199
 1729SOL     OW 7316   3.164   0.855   4.033
 1729SOL    HW1 7317   3.078   0.824   4.075
 1729SOL    HW2 7318   3.160   0.841   3.934
 1730SOL     OW 7319   3.114   1.731   4.852
 1730SOL    HW1 7320   3.198   1.736   4.798
 1730SOL    HW2 7321   3.091   1.635   4.870
 1731SOL     OW 7322   1.945   1.258   4.746
 1731SOL    HW1 7323   1.940   1.257   4.846
 1731SOL    HW2 7324   1.862   1.217   4.708
 1732SOL     OW 7325   3.588   0.135   4.247
 1732SOL    HW1 7326   3.661   0.118   4.180
 1732SOL    HW2 7327   3.557   0.048   4.285
 1733SOL     OW 7328   3.250   1.573   4.201
 1733SOL    HW1 7329   3.317   1.585   4.127
 1733SOL    HW2 7330   3.210   1.662   4.224
 1734SOL     OW 7331   3.142   0.927   4.396
 1734SOL    HW1 7332   3.202   0.846   4.398
 1734SOL    HW2 7333   3.182   0.996   4.336
 1735SOL     OW 7334   3.512   1.720   5.118
 1735SOL    HW1 7335   3.565   1.730   5.034
 1735SOL    HW2 7336   3.485   1.810   5.152
 1736SOL     OW 7337   3.056   1.612   3.755
 1736SOL    HW1 7338   3.062   1.519   3.792
 1736SOL    HW2 7339   2.997   1.612   3.675
 1737SOL     OW 7340   2.684   1.002   5.096
 1737SOL    HW1 7341   2.724   1.001   5.004
 1737SOL    HW2 7342   2.694   1.094   5.136
 1738SOL     OW 7343   2.778   0.910   4.015
 1738SOL    HW1 7344   2.841   0.948   3.947
 1738SOL    HW2 7345   2.818   0.827   4.054
 1739SOL     OW 7346   3.366   1.607   3.768
 1739SOL    HW1 7347   3.274   1.644   3.775
 1739SOL    HW2 7348   3.404   1.627   3.678
 1740SOL     OW 7349   2.901   1.098   4.420
 1740SOL    HW1 7350   2.831   1.051   4.474
 1740SOL    HW2 7351   2.960   1.030   4.377
 1741SOL     OW 7352   2.876   0.236   4.695
 1741SOL    HW1 7353   2.868   0.200   4.602
 1741SOL    HW2 7354   2.874   0.160   4.760
 1742SOL     OW 7355   2.452   1.487   4.215
 1742SOL    HW1 7356   2.494   1.429   4.145
 1742SOL    HW2 7357   2.408   1.566   4.171
 1743SOL     OW 7358   3.571   0.385   5.105
 1743SOL    HW1 7359   3.644   0.454   5.109
 1743SOL    HW2 7360   3.599   0.310   5.046
 1744SOL     OW 7361   1.937   0.345   3.757
 1744SOL    HW1 7362   1.845   0.317   3.728
 1744SOL    HW2 7363   1.968   0.422   3.701
 1745SOL     OW 7364   1.934   0.166   4.042
 1745SOL    HW1 7365   1.917   0.249   3.988
 1745SOL    HW2 7366   2.024   0.129   4.020
 1746SOL     OW 7367   3.045   1.335   3.843
 1746SOL    HW1 7368   2.946   1.324   3.845
 1746SOL    HW2 7369   3.079   1.350   3.936
 1747SOL     OW 7370   3.312   1.220   5.357
 1747SOL    HW1 7371   3.303   1.210   5.456
 1747SOL    HW2 7372   3.408   1.213   5.331
 1748SOL     OW 7373   3.536   0.883   4.978
 1748SOL    HW1 7374   3.509   0.794   4.941
 1748SOL    HW2 7375   3.537   0.951   4.905
 1749SOL     OW 7376   3.087   0.325   4.173
 1749SOL    HW1 7377   3.152   0.251   4.162
 1749SOL    HW2 7378   3.107   0.375   4.257
 1750SOL     OW 7379   2.721   1.374   3.740
 1750SOL    HW1 7380   2.675   1.389   3.828
 1750SOL    HW2 7381   2.765   1.459   3.710
 1751SOL     OW 7382   2.523   1.790   4.677
 1751SOL    HW1 7383   2.477   1.878   4.664
 1751SOL    HW2 7384   2.622   1.802   4.670
 1752SOL     OW 7385   2.721   0.956   4.585
 1752SOL    HW1 7386   2.775   0.887   4.633
 1752SOL    HW2 7387   2.689   1.025   4.651
 1753SOL     OW 7388   2.945   0.984   3.811
 1753SOL    HW1 7389   2.922   1.037   3.729
 1753SOL    HW2 7390   3.026   0.928   3.792
 1754SOL     OW 7391   3.567   1.487   4.828
 1754SOL    HW1 7392   3.474   1.462   4.801
 1754SOL    HW2 7393   3.593   1.437   4.910
 1755SOL     OW 7394   2.863   0.034   4.878
 1755SOL    HW1 7395   2.800  -0.038   4.847
 1755SOL    HW2 7396   2.956  -0.002   4.878
 1756SOL     OW 7397   2.632   1.330   4.025
 1756SOL    HW1 7398   2.586   1.243   4.042
 1756SOL    HW2 7399   2.723   1.327   4.066
 1757SOL     OW 7400   3.162   0.453   4.415
 1757SOL    HW1 7401   3.103   0.533   4.419
 1757SOL    HW2 7402   3.177   0.418   4.508
 1758SOL     OW 7403   1.901   1.077   4.024
 1758SOL    HW1 7404   2.000   1.066   4.015
 1758SOL    HW2 7405   1.861   0.991   4.056
 1759SOL     OW 7406   2.092   2.490   0.113
 1759SOL    HW1 7407   1.999   2.488   0.150
 1759SOL    HW2 7408   2.093   2.451   0.021
 1760SOL     OW 7409   2.087   2.137   0.996
 1760SOL    HW1 7410   2.122   2.120   1.088
 1760SOL    HW2 7411   1.999   2.092   0.984
 1761SOL     OW 7412   3.417   3.373   0.703
 1761SOL    HW1 7413   3.360   3.357   0.784
 1761SOL    HW2 7414   3.358   3.383   0.623
 1762SOL     OW 7415   2.997   2.565   0.717
 1762SOL    HW1 7416   3.054   2.643   0.692
 1762SOL    HW2 7417   2.937   2.591   0.793
 1763SOL     OW 7418   3.617   2.469   0.231
 1763SOL    HW1 7419   3.605   2.456   0.132
 1763SOL    HW2 7420   3.587   2.388   0.280
 1764SOL     OW 7421   2.712   2.660   1.823
 1764SOL    HW1 7422   2.708   2.736   1.888
 1764SOL    HW2 7423   2.734   2.696   1.732
 1765SOL     OW 7424   2.197   3.297   1.061
 1765SOL    HW1 7425   2.119   3.266   1.008
 1765SOL    HW2 7426   2.255   3.355   1.004
 1766SOL     OW 7427   3.322   3.367   1.339
 1766SOL    HW1 7428   3.346   3.461   1.365
 1766SOL    HW2 7429   3.306   3.313   1.421
 1767SOL     OW 7430   2.300   2.254   1.499
 1767SOL    HW1 7431   2.382   2.198   1.508
 1767SOL    HW2 7432   2.219   2.196   1.503
 1768SOL     OW 7433   3.465   2.309   0.737
 1768SOL    HW1 7434   3.391   2.355   0.687
 1768SOL    HW2 7435   3.516   2.377   0.790
 1769SOL     OW 7436   2.102   2.953   0.886
 1769SOL    HW1 7437   2.116   2.869   0.938
 1769SOL    HW2 7438   2.047   3.017   0.941
 1770SOL     OW 7439   2.468   2.826   0.123
 1770SOL    HW1 7440   2.475   2.910   0.069
 1770SOL    HW2 7441   2.514   2.839   0.211
 1771SOL     OW 7442   3.456   1.976   1.480
 1771SOL    HW1 7443   3.438   2.043   1.408
 1771SOL    HW2 7444   3.453   2.022   1.569
 1772SOL     OW 7445   1.889   3.458   0.117
 1772SOL    HW1 7446   1.870   3.362   0.138
 1772SOL    HW2 7447   1.856   3.516   0.192
 1773SOL     OW 7448   3.503   2.970   0.432
 1773SOL    HW1 7449   3.589   2.972   0.380
 1773SOL    HW2 7450   3.517   3.017   0.520
 1774SOL     OW 7451   1.975   2.599   1.597
 1774SOL    HW1 7452   2.063   2.586   1.642
 1774SOL    HW2 7453   1.962   2.696   1.575
 1775SOL     OW 7454   2.475   3.227   0.726
 1775SOL    HW1 7455   2.426   3.140   0.735
 1775SOL    HW2 7456   2.452   3.270   0.639
 1776SOL     OW 7457   2.059   2.838   1.264
 1776SOL    HW1 7458   2.148   2.793   1.250
 1776SOL    HW2 7459   1.986   2.773   1.245
 1777SOL     OW 7460   3.387   2.861   0.190
 1777SOL    HW1 7461   3.324   2.785   0.203
 1777SOL    HW2 7462   3.435   2.879   0.276
 1778SOL     OW 7463   3.049   3.654   1.616
 1778SOL    HW1 7464   3.073   3.714   1.540
 1778SOL    HW2 7465   3.056   3.559   1.586
 1779SOL     OW 7466   2.179   2.113   1.801
 1779SOL    HW1 7467   2.250   2.184   1.807
 1779SOL    HW2 7468   2.091   2.152   1.829
 1780SOL     OW 7469   3.328   3.279   0.953
 1780SOL    HW1 7470   3.269   3.285   1.033
 1780SOL    HW2 7471   3.313   3.191   0.907
 1781SOL     OW 7472   2.460   2.591   0.270
 1781SOL    HW1 7473   2.484   2.660   0.202
 1781SOL    HW2 7474   2.382   2.624   0.324
 1782SOL     OW 7475   3.143   2.207   0.944
 1782SOL    HW1 7476   3.057   2.157   0.931
 1782SOL    HW2 7477   3.205   2.153   1.000
 1783SOL     OW 7478   2.669   2.467   1.465
 1783SOL    HW1 7479   2.622   2.464   1.554
 1783SOL    HW2 7480   2.618   2.412   1.399
 1784SOL     OW 7481   3.256   2.331   1.674
 1784SOL    HW1 7482   3.236   2.374   1.762
 1784SOL    HW2 7483   3.334   2.269   1.683
 1785SOL     OW 7484   2.835   2.752   1.572
 1785SOL    HW1 7485   2.881   2.668   1.543
 1785SOL    HW2 7486   2.779   2.786   1.497
 1786SOL     OW 7487   2.853   2.272   1.242
 1786SOL    HW1 7488   2.776   2.306   1.296
 1786SOL    HW2 7489   2.819   2.221   1.163
 1787SOL     OW 7490   2.903   2.563   0.429
 1787SOL    HW1 7491   2.929   2.559   0.525
 1787SOL    HW2 7492   2.818   2.512   0.415
 1788SOL     OW 7493   1.992   3.683   1.571
 1788SOL    HW1 7494   1.982   3.668   1.670
 1788SOL    HW2 7495   1.906   3.719   1.535
 1789SOL     OW 7496   2.727   2.210   0.195
 1789SOL    HW1 7497   2.786   2.273   0.146
 1789SOL    HW2 7498   2.746   2.116   0.166
 1790SOL     OW 7499   3.581   2.447   1.831
 1790SOL    HW1 7500   3.555   2.536   1.795
 1790SOL    HW2 7501   3.579   2.379   1.758
 1791SOL     OW 7502   3.224   3.006   0.545
 1791SOL    HW1 7503   3.307   2.977   0.497
 1791SOL    HW2 7504   3.175   3.073   0.489
 1792SOL     OW 7505   2.213   3.663   0.853
 1792SOL    HW1 7506   2.263   3.577   0.859
 1792SOL    HW2 7507   2.278   3.740   0.850
 1793SOL     OW 7508   3.089   3.412   1.506
 1793SOL    HW1 7509   3.095   3.335   1.570
 1793SOL    HW2 7510   3.037   3.386   1.426
 1794SOL     OW 7511   3.320   2.597   0.728
 1794SOL    HW1 7512   3.315   2.532   0.803
 1794SOL    HW2 7513   3.400   2.656   0.741
 1795SOL     OW 7514   2.064   2.147   1.498
 1795SOL    HW1 7515   1.984   2.207   1.485
 1795SOL    HW2 7516   2.054   2.098   1.584
 1796SOL     OW 7517   3.262   1.969   0.426
 1796SOL    HW1 7518   3.238   1.932   0.336
 1796SOL    HW2 7519   3.361   1.985   0.430
 1797SOL     OW 7520   2.111   3.647   1.241
 1797SOL    HW1 7521   2.168   3.582   1.291
 1797SOL    HW2 7522   2.095   3.614   1.148
 1798SOL     OW 7523   2.244   2.562   0.480
 1798SOL    HW1 7524   2.289   2.472   0.477
 1798SOL    HW2 7525   2.150   2.551   0.513
 1799SOL     OW 7526   3.409   2.084   1.729
 1799SOL    HW1 7527   3.404   2.121   1.821
 1799SOL    HW2 7528   3.337   2.015   1.717
 1800SOL     OW 7529   2.643   2.126   1.749
 1800SOL    HW1 7530   2.710   2.065   1.792
 1800SOL    HW2 7531   2.570   2.145   1.814
 1801SOL     OW 7532   3.213   2.452   1.433
 1801SOL    HW1 7533   3.241   2.409   1.518
 1801SOL    HW2 7534   3.238   2.548   1.434
 1802SOL     OW 7535   2.665   3.264   0.924
 1802SOL    HW1 7536   2.755   3.278   0.882
 1802SOL    HW2 7537   2.594   3.266   0.853
 1803SOL     OW 7538   2.784   2.365   0.899
 1803SOL    HW1 7539   2.759   2.356   0.803
 1803SOL    HW2 7540   2.832   2.283   0.930
 1804SOL     OW 7541   3.296   3.050   0.041
 1804SOL    HW1 7542   3.328   2.974   0.098
 1804SOL    HW2 7543   3.204   3.077   0.071
 1805SOL     OW 7544   2.938   2.545   1.464
 1805SOL    HW1 7545   2.858   2.484   1.467
 1805SOL    HW2 7546   3.019   2.492   1.440
 1806SOL     OW 7547   3.089   3.432   0.793
 1806SOL    HW1 7548   3.110   3.506   0.728
 1806SOL    HW2 7549   3.157   3.432   0.866
 1807SOL     OW 7550   2.894   2.411   0.016
 1807SOL    HW1 7551   2.853   2.493  -0.023
 1807SOL    HW2 7552   2.958   2.437   0.089
 1808SOL     OW 7553   1.940   2.418   1.386
 1808SOL    HW1 7554   2.032   2.417   1.345
 1808SOL    HW2 7555   1.934   2.492   1.453
 1809SOL     OW 7556   2.423   2.084   1.147
 1809SOL    HW1 7557   2.461   2.000   1.184
 1809SOL    HW2 7558   2.335   2.103   1.191
 1810SOL     OW 7559   3.291   3.035   0.867
 1810SOL    HW1 7560   3.236   2.951   0.860
 1810SOL    HW2 7561   3.317   3.064   0.775
 1811SOL     OW 7562   3.328   2.452   0.992
 1811SOL    HW1 7563   3.298   2.357   0.999
 1811SOL    HW2 7564   3.401   2.468   1.058
 1812SOL     OW 7565   3.719   2.695   0.377
 1812SOL    HW1 7566   3.761   2.631   0.441
 1812SOL    HW2 7567   3.681   2.644   0.299
 1813SOL     OW 7568   2.350   3.247   0.174
 1813SOL    HW1 7569   2.263   3.232   0.221
 1813SOL    HW2 7570   2.333   3.273   0.079
 1814SOL     OW 7571   3.252   2.437   0.078
 1814SOL    HW1 7572   3.198   2.416   0.159
 1814SOL    HW2 7573   3.343   2.396   0.087
 1815SOL     OW 7574   2.389   2.118   0.328
 1815SOL    HW1 7575   2.416   2.059   0.253
 1815SOL    HW2 7576   2.389   2.213   0.297
 1816SOL     OW 7577   3.616   3.085   1.588
 1816SOL    HW1 7578   3.707   3.046   1.575
 1816SOL    HW2 7579   3.624   3.181   1.612
 1817SOL     OW 7580   3.454   3.491   1.625
 1817SOL    HW1 7581   3.481   3.525   1.535
 1817SOL    HW2 7582   3.533   3.453   1.671
 1818SOL     OW 7583   2.973   3.057   1.100
 1818SOL    HW1 7584   2.933   3.101   1.181
 1818SOL    HW2 7585   2.932   3.094   1.017
 1819SOL     OW 7586   2.777   1.951   1.402
 1819SOL    HW1 7587   2.802   1.931   1.307
 1819SOL    HW2 7588   2.849   2.007   1.444
 1820SOL     OW 7589   2.842   2.978   1.719
 1820SOL    HW1 7590   2.743   2.984   1.729
 1820SOL    HW2 7591   2.865   2.898   1.663
 1821SOL     OW 7592   2.272   2.675   1.251
 1821SOL    HW1 7593   2.358   2.687   1.301
 1821SOL    HW2 7594   2.230   2.588   1.278
 1822SOL     OW 7595   3.136   2.248   1.262
 1822SOL    HW1 7596   3.157   2.322   1.326
 1822SOL    HW2 7597   3.047   2.265   1.219
 1823SOL     OW 7598   1.926   3.426   1.331
 1823SOL    HW1 7599   1.880   3.508   1.297
 1823SOL    HW2 7600   2.024   3.445   1.340
 1824SOL     OW 7601   2.428   2.399   0.865
 1824SOL    HW1 7602   2.440   2.465   0.791
 1824SOL    HW2 7603   2.474   2.433   0.948
 1825SOL     OW 7604   3.114   3.210   0.388
 1825SOL    HW1 7605   3.164   3.287   0.428
 1825SOL    HW2 7606   3.019   3.212   0.420
 1826SOL     OW 7607   3.134   3.307   1.142
 1826SOL    HW1 7608   3.181   3.320   1.229
 1826SOL    HW2 7609   3.068   3.233   1.151
 1827SOL     OW 7610   3.444   2.501   0.472
 1827SOL    HW1 7611   3.413   2.562   0.545
 1827SOL    HW2 7612   3.494   2.553   0.403
 1828SOL     OW 7613   2.216   3.372   1.329
 1828SOL    HW1 7614   2.195   3.328   1.242
 1828SOL    HW2 7615   2.313   3.398   1.332
 1829SOL     OW 7616   2.264   2.613   1.598
 1829SOL    HW1 7617   2.332   2.668   1.551
 1829SOL    HW2 7618   2.304   2.525   1.625
 1830SOL     OW 7619   3.449   2.641   1.670
 1830SOL    HW1 7620   3.357   2.679   1.665
 1830SOL    HW2 7621   3.509   2.688   1.605
 1831SOL     OW 7622   2.875   1.967   1.770
 1831SOL    HW1 7623   2.881   2.052   1.718
 1831SOL    HW2 7624   2.907   1.891   1.713
 1832SOL     OW 7625   2.366   1.912   1.740
 1832SOL    HW1 7626   2.324   1.855   1.670
 1832SOL    HW2 7627   2.300   1.981   1.772
 1833SOL     OW 7628   2.435   2.732   1.029
 1833SOL    HW1 7629   2.479   2.821   1.020
 1833SOL    HW2 7630   2.372   2.732   1.106
 1834SOL     OW 7631   3.071   2.387   0.275
 1834SOL    HW1 7632   3.084   2.303   0.329
 1834SOL    HW2 7633   3.042   2.461   0.335
 1835SOL     OW 7634   2.169   2.075   1.231
 1835SOL    HW1 7635   2.146   2.112   1.321
 1835SOL    HW2 7636   2.139   1.980   1.225
 1836SOL     OW 7637   1.899   3.172   1.282
 1836SOL    HW1 7638   1.952   3.123   1.350
 1836SOL    HW2 7639   1.921   3.270   1.287
 1837SOL     OW 7640   2.594   2.496   1.064
 1837SOL    HW1 7641   2.653   2.470   0.988
 1837SOL    HW2 7642   2.566   2.592   1.053
 1838SOL     OW 7643   2.169   1.925   0.618
 1838SOL    HW1 7644   2.158   2.019   0.651
 1838SOL    HW2 7645   2.164   1.862   0.695
 1839SOL     OW 7646   3.484   2.229   0.374
 1839SOL    HW1 7647   3.486   2.153   0.438
 1839SOL    HW2 7648   3.436   2.306   0.414
 1840SOL     OW 7649   2.885   2.628   0.966
 1840SOL    HW1 7650   2.900   2.649   1.062
 1840SOL    HW2 7651   2.855   2.533   0.957
 1841SOL     OW 7652   2.842   3.435   1.700
 1841SOL    HW1 7653   2.822   3.479   1.612
 1841SOL    HW2 7654   2.881   3.344   1.684
 1842SOL     OW 7655   3.721   3.380   1.605
 1842SOL    HW1 7656   3.735   3.407   1.510
 1842SOL    HW2 7657   3.804   3.402   1.658
 1843SOL     OW 7658   3.402   2.136   0.125
 1843SOL    HW1 7659   3.341   2.061   0.148
 1843SOL    HW2 7660   3.424   2.188   0.208
 1844SOL     OW 7661   3.165   2.700   0.042
 1844SOL    HW1 7662   3.199   2.607   0.057
 1844SOL    HW2 7663   3.183   2.727  -0.053
 1845SOL     OW 7664   2.930   3.195   0.849
 1845SOL    HW1 7665   2.937   3.111   0.794
 1845SOL    HW2 7666   2.992   3.264   0.813
 1846SOL     OW 7667   3.000   2.242   1.678
 1846SOL    HW1 7668   2.955   2.305   1.742
 1846SOL    HW2 7669   3.093   2.273   1.661
 1847SOL     OW 7670   3.022   2.069   1.477
 1847SOL    HW1 7671   3.022   2.133   1.554
 1847SOL    HW2 7672   3.050   2.117   1.394
 1848SOL     OW 7673   1.950   3.663   0.927
 1848SOL    HW1 7674   1.908   3.577   0.900
 1848SOL    HW2 7675   2.044   3.666   0.893
 1849SOL     OW 7676   2.366   3.430   0.910
 1849SOL    HW1 7677   2.432   3.504   0.919
 1849SOL    HW2 7678   2.410   3.351   0.868
 1850SOL     OW 7679   2.864   2.658   1.238
 1850SOL    HW1 7680   2.905   2.626   1.324
 1850SOL    HW2 7681   2.768   2.631   1.235
 1851SOL     OW 7682   1.902   2.406   1.114
 1851SOL    HW1 7683   1.987   2.373   1.073
 1851SOL    HW2 7684   1.915   2.421   1.212
 1852SOL     OW 7685   2.051   2.382   1.722
 1852SOL    HW1 7686   2.110   2.342   1.652
 1852SOL    HW2 7687   1.993   2.453   1.681
 1853SOL     OW 7688   2.677   2.434   0.325
 1853SOL    HW1 7689   2.684   2.345   0.279
 1853SOL    HW2 7690   2.583   2.468   0.317
 1854SOL     OW 7691   3.519   2.466   1.206
 1854SOL    HW1 7692   3.481   2.397   1.268
 1854SOL    HW2 7693   3.601   2.430   1.162
 1855SOL     OW 7694   2.533   2.326   1.269
 1855SOL    HW1 7695   2.499   2.237   1.239
 1855SOL    HW2 7696   2.559   2.380   1.189
 1856SOL     OW 7697   2.335   2.362   0.191
 1856SOL    HW1 7698   2.396   2.442   0.195
 1856SOL    HW2 7699   2.240   2.393   0.198
 1857SOL     OW 7700   2.021   2.999   1.466
 1857SOL    HW1 7701   2.043   2.938   1.542
 1857SOL    HW2 7702   2.031   2.950   1.380
 1858SOL     OW 7703   3.164   2.717   0.309
 1858SOL    HW1 7704   3.078   2.686   0.351
 1858SOL    HW2 7705   3.160   2.703   0.210
 1859SOL     OW 7706   3.621   3.609   1.154
 1859SOL    HW1 7707   3.682   3.639   1.081
 1859SOL    HW2 7708   3.583   3.520   1.132
 1860SOL     OW 7709   3.114   3.593   1.128
 1860SOL    HW1 7710   3.198   3.598   1.074
 1860SOL    HW2 7711   3.091   3.497   1.146
 1861SOL     OW 7712   1.945   3.120   1.022
 1861SOL    HW1 7713   1.940   3.119   1.122
 1861SOL    HW2 7714   1.862   3.079   0.984
 1862SOL     OW 7715   2.550   3.524   1.716
 1862SOL    HW1 7716   2.494   3.605   1.725
 1862SOL    HW2 7717   2.602   3.528   1.630
 1863SOL     OW 7718   3.588   1.997   0.523
 1863SOL    HW1 7719   3.661   1.980   0.456
 1863SOL    HW2 7720   3.557   1.910   0.561
 1864SOL     OW 7721   3.250   3.435   0.477
 1864SOL    HW1 7722   3.317   3.447   0.403
 1864SOL    HW2 7723   3.210   3.524   0.500
 1865SOL     OW 7724   3.142   2.789   0.672
 1865SOL    HW1 7725   3.202   2.708   0.674
 1865SOL    HW2 7726   3.182   2.858   0.612
 1866SOL     OW 7727   2.692   3.135   1.422
 1866SOL    HW1 7728   2.687   3.168   1.517
 1866SOL    HW2 7729   2.606   3.154   1.376
 1867SOL     OW 7730   3.512   3.582   1.394
 1867SOL    HW1 7731   3.565   3.592   1.310
 1867SOL    HW2 7732   3.485   3.672   1.428
 1868SOL     OW 7733   3.703   2.037   0.963
 1868SOL    HW1 7734   3.742   1.952   0.927
 1868SOL    HW2 7735   3.605   2.039   0.944
 1869SOL     OW 7736   3.056   3.474   0.031
 1869SOL    HW1 7737   3.062   3.381   0.068
 1869SOL    HW2 7738   2.997   3.474  -0.049
 1870SOL     OW 7739   2.684   2.864   1.372
 1870SOL    HW1 7740   2.724   2.863   1.280
 1870SOL    HW2 7741   2.694   2.956   1.412
 1871SOL     OW 7742   2.778   2.772   0.291
 1871SOL    HW1 7743   2.841   2.810   0.223
 1871SOL    HW2 7744   2.818   2.689   0.330
 1872SOL     OW 7745   2.234   3.150   1.490
 1872SOL    HW1 7746   2.221   3.243   1.456
 1872SOL    HW2 7747   2.150   3.098   1.477
 1873SOL     OW 7748   3.476   3.154   1.289
 1873SOL    HW1 7749   3.536   3.157   1.369
 1873SOL    HW2 7750   3.401   3.218   1.302
 1874SOL     OW 7751   2.901   2.960   0.696
 1874SOL    HW1 7752   2.831   2.913   0.750
 1874SOL    HW2 7753   2.960   2.892   0.653
 1875SOL     OW 7754   2.876   2.098   0.971
 1875SOL    HW1 7755   2.868   2.062   0.878
 1875SOL    HW2 7756   2.874   2.022   1.036
 1876SOL     OW 7757   2.452   3.349   0.491
 1876SOL    HW1 7758   2.494   3.291   0.421
 1876SOL    HW2 7759   2.408   3.428   0.447
 1877SOL     OW 7760   3.571   2.247   1.381
 1877SOL    HW1 7761   3.644   2.316   1.385
 1877SOL    HW2 7762   3.599   2.172   1.322
 1878SOL     OW 7763   1.967   2.875   1.726
 1878SOL    HW1 7764   1.890   2.842   1.780
 1878SOL    HW2 7765   2.052   2.845   1.768
 1879SOL     OW 7766   2.534   2.065   1.489
 1879SOL    HW1 7767   2.624   2.049   1.449
 1879SOL    HW2 7768   2.542   2.070   1.588
 1880SOL     OW 7769   3.302   2.718   1.398
 1880SOL    HW1 7770   3.245   2.770   1.335
 1880SOL    HW2 7771   3.398   2.730   1.374
 1881SOL     OW 7772   1.934   2.028   0.318
 1881SOL    HW1 7773   1.917   2.111   0.264
 1881SOL    HW2 7774   2.024   1.991   0.296
 1882SOL     OW 7775   3.045   3.197   0.119
 1882SOL    HW1 7776   2.946   3.186   0.121
 1882SOL    HW2 7777   3.079   3.212   0.212
 1883SOL     OW 7778   2.475   2.704   1.431
 1883SOL    HW1 7779   2.531   2.785   1.414
 1883SOL    HW2 7780   2.534   2.624   1.434
 1884SOL     OW 7781   3.355   3.629   0.959
 1884SOL    HW1 7782   3.388   3.693   0.890
 1884SOL    HW2 7783   3.421   3.623   1.034
 1885SOL     OW 7784   2.578   2.427   1.708
 1885SOL    HW1 7785   2.597   2.492   1.782
 1885SOL    HW2 7786   2.638   2.347   1.717
 1886SOL     OW 7787   2.252   3.603   1.560
 1886SOL    HW1 7788   2.161   3.644   1.558
 1886SOL    HW2 7789   2.245   3.509   1.592
 1887SOL     OW 7790   3.087   2.187   0.449
 1887SOL    HW1 7791   3.152   2.113   0.438
 1887SOL    HW2 7792   3.107   2.237   0.533
 1888SOL     OW 7793   2.456   2.607   0.652
 1888SOL    HW1 7794   2.506   2.692   0.633
 1888SOL    HW2 7795   2.368   2.609   0.604
 1889SOL     OW 7796   3.639   2.204   1.642
 1889SOL    HW1 7797   3.622   2.235   1.548
 1889SOL    HW2 7798   3.555   2.167   1.680
 1890SOL     OW 7799   3.592   2.796   1.517
 1890SOL    HW1 7800   3.630   2.887   1.532
 1890SOL    HW2 7801   3.584   2.779   1.418
 1891SOL     OW 7802   2.721   3.236   0.016
 1891SOL    HW1 7803   2.675   3.251   0.104
 1891SOL    HW2 7804   2.765   3.321  -0.014
 1892SOL     OW 7805   2.721   2.818   0.861
 1892SOL    HW1 7806   2.775   2.749   0.909
 1892SOL    HW2 7807   2.689   2.887   0.927
 1893SOL     OW 7808   2.945   2.846   0.087
 1893SOL    HW1 7809   2.922   2.899   0.005
 1893SOL    HW2 7810   3.026   2.790   0.068
 1894SOL     OW 7811   3.723   3.431   0.851
 1894SOL    HW1 7812   3.652   3.419   0.781
 1894SOL    HW2 7813   3.724   3.352   0.911
 1895SOL     OW 7814   3.686   2.054   1.227
 1895SOL    HW1 7815   3.682   1.964   1.271
 1895SOL    HW2 7816   3.689   2.043   1.128
 1896SOL     OW 7817   2.290   2.286   0.520
 1896SOL    HW1 7818   2.320   2.214   0.458
 1896SOL    HW2 7819   2.251   2.246   0.603
 1897SOL     OW 7820   3.567   3.349   1.104
 1897SOL    HW1 7821   3.474   3.324   1.077
 1897SOL    HW2 7822   3.593   3.299   1.186
 1898SOL     OW 7823   2.179   2.409   1.280
 1898SOL    HW1 7824   2.217   2.350   1.352
 1898SOL    HW2 7825   2.219   2.383   1.192
 1899SOL     OW 7826   3.286   2.076   1.112
 1899SOL    HW1 7827   3.338   2.011   1.167
 1899SOL    HW2 7828   3.237   2.139   1.173
 1900SOL     OW 7829   2.863   1.896   1.154
 1900SOL    HW1 7830   2.800   1.824   1.123
 1900SOL    HW2 7831   2.956   1.860   1.154
 1901SOL     OW 7832   2.632   3.192   0.301
 1901SOL    HW1 7833   2.586   3.105   0.318
 1901SOL    HW2 7834   2.723   3.189   0.342
 1902SOL     OW 7835   3.214   1.914   0.168
 1902SOL    HW1 7836   3.249   1.873   0.084
 1902SOL    HW2 7837   3.124   1.876   0.188
 1903SOL     OW 7838   3.162   2.315   0.691
 1903SOL    HW1 7839   3.103   2.395   0.695
 1903SOL    HW2 7840   3.177   2.280   0.784
 1904SOL     OW 7841   3.455   2.083   0.882
 1904SOL    HW1 7842   3.371   2.082   0.936
 1904SOL    HW2 7843   3.457   2.166   0.826
 1905SOL     OW 7844   2.092   2.490   1.975
 1905SOL    HW1 7845   1.999   2.488   2.012
 1905SOL    HW2 7846   2.093   2.451   1.883
 1906SOL     OW 7847   2.087   2.137   2.858
 1906SOL    HW1 7848   2.122   2.120   2.950
 1906SOL    HW2 7849   1.999   2.092   2.846
 1907SOL     OW 7850   1.881   2.230   2.509
 1907SOL    HW1 7851   1.799   2.273   2.548
 1907SOL    HW2 7852   1.853   2.157   2.446
 1908SOL     OW 7853   3.417   3.373   2.565
 1908SOL    HW1 7854   3.360   3.357   2.646
 1908SOL    HW2 7855   3.358   3.383   2.485
 1909SOL     OW 7856   3.617   2.469   2.093
 1909SOL    HW1 7857   3.605   2.456   1.994
 1909SOL    HW2 7858   3.587   2.388   2.142
 1910SOL     OW 7859   2.630   3.006   2.885
 1910SOL    HW1 7860   2.552   3.023   2.945
 1910SOL    HW2 7861   2.664   3.093   2.849
 1911SOL     OW 7862   2.712   2.660   3.685
 1911SOL    HW1 7863   2.708   2.736   3.750
 1911SOL    HW2 7864   2.734   2.696   3.594
 1912SOL     OW 7865   2.548   3.023   3.665
 1912SOL    HW1 7866   2.608   3.102   3.679
 1912SOL    HW2 7867   2.462   3.054   3.624
 1913SOL     OW 7868   3.465   2.309   2.599
 1913SOL    HW1 7869   3.391   2.355   2.549
 1913SOL    HW2 7870   3.516   2.377   2.652
 1914SOL     OW 7871   2.989   3.203   3.552
 1914SOL    HW1 7872   3.036   3.203   3.640
 1914SOL    HW2 7873   2.941   3.116   3.541
 1915SOL     OW 7874   2.482   3.648   3.301
 1915SOL    HW1 7875   2.390   3.631   3.336
 1915SOL    HW2 7876   2.510   3.740   3.327
 1916SOL     OW 7877   2.468   2.826   1.985
 1916SOL    HW1 7878   2.475   2.910   1.931
 1916SOL    HW2 7879   2.514   2.839   2.073
 1917SOL     OW 7880   3.704   3.629   2.221
 1917SOL    HW1 7881   3.758   3.600   2.301
 1917SOL    HW2 7882   3.734   3.719   2.192
 1918SOL     OW 7883   1.889   3.458   1.979
 1918SOL    HW1 7884   1.870   3.362   2.000
 1918SOL    HW2 7885   1.856   3.516   2.054
 1919SOL     OW 7886   3.551   2.784   2.474
 1919SOL    HW1 7887   3.646   2.755   2.482
 1919SOL    HW2 7888   3.543   2.849   2.399
 1920SOL     OW 7889   3.503   2.970   2.294
 1920SOL    HW1 7890   3.589   2.972   2.242
 1920SOL    HW2 7891   3.517   3.017   2.382
 1921SOL     OW 7892   1.975   2.599   3.459
 1921SOL    HW1 7893   2.063   2.586   3.504
 1921SOL    HW2 7894   1.962   2.696   3.437
 1922SOL     OW 7895   2.475   3.227   2.588
 1922SOL    HW1 7896   2.426   3.140   2.597
 1922SOL    HW2 7897   2.452   3.270   2.501
 1923SOL     OW 7898   3.155   3.090   3.285
 1923SOL    HW1 7899   3.192   3.017   3.227
 1923SOL    HW2 7900   3.207   3.095   3.370
 1924SOL     OW 7901   2.671   1.866   2.364
 1924SOL    HW1 7902   2.711   1.957   2.355
 1924SOL    HW2 7903   2.571   1.874   2.370
 1925SOL     OW 7904   3.529   3.576   2.434
 1925SOL    HW1 7905   3.488   3.553   2.346
 1925SOL    HW2 7906   3.511   3.502   2.499
 1926SOL     OW 7907   2.460   2.591   2.132
 1926SOL    HW1 7908   2.484   2.660   2.064
 1926SOL    HW2 7909   2.382   2.624   2.186
 1927SOL     OW 7910   3.143   2.207   2.806
 1927SOL    HW1 7911   3.057   2.157   2.793
 1927SOL    HW2 7912   3.205   2.153   2.862
 1928SOL     OW 7913   3.438   3.524   2.169
 1928SOL    HW1 7914   3.527   3.570   2.172
 1928SOL    HW2 7915   3.417   3.500   2.074
 1929SOL     OW 7916   2.669   2.467   3.327
 1929SOL    HW1 7917   2.622   2.464   3.416
 1929SOL    HW2 7918   2.618   2.412   3.261
 1930SOL     OW 7919   3.256   2.331   3.536
 1930SOL    HW1 7920   3.236   2.374   3.624
 1930SOL    HW2 7921   3.334   2.269   3.545
 1931SOL     OW 7922   2.835   2.752   3.434
 1931SOL    HW1 7923   2.881   2.668   3.405
 1931SOL    HW2 7924   2.779   2.786   3.359
 1932SOL     OW 7925   2.853   2.272   3.104
 1932SOL    HW1 7926   2.776   2.306   3.158
 1932SOL    HW2 7927   2.819   2.221   3.025
 1933SOL     OW 7928   2.903   2.563   2.291
 1933SOL    HW1 7929   2.929   2.559   2.387
 1933SOL    HW2 7930   2.818   2.512   2.277
 1934SOL     OW 7931   1.992   3.683   3.433
 1934SOL    HW1 7932   1.982   3.668   3.532
 1934SOL    HW2 7933   1.906   3.719   3.397
 1935SOL     OW 7934   2.727   2.210   2.057
 1935SOL    HW1 7935   2.786   2.273   2.008
 1935SOL    HW2 7936   2.746   2.116   2.028
 1936SOL     OW 7937   3.581   2.447   3.693
 1936SOL    HW1 7938   3.555   2.536   3.657
 1936SOL    HW2 7939   3.579   2.379   3.620
 1937SOL     OW 7940   2.412   2.058   2.747
 1937SOL    HW1 7941   2.407   2.053   2.847
 1937SOL    HW2 7942   2.414   2.154   2.718
 1938SOL     OW 7943   2.870   3.318   2.339
 1938SOL    HW1 7944   2.824   3.390   2.287
 1938SOL    HW2 7945   2.866   3.338   2.437
 1939SOL     OW 7946   2.213   3.663   2.715
 1939SOL    HW1 7947   2.263   3.577   2.721
 1939SOL    HW2 7948   2.278   3.740   2.712
 1940SOL     OW 7949   3.657   2.928   2.735
 1940SOL    HW1 7950   3.595   2.913   2.659
 1940SOL    HW2 7951   3.605   2.939   2.820
 1941SOL     OW 7952   3.320   2.597   2.590
 1941SOL    HW1 7953   3.315   2.532   2.665
 1941SOL    HW2 7954   3.400   2.656   2.603
 1942SOL     OW 7955   2.323   3.128   3.589
 1942SOL    HW1 7956   2.273   3.129   3.503
 1942SOL    HW2 7957   2.260   3.110   3.665
 1943SOL     OW 7958   2.973   3.638   2.099
 1943SOL    HW1 7959   2.913   3.576   2.149
 1943SOL    HW2 7960   3.004   3.594   2.014
 1944SOL     OW 7961   2.064   2.147   3.360
 1944SOL    HW1 7962   1.984   2.207   3.347
 1944SOL    HW2 7963   2.054   2.098   3.446
 1945SOL     OW 7964   3.494   3.239   1.943
 1945SOL    HW1 7965   3.462   3.333   1.933
 1945SOL    HW2 7966   3.418   3.176   1.931
 1946SOL     OW 7967   3.262   1.969   2.288
 1946SOL    HW1 7968   3.238   1.932   2.198
 1946SOL    HW2 7969   3.361   1.985   2.292
 1947SOL     OW 7970   2.111   3.647   3.103
 1947SOL    HW1 7971   2.168   3.582   3.153
 1947SOL    HW2 7972   2.095   3.614   3.010
 1948SOL     OW 7973   2.802   3.560   2.766
 1948SOL    HW1 7974   2.882   3.503   2.787
 1948SOL    HW2 7975   2.753   3.520   2.689
 1949SOL     OW 7976   2.244   2.562   2.342
 1949SOL    HW1 7977   2.289   2.472   2.339
 1949SOL    HW2 7978   2.150   2.551   2.375
 1950SOL     OW 7979   3.409   2.084   3.591
 1950SOL    HW1 7980   3.404   2.121   3.683
 1950SOL    HW2 7981   3.337   2.015   3.579
 1951SOL     OW 7982   2.476   1.984   1.979
 1951SOL    HW1 7983   2.574   1.962   1.986
 1951SOL    HW2 7984   2.445   1.967   1.886
 1952SOL     OW 7985   2.750   3.376   3.057
 1952SOL    HW1 7986   2.727   3.351   2.963
 1952SOL    HW2 7987   2.811   3.307   3.096
 1953SOL     OW 7988   3.213   2.452   3.295
 1953SOL    HW1 7989   3.241   2.409   3.380
 1953SOL    HW2 7990   3.238   2.548   3.296
 1954SOL     OW 7991   2.665   3.264   2.786
 1954SOL    HW1 7992   2.755   3.278   2.744
 1954SOL    HW2 7993   2.594   3.266   2.715
 1955SOL     OW 7994   2.401   1.926   2.374
 1955SOL    HW1 7995   2.320   1.927   2.432
 1955SOL    HW2 7996   2.404   2.009   2.319
 1956SOL     OW 7997   2.159   1.897   2.033
 1956SOL    HW1 7998   2.208   1.981   2.012
 1956SOL    HW2 7999   2.221   1.832   2.078
 1957SOL     OW 8000   2.797   2.098   2.342
 1957SOL    HW1 8001   2.749   2.139   2.264
 1957SOL    HW2 8002   2.896   2.096   2.323
 1958SOL     OW 8003   2.938   2.545   3.326
 1958SOL    HW1 8004   2.858   2.484   3.329
 1958SOL    HW2 8005   3.019   2.492   3.302
 1959SOL     OW 8006   3.089   3.432   2.655
 1959SOL    HW1 8007   3.110   3.506   2.590
 1959SOL    HW2 8008   3.157   3.432   2.728
 1960SOL     OW 8009   3.133   3.659   2.453
 1960SOL    HW1 8010   3.177   3.723   2.389
 1960SOL    HW2 8011   3.083   3.711   2.523
 1961SOL     OW 8012   2.894   2.411   1.878
 1961SOL    HW1 8013   2.853   2.493   1.839
 1961SOL    HW2 8014   2.958   2.437   1.951
 1962SOL     OW 8015   2.423   2.084   3.009
 1962SOL    HW1 8016   2.461   2.000   3.046
 1962SOL    HW2 8017   2.335   2.103   3.053
 1963SOL     OW 8018   3.328   2.452   2.854
 1963SOL    HW1 8019   3.298   2.357   2.861
 1963SOL    HW2 8020   3.401   2.468   2.920
 1964SOL     OW 8021   3.719   2.695   2.239
 1964SOL    HW1 8022   3.761   2.631   2.303
 1964SOL    HW2 8023   3.681   2.644   2.161
 1965SOL     OW 8024   3.526   3.142   2.519
 1965SOL    HW1 8025   3.625   3.150   2.533
 1965SOL    HW2 8026   3.481   3.226   2.550
 1966SOL     OW 8027   3.252   2.437   1.940
 1966SOL    HW1 8028   3.198   2.416   2.021
 1966SOL    HW2 8029   3.343   2.396   1.949
 1967SOL     OW 8030   2.389   2.118   2.190
 1967SOL    HW1 8031   2.416   2.059   2.115
 1967SOL    HW2 8032   2.389   2.213   2.159
 1968SOL     OW 8033   3.616   3.085   3.450
 1968SOL    HW1 8034   3.707   3.046   3.437
 1968SOL    HW2 8035   3.624   3.181   3.474
 1969SOL     OW 8036   2.926   3.209   3.202
 1969SOL    HW1 8037   2.846   3.186   3.257
 1969SOL    HW2 8038   3.009   3.183   3.251
 1970SOL     OW 8039   2.973   3.057   2.962
 1970SOL    HW1 8040   2.933   3.101   3.043
 1970SOL    HW2 8041   2.932   3.094   2.879
 1971SOL     OW 8042   3.500   2.961   2.941
 1971SOL    HW1 8043   3.505   3.042   3.000
 1971SOL    HW2 8044   3.414   2.963   2.890
 1972SOL     OW 8045   2.777   1.951   3.264
 1972SOL    HW1 8046   2.802   1.931   3.169
 1972SOL    HW2 8047   2.849   2.007   3.306
 1973SOL     OW 8048   2.842   2.978   3.581
 1973SOL    HW1 8049   2.743   2.984   3.591
 1973SOL    HW2 8050   2.865   2.898   3.525
 1974SOL     OW 8051   2.272   2.675   3.113
 1974SOL    HW1 8052   2.358   2.687   3.163
 1974SOL    HW2 8053   2.230   2.588   3.140
 1975SOL     OW 8054   3.136   2.248   3.124
 1975SOL    HW1 8055   3.157   2.322   3.188
 1975SOL    HW2 8056   3.047   2.265   3.081
 1976SOL     OW 8057   1.926   3.426   3.193
 1976SOL    HW1 8058   1.880   3.508   3.159
 1976SOL    HW2 8059   2.024   3.445   3.202
 1977SOL     OW 8060   2.229   2.962   2.363
 1977SOL    HW1 8061   2.222   3.045   2.307
 1977SOL    HW2 8062   2.233   2.882   2.303
 1978SOL     OW 8063   2.216   3.372   3.191
 1978SOL    HW1 8064   2.195   3.328   3.104
 1978SOL    HW2 8065   2.313   3.398   3.194
 1979SOL     OW 8066   2.264   2.613   3.460
 1979SOL    HW1 8067   2.332   2.668   3.413
 1979SOL    HW2 8068   2.304   2.525   3.487
 1980SOL     OW 8069   3.449   2.641   3.532
 1980SOL    HW1 8070   3.357   2.679   3.527
 1980SOL    HW2 8071   3.509   2.688   3.467
 1981SOL     OW 8072   2.875   1.967   3.632
 1981SOL    HW1 8073   2.881   2.052   3.580
 1981SOL    HW2 8074   2.907   1.891   3.575
 1982SOL     OW 8075   2.435   2.732   2.891
 1982SOL    HW1 8076   2.479   2.821   2.882
 1982SOL    HW2 8077   2.372   2.732   2.968
 1983SOL     OW 8078   3.222   2.724   2.907
 1983SOL    HW1 8079   3.147   2.724   2.841
 1983SOL    HW2 8080   3.259   2.632   2.916
 1984SOL     OW 8081   3.071   2.387   2.137
 1984SOL    HW1 8082   3.084   2.303   2.191
 1984SOL    HW2 8083   3.042   2.461   2.197
 1985SOL     OW 8084   2.169   2.075   3.093
 1985SOL    HW1 8085   2.146   2.112   3.183
 1985SOL    HW2 8086   2.139   1.980   3.087
 1986SOL     OW 8087   3.590   2.797   3.716
 1986SOL    HW1 8088   3.544   2.790   3.627
 1986SOL    HW2 8089   3.528   2.841   3.782
 1987SOL     OW 8090   2.169   1.925   2.480
 1987SOL    HW1 8091   2.158   2.019   2.513
 1987SOL    HW2 8092   2.164   1.862   2.557
 1988SOL     OW 8093   3.484   2.229   2.236
 1988SOL    HW1 8094   3.486   2.153   2.300
 1988SOL    HW2 8095   3.436   2.306   2.276
 1989SOL     OW 8096   2.885   2.628   2.828
 1989SOL    HW1 8097   2.900   2.649   2.924
 1989SOL    HW2 8098   2.855   2.533   2.819
 1990SOL     OW 8099   2.212   2.760   3.666
 1990SOL    HW1 8100   2.288   2.804   3.714
 1990SOL    HW2 8101   2.247   2.713   3.584
 1991SOL     OW 8102   3.402   2.136   1.987
 1991SOL    HW1 8103   3.341   2.061   2.010
 1991SOL    HW2 8104   3.424   2.188   2.070
 1992SOL     OW 8105   2.930   3.195   2.711
 1992SOL    HW1 8106   2.937   3.111   2.656
 1992SOL    HW2 8107   2.992   3.264   2.675
 1993SOL     OW 8108   2.201   2.371   2.868
 1993SOL    HW1 8109   2.149   2.288   2.851
 1993SOL    HW2 8110   2.278   2.376   2.804
 1994SOL     OW 8111   3.000   2.242   3.540
 1994SOL    HW1 8112   2.955   2.305   3.604
 1994SOL    HW2 8113   3.093   2.273   3.523
 1995SOL     OW 8114   3.022   2.069   3.339
 1995SOL    HW1 8115   3.022   2.133   3.416
 1995SOL    HW2 8116   3.050   2.117   3.256
 1996SOL     OW 8117   1.870   3.188   2.062
 1996SOL    HW1 8118   1.777   3.209   2.031
 1996SOL    HW2 8119   1.880   3.089   2.075
 1997SOL     OW 8120   1.950   3.663   2.789
 1997SOL    HW1 8121   1.908   3.577   2.762
 1997SOL    HW2 8122   2.044   3.666   2.755
 1998SOL     OW 8123   2.366   3.430   2.772
 1998SOL    HW1 8124   2.432   3.504   2.781
 1998SOL    HW2 8125   2.410   3.351   2.730
 1999SOL     OW 8126   2.864   2.658   3.100
 1999SOL    HW1 8127   2.905   2.626   3.186
 1999SOL    HW2 8128   2.768   2.631   3.097
 2000SOL     OW 8129   1.902   2.406   2.976
 2000SOL    HW1 8130   1.987   2.373   2.935
 2000SOL    HW2 8131   1.915   2.421   3.074
 2001SOL     OW 8132   2.051   2.382   3.584
 2001SOL    HW1 8133   2.110   2.342   3.514
 2001SOL    HW2 8134   1.993   2.453   3.543
 2002SOL     OW 8135   3.231   2.812   3.522
 2002SOL    HW1 8136   3.270   2.901   3.542
 2002SOL    HW2 8137   3.241   2.792   3.425
 2003SOL     OW 8138   2.677   2.434   2.187
 2003SOL    HW1 8139   2.684   2.345   2.141
 2003SOL    HW2 8140   2.583   2.468   2.179
 2004SOL     OW 8141   3.519   2.466   3.068
 2004SOL    HW1 8142   3.481   2.397   3.130
 2004SOL    HW2 8143   3.601   2.430   3.024
 2005SOL     OW 8144   2.114   3.426   3.606
 2005SOL    HW1 8145   2.084   3.483   3.682
 2005SOL    HW2 8146   2.107   3.329   3.632
 2006SOL     OW 8147   2.533   2.326   3.131
 2006SOL    HW1 8148   2.499   2.237   3.101
 2006SOL    HW2 8149   2.559   2.380   3.051
 2007SOL     OW 8150   2.792   3.540   3.327
 2007SOL    HW1 8151   2.768   3.522   3.232
 2007SOL    HW2 8152   2.822   3.634   3.337
 2008SOL     OW 8153   2.335   2.362   2.053
 2008SOL    HW1 8154   2.396   2.442   2.057
 2008SOL    HW2 8155   2.240   2.393   2.060
 2009SOL     OW 8156   2.021   2.999   3.328
 2009SOL    HW1 8157   2.043   2.938   3.404
 2009SOL    HW2 8158   2.031   2.950   3.242
 2010SOL     OW 8159   3.209   2.921   3.096
 2010SOL    HW1 8160   3.233   2.858   3.022
 2010SOL    HW2 8161   3.119   2.961   3.078
 2011SOL     OW 8162   3.621   3.609   3.016
 2011SOL    HW1 8163   3.682   3.639   2.943
 2011SOL    HW2 8164   3.583   3.520   2.994
 2012SOL     OW 8165   2.550   3.524   3.578
 2012SOL    HW1 8166   2.494   3.605   3.587
 2012SOL    HW2 8167   2.602   3.528   3.492
 2013SOL     OW 8168   3.588   1.997   2.385
 2013SOL    HW1 8169   3.661   1.980   2.318
 2013SOL    HW2 8170   3.557   1.910   2.423
 2014SOL     OW 8171   3.250   3.435   2.339
 2014SOL    HW1 8172   3.317   3.447   2.265
 2014SOL    HW2 8173   3.210   3.524   2.362
 2015SOL     OW 8174   1.992   3.656   3.713
 2015SOL    HW1 8175   1.951   3.582   3.766
 2015SOL    HW2 8176   2.056   3.707   3.771
 2016SOL     OW 8177   2.692   3.135   3.284
 2016SOL    HW1 8178   2.687   3.168   3.379
 2016SOL    HW2 8179   2.606   3.154   3.238
 2017SOL     OW 8180   3.703   2.037   2.825
 2017SOL    HW1 8181   3.742   1.952   2.789
 2017SOL    HW2 8182   3.605   2.039   2.806
 2018SOL     OW 8183   3.056   3.474   1.893
 2018SOL    HW1 8184   3.062   3.381   1.930
 2018SOL    HW2 8185   2.997   3.474   1.813
 2019SOL     OW 8186   2.684   2.864   3.234
 2019SOL    HW1 8187   2.724   2.863   3.142
 2019SOL    HW2 8188   2.694   2.956   3.274
 2020SOL     OW 8189   2.778   2.772   2.153
 2020SOL    HW1 8190   2.841   2.810   2.085
 2020SOL    HW2 8191   2.818   2.689   2.192
 2021SOL     OW 8192   3.366   3.469   1.906
 2021SOL    HW1 8193   3.274   3.506   1.913
 2021SOL    HW2 8194   3.404   3.489   1.816
 2022SOL     OW 8195   2.234   3.150   3.352
 2022SOL    HW1 8196   2.221   3.243   3.318
 2022SOL    HW2 8197   2.150   3.098   3.339
 2023SOL     OW 8198   2.901   2.960   2.558
 2023SOL    HW1 8199   2.831   2.913   2.612
 2023SOL    HW2 8200   2.960   2.892   2.515
 2024SOL     OW 8201   2.876   2.098   2.833
 2024SOL    HW1 8202   2.868   2.062   2.740
 2024SOL    HW2 8203   2.874   2.022   2.898
 2025SOL     OW 8204   2.452   3.349   2.353
 2025SOL    HW1 8205   2.494   3.291   2.283
 2025SOL    HW2 8206   2.408   3.428   2.309
 2026SOL     OW 8207   3.571   2.247   3.243
 2026SOL    HW1 8208   3.644   2.316   3.247
 2026SOL    HW2 8209   3.599   2.172   3.184
 2027SOL     OW 8210   1.967   2.875   3.588
 2027SOL    HW1 8211   1.890   2.842   3.642
 2027SOL    HW2 8212   2.052   2.845   3.630
 2028SOL     OW 8213   1.937   2.207   1.895
 2028SOL    HW1 8214   1.845   2.179   1.866
 2028SOL    HW2 8215   1.968   2.284   1.839
 2029SOL     OW 8216   3.302   2.718   3.260
 2029SOL    HW1 8217   3.245   2.770   3.197
 2029SOL    HW2 8218   3.398   2.730   3.236
 2030SOL     OW 8219   1.934   2.028   2.180
 2030SOL    HW1 8220   1.917   2.111   2.126
 2030SOL    HW2 8221   2.024   1.991   2.158
 2031SOL     OW 8222   2.475   2.704   3.293
 2031SOL    HW1 8223   2.531   2.785   3.276
 2031SOL    HW2 8224   2.534   2.624   3.296
 2032SOL     OW 8225   2.578   2.427   3.570
 2032SOL    HW1 8226   2.597   2.492   3.644
 2032SOL    HW2 8227   2.638   2.347   3.579
 2033SOL     OW 8228   3.312   3.082   3.495
 2033SOL    HW1 8229   3.303   3.072   3.594
 2033SOL    HW2 8230   3.408   3.075   3.469
 2034SOL     OW 8231   2.252   3.603   3.422
 2034SOL    HW1 8232   2.161   3.644   3.420
 2034SOL    HW2 8233   2.245   3.509   3.454
 2035SOL     OW 8234   3.536   2.745   3.116
 2035SOL    HW1 8235   3.509   2.656   3.079
 2035SOL    HW2 8236   3.537   2.813   3.043
 2036SOL     OW 8237   3.087   2.187   2.311
 2036SOL    HW1 8238   3.152   2.113   2.300
 2036SOL    HW2 8239   3.107   2.237   2.395
 2037SOL     OW 8240   3.639   2.204   3.504
 2037SOL    HW1 8241   3.622   2.235   3.410
 2037SOL    HW2 8242   3.555   2.167   3.542
 2038SOL     OW 8243   3.592   2.796   3.379
 2038SOL    HW1 8244   3.630   2.887   3.394
 2038SOL    HW2 8245   3.584   2.779   3.280
 2039SOL     OW 8246   2.721   3.236   1.878
 2039SOL    HW1 8247   2.675   3.251   1.966
 2039SOL    HW2 8248   2.765   3.321   1.848
 2040SOL     OW 8249   2.523   3.652   2.815
 2040SOL    HW1 8250   2.477   3.740   2.802
 2040SOL    HW2 8251   2.622   3.664   2.808
 2041SOL     OW 8252   2.945   2.846   1.949
 2041SOL    HW1 8253   2.922   2.899   1.867
 2041SOL    HW2 8254   3.026   2.790   1.930
 2042SOL     OW 8255   3.723   3.431   2.713
 2042SOL    HW1 8256   3.652   3.419   2.643
 2042SOL    HW2 8257   3.724   3.352   2.773
 2043SOL     OW 8258   2.083   3.176   3.706
 2043SOL    HW1 8259   2.018   3.103   3.685
 2043SOL    HW2 8260   2.087   3.190   3.804
 2044SOL     OW 8261   2.534   3.253   3.486
 2044SOL    HW1 8262   2.456   3.203   3.524
 2044SOL    HW2 8263   2.531   3.348   3.517
 2045SOL     OW 8264   3.567   3.349   2.966
 2045SOL    HW1 8265   3.474   3.324   2.939
 2045SOL    HW2 8266   3.593   3.299   3.048
 2046SOL     OW 8267   2.674   3.448   2.549
 2046SOL    HW1 8268   2.706   3.458   2.455
 2046SOL    HW2 8269   2.595   3.386   2.551
 2047SOL     OW 8270   3.286   2.076   2.974
 2047SOL    HW1 8271   3.338   2.011   3.029
 2047SOL    HW2 8272   3.237   2.139   3.035
 2048SOL     OW 8273   2.863   1.896   3.016
 2048SOL    HW1 8274   2.800   1.824   2.985
 2048SOL    HW2 8275   2.956   1.860   3.016
 2049SOL     OW 8276   2.632   3.192   2.163
 2049SOL    HW1 8277   2.586   3.105   2.180
 2049SOL    HW2 8278   2.723   3.189   2.204
 2050SOL     OW 8279   2.480   3.429   3.146
 2050SOL    HW1 8280   2.475   3.511   3.203
 2050SOL    HW2 8281   2.569   3.426   3.101
 2051SOL     OW 8282   3.214   1.914   2.030
 2051SOL    HW1 8283   3.249   1.873   1.946
 2051SOL    HW2 8284   3.124   1.876   2.050
 2052SOL     OW 8285   3.455   2.083   2.744
 2052SOL    HW1 8286   3.371   2.082   2.798
 2052SOL    HW2 8287   3.457   2.166   2.688
 2053SOL     OW 8288   2.737   3.508   2.199
 2053SOL    HW1 8289   2.660   3.473   2.145
 2053SOL    HW2 8290   2.705   3.579   2.261
 2054SOL     OW 8291   2.092   2.490   3.837
 2054SOL    HW1 8292   1.999   2.488   3.874
 2054SOL    HW2 8293   2.093   2.451   3.745
 2055SOL     OW 8294   2.087   2.137   4.720
 2055SOL    HW1 8295   2.122   2.120   4.812
 2055SOL    HW2 8296   1.999   2.092   4.708
 2056SOL     OW 8297   1.881   2.230   4.371
 2056SOL    HW1 8298   1.799   2.273   4.410
 2056SOL    HW2 8299   1.853   2.157   4.308
 2057SOL     OW 8300   3.417   3.373   4.427
 2057SOL    HW1 8301   3.360   3.357   4.508
 2057SOL    HW2 8302   3.358   3.383   4.347
 2058SOL     OW 8303   2.997   2.565   4.441
 2058SOL    HW1 8304   3.054   2.643   4.416
 2058SOL    HW2 8305   2.937   2.591   4.517
 2059SOL     OW 8306   3.617   2.469   3.955
 2059SOL    HW1 8307   3.605   2.456   3.856
 2059SOL    HW2 8308   3.587   2.388   4.004
 2060SOL     OW 8309   2.630   3.006   4.747
 2060SOL    HW1 8310   2.552   3.023   4.807
 2060SOL    HW2 8311   2.664   3.093   4.711
 2061SOL     OW 8312   2.547   2.874   4.389
 2061SOL    HW1 8313   2.616   2.858   4.459
 2061SOL    HW2 8314   2.474   2.931   4.427
 2062SOL     OW 8315   2.197   3.297   4.785
 2062SOL    HW1 8316   2.119   3.266   4.732
 2062SOL    HW2 8317   2.255   3.355   4.728
 2063SOL     OW 8318   2.092   3.296   4.262
 2063SOL    HW1 8319   2.066   3.392   4.262
 2063SOL    HW2 8320   2.021   3.242   4.307
 2064SOL     OW 8321   2.102   2.953   4.610
 2064SOL    HW1 8322   2.116   2.869   4.662
 2064SOL    HW2 8323   2.047   3.017   4.665
 2065SOL     OW 8324   2.468   2.826   3.847
 2065SOL    HW1 8325   2.475   2.910   3.793
 2065SOL    HW2 8326   2.514   2.839   3.935
 2066SOL     OW 8327   1.984   2.505   4.287
 2066SOL    HW1 8328   1.939   2.417   4.304
 2066SOL    HW2 8329   1.983   2.559   4.371
 2067SOL     OW 8330   1.889   3.458   3.841
 2067SOL    HW1 8331   1.870   3.362   3.862
 2067SOL    HW2 8332   1.856   3.516   3.916
 2068SOL     OW 8333   3.551   2.784   4.336
 2068SOL    HW1 8334   3.646   2.755   4.344
 2068SOL    HW2 8335   3.543   2.849   4.261
 2069SOL     OW 8336   3.503   2.970   4.156
 2069SOL    HW1 8337   3.589   2.972   4.104
 2069SOL    HW2 8338   3.517   3.017   4.244
 2070SOL     OW 8339   2.475   3.227   4.450
 2070SOL    HW1 8340   2.426   3.140   4.459
 2070SOL    HW2 8341   2.452   3.270   4.363
 2071SOL     OW 8342   2.059   2.838   4.988
 2071SOL    HW1 8343   2.148   2.793   4.974
 2071SOL    HW2 8344   1.986   2.773   4.969
 2072SOL     OW 8345   3.387   2.861   3.914
 2072SOL    HW1 8346   3.324   2.785   3.927
 2072SOL    HW2 8347   3.435   2.879   4.000
 2073SOL     OW 8348   3.328   3.279   4.677
 2073SOL    HW1 8349   3.269   3.285   4.757
 2073SOL    HW2 8350   3.313   3.191   4.631
 2074SOL     OW 8351   3.529   3.576   4.296
 2074SOL    HW1 8352   3.488   3.553   4.208
 2074SOL    HW2 8353   3.511   3.502   4.361
 2075SOL     OW 8354   2.460   2.591   3.994
 2075SOL    HW1 8355   2.484   2.660   3.926
 2075SOL    HW2 8356   2.382   2.624   4.048
 2076SOL     OW 8357   3.143   2.207   4.668
 2076SOL    HW1 8358   3.057   2.157   4.655
 2076SOL    HW2 8359   3.205   2.153   4.724
 2077SOL     OW 8360   3.438   3.524   4.031
 2077SOL    HW1 8361   3.527   3.570   4.034
 2077SOL    HW2 8362   3.417   3.500   3.936
 2078SOL     OW 8363   2.853   2.272   4.966
 2078SOL    HW1 8364   2.776   2.306   5.020
 2078SOL    HW2 8365   2.819   2.221   4.887
 2079SOL     OW 8366   2.903   2.563   4.153
 2079SOL    HW1 8367   2.929   2.559   4.249
 2079SOL    HW2 8368   2.818   2.512   4.139
 2080SOL     OW 8369   1.938   2.673   4.513
 2080SOL    HW1 8370   2.037   2.661   4.522
 2080SOL    HW2 8371   1.914   2.768   4.534
 2081SOL     OW 8372   3.224   3.006   4.269
 2081SOL    HW1 8373   3.307   2.977   4.221
 2081SOL    HW2 8374   3.175   3.073   4.213
 2082SOL     OW 8375   2.412   2.058   4.609
 2082SOL    HW1 8376   2.407   2.053   4.709
 2082SOL    HW2 8377   2.414   2.154   4.580
 2083SOL     OW 8378   2.870   3.318   4.201
 2083SOL    HW1 8379   2.824   3.390   4.149
 2083SOL    HW2 8380   2.866   3.338   4.299
 2084SOL     OW 8381   3.657   2.928   4.597
 2084SOL    HW1 8382   3.595   2.913   4.521
 2084SOL    HW2 8383   3.605   2.939   4.682
 2085SOL     OW 8384   2.183   2.805   3.966
 2085SOL    HW1 8385   2.265   2.844   3.924
 2085SOL    HW2 8386   2.156   2.723   3.917
 2086SOL     OW 8387   3.320   2.597   4.452
 2086SOL    HW1 8388   3.315   2.532   4.527
 2086SOL    HW2 8389   3.400   2.656   4.465
 2087SOL     OW 8390   2.973   3.638   3.961
 2087SOL    HW1 8391   2.913   3.576   4.011
 2087SOL    HW2 8392   3.004   3.594   3.876
 2088SOL     OW 8393   3.494   3.239   3.805
 2088SOL    HW1 8394   3.462   3.333   3.795
 2088SOL    HW2 8395   3.418   3.176   3.793
 2089SOL     OW 8396   3.262   1.969   4.150
 2089SOL    HW1 8397   3.238   1.932   4.060
 2089SOL    HW2 8398   3.361   1.985   4.154
 2090SOL     OW 8399   2.111   3.647   4.965
 2090SOL    HW1 8400   2.168   3.582   5.015
 2090SOL    HW2 8401   2.095   3.614   4.872
 2091SOL     OW 8402   2.802   3.560   4.628
 2091SOL    HW1 8403   2.882   3.503   4.649
 2091SOL    HW2 8404   2.753   3.520   4.551
 2092SOL     OW 8405   2.244   2.562   4.204
 2092SOL    HW1 8406   2.289   2.472   4.201
 2092SOL    HW2 8407   2.150   2.551   4.237
 2093SOL     OW 8408   2.665   3.264   4.648
 2093SOL    HW1 8409   2.755   3.278   4.606
 2093SOL    HW2 8410   2.594   3.266   4.577
 2094SOL     OW 8411   2.784   2.365   4.623
 2094SOL    HW1 8412   2.759   2.356   4.527
 2094SOL    HW2 8413   2.832   2.283   4.654
 2095SOL     OW 8414   3.296   3.050   3.765
 2095SOL    HW1 8415   3.328   2.974   3.822
 2095SOL    HW2 8416   3.204   3.077   3.795
 2096SOL     OW 8417   2.797   2.098   4.204
 2096SOL    HW1 8418   2.749   2.139   4.126
 2096SOL    HW2 8419   2.896   2.096   4.185
 2097SOL     OW 8420   3.089   3.432   4.517
 2097SOL    HW1 8421   3.110   3.506   4.452
 2097SOL    HW2 8422   3.157   3.432   4.590
 2098SOL     OW 8423   2.321   3.014   4.465
 2098SOL    HW1 8424   2.250   2.987   4.530
 2098SOL    HW2 8425   2.295   2.986   4.372
 2099SOL     OW 8426   2.894   2.411   3.740
 2099SOL    HW1 8427   2.853   2.493   3.701
 2099SOL    HW2 8428   2.958   2.437   3.813
 2100SOL     OW 8429   2.728   2.316   4.366
 2100SOL    HW1 8430   2.696   2.388   4.304
 2100SOL    HW2 8431   2.752   2.235   4.313
 2101SOL     OW 8432   2.879   1.901   4.477
 2101SOL    HW1 8433   2.807   1.906   4.408
 2101SOL    HW2 8434   2.855   1.832   4.546
 2102SOL     OW 8435   3.291   3.035   4.591
 2102SOL    HW1 8436   3.236   2.951   4.584
 2102SOL    HW2 8437   3.317   3.064   4.499
 2103SOL     OW 8438   3.328   2.452   4.716
 2103SOL    HW1 8439   3.298   2.357   4.723
 2103SOL    HW2 8440   3.401   2.468   4.782
 2104SOL     OW 8441   3.719   2.695   4.101
 2104SOL    HW1 8442   3.761   2.631   4.165
 2104SOL    HW2 8443   3.681   2.644   4.023
 2105SOL     OW 8444   3.526   3.142   4.381
 2105SOL    HW1 8445   3.625   3.150   4.395
 2105SOL    HW2 8446   3.481   3.226   4.412
 2106SOL     OW 8447   3.252   2.437   3.802
 2106SOL    HW1 8448   3.198   2.416   3.883
 2106SOL    HW2 8449   3.343   2.396   3.811
 2107SOL     OW 8450   2.973   3.057   4.824
 2107SOL    HW1 8451   2.933   3.101   4.905
 2107SOL    HW2 8452   2.932   3.094   4.741
 2108SOL     OW 8453   3.500   2.961   4.803
 2108SOL    HW1 8454   3.505   3.042   4.862
 2108SOL    HW2 8455   3.414   2.963   4.752
 2109SOL     OW 8456   2.567   2.912   4.092
 2109SOL    HW1 8457   2.553   2.919   4.191
 2109SOL    HW2 8458   2.651   2.861   4.074
 2110SOL     OW 8459   2.272   2.675   4.975
 2110SOL    HW1 8460   2.358   2.687   5.025
 2110SOL    HW2 8461   2.230   2.588   5.002
 2111SOL     OW 8462   3.136   2.248   4.986
 2111SOL    HW1 8463   3.157   2.322   5.050
 2111SOL    HW2 8464   3.047   2.265   4.943
 2112SOL     OW 8465   2.229   2.962   4.225
 2112SOL    HW1 8466   2.222   3.045   4.169
 2112SOL    HW2 8467   2.233   2.882   4.165
 2113SOL     OW 8468   2.428   2.399   4.589
 2113SOL    HW1 8469   2.440   2.465   4.515
 2113SOL    HW2 8470   2.474   2.433   4.672
 2114SOL     OW 8471   3.114   3.210   4.112
 2114SOL    HW1 8472   3.164   3.287   4.152
 2114SOL    HW2 8473   3.019   3.212   4.144
 2115SOL     OW 8474   3.134   3.307   4.866
 2115SOL    HW1 8475   3.181   3.320   4.953
 2115SOL    HW2 8476   3.068   3.233   4.875
 2116SOL     OW 8477   3.444   2.501   4.196
 2116SOL    HW1 8478   3.413   2.562   4.269
 2116SOL    HW2 8479   3.494   2.553   4.127
 2117SOL     OW 8480   2.216   3.372   5.053
 2117SOL    HW1 8481   2.195   3.328   4.966
 2117SOL    HW2 8482   2.313   3.398   5.056
 2118SOL     OW 8483   2.435   2.732   4.753
 2118SOL    HW1 8484   2.479   2.821   4.744
 2118SOL    HW2 8485   2.372   2.732   4.830
 2119SOL     OW 8486   3.222   2.724   4.769
 2119SOL    HW1 8487   3.147   2.724   4.703
 2119SOL    HW2 8488   3.259   2.632   4.778
 2120SOL     OW 8489   3.071   2.387   3.999
 2120SOL    HW1 8490   3.084   2.303   4.053
 2120SOL    HW2 8491   3.042   2.461   4.059
 2121SOL     OW 8492   2.169   2.075   4.955
 2121SOL    HW1 8493   2.146   2.112   5.045
 2121SOL    HW2 8494   2.139   1.980   4.949
 2122SOL     OW 8495   2.594   2.496   4.788
 2122SOL    HW1 8496   2.653   2.470   4.712
 2122SOL    HW2 8497   2.566   2.592   4.777
 2123SOL     OW 8498   2.169   1.925   4.342
 2123SOL    HW1 8499   2.158   2.019   4.375
 2123SOL    HW2 8500   2.164   1.862   4.419
 2124SOL     OW 8501   2.885   2.628   4.690
 2124SOL    HW1 8502   2.900   2.649   4.786
 2124SOL    HW2 8503   2.855   2.533   4.681
 2125SOL     OW 8504   3.402   2.136   3.849
 2125SOL    HW1 8505   3.341   2.061   3.872
 2125SOL    HW2 8506   3.424   2.188   3.932
 2126SOL     OW 8507   3.165   2.700   3.766
 2126SOL    HW1 8508   3.199   2.607   3.781
 2126SOL    HW2 8509   3.183   2.727   3.671
 2127SOL     OW 8510   2.930   3.195   4.573
 2127SOL    HW1 8511   2.937   3.111   4.518
 2127SOL    HW2 8512   2.992   3.264   4.537
 2128SOL     OW 8513   2.181   2.672   4.673
 2128SOL    HW1 8514   2.274   2.708   4.678
 2128SOL    HW2 8515   2.175   2.587   4.725
 2129SOL     OW 8516   2.201   2.371   4.730
 2129SOL    HW1 8517   2.149   2.288   4.713
 2129SOL    HW2 8518   2.278   2.376   4.666
 2130SOL     OW 8519   3.022   2.069   5.201
 2130SOL    HW1 8520   3.022   2.133   5.278
 2130SOL    HW2 8521   3.050   2.117   5.118
 2131SOL     OW 8522   1.870   3.188   3.924
 2131SOL    HW1 8523   1.777   3.209   3.893
 2131SOL    HW2 8524   1.880   3.089   3.937
 2132SOL     OW 8525   2.366   3.430   4.634
 2132SOL    HW1 8526   2.432   3.504   4.643
 2132SOL    HW2 8527   2.410   3.351   4.592
 2133SOL     OW 8528   2.864   2.658   4.962
 2133SOL    HW1 8529   2.905   2.626   5.048
 2133SOL    HW2 8530   2.768   2.631   4.959
 2134SOL     OW 8531   1.902   2.406   4.838
 2134SOL    HW1 8532   1.987   2.373   4.797
 2134SOL    HW2 8533   1.915   2.421   4.936
 2135SOL     OW 8534   2.677   2.434   4.049
 2135SOL    HW1 8535   2.684   2.345   4.003
 2135SOL    HW2 8536   2.583   2.468   4.041
 2136SOL     OW 8537   3.519   2.466   4.930
 2136SOL    HW1 8538   3.481   2.397   4.992
 2136SOL    HW2 8539   3.601   2.430   4.886
 2137SOL     OW 8540   2.533   2.326   4.993
 2137SOL    HW1 8541   2.499   2.237   4.963
 2137SOL    HW2 8542   2.559   2.380   4.913
 2138SOL     OW 8543   3.209   2.921   4.958
 2138SOL    HW1 8544   3.233   2.858   4.884
 2138SOL    HW2 8545   3.119   2.961   4.940
 2139SOL     OW 8546   3.164   2.717   4.033
 2139SOL    HW1 8547   3.078   2.686   4.075
 2139SOL    HW2 8548   3.160   2.703   3.934
 2140SOL     OW 8549   3.621   3.609   4.878
 2140SOL    HW1 8550   3.682   3.639   4.805
 2140SOL    HW2 8551   3.583   3.520   4.856
 2141SOL     OW 8552   3.114   3.593   4.852
 2141SOL    HW1 8553   3.198   3.598   4.798
 2141SOL    HW2 8554   3.091   3.497   4.870
 2142SOL     OW 8555   3.250   3.435   4.201
 2142SOL    HW1 8556   3.317   3.447   4.127
 2142SOL    HW2 8557   3.210   3.524   4.224
 2143SOL     OW 8558   3.142   2.789   4.396
 2143SOL    HW1 8559   3.202   2.708   4.398
 2143SOL    HW2 8560   3.182   2.858   4.336
 2144SOL     OW 8561   2.125   2.188   4.444
 2144SOL    HW1 8562   2.046   2.239   4.410
 2144SOL    HW2 8563   2.116   2.173   4.542
 2145SOL     OW 8564   2.684   2.864   5.096
 2145SOL    HW1 8565   2.724   2.863   5.004
 2145SOL    HW2 8566   2.694   2.956   5.136
 2146SOL     OW 8567   2.778   2.772   4.015
 2146SOL    HW1 8568   2.841   2.810   3.947
 2146SOL    HW2 8569   2.818   2.689   4.054
 2147SOL     OW 8570   3.366   3.469   3.768
 2147SOL    HW1 8571   3.274   3.506   3.775
 2147SOL    HW2 8572   3.404   3.489   3.678
 2148SOL     OW 8573   2.901   2.960   4.420
 2148SOL    HW1 8574   2.831   2.913   4.474
 2148SOL    HW2 8575   2.960   2.892   4.377
 2149SOL     OW 8576   2.876   2.098   4.695
 2149SOL    HW1 8577   2.868   2.062   4.602
 2149SOL    HW2 8578   2.874   2.022   4.760
 2150SOL     OW 8579   2.452   3.349   4.215
 2150SOL    HW1 8580   2.494   3.291   4.145
 2150SOL    HW2 8581   2.408   3.428   4.171
 2151SOL     OW 8582   3.571   2.247   5.105
 2151SOL    HW1 8583   3.644   2.316   5.109
 2151SOL    HW2 8584   3.599   2.172   5.046
 2152SOL     OW 8585   2.117   3.210   4.014
 2152SOL    HW1 8586   2.021   3.211   3.987
 2152SOL    HW2 8587   2.129   3.263   4.098
 2153SOL     OW 8588   1.937   2.207   3.757
 2153SOL    HW1 8589   1.845   2.179   3.728
 2153SOL    HW2 8590   1.968   2.284   3.701
 2154SOL     OW 8591   1.934   2.028   4.042
 2154SOL    HW1 8592   1.917   2.111   3.988
 2154SOL    HW2 8593   2.024   1.991   4.020
 2155SOL     OW 8594   3.045   3.197   3.843
 2155SOL    HW1 8595   2.946   3.186   3.845
 2155SOL    HW2 8596   3.079   3.212   3.936
 2156SOL     OW 8597   3.355   3.629   4.683
 2156SOL    HW1 8598   3.388   3.693   4.614
 2156SOL    HW2 8599   3.421   3.623   4.758
 2157SOL     OW 8600   3.312   3.082   5.357
 2157SOL    HW1 8601   3.303   3.072   5.456
 2157SOL    HW2 8602   3.408   3.075   5.331
 2158SOL     OW 8603   3.536   2.745   4.978
 2158SOL    HW1 8604   3.509   2.656   4.941
 2158SOL    HW2 8605   3.537   2.813   4.905
 2159SOL     OW 8606   3.087   2.187   4.173
 2159SOL    HW1 8607   3.152   2.113   4.162
 2159SOL    HW2 8608   3.107   2.237   4.257
 2160SOL     OW 8609   2.456   2.607   4.376
 2160SOL    HW1 8610   2.506   2.692   4.357
 2160SOL    HW2 8611   2.368   2.609   4.328
 2161SOL     OW 8612   3.592   2.796   5.241
 2161SOL    HW1 8613   3.630   2.887   5.256
 2161SOL    HW2 8614   3.584   2.779   5.142
 2162SOL     OW 8615   2.721   3.236   3.740
 2162SOL    HW1 8616   2.675   3.251   3.828
 2162SOL    HW2 8617   2.765   3.321   3.710
 2163SOL     OW 8618   2.523   3.652   4.677
 2163SOL    HW1 8619   2.477   3.740   4.664
 2163SOL    HW2 8620   2.622   3.664   4.670
 2164SOL     OW 8621   2.721   2.818   4.585
 2164SOL    HW1 8622   2.775   2.749   4.633
 2164SOL    HW2 8623   2.689   2.887   4.651
 2165SOL     OW 8624   2.945   2.846   3.811
 2165SOL    HW1 8625   2.922   2.899   3.729
 2165SOL    HW2 8626   3.026   2.790   3.792
 2166SOL     OW 8627   3.723   3.431   4.575
 2166SOL    HW1 8628   3.652   3.419   4.505
 2166SOL    HW2 8629   3.724   3.352   4.635
 2167SOL     OW 8630   1.941   3.102   4.377
 2167SOL    HW1 8631   1.940   3.055   4.465
 2167SOL    HW2 8632   2.023   3.074   4.326
 2168SOL     OW 8633   3.686   2.054   4.951
 2168SOL    HW1 8634   3.682   1.964   4.995
 2168SOL    HW2 8635   3.689   2.043   4.852
 2169SOL     OW 8636   2.674   3.448   4.411
 2169SOL    HW1 8637   2.706   3.458   4.317
 2169SOL    HW2 8638   2.595   3.386   4.413
 2170SOL     OW 8639   3.286   2.076   4.836
 2170SOL    HW1 8640   3.338   2.011   4.891
 2170SOL    HW2 8641   3.237   2.139   4.897
 2171SOL     OW 8642   2.863   1.896   4.878
 2171SOL    HW1 8643   2.800   1.824   4.847
 2171SOL    HW2 8644   2.956   1.860   4.878
 2172SOL     OW 8645   2.632   3.192   4.025
 2172SOL    HW1 8646   2.586   3.105   4.042
 2172SOL    HW2 8647   2.723   3.189   4.066
 2173SOL     OW 8648   3.214   1.914   3.892
 2173SOL    HW1 8649   3.249   1.873   3.808
 2173SOL    HW2 8650   3.124   1.876   3.912
 2174SOL     OW 8651   3.162   2.315   4.415
 2174SOL    HW1 8652   3.103   2.395   4.419
 2174SOL    HW2 8653   3.177   2.280   4.508
 2175SOL     OW 8654   1.901   2.939   4.024
 2175SOL    HW1 8655   2.000   2.928   4.015
 2175SOL    HW2 8656   1.861   2.853   4.056
 2176SOL     OW 8657   2.092   4.352   0.113
 2176SOL    HW1 8658   1.999   4.350   0.150
 2176SOL    HW2 8659   2.093   4.313   0.021
 2177SOL     OW 8660   2.087   3.999   0.996
 2177SOL    HW1 8661   2.122   3.982   1.088
 2177SOL    HW2 8662   1.999   3.954   0.984
 2178SOL     OW 8663   1.881   4.092   0.647
 2178SOL    HW1 8664   1.799   4.135   0.686
 2178SOL    HW2 8665   1.853   4.019   0.584
 2179SOL     OW 8666   2.431   4.999   1.165
 2179SOL    HW1 8667   2.338   4.992   1.128
 2179SOL    HW2 8668   2.442   5.088   1.209
 2180SOL     OW 8669   3.417   5.235   0.703
 2180SOL    HW1 8670   3.360   5.219   0.784
 2180SOL    HW2 8671   3.358   5.245   0.623
 2181SOL     OW 8672   3.617   4.331   0.231
 2181SOL    HW1 8673   3.605   4.318   0.132
 2181SOL    HW2 8674   3.587   4.250   0.280
 2182SOL     OW 8675   2.630   4.868   1.023
 2182SOL    HW1 8676   2.552   4.885   1.083
 2182SOL    HW2 8677   2.664   4.955   0.987
 2183SOL     OW 8678   2.712   4.522   1.823
 2183SOL    HW1 8679   2.708   4.598   1.888
 2183SOL    HW2 8680   2.734   4.558   1.732
 2184SOL     OW 8681   2.547   4.736   0.665
 2184SOL    HW1 8682   2.616   4.720   0.735
 2184SOL    HW2 8683   2.474   4.793   0.703
 2185SOL     OW 8684   2.197   5.159   1.061
 2185SOL    HW1 8685   2.119   5.128   1.008
 2185SOL    HW2 8686   2.255   5.217   1.004
 2186SOL     OW 8687   2.102   4.815   0.886
 2186SOL    HW1 8688   2.116   4.731   0.938
 2186SOL    HW2 8689   2.047   4.879   0.941
 2187SOL     OW 8690   2.468   4.688   0.123
 2187SOL    HW1 8691   2.475   4.772   0.069
 2187SOL    HW2 8692   2.514   4.701   0.211
 2188SOL     OW 8693   3.456   3.838   1.480
 2188SOL    HW1 8694   3.438   3.905   1.408
 2188SOL    HW2 8695   3.453   3.884   1.569
 2189SOL     OW 8696   1.984   4.367   0.563
 2189SOL    HW1 8697   1.939   4.279   0.580
 2189SOL    HW2 8698   1.983   4.421   0.647
 2190SOL     OW 8699   1.975   4.461   1.597
 2190SOL    HW1 8700   2.063   4.448   1.642
 2190SOL    HW2 8701   1.962   4.558   1.575
 2191SOL     OW 8702   3.155   4.952   1.423
 2191SOL    HW1 8703   3.192   4.879   1.365
 2191SOL    HW2 8704   3.207   4.957   1.508
 2192SOL     OW 8705   2.059   4.700   1.264
 2192SOL    HW1 8706   2.148   4.655   1.250
 2192SOL    HW2 8707   1.986   4.635   1.245
 2193SOL     OW 8708   2.179   3.975   1.801
 2193SOL    HW1 8709   2.250   4.046   1.807
 2193SOL    HW2 8710   2.091   4.014   1.829
 2194SOL     OW 8711   3.328   5.141   0.953
 2194SOL    HW1 8712   3.269   5.147   1.033
 2194SOL    HW2 8713   3.313   5.053   0.907
 2195SOL     OW 8714   2.460   4.453   0.270
 2195SOL    HW1 8715   2.484   4.522   0.202
 2195SOL    HW2 8716   2.382   4.486   0.324
 2196SOL     OW 8717   3.143   4.069   0.944
 2196SOL    HW1 8718   3.057   4.019   0.931
 2196SOL    HW2 8719   3.205   4.015   1.000
 2197SOL     OW 8720   2.669   4.329   1.465
 2197SOL    HW1 8721   2.622   4.326   1.554
 2197SOL    HW2 8722   2.618   4.274   1.399
 2198SOL     OW 8723   3.256   4.193   1.674
 2198SOL    HW1 8724   3.236   4.236   1.762
 2198SOL    HW2 8725   3.334   4.131   1.683
 2199SOL     OW 8726   2.835   4.614   1.572
 2199SOL    HW1 8727   2.881   4.530   1.543
 2199SOL    HW2 8728   2.779   4.648   1.497
 2200SOL     OW 8729   2.853   4.134   1.242
 2200SOL    HW1 8730   2.776   4.168   1.296
 2200SOL    HW2 8731   2.819   4.083   1.163
 2201SOL     OW 8732   2.903   4.425   0.429
 2201SOL    HW1 8733   2.929   4.421   0.525
 2201SOL    HW2 8734   2.818   4.374   0.415
 2202SOL     OW 8735   1.938   4.535   0.789
 2202SOL    HW1 8736   2.037   4.523   0.798
 2202SOL    HW2 8737   1.914   4.630   0.810
 2203SOL     OW 8738   2.727   4.072   0.195
 2203SOL    HW1 8739   2.786   4.135   0.146
 2203SOL    HW2 8740   2.746   3.978   0.166
 2204SOL     OW 8741   3.581   4.309   1.831
 2204SOL    HW1 8742   3.555   4.398   1.795
 2204SOL    HW2 8743   3.579   4.241   1.758
 2205SOL     OW 8744   3.224   4.868   0.545
 2205SOL    HW1 8745   3.307   4.839   0.497
 2205SOL    HW2 8746   3.175   4.935   0.489
 2206SOL     OW 8747   2.064   4.009   1.498
 2206SOL    HW1 8748   1.984   4.069   1.485
 2206SOL    HW2 8749   2.054   3.960   1.584
 2207SOL     OW 8750   3.494   5.101   0.081
 2207SOL    HW1 8751   3.462   5.195   0.071
 2207SOL    HW2 8752   3.418   5.038   0.069
 2208SOL     OW 8753   3.409   3.946   1.729
 2208SOL    HW1 8754   3.404   3.983   1.821
 2208SOL    HW2 8755   3.337   3.877   1.717
 2209SOL     OW 8756   2.643   3.988   1.749
 2209SOL    HW1 8757   2.710   3.927   1.792
 2209SOL    HW2 8758   2.570   4.007   1.814
 2210SOL     OW 8759   3.213   4.314   1.433
 2210SOL    HW1 8760   3.241   4.271   1.518
 2210SOL    HW2 8761   3.238   4.410   1.434
 2211SOL     OW 8762   2.665   5.126   0.924
 2211SOL    HW1 8763   2.755   5.140   0.882
 2211SOL    HW2 8764   2.594   5.128   0.853
 2212SOL     OW 8765   2.401   3.788   0.512
 2212SOL    HW1 8766   2.320   3.789   0.570
 2212SOL    HW2 8767   2.404   3.871   0.457
 2213SOL     OW 8768   3.296   4.912   0.041
 2213SOL    HW1 8769   3.328   4.836   0.098
 2213SOL    HW2 8770   3.204   4.939   0.071
 2214SOL     OW 8771   2.938   4.407   1.464
 2214SOL    HW1 8772   2.858   4.346   1.467
 2214SOL    HW2 8773   3.019   4.354   1.440
 2215SOL     OW 8774   3.089   5.294   0.793
 2215SOL    HW1 8775   3.110   5.368   0.728
 2215SOL    HW2 8776   3.157   5.294   0.866
 2216SOL     OW 8777   2.321   4.876   0.741
 2216SOL    HW1 8778   2.250   4.849   0.806
 2216SOL    HW2 8779   2.295   4.848   0.648
 2217SOL     OW 8780   2.894   4.273   0.016
 2217SOL    HW1 8781   2.853   4.355  -0.023
 2217SOL    HW2 8782   2.958   4.299   0.089
 2218SOL     OW 8783   1.940   4.280   1.386
 2218SOL    HW1 8784   2.032   4.279   1.345
 2218SOL    HW2 8785   1.934   4.354   1.453
 2219SOL     OW 8786   3.328   4.314   0.992
 2219SOL    HW1 8787   3.298   4.219   0.999
 2219SOL    HW2 8788   3.401   4.330   1.058
 2220SOL     OW 8789   3.719   4.557   0.377
 2220SOL    HW1 8790   3.761   4.493   0.441
 2220SOL    HW2 8791   3.681   4.506   0.299
 2221SOL     OW 8792   3.526   5.004   0.657
 2221SOL    HW1 8793   3.625   5.012   0.671
 2221SOL    HW2 8794   3.481   5.088   0.688
 2222SOL     OW 8795   3.252   4.299   0.078
 2222SOL    HW1 8796   3.198   4.278   0.159
 2222SOL    HW2 8797   3.343   4.258   0.087
 2223SOL     OW 8798   2.389   3.980   0.328
 2223SOL    HW1 8799   2.416   3.921   0.253
 2223SOL    HW2 8800   2.389   4.075   0.297
 2224SOL     OW 8801   3.616   4.947   1.588
 2224SOL    HW1 8802   3.707   4.908   1.575
 2224SOL    HW2 8803   3.624   5.043   1.612
 2225SOL     OW 8804   2.567   4.774   0.368
 2225SOL    HW1 8805   2.553   4.781   0.467
 2225SOL    HW2 8806   2.651   4.723   0.350
 2226SOL     OW 8807   2.272   4.537   1.251
 2226SOL    HW1 8808   2.358   4.549   1.301
 2226SOL    HW2 8809   2.230   4.450   1.278
 2227SOL     OW 8810   3.136   4.110   1.262
 2227SOL    HW1 8811   3.157   4.184   1.326
 2227SOL    HW2 8812   3.047   4.127   1.219
 2228SOL     OW 8813   2.428   4.261   0.865
 2228SOL    HW1 8814   2.440   4.327   0.791
 2228SOL    HW2 8815   2.474   4.295   0.948
 2229SOL     OW 8816   3.444   4.363   0.472
 2229SOL    HW1 8817   3.413   4.424   0.545
 2229SOL    HW2 8818   3.494   4.415   0.403
 2230SOL     OW 8819   2.264   4.475   1.598
 2230SOL    HW1 8820   2.332   4.530   1.551
 2230SOL    HW2 8821   2.304   4.387   1.625
 2231SOL     OW 8822   3.449   4.503   1.670
 2231SOL    HW1 8823   3.357   4.541   1.665
 2231SOL    HW2 8824   3.509   4.550   1.605
 2232SOL     OW 8825   2.875   3.829   1.770
 2232SOL    HW1 8826   2.881   3.914   1.718
 2232SOL    HW2 8827   2.907   3.753   1.713
 2233SOL     OW 8828   2.366   3.774   1.740
 2233SOL    HW1 8829   2.324   3.717   1.670
 2233SOL    HW2 8830   2.300   3.843   1.772
 2234SOL     OW 8831   2.435   4.594   1.029
 2234SOL    HW1 8832   2.479   4.683   1.020
 2234SOL    HW2 8833   2.372   4.594   1.106
 2235SOL     OW 8834   3.071   4.249   0.275
 2235SOL    HW1 8835   3.084   4.165   0.329
 2235SOL    HW2 8836   3.042   4.323   0.335
 2236SOL     OW 8837   2.594   4.358   1.064
 2236SOL    HW1 8838   2.653   4.332   0.988
 2236SOL    HW2 8839   2.566   4.454   1.053
 2237SOL     OW 8840   3.590   4.659   1.854
 2237SOL    HW1 8841   3.544   4.652   1.765
 2237SOL    HW2 8842   3.528   4.703   1.920
 2238SOL     OW 8843   2.169   3.787   0.618
 2238SOL    HW1 8844   2.158   3.881   0.651
 2238SOL    HW2 8845   2.164   3.724   0.695
 2239SOL     OW 8846   3.484   4.091   0.374
 2239SOL    HW1 8847   3.486   4.015   0.438
 2239SOL    HW2 8848   3.436   4.168   0.414
 2240SOL     OW 8849   2.885   4.490   0.966
 2240SOL    HW1 8850   2.900   4.511   1.062
 2240SOL    HW2 8851   2.855   4.395   0.957
 2241SOL     OW 8852   3.721   5.242   1.605
 2241SOL    HW1 8853   3.735   5.269   1.510
 2241SOL    HW2 8854   3.804   5.264   1.658
 2242SOL     OW 8855   2.212   4.622   1.804
 2242SOL    HW1 8856   2.288   4.666   1.852
 2242SOL    HW2 8857   2.247   4.575   1.722
 2243SOL     OW 8858   3.402   3.998   0.125
 2243SOL    HW1 8859   3.341   3.923   0.148
 2243SOL    HW2 8860   3.424   4.050   0.208
 2244SOL     OW 8861   3.165   4.562   0.042
 2244SOL    HW1 8862   3.199   4.469   0.057
 2244SOL    HW2 8863   3.183   4.589  -0.053
 2245SOL     OW 8864   2.181   4.534   0.949
 2245SOL    HW1 8865   2.274   4.570   0.954
 2245SOL    HW2 8866   2.175   4.449   1.001
 2246SOL     OW 8867   2.201   4.233   1.006
 2246SOL    HW1 8868   2.149   4.150   0.989
 2246SOL    HW2 8869   2.278   4.238   0.942
 2247SOL     OW 8870   3.000   4.104   1.678
 2247SOL    HW1 8871   2.955   4.167   1.742
 2247SOL    HW2 8872   3.093   4.135   1.661
 2248SOL     OW 8873   3.022   3.931   1.477
 2248SOL    HW1 8874   3.022   3.995   1.554
 2248SOL    HW2 8875   3.050   3.979   1.394
 2249SOL     OW 8876   2.864   4.520   1.238
 2249SOL    HW1 8877   2.905   4.488   1.324
 2249SOL    HW2 8878   2.768   4.493   1.235
 2250SOL     OW 8879   1.902   4.268   1.114
 2250SOL    HW1 8880   1.987   4.235   1.073
 2250SOL    HW2 8881   1.915   4.283   1.212
 2251SOL     OW 8882   2.051   4.244   1.722
 2251SOL    HW1 8883   2.110   4.204   1.652
 2251SOL    HW2 8884   1.993   4.315   1.681
 2252SOL     OW 8885   3.231   4.674   1.660
 2252SOL    HW1 8886   3.270   4.763   1.680
 2252SOL    HW2 8887   3.241   4.654   1.563
 2253SOL     OW 8888   3.519   4.328   1.206
 2253SOL    HW1 8889   3.481   4.259   1.268
 2253SOL    HW2 8890   3.601   4.292   1.162
 2254SOL     OW 8891   2.533   4.188   1.269
 2254SOL    HW1 8892   2.499   4.099   1.239
 2254SOL    HW2 8893   2.559   4.242   1.189
 2255SOL     OW 8894   2.335   4.224   0.191
 2255SOL    HW1 8895   2.396   4.304   0.195
 2255SOL    HW2 8896   2.240   4.255   0.198
 2256SOL     OW 8897   2.021   4.861   1.466
 2256SOL    HW1 8898   2.043   4.800   1.542
 2256SOL    HW2 8899   2.031   4.812   1.380
 2257SOL     OW 8900   3.209   4.783   1.234
 2257SOL    HW1 8901   3.233   4.720   1.160
 2257SOL    HW2 8902   3.119   4.823   1.216
 2258SOL     OW 8903   1.945   4.982   1.022
 2258SOL    HW1 8904   1.940   4.981   1.122
 2258SOL    HW2 8905   1.862   4.941   0.984
 2259SOL     OW 8906   2.692   4.997   1.422
 2259SOL    HW1 8907   2.687   5.030   1.517
 2259SOL    HW2 8908   2.606   5.016   1.376
 2260SOL     OW 8909   3.703   3.899   0.963
 2260SOL    HW1 8910   3.742   3.814   0.927
 2260SOL    HW2 8911   3.605   3.901   0.944
 2261SOL     OW 8912   2.125   4.050   0.720
 2261SOL    HW1 8913   2.046   4.101   0.686
 2261SOL    HW2 8914   2.116   4.035   0.818
 2262SOL     OW 8915   2.684   4.726   1.372
 2262SOL    HW1 8916   2.724   4.725   1.280
 2262SOL    HW2 8917   2.694   4.818   1.412
 2263SOL     OW 8918   2.778   4.634   0.291
 2263SOL    HW1 8919   2.841   4.672   0.223
 2263SOL    HW2 8920   2.818   4.551   0.330
 2264SOL     OW 8921   2.234   5.012   1.490
 2264SOL    HW1 8922   2.221   5.105   1.456
 2264SOL    HW2 8923   2.150   4.960   1.477
 2265SOL     OW 8924   3.476   5.016   1.289
 2265SOL    HW1 8925   3.536   5.019   1.369
 2265SOL    HW2 8926   3.401   5.080   1.302
 2266SOL     OW 8927   2.901   4.822   0.696
 2266SOL    HW1 8928   2.831   4.775   0.750
 2266SOL    HW2 8929   2.960   4.754   0.653
 2267SOL     OW 8930   3.571   4.109   1.381
 2267SOL    HW1 8931   3.644   4.178   1.385
 2267SOL    HW2 8932   3.599   4.034   1.322
 2268SOL     OW 8933   1.967   4.737   1.726
 2268SOL    HW1 8934   1.890   4.704   1.780
 2268SOL    HW2 8935   2.052   4.707   1.768
 2269SOL     OW 8936   3.302   4.580   1.398
 2269SOL    HW1 8937   3.245   4.632   1.335
 2269SOL    HW2 8938   3.398   4.592   1.374
 2270SOL     OW 8939   2.475   4.566   1.431
 2270SOL    HW1 8940   2.531   4.647   1.414
 2270SOL    HW2 8941   2.534   4.486   1.434
 2271SOL     OW 8942   2.578   4.289   1.708
 2271SOL    HW1 8943   2.597   4.354   1.782
 2271SOL    HW2 8944   2.638   4.209   1.717
 2272SOL     OW 8945   3.312   4.944   1.633
 2272SOL    HW1 8946   3.303   4.934   1.732
 2272SOL    HW2 8947   3.408   4.937   1.607
 2273SOL     OW 8948   3.087   4.049   0.449
 2273SOL    HW1 8949   3.152   3.975   0.438
 2273SOL    HW2 8950   3.107   4.099   0.533
 2274SOL     OW 8951   3.639   4.066   1.642
 2274SOL    HW1 8952   3.622   4.097   1.548
 2274SOL    HW2 8953   3.555   4.029   1.680
 2275SOL     OW 8954   3.592   4.658   1.517
 2275SOL    HW1 8955   3.630   4.749   1.532
 2275SOL    HW2 8956   3.584   4.641   1.418
 2276SOL     OW 8957   2.721   4.680   0.861
 2276SOL    HW1 8958   2.775   4.611   0.909
 2276SOL    HW2 8959   2.689   4.749   0.927
 2277SOL     OW 8960   2.945   4.708   0.087
 2277SOL    HW1 8961   2.922   4.761   0.005
 2277SOL    HW2 8962   3.026   4.652   0.068
 2278SOL     OW 8963   1.941   4.964   0.653
 2278SOL    HW1 8964   1.940   4.917   0.741
 2278SOL    HW2 8965   2.023   4.936   0.602
 2279SOL     OW 8966   3.686   3.916   1.227
 2279SOL    HW1 8967   3.682   3.826   1.271
 2279SOL    HW2 8968   3.689   3.905   1.128
 2280SOL     OW 8969   2.179   4.271   1.280
 2280SOL    HW1 8970   2.217   4.212   1.352
 2280SOL    HW2 8971   2.219   4.245   1.192
 2281SOL     OW 8972   3.286   3.938   1.112
 2281SOL    HW1 8973   3.338   3.873   1.167
 2281SOL    HW2 8974   3.237   4.001   1.173
 2282SOL     OW 8975   3.214   3.776   0.168
 2282SOL    HW1 8976   3.249   3.735   0.084
 2282SOL    HW2 8977   3.124   3.738   0.188
 2283SOL     OW 8978   3.162   4.177   0.691
 2283SOL    HW1 8979   3.103   4.257   0.695
 2283SOL    HW2 8980   3.177   4.142   0.784
 2284SOL     OW 8981   3.455   3.945   0.882
 2284SOL    HW1 8982   3.371   3.944   0.936
 2284SOL    HW2 8983   3.457   4.028   0.826
 2285SOL     OW 8984   1.901   4.801   0.300
 2285SOL    HW1 8985   2.000   4.790   0.291
 2285SOL    HW2 8986   1.861   4.715   0.332
 2286SOL     OW 8987   2.092   4.352   1.975
 2286SOL    HW1 8988   1.999   4.350   2.012
 2286SOL    HW2 8989   2.093   4.313   1.883
 2287SOL     OW 8990   2.087   3.999   2.858
 2287SOL    HW1 8991   2.122   3.982   2.950
 2287SOL    HW2 8992   1.999   3.954   2.846
 2288SOL     OW 8993   1.881   4.092   2.509
 2288SOL    HW1 8994   1.799   4.135   2.548
 2288SOL    HW2 8995   1.853   4.019   2.446
 2289SOL     OW 8996   2.997   4.427   2.579
 2289SOL    HW1 8997   3.054   4.505   2.554
 2289SOL    HW2 8998   2.937   4.453   2.655
 2290SOL     OW 8999   3.617   4.331   2.093
 2290SOL    HW1 9000   3.605   4.318   1.994
 2290SOL    HW2 9001   3.587   4.250   2.142
 2291SOL     OW 9002   2.712   4.522   3.685
 2291SOL    HW1 9003   2.708   4.598   3.750
 2291SOL    HW2 9004   2.734   4.558   3.594
 2292SOL     OW 9005   2.548   4.885   3.665
 2292SOL    HW1 9006   2.608   4.964   3.679
 2292SOL    HW2 9007   2.462   4.916   3.624
 2293SOL     OW 9008   2.197   5.159   2.923
 2293SOL    HW1 9009   2.119   5.128   2.870
 2293SOL    HW2 9010   2.255   5.217   2.866
 2294SOL     OW 9011   3.465   4.171   2.599
 2294SOL    HW1 9012   3.391   4.217   2.549
 2294SOL    HW2 9013   3.516   4.239   2.652
 2295SOL     OW 9014   2.468   4.688   1.985
 2295SOL    HW1 9015   2.475   4.772   1.931
 2295SOL    HW2 9016   2.514   4.701   2.073
 2296SOL     OW 9017   1.984   4.367   2.425
 2296SOL    HW1 9018   1.939   4.279   2.442
 2296SOL    HW2 9019   1.983   4.421   2.509
 2297SOL     OW 9020   3.551   4.646   2.474
 2297SOL    HW1 9021   3.646   4.617   2.482
 2297SOL    HW2 9022   3.543   4.711   2.399
 2298SOL     OW 9023   2.671   3.728   2.364
 2298SOL    HW1 9024   2.711   3.819   2.355
 2298SOL    HW2 9025   2.571   3.736   2.370
 2299SOL     OW 9026   2.179   3.975   3.663
 2299SOL    HW1 9027   2.250   4.046   3.669
 2299SOL    HW2 9028   2.091   4.014   3.691
 2300SOL     OW 9029   2.460   4.453   2.132
 2300SOL    HW1 9030   2.484   4.522   2.064
 2300SOL    HW2 9031   2.382   4.486   2.186
 2301SOL     OW 9032   3.143   4.069   2.806
 2301SOL    HW1 9033   3.057   4.019   2.793
 2301SOL    HW2 9034   3.205   4.015   2.862
 2302SOL     OW 9035   2.669   4.329   3.327
 2302SOL    HW1 9036   2.622   4.326   3.416
 2302SOL    HW2 9037   2.618   4.274   3.261
 2303SOL     OW 9038   3.256   4.193   3.536
 2303SOL    HW1 9039   3.236   4.236   3.624
 2303SOL    HW2 9040   3.334   4.131   3.545
 2304SOL     OW 9041   2.835   4.614   3.434
 2304SOL    HW1 9042   2.881   4.530   3.405
 2304SOL    HW2 9043   2.779   4.648   3.359
 2305SOL     OW 9044   2.853   4.134   3.104
 2305SOL    HW1 9045   2.776   4.168   3.158
 2305SOL    HW2 9046   2.819   4.083   3.025
 2306SOL     OW 9047   2.903   4.425   2.291
 2306SOL    HW1 9048   2.929   4.421   2.387
 2306SOL    HW2 9049   2.818   4.374   2.277
 2307SOL     OW 9050   1.938   4.535   2.651
 2307SOL    HW1 9051   2.037   4.523   2.660
 2307SOL    HW2 9052   1.914   4.630   2.672
 2308SOL     OW 9053   2.727   4.072   2.057
 2308SOL    HW1 9054   2.786   4.135   2.008
 2308SOL    HW2 9055   2.746   3.978   2.028
 2309SOL     OW 9056   3.581   4.309   3.693
 2309SOL    HW1 9057   3.555   4.398   3.657
 2309SOL    HW2 9058   3.579   4.241   3.620
 2310SOL     OW 9059   3.224   4.868   2.407
 2310SOL    HW1 9060   3.307   4.839   2.359
 2310SOL    HW2 9061   3.175   4.935   2.351
 2311SOL     OW 9062   2.412   3.920   2.747
 2311SOL    HW1 9063   2.407   3.915   2.847
 2311SOL    HW2 9064   2.414   4.016   2.718
 2312SOL     OW 9065   3.657   4.790   2.735
 2312SOL    HW1 9066   3.595   4.775   2.659
 2312SOL    HW2 9067   3.605   4.801   2.820
 2313SOL     OW 9068   2.183   4.667   2.104
 2313SOL    HW1 9069   2.265   4.706   2.062
 2313SOL    HW2 9070   2.156   4.585   2.055
 2314SOL     OW 9071   3.494   5.101   1.943
 2314SOL    HW1 9072   3.462   5.195   1.933
 2314SOL    HW2 9073   3.418   5.038   1.931
 2315SOL     OW 9074   2.244   4.424   2.342
 2315SOL    HW1 9075   2.289   4.334   2.339
 2315SOL    HW2 9076   2.150   4.413   2.375
 2316SOL     OW 9077   2.476   3.846   1.979
 2316SOL    HW1 9078   2.574   3.824   1.986
 2316SOL    HW2 9079   2.445   3.829   1.886
 2317SOL     OW 9080   2.643   3.988   3.611
 2317SOL    HW1 9081   2.710   3.927   3.654
 2317SOL    HW2 9082   2.570   4.007   3.676
 2318SOL     OW 9083   3.213   4.314   3.295
 2318SOL    HW1 9084   3.241   4.271   3.380
 2318SOL    HW2 9085   3.238   4.410   3.296
 2319SOL     OW 9086   2.665   5.126   2.786
 2319SOL    HW1 9087   2.755   5.140   2.744
 2319SOL    HW2 9088   2.594   5.128   2.715
 2320SOL     OW 9089   2.784   4.227   2.761
 2320SOL    HW1 9090   2.759   4.218   2.665
 2320SOL    HW2 9091   2.832   4.145   2.792
 2321SOL     OW 9092   2.401   3.788   2.374
 2321SOL    HW1 9093   2.320   3.789   2.432
 2321SOL    HW2 9094   2.404   3.871   2.319
 2322SOL     OW 9095   2.938   4.407   3.326
 2322SOL    HW1 9096   2.858   4.346   3.329
 2322SOL    HW2 9097   3.019   4.354   3.302
 2323SOL     OW 9098   2.894   4.273   1.878
 2323SOL    HW1 9099   2.853   4.355   1.839
 2323SOL    HW2 9100   2.958   4.299   1.951
 2324SOL     OW 9101   2.423   3.946   3.009
 2324SOL    HW1 9102   2.461   3.862   3.046
 2324SOL    HW2 9103   2.335   3.965   3.053
 2325SOL     OW 9104   2.728   4.178   2.504
 2325SOL    HW1 9105   2.696   4.250   2.442
 2325SOL    HW2 9106   2.752   4.097   2.451
 2326SOL     OW 9107   2.879   3.763   2.615
 2326SOL    HW1 9108   2.807   3.768   2.546
 2326SOL    HW2 9109   2.855   3.694   2.684
 2327SOL     OW 9110   3.291   4.897   2.729
 2327SOL    HW1 9111   3.236   4.813   2.722
 2327SOL    HW2 9112   3.317   4.926   2.637
 2328SOL     OW 9113   3.328   4.314   2.854
 2328SOL    HW1 9114   3.298   4.219   2.861
 2328SOL    HW2 9115   3.401   4.330   2.920
 2329SOL     OW 9116   3.719   4.557   2.239
 2329SOL    HW1 9117   3.761   4.493   2.303
 2329SOL    HW2 9118   3.681   4.506   2.161
 2330SOL     OW 9119   3.526   5.004   2.519
 2330SOL    HW1 9120   3.625   5.012   2.533
 2330SOL    HW2 9121   3.481   5.088   2.550
 2331SOL     OW 9122   3.252   4.299   1.940
 2331SOL    HW1 9123   3.198   4.278   2.021
 2331SOL    HW2 9124   3.343   4.258   1.949
 2332SOL     OW 9125   2.389   3.980   2.190
 2332SOL    HW1 9126   2.416   3.921   2.115
 2332SOL    HW2 9127   2.389   4.075   2.159
 2333SOL     OW 9128   3.500   4.823   2.941
 2333SOL    HW1 9129   3.505   4.904   3.000
 2333SOL    HW2 9130   3.414   4.825   2.890
 2334SOL     OW 9131   2.777   3.813   3.264
 2334SOL    HW1 9132   2.802   3.793   3.169
 2334SOL    HW2 9133   2.849   3.869   3.306
 2335SOL     OW 9134   2.842   4.840   3.581
 2335SOL    HW1 9135   2.743   4.846   3.591
 2335SOL    HW2 9136   2.865   4.760   3.525
 2336SOL     OW 9137   2.567   4.774   2.230
 2336SOL    HW1 9138   2.553   4.781   2.329
 2336SOL    HW2 9139   2.651   4.723   2.212
 2337SOL     OW 9140   3.136   4.110   3.124
 2337SOL    HW1 9141   3.157   4.184   3.188
 2337SOL    HW2 9142   3.047   4.127   3.081
 2338SOL     OW 9143   2.428   4.261   2.727
 2338SOL    HW1 9144   2.440   4.327   2.653
 2338SOL    HW2 9145   2.474   4.295   2.810
 2339SOL     OW 9146   2.264   4.475   3.460
 2339SOL    HW1 9147   2.332   4.530   3.413
 2339SOL    HW2 9148   2.304   4.387   3.487
 2340SOL     OW 9149   3.449   4.503   3.532
 2340SOL    HW1 9150   3.357   4.541   3.527
 2340SOL    HW2 9151   3.509   4.550   3.467
 2341SOL     OW 9152   2.875   3.829   3.632
 2341SOL    HW1 9153   2.881   3.914   3.580
 2341SOL    HW2 9154   2.907   3.753   3.575
 2342SOL     OW 9155   2.366   3.774   3.602
 2342SOL    HW1 9156   2.324   3.717   3.532
 2342SOL    HW2 9157   2.300   3.843   3.634
 2343SOL     OW 9158   3.222   4.586   2.907
 2343SOL    HW1 9159   3.147   4.586   2.841
 2343SOL    HW2 9160   3.259   4.494   2.916
 2344SOL     OW 9161   2.169   3.937   3.093
 2344SOL    HW1 9162   2.146   3.974   3.183
 2344SOL    HW2 9163   2.139   3.842   3.087
 2345SOL     OW 9164   2.594   4.358   2.926
 2345SOL    HW1 9165   2.653   4.332   2.850
 2345SOL    HW2 9166   2.566   4.454   2.915
 2346SOL     OW 9167   2.169   3.787   2.480
 2346SOL    HW1 9168   2.158   3.881   2.513
 2346SOL    HW2 9169   2.164   3.724   2.557
 2347SOL     OW 9170   2.885   4.490   2.828
 2347SOL    HW1 9171   2.900   4.511   2.924
 2347SOL    HW2 9172   2.855   4.395   2.819
 2348SOL     OW 9173   3.721   5.242   3.467
 2348SOL    HW1 9174   3.735   5.269   3.372
 2348SOL    HW2 9175   3.804   5.264   3.520
 2349SOL     OW 9176   2.212   4.622   3.666
 2349SOL    HW1 9177   2.288   4.666   3.714
 2349SOL    HW2 9178   2.247   4.575   3.584
 2350SOL     OW 9179   3.402   3.998   1.987
 2350SOL    HW1 9180   3.341   3.923   2.010
 2350SOL    HW2 9181   3.424   4.050   2.070
 2351SOL     OW 9182   3.165   4.562   1.904
 2351SOL    HW1 9183   3.199   4.469   1.919
 2351SOL    HW2 9184   3.183   4.589   1.809
 2352SOL     OW 9185   2.201   4.233   2.868
 2352SOL    HW1 9186   2.149   4.150   2.851
 2352SOL    HW2 9187   2.278   4.238   2.804
 2353SOL     OW 9188   3.000   4.104   3.540
 2353SOL    HW1 9189   2.955   4.167   3.604
 2353SOL    HW2 9190   3.093   4.135   3.523
 2354SOL     OW 9191   3.022   3.931   3.339
 2354SOL    HW1 9192   3.022   3.995   3.416
 2354SOL    HW2 9193   3.050   3.979   3.256
 2355SOL     OW 9194   2.864   4.520   3.100
 2355SOL    HW1 9195   2.905   4.488   3.186
 2355SOL    HW2 9196   2.768   4.493   3.097
 2356SOL     OW 9197   2.051   4.244   3.584
 2356SOL    HW1 9198   2.110   4.204   3.514
 2356SOL    HW2 9199   1.993   4.315   3.543
 2357SOL     OW 9200   3.231   4.674   3.522
 2357SOL    HW1 9201   3.270   4.763   3.542
 2357SOL    HW2 9202   3.241   4.654   3.425
 2358SOL     OW 9203   2.677   4.296   2.187
 2358SOL    HW1 9204   2.684   4.207   2.141
 2358SOL    HW2 9205   2.583   4.330   2.179
 2359SOL     OW 9206   3.519   4.328   3.068
 2359SOL    HW1 9207   3.481   4.259   3.130
 2359SOL    HW2 9208   3.601   4.292   3.024
 2360SOL     OW 9209   2.533   4.188   3.131
 2360SOL    HW1 9210   2.499   4.099   3.101
 2360SOL    HW2 9211   2.559   4.242   3.051
 2361SOL     OW 9212   2.335   4.224   2.053
 2361SOL    HW1 9213   2.396   4.304   2.057
 2361SOL    HW2 9214   2.240   4.255   2.060
 2362SOL     OW 9215   2.021   4.861   3.328
 2362SOL    HW1 9216   2.043   4.800   3.404
 2362SOL    HW2 9217   2.031   4.812   3.242
 2363SOL     OW 9218   3.209   4.783   3.096
 2363SOL    HW1 9219   3.233   4.720   3.022
 2363SOL    HW2 9220   3.119   4.823   3.078
 2364SOL     OW 9221   1.945   4.982   2.884
 2364SOL    HW1 9222   1.940   4.981   2.984
 2364SOL    HW2 9223   1.862   4.941   2.846
 2365SOL     OW 9224   3.142   4.651   2.534
 2365SOL    HW1 9225   3.202   4.570   2.536
 2365SOL    HW2 9226   3.182   4.720   2.474
 2366SOL     OW 9227   3.703   3.899   2.825
 2366SOL    HW1 9228   3.742   3.814   2.789
 2366SOL    HW2 9229   3.605   3.901   2.806
 2367SOL     OW 9230   2.125   4.050   2.582
 2367SOL    HW1 9231   2.046   4.101   2.548
 2367SOL    HW2 9232   2.116   4.035   2.680
 2368SOL     OW 9233   2.684   4.726   3.234
 2368SOL    HW1 9234   2.724   4.725   3.142
 2368SOL    HW2 9235   2.694   4.818   3.274
 2369SOL     OW 9236   2.778   4.634   2.153
 2369SOL    HW1 9237   2.841   4.672   2.085
 2369SOL    HW2 9238   2.818   4.551   2.192
 2370SOL     OW 9239   2.234   5.012   3.352
 2370SOL    HW1 9240   2.221   5.105   3.318
 2370SOL    HW2 9241   2.150   4.960   3.339
 2371SOL     OW 9242   2.901   4.822   2.558
 2371SOL    HW1 9243   2.831   4.775   2.612
 2371SOL    HW2 9244   2.960   4.754   2.515
 2372SOL     OW 9245   2.876   3.960   2.833
 2372SOL    HW1 9246   2.868   3.924   2.740
 2372SOL    HW2 9247   2.874   3.884   2.898
 2373SOL     OW 9248   3.571   4.109   3.243
 2373SOL    HW1 9249   3.644   4.178   3.247
 2373SOL    HW2 9250   3.599   4.034   3.184
 2374SOL     OW 9251   1.967   4.737   3.588
 2374SOL    HW1 9252   1.890   4.704   3.642
 2374SOL    HW2 9253   2.052   4.707   3.630
 2375SOL     OW 9254   2.534   3.927   3.351
 2375SOL    HW1 9255   2.624   3.911   3.311
 2375SOL    HW2 9256   2.542   3.932   3.450
 2376SOL     OW 9257   1.937   4.069   1.895
 2376SOL    HW1 9258   1.845   4.041   1.866
 2376SOL    HW2 9259   1.968   4.146   1.839
 2377SOL     OW 9260   3.302   4.580   3.260
 2377SOL    HW1 9261   3.245   4.632   3.197
 2377SOL    HW2 9262   3.398   4.592   3.236
 2378SOL     OW 9263   1.934   3.890   2.180
 2378SOL    HW1 9264   1.917   3.973   2.126
 2378SOL    HW2 9265   2.024   3.853   2.158
 2379SOL     OW 9266   2.578   4.289   3.570
 2379SOL    HW1 9267   2.597   4.354   3.644
 2379SOL    HW2 9268   2.638   4.209   3.579
 2380SOL     OW 9269   3.536   4.607   3.116
 2380SOL    HW1 9270   3.509   4.518   3.079
 2380SOL    HW2 9271   3.537   4.675   3.043
 2381SOL     OW 9272   2.456   4.469   2.514
 2381SOL    HW1 9273   2.506   4.554   2.495
 2381SOL    HW2 9274   2.368   4.471   2.466
 2382SOL     OW 9275   3.639   4.066   3.504
 2382SOL    HW1 9276   3.622   4.097   3.410
 2382SOL    HW2 9277   3.555   4.029   3.542
 2383SOL     OW 9278   3.592   4.658   3.379
 2383SOL    HW1 9279   3.630   4.749   3.394
 2383SOL    HW2 9280   3.584   4.641   3.280
 2384SOL     OW 9281   2.721   4.680   2.723
 2384SOL    HW1 9282   2.775   4.611   2.771
 2384SOL    HW2 9283   2.689   4.749   2.789
 2385SOL     OW 9284   1.941   4.964   2.515
 2385SOL    HW1 9285   1.940   4.917   2.603
 2385SOL    HW2 9286   2.023   4.936   2.464
 2386SOL     OW 9287   3.686   3.916   3.089
 2386SOL    HW1 9288   3.682   3.826   3.133
 2386SOL    HW2 9289   3.689   3.905   2.990
 2387SOL     OW 9290   2.290   4.148   2.382
 2387SOL    HW1 9291   2.320   4.076   2.320
 2387SOL    HW2 9292   2.251   4.108   2.465
 2388SOL     OW 9293   2.863   3.758   3.016
 2388SOL    HW1 9294   2.800   3.686   2.985
 2388SOL    HW2 9295   2.956   3.722   3.016
 2389SOL     OW 9296   2.632   5.054   2.163
 2389SOL    HW1 9297   2.586   4.967   2.180
 2389SOL    HW2 9298   2.723   5.051   2.204
 2390SOL     OW 9299   3.214   3.776   2.030
 2390SOL    HW1 9300   3.249   3.735   1.946
 2390SOL    HW2 9301   3.124   3.738   2.050
 2391SOL     OW 9302   3.455   3.945   2.744
 2391SOL    HW1 9303   3.371   3.944   2.798
 2391SOL    HW2 9304   3.457   4.028   2.688
 2392SOL     OW 9305   1.901   4.801   2.162
 2392SOL    HW1 9306   2.000   4.790   2.153
 2392SOL    HW2 9307   1.861   4.715   2.194
 2393SOL     OW 9308   2.092   4.352   3.837
 2393SOL    HW1 9309   1.999   4.350   3.874
 2393SOL    HW2 9310   2.093   4.313   3.745
 2394SOL     OW 9311   2.087   3.999   4.720
 2394SOL    HW1 9312   2.122   3.982   4.812
 2394SOL    HW2 9313   1.999   3.954   4.708
 2395SOL     OW 9314   2.997   4.427   4.441
 2395SOL    HW1 9315   3.054   4.505   4.416
 2395SOL    HW2 9316   2.937   4.453   4.517
 2396SOL     OW 9317   3.617   4.331   3.955
 2396SOL    HW1 9318   3.605   4.318   3.856
 2396SOL    HW2 9319   3.587   4.250   4.004
 2397SOL     OW 9320   2.197   5.159   4.785
 2397SOL    HW1 9321   2.119   5.128   4.732
 2397SOL    HW2 9322   2.255   5.217   4.728
 2398SOL     OW 9323   3.465   4.171   4.461
 2398SOL    HW1 9324   3.391   4.217   4.411
 2398SOL    HW2 9325   3.516   4.239   4.514
 2399SOL     OW 9326   2.102   4.815   4.610
 2399SOL    HW1 9327   2.116   4.731   4.662
 2399SOL    HW2 9328   2.047   4.879   4.665
 2400SOL     OW 9329   2.468   4.688   3.847
 2400SOL    HW1 9330   2.475   4.772   3.793
 2400SOL    HW2 9331   2.514   4.701   3.935
 2401SOL     OW 9332   3.551   4.646   4.336
 2401SOL    HW1 9333   3.646   4.617   4.344
 2401SOL    HW2 9334   3.543   4.711   4.261
 2402SOL     OW 9335   2.059   4.700   4.988
 2402SOL    HW1 9336   2.148   4.655   4.974
 2402SOL    HW2 9337   1.986   4.635   4.969
 2403SOL     OW 9338   2.460   4.453   3.994
 2403SOL    HW1 9339   2.484   4.522   3.926
 2403SOL    HW2 9340   2.382   4.486   4.048
 2404SOL     OW 9341   2.853   4.134   4.966
 2404SOL    HW1 9342   2.776   4.168   5.020
 2404SOL    HW2 9343   2.819   4.083   4.887
 2405SOL     OW 9344   2.903   4.425   4.153
 2405SOL    HW1 9345   2.929   4.421   4.249
 2405SOL    HW2 9346   2.818   4.374   4.139
 2406SOL     OW 9347   2.727   4.072   3.919
 2406SOL    HW1 9348   2.786   4.135   3.870
 2406SOL    HW2 9349   2.746   3.978   3.890
 2407SOL     OW 9350   2.412   3.920   4.609
 2407SOL    HW1 9351   2.407   3.915   4.709
 2407SOL    HW2 9352   2.414   4.016   4.580
 2408SOL     OW 9353   3.657   4.790   4.597
 2408SOL    HW1 9354   3.595   4.775   4.521
 2408SOL    HW2 9355   3.605   4.801   4.682
 2409SOL     OW 9356   2.183   4.667   3.966
 2409SOL    HW1 9357   2.265   4.706   3.924
 2409SOL    HW2 9358   2.156   4.585   3.917
 2410SOL     OW 9359   3.320   4.459   4.452
 2410SOL    HW1 9360   3.315   4.394   4.527
 2410SOL    HW2 9361   3.400   4.518   4.465
 2411SOL     OW 9362   3.262   3.831   4.150
 2411SOL    HW1 9363   3.238   3.794   4.060
 2411SOL    HW2 9364   3.361   3.847   4.154
 2412SOL     OW 9365   2.244   4.424   4.204
 2412SOL    HW1 9366   2.289   4.334   4.201
 2412SOL    HW2 9367   2.150   4.413   4.237
 2413SOL     OW 9368   2.476   3.846   3.841
 2413SOL    HW1 9369   2.574   3.824   3.848
 2413SOL    HW2 9370   2.445   3.829   3.748
 2414SOL     OW 9371   2.665   5.126   4.648
 2414SOL    HW1 9372   2.755   5.140   4.606
 2414SOL    HW2 9373   2.594   5.128   4.577
 2415SOL     OW 9374   2.784   4.227   4.623
 2415SOL    HW1 9375   2.759   4.218   4.527
 2415SOL    HW2 9376   2.832   4.145   4.654
 2416SOL     OW 9377   3.296   4.912   3.765
 2416SOL    HW1 9378   3.328   4.836   3.822
 2416SOL    HW2 9379   3.204   4.939   3.795
 2417SOL     OW 9380   2.797   3.960   4.204
 2417SOL    HW1 9381   2.749   4.001   4.126
 2417SOL    HW2 9382   2.896   3.958   4.185
 2418SOL     OW 9383   3.089   5.294   4.517
 2418SOL    HW1 9384   3.110   5.368   4.452
 2418SOL    HW2 9385   3.157   5.294   4.590
 2419SOL     OW 9386   2.894   4.273   3.740
 2419SOL    HW1 9387   2.853   4.355   3.701
 2419SOL    HW2 9388   2.958   4.299   3.813
 2420SOL     OW 9389   2.728   4.178   4.366
 2420SOL    HW1 9390   2.696   4.250   4.304
 2420SOL    HW2 9391   2.752   4.097   4.313
 2421SOL     OW 9392   3.328   4.314   4.716
 2421SOL    HW1 9393   3.298   4.219   4.723
 2421SOL    HW2 9394   3.401   4.330   4.782
 2422SOL     OW 9395   3.719   4.557   4.101
 2422SOL    HW1 9396   3.761   4.493   4.165
 2422SOL    HW2 9397   3.681   4.506   4.023
 2423SOL     OW 9398   3.252   4.299   3.802
 2423SOL    HW1 9399   3.198   4.278   3.883
 2423SOL    HW2 9400   3.343   4.258   3.811
 2424SOL     OW 9401   2.389   3.980   4.052
 2424SOL    HW1 9402   2.416   3.921   3.977
 2424SOL    HW2 9403   2.389   4.075   4.021
 2425SOL     OW 9404   3.500   4.823   4.803
 2425SOL    HW1 9405   3.505   4.904   4.862
 2425SOL    HW2 9406   3.414   4.825   4.752
 2426SOL     OW 9407   2.272   4.537   4.975
 2426SOL    HW1 9408   2.358   4.549   5.025
 2426SOL    HW2 9409   2.230   4.450   5.002
 2427SOL     OW 9410   2.229   4.824   4.225
 2427SOL    HW1 9411   2.222   4.907   4.169
 2427SOL    HW2 9412   2.233   4.744   4.165
 2428SOL     OW 9413   3.444   4.363   4.196
 2428SOL    HW1 9414   3.413   4.424   4.269
 2428SOL    HW2 9415   3.494   4.415   4.127
 2429SOL     OW 9416   3.222   4.586   4.769
 2429SOL    HW1 9417   3.147   4.586   4.703
 2429SOL    HW2 9418   3.259   4.494   4.778
 2430SOL     OW 9419   3.071   4.249   3.999
 2430SOL    HW1 9420   3.084   4.165   4.053
 2430SOL    HW2 9421   3.042   4.323   4.059
 2431SOL     OW 9422   3.484   4.091   4.098
 2431SOL    HW1 9423   3.486   4.015   4.162
 2431SOL    HW2 9424   3.436   4.168   4.138
 2432SOL     OW 9425   2.885   4.490   4.690
 2432SOL    HW1 9426   2.900   4.511   4.786
 2432SOL    HW2 9427   2.855   4.395   4.681
 2433SOL     OW 9428   3.402   3.998   3.849
 2433SOL    HW1 9429   3.341   3.923   3.872
 2433SOL    HW2 9430   3.424   4.050   3.932
 2434SOL     OW 9431   3.165   4.562   3.766
 2434SOL    HW1 9432   3.199   4.469   3.781
 2434SOL    HW2 9433   3.183   4.589   3.671
 2435SOL     OW 9434   2.201   4.233   4.730
 2435SOL    HW1 9435   2.149   4.150   4.713
 2435SOL    HW2 9436   2.278   4.238   4.666
 2436SOL     OW 9437   1.870   5.050   3.924
 2436SOL    HW1 9438   1.777   5.071   3.893
 2436SOL    HW2 9439   1.880   4.951   3.937
 2437SOL     OW 9440   2.864   4.520   4.962
 2437SOL    HW1 9441   2.905   4.488   5.048
 2437SOL    HW2 9442   2.768   4.493   4.959
 2438SOL     OW 9443   1.902   4.268   4.838
 2438SOL    HW1 9444   1.987   4.235   4.797
 2438SOL    HW2 9445   1.915   4.283   4.936
 2439SOL     OW 9446   2.677   4.296   4.049
 2439SOL    HW1 9447   2.684   4.207   4.003
 2439SOL    HW2 9448   2.583   4.330   4.041
 2440SOL     OW 9449   3.519   4.328   4.930
 2440SOL    HW1 9450   3.481   4.259   4.992
 2440SOL    HW2 9451   3.601   4.292   4.886
 2441SOL     OW 9452   2.335   4.224   3.915
 2441SOL    HW1 9453   2.396   4.304   3.919
 2441SOL    HW2 9454   2.240   4.255   3.922
 2442SOL     OW 9455   3.209   4.783   4.958
 2442SOL    HW1 9456   3.233   4.720   4.884
 2442SOL    HW2 9457   3.119   4.823   4.940
 2443SOL     OW 9458   3.164   4.579   4.033
 2443SOL    HW1 9459   3.078   4.548   4.075
 2443SOL    HW2 9460   3.160   4.565   3.934
 2444SOL     OW 9461   3.588   3.859   4.247
 2444SOL    HW1 9462   3.661   3.842   4.180
 2444SOL    HW2 9463   3.557   3.772   4.285
 2445SOL     OW 9464   3.142   4.651   4.396
 2445SOL    HW1 9465   3.202   4.570   4.398
 2445SOL    HW2 9466   3.182   4.720   4.336
 2446SOL     OW 9467   3.703   3.899   4.687
 2446SOL    HW1 9468   3.742   3.814   4.651
 2446SOL    HW2 9469   3.605   3.901   4.668
 2447SOL     OW 9470   2.125   4.050   4.444
 2447SOL    HW1 9471   2.046   4.101   4.410
 2447SOL    HW2 9472   2.116   4.035   4.542
 2448SOL     OW 9473   2.684   4.726   5.096
 2448SOL    HW1 9474   2.724   4.725   5.004
 2448SOL    HW2 9475   2.694   4.818   5.136
 2449SOL     OW 9476   2.778   4.634   4.015
 2449SOL    HW1 9477   2.841   4.672   3.947
 2449SOL    HW2 9478   2.818   4.551   4.054
 2450SOL     OW 9479   3.571   4.109   5.105
 2450SOL    HW1 9480   3.644   4.178   5.109
 2450SOL    HW2 9481   3.599   4.034   5.046
 2451SOL     OW 9482   1.937   4.069   3.757
 2451SOL    HW1 9483   1.845   4.041   3.728
 2451SOL    HW2 9484   1.968   4.146   3.701
 2452SOL     OW 9485   1.934   3.890   4.042
 2452SOL    HW1 9486   1.917   3.973   3.988
 2452SOL    HW2 9487   2.024   3.853   4.020
 2453SOL     OW 9488   3.312   4.944   5.357
 2453SOL    HW1 9489   3.303   4.934   5.456
 2453SOL    HW2 9490   3.408   4.937   5.331
 2454SOL     OW 9491   3.536   4.607   4.978
 2454SOL    HW1 9492   3.509   4.518   4.941
 2454SOL    HW2 9493   3.537   4.675   4.905
 2455SOL     OW 9494   3.087   4.049   4.173
 2455SOL    HW1 9495   3.152   3.975   4.162
 2455SOL    HW2 9496   3.107   4.099   4.257
 2456SOL     OW 9497   2.945   4.708   3.811
 2456SOL    HW1 9498   2.922   4.761   3.729
 2456SOL    HW2 9499   3.026   4.652   3.792
 2457SOL     OW 9500   3.686   3.916   4.951
 2457SOL    HW1 9501   3.682   3.826   4.995
 2457SOL    HW2 9502   3.689   3.905   4.852
 2458SOL     OW 9503   2.290   4.148   4.244
 2458SOL    HW1 9504   2.320   4.076   4.182
 2458SOL    HW2 9505   2.251   4.108   4.327
 2459SOL     OW 9506   3.214   3.776   3.892
 2459SOL    HW1 9507   3.249   3.735   3.808
 2459SOL    HW2 9508   3.124   3.738   3.912
 2460SOL     OW 9509   3.162   4.177   4.415
 2460SOL    HW1 9510   3.103   4.257   4.419
 2460SOL    HW2 9511   3.177   4.142   4.508
 2461SOL     OW 9512   1.901   4.801   4.024
 2461SOL    HW1 9513   2.000   4.790   4.015
 2461SOL    HW2 9514   1.861   4.715   4.056
 2462SOL     OW 9515   3.949   0.275   0.996
 2462SOL    HW1 9516   3.984   0.258   1.088
 2462SOL    HW2 9517   3.861   0.230   0.984
 2463SOL     OW 9518   3.743   0.368   0.647
 2463SOL    HW1 9519   3.661   0.411   0.686
 2463SOL    HW2 9520   3.715   0.295   0.584
 2464SOL     OW 9521   4.859   0.703   0.717
 2464SOL    HW1 9522   4.916   0.781   0.692
 2464SOL    HW2 9523   4.799   0.729   0.793
 2465SOL     OW 9524   4.492   1.144   1.023
 2465SOL    HW1 9525   4.414   1.161   1.083
 2465SOL    HW2 9526   4.526   1.231   0.987
 2466SOL     OW 9527   4.574   0.798   1.823
 2466SOL    HW1 9528   4.570   0.874   1.888
 2466SOL    HW2 9529   4.596   0.834   1.732
 2467SOL     OW 9530   4.409   1.012   0.665
 2467SOL    HW1 9531   4.478   0.996   0.735
 2467SOL    HW2 9532   4.336   1.069   0.703
 2468SOL     OW 9533   4.410   1.161   1.803
 2468SOL    HW1 9534   4.470   1.240   1.817
 2468SOL    HW2 9535   4.324   1.192   1.762
 2469SOL     OW 9536   4.162   0.392   1.499
 2469SOL    HW1 9537   4.244   0.336   1.508
 2469SOL    HW2 9538   4.081   0.334   1.503
 2470SOL     OW 9539   3.955   1.713   0.483
 2470SOL    HW1 9540   3.989   1.790   0.537
 2470SOL    HW2 9541   3.999   1.713   0.393
 2471SOL     OW 9542   3.954   1.434   0.538
 2471SOL    HW1 9543   3.928   1.530   0.538
 2471SOL    HW2 9544   3.883   1.380   0.583
 2472SOL     OW 9545   4.344   1.786   1.439
 2472SOL    HW1 9546   4.252   1.769   1.474
 2472SOL    HW2 9547   4.372   1.878   1.465
 2473SOL     OW 9548   4.330   0.964   0.123
 2473SOL    HW1 9549   4.337   1.048   0.069
 2473SOL    HW2 9550   4.376   0.977   0.211
 2474SOL     OW 9551   3.846   0.643   0.563
 2474SOL    HW1 9552   3.801   0.555   0.580
 2474SOL    HW2 9553   3.845   0.697   0.647
 2475SOL     OW 9554   3.751   1.596   0.117
 2475SOL    HW1 9555   3.732   1.500   0.138
 2475SOL    HW2 9556   3.718   1.654   0.192
 2476SOL     OW 9557   3.837   0.737   1.597
 2476SOL    HW1 9558   3.925   0.724   1.642
 2476SOL    HW2 9559   3.824   0.834   1.575
 2477SOL     OW 9560   4.337   1.365   0.726
 2477SOL    HW1 9561   4.288   1.278   0.735
 2477SOL    HW2 9562   4.314   1.408   0.639
 2478SOL     OW 9563   4.533   0.004   0.502
 2478SOL    HW1 9564   4.573   0.095   0.493
 2478SOL    HW2 9565   4.433   0.012   0.508
 2479SOL     OW 9566   4.911   1.792   1.616
 2479SOL    HW1 9567   4.935   1.852   1.540
 2479SOL    HW2 9568   4.918   1.697   1.586
 2480SOL     OW 9569   4.041   0.251   1.801
 2480SOL    HW1 9570   4.112   0.322   1.807
 2480SOL    HW2 9571   3.953   0.290   1.829
 2481SOL     OW 9572   4.322   0.729   0.270
 2481SOL    HW1 9573   4.346   0.798   0.202
 2481SOL    HW2 9574   4.244   0.762   0.324
 2482SOL     OW 9575   5.005   0.345   0.944
 2482SOL    HW1 9576   4.919   0.295   0.931
 2482SOL    HW2 9577   5.067   0.291   1.000
 2483SOL     OW 9578   4.697   0.890   1.572
 2483SOL    HW1 9579   4.743   0.806   1.543
 2483SOL    HW2 9580   4.641   0.924   1.497
 2484SOL     OW 9581   4.765   0.701   0.429
 2484SOL    HW1 9582   4.791   0.697   0.525
 2484SOL    HW2 9583   4.680   0.650   0.415
 2485SOL     OW 9584   3.800   0.811   0.789
 2485SOL    HW1 9585   3.899   0.799   0.798
 2485SOL    HW2 9586   3.776   0.906   0.810
 2486SOL     OW 9587   3.854   1.821   1.571
 2486SOL    HW1 9588   3.844   1.806   1.670
 2486SOL    HW2 9589   3.768   1.857   1.535
 2487SOL     OW 9590   4.589   0.348   0.195
 2487SOL    HW1 9591   4.648   0.411   0.146
 2487SOL    HW2 9592   4.608   0.254   0.166
 2488SOL     OW 9593   4.274   0.196   0.885
 2488SOL    HW1 9594   4.269   0.191   0.985
 2488SOL    HW2 9595   4.276   0.292   0.856
 2489SOL     OW 9596   4.732   1.456   0.477
 2489SOL    HW1 9597   4.686   1.528   0.425
 2489SOL    HW2 9598   4.728   1.476   0.575
 2490SOL     OW 9599   4.951   1.550   1.506
 2490SOL    HW1 9600   4.957   1.473   1.570
 2490SOL    HW2 9601   4.899   1.524   1.426
 2491SOL     OW 9602   4.045   0.943   0.242
 2491SOL    HW1 9603   4.127   0.982   0.200
 2491SOL    HW2 9604   4.018   0.861   0.193
 2492SOL     OW 9605   4.185   1.266   1.727
 2492SOL    HW1 9606   4.135   1.267   1.641
 2492SOL    HW2 9607   4.122   1.248   1.803
 2493SOL     OW 9608   4.835   1.776   0.237
 2493SOL    HW1 9609   4.775   1.714   0.287
 2493SOL    HW2 9610   4.866   1.732   0.152
 2494SOL     OW 9611   3.926   0.285   1.498
 2494SOL    HW1 9612   3.846   0.345   1.485
 2494SOL    HW2 9613   3.916   0.236   1.584
 2495SOL     OW 9614   5.356   1.377   0.081
 2495SOL    HW1 9615   5.324   1.471   0.071
 2495SOL    HW2 9616   5.280   1.314   0.069
 2496SOL     OW 9617   4.188   1.743   0.323
 2496SOL    HW1 9618   4.221   1.782   0.409
 2496SOL    HW2 9619   4.264   1.736   0.258
 2497SOL     OW 9620   3.973   1.785   1.241
 2497SOL    HW1 9621   4.030   1.720   1.291
 2497SOL    HW2 9622   3.957   1.752   1.148
 2498SOL     OW 9623   4.106   0.700   0.480
 2498SOL    HW1 9624   4.151   0.610   0.477
 2498SOL    HW2 9625   4.012   0.689   0.513
 2499SOL     OW 9626   4.338   0.122   0.117
 2499SOL    HW1 9627   4.436   0.100   0.124
 2499SOL    HW2 9628   4.307   0.105   0.024
 2500SOL     OW 9629   4.505   0.264   1.749
 2500SOL    HW1 9630   4.572   0.203   1.792
 2500SOL    HW2 9631   4.432   0.283   1.814
 2501SOL     OW 9632   4.527   1.402   0.924
 2501SOL    HW1 9633   4.617   1.416   0.882
 2501SOL    HW2 9634   4.456   1.404   0.853
 2502SOL     OW 9635   4.263   0.064   0.512
 2502SOL    HW1 9636   4.182   0.065   0.570
 2502SOL    HW2 9637   4.266   0.147   0.457
 2503SOL     OW 9638   4.021   0.035   0.171
 2503SOL    HW1 9639   4.070   0.119   0.150
 2503SOL    HW2 9640   4.083  -0.030   0.216
 2504SOL     OW 9641   4.659   0.236   0.480
 2504SOL    HW1 9642   4.611   0.277   0.402
 2504SOL    HW2 9643   4.758   0.234   0.461
 2505SOL     OW 9644   4.800   0.683   1.464
 2505SOL    HW1 9645   4.720   0.622   1.467
 2505SOL    HW2 9646   4.881   0.630   1.440
 2506SOL     OW 9647   4.183   1.152   0.741
 2506SOL    HW1 9648   4.112   1.125   0.806
 2506SOL    HW2 9649   4.157   1.124   0.648
 2507SOL     OW 9650   4.756   0.549   0.016
 2507SOL    HW1 9651   4.715   0.631  -0.023
 2507SOL    HW2 9652   4.820   0.575   0.089
 2508SOL     OW 9653   3.802   0.556   1.386
 2508SOL    HW1 9654   3.894   0.555   1.345
 2508SOL    HW2 9655   3.796   0.630   1.453
 2509SOL     OW 9656   4.285   0.222   1.147
 2509SOL    HW1 9657   4.323   0.138   1.184
 2509SOL    HW2 9658   4.197   0.241   1.191
 2510SOL     OW 9659   4.590   0.454   0.642
 2510SOL    HW1 9660   4.558   0.526   0.580
 2510SOL    HW2 9661   4.614   0.373   0.589
 2511SOL     OW 9662   4.212   1.385   0.174
 2511SOL    HW1 9663   4.125   1.370   0.221
 2511SOL    HW2 9664   4.195   1.411   0.079
 2512SOL     OW 9665   4.251   0.256   0.328
 2512SOL    HW1 9666   4.278   0.197   0.253
 2512SOL    HW2 9667   4.251   0.351   0.297
 2513SOL     OW 9668   4.639   0.089   1.402
 2513SOL    HW1 9669   4.664   0.069   1.307
 2513SOL    HW2 9670   4.711   0.145   1.444
 2514SOL     OW 9671   4.429   1.050   0.368
 2514SOL    HW1 9672   4.415   1.057   0.467
 2514SOL    HW2 9673   4.513   0.999   0.350
 2515SOL     OW 9674   4.998   0.386   1.262
 2515SOL    HW1 9675   5.019   0.460   1.326
 2515SOL    HW2 9676   4.909   0.403   1.219
 2516SOL     OW 9677   4.091   1.100   0.501
 2516SOL    HW1 9678   4.084   1.183   0.445
 2516SOL    HW2 9679   4.095   1.020   0.441
 2517SOL     OW 9680   4.976   1.348   0.388
 2517SOL    HW1 9681   5.026   1.425   0.428
 2517SOL    HW2 9682   4.881   1.350   0.420
 2518SOL     OW 9683   4.737   0.105   1.770
 2518SOL    HW1 9684   4.743   0.190   1.718
 2518SOL    HW2 9685   4.769   0.029   1.713
 2519SOL     OW 9686   4.228   0.050   1.740
 2519SOL    HW1 9687   4.186  -0.007   1.670
 2519SOL    HW2 9688   4.162   0.119   1.772
 2520SOL     OW 9689   4.297   0.870   1.029
 2520SOL    HW1 9690   4.341   0.959   1.020
 2520SOL    HW2 9691   4.234   0.870   1.106
 2521SOL     OW 9692   4.933   0.525   0.275
 2521SOL    HW1 9693   4.946   0.441   0.329
 2521SOL    HW2 9694   4.904   0.599   0.335
 2522SOL     OW 9695   4.031   0.213   1.231
 2522SOL    HW1 9696   4.008   0.250   1.321
 2522SOL    HW2 9697   4.001   0.118   1.225
 2523SOL     OW 9698   4.031   0.063   0.618
 2523SOL    HW1 9699   4.020   0.157   0.651
 2523SOL    HW2 9700   4.026   0.000   0.695
 2524SOL     OW 9701   5.346   0.367   0.374
 2524SOL    HW1 9702   5.348   0.291   0.438
 2524SOL    HW2 9703   5.298   0.444   0.414
 2525SOL     OW 9704   4.747   0.766   0.966
 2525SOL    HW1 9705   4.762   0.787   1.062
 2525SOL    HW2 9706   4.717   0.671   0.957
 2526SOL     OW 9707   4.704   1.573   1.700
 2526SOL    HW1 9708   4.684   1.617   1.612
 2526SOL    HW2 9709   4.743   1.482   1.684
 2527SOL     OW 9710   4.074   0.898   1.804
 2527SOL    HW1 9711   4.150   0.942   1.852
 2527SOL    HW2 9712   4.109   0.851   1.722
 2528SOL     OW 9713   5.027   0.838   0.042
 2528SOL    HW1 9714   5.061   0.745   0.057
 2528SOL    HW2 9715   5.045   0.865  -0.053
 2529SOL     OW 9716   4.063   0.509   1.006
 2529SOL    HW1 9717   4.011   0.426   0.989
 2529SOL    HW2 9718   4.140   0.514   0.942
 2530SOL     OW 9719   3.812   1.801   0.927
 2530SOL    HW1 9720   3.770   1.715   0.900
 2530SOL    HW2 9721   3.906   1.804   0.893
 2531SOL     OW 9722   3.764   0.544   1.114
 2531SOL    HW1 9723   3.849   0.511   1.073
 2531SOL    HW2 9724   3.777   0.559   1.212
 2532SOL     OW 9725   3.913   0.520   1.722
 2532SOL    HW1 9726   3.972   0.480   1.652
 2532SOL    HW2 9727   3.855   0.591   1.681
 2533SOL     OW 9728   4.539   0.572   0.325
 2533SOL    HW1 9729   4.546   0.483   0.279
 2533SOL    HW2 9730   4.445   0.606   0.317
 2534SOL     OW 9731   3.976   1.564   1.744
 2534SOL    HW1 9732   3.946   1.621   1.820
 2534SOL    HW2 9733   3.969   1.467   1.770
 2535SOL     OW 9734   4.654   1.678   1.465
 2535SOL    HW1 9735   4.630   1.660   1.370
 2535SOL    HW2 9736   4.684   1.772   1.475
 2536SOL     OW 9737   4.197   0.500   0.191
 2536SOL    HW1 9738   4.258   0.580   0.195
 2536SOL    HW2 9739   4.102   0.531   0.198
 2537SOL     OW 9740   3.883   1.137   1.466
 2537SOL    HW1 9741   3.905   1.076   1.542
 2537SOL    HW2 9742   3.893   1.088   1.380
 2538SOL     OW 9743   4.412   1.662   1.716
 2538SOL    HW1 9744   4.356   1.743   1.725
 2538SOL    HW2 9745   4.464   1.666   1.630
 2539SOL     OW 9746   4.627   0.086   0.133
 2539SOL    HW1 9747   4.678   0.087   0.047
 2539SOL    HW2 9748   4.683   0.044   0.204
 2540SOL     OW 9749   5.112   1.573   0.477
 2540SOL    HW1 9750   5.179   1.585   0.403
 2540SOL    HW2 9751   5.072   1.662   0.500
 2541SOL     OW 9752   3.854   1.794   1.851
 2541SOL    HW1 9753   3.813   1.720   1.904
 2541SOL    HW2 9754   3.918   1.845   1.909
 2542SOL     OW 9755   4.554   1.273   1.422
 2542SOL    HW1 9756   4.549   1.306   1.517
 2542SOL    HW2 9757   4.468   1.292   1.376
 2543SOL     OW 9758   4.396   1.616   0.154
 2543SOL    HW1 9759   4.405   1.626   0.055
 2543SOL    HW2 9760   4.356   1.527   0.175
 2544SOL     OW 9761   3.987   0.326   0.720
 2544SOL    HW1 9762   3.908   0.377   0.686
 2544SOL    HW2 9763   3.978   0.311   0.818
 2545SOL     OW 9764   4.918   1.612   0.031
 2545SOL    HW1 9765   4.924   1.519   0.068
 2545SOL    HW2 9766   4.859   1.612  -0.049
 2546SOL     OW 9767   4.640   0.910   0.291
 2546SOL    HW1 9768   4.703   0.948   0.223
 2546SOL    HW2 9769   4.680   0.827   0.330
 2547SOL     OW 9770   4.096   1.288   1.490
 2547SOL    HW1 9771   4.083   1.381   1.456
 2547SOL    HW2 9772   4.012   1.236   1.477
 2548SOL     OW 9773   4.763   1.098   0.696
 2548SOL    HW1 9774   4.693   1.051   0.750
 2548SOL    HW2 9775   4.822   1.030   0.653
 2549SOL     OW 9776   4.738   0.236   0.971
 2549SOL    HW1 9777   4.730   0.200   0.878
 2549SOL    HW2 9778   4.736   0.160   1.036
 2550SOL     OW 9779   4.314   1.487   0.491
 2550SOL    HW1 9780   4.356   1.429   0.421
 2550SOL    HW2 9781   4.270   1.566   0.447
 2551SOL     OW 9782   3.979   1.348   0.290
 2551SOL    HW1 9783   3.883   1.349   0.263
 2551SOL    HW2 9784   3.991   1.401   0.374
 2552SOL     OW 9785   3.829   1.013   1.726
 2552SOL    HW1 9786   3.752   0.980   1.780
 2552SOL    HW2 9787   3.914   0.983   1.768
 2553SOL     OW 9788   4.396   0.203   1.489
 2553SOL    HW1 9789   4.486   0.187   1.449
 2553SOL    HW2 9790   4.404   0.208   1.588
 2554SOL     OW 9791   3.796   0.166   0.318
 2554SOL    HW1 9792   3.779   0.249   0.264
 2554SOL    HW2 9793   3.886   0.129   0.296
 2555SOL     OW 9794   4.114   1.741   1.560
 2555SOL    HW1 9795   4.023   1.782   1.558
 2555SOL    HW2 9796   4.107   1.647   1.592
 2556SOL     OW 9797   4.949   0.325   0.449
 2556SOL    HW1 9798   5.014   0.251   0.438
 2556SOL    HW2 9799   4.969   0.375   0.533
 2557SOL     OW 9800   4.583   1.374   0.016
 2557SOL    HW1 9801   4.537   1.389   0.104
 2557SOL    HW2 9802   4.627   1.459  -0.014
 2558SOL     OW 9803   4.807   0.984   0.087
 2558SOL    HW1 9804   4.784   1.037   0.005
 2558SOL    HW2 9805   4.888   0.928   0.068
 2559SOL     OW 9806   3.945   1.314   1.844
 2559SOL    HW1 9807   3.880   1.241   1.823
 2559SOL    HW2 9808   3.949   1.328   1.942
 2560SOL     OW 9809   3.803   1.240   0.653
 2560SOL    HW1 9810   3.802   1.193   0.741
 2560SOL    HW2 9811   3.885   1.212   0.602
 2561SOL     OW 9812   4.396   1.391   1.624
 2561SOL    HW1 9813   4.318   1.341   1.662
 2561SOL    HW2 9814   4.393   1.486   1.655
 2562SOL     OW 9815   4.152   0.424   0.520
 2562SOL    HW1 9816   4.182   0.352   0.458
 2562SOL    HW2 9817   4.113   0.384   0.603
 2563SOL     OW 9818   4.536   1.586   0.687
 2563SOL    HW1 9819   4.568   1.596   0.593
 2563SOL    HW2 9820   4.457   1.524   0.689
 2564SOL     OW 9821   4.725   0.034   1.154
 2564SOL    HW1 9822   4.662  -0.038   1.123
 2564SOL    HW2 9823   4.818  -0.002   1.154
 2565SOL     OW 9824   4.494   1.330   0.301
 2565SOL    HW1 9825   4.448   1.243   0.318
 2565SOL    HW2 9826   4.585   1.327   0.342
 2566SOL     OW 9827   3.763   1.077   0.300
 2566SOL    HW1 9828   3.862   1.066   0.291
 2566SOL    HW2 9829   3.723   0.991   0.332
 2567SOL     OW 9830   4.599   1.646   0.337
 2567SOL    HW1 9831   4.522   1.611   0.283
 2567SOL    HW2 9832   4.567   1.717   0.399
 2568SOL     OW 9833   3.954   0.628   1.975
 2568SOL    HW1 9834   3.861   0.626   2.012
 2568SOL    HW2 9835   3.955   0.589   1.883
 2569SOL     OW 9836   3.949   0.275   2.858
 2569SOL    HW1 9837   3.984   0.258   2.950
 2569SOL    HW2 9838   3.861   0.230   2.846
 2570SOL     OW 9839   3.743   0.368   2.509
 2570SOL    HW1 9840   3.661   0.411   2.548
 2570SOL    HW2 9841   3.715   0.295   2.446
 2571SOL     OW 9842   4.293   1.275   3.027
 2571SOL    HW1 9843   4.200   1.268   2.990
 2571SOL    HW2 9844   4.304   1.364   3.071
 2572SOL     OW 9845   4.859   0.703   2.579
 2572SOL    HW1 9846   4.916   0.781   2.554
 2572SOL    HW2 9847   4.799   0.729   2.655
 2573SOL     OW 9848   4.492   1.144   2.885
 2573SOL    HW1 9849   4.414   1.161   2.945
 2573SOL    HW2 9850   4.526   1.231   2.849
 2574SOL     OW 9851   4.574   0.798   3.685
 2574SOL    HW1 9852   4.570   0.874   3.750
 2574SOL    HW2 9853   4.596   0.834   3.594
 2575SOL     OW 9854   3.955   1.713   2.345
 2575SOL    HW1 9855   3.989   1.790   2.399
 2575SOL    HW2 9856   3.999   1.713   2.255
 2576SOL     OW 9857   4.851   1.341   3.552
 2576SOL    HW1 9858   4.898   1.341   3.640
 2576SOL    HW2 9859   4.803   1.254   3.541
 2577SOL     OW 9860   3.954   1.434   2.400
 2577SOL    HW1 9861   3.928   1.530   2.400
 2577SOL    HW2 9862   3.883   1.380   2.445
 2578SOL     OW 9863   4.344   1.786   3.301
 2578SOL    HW1 9864   4.252   1.769   3.336
 2578SOL    HW2 9865   4.372   1.878   3.327
 2579SOL     OW 9866   3.846   0.643   2.425
 2579SOL    HW1 9867   3.801   0.555   2.442
 2579SOL    HW2 9868   3.845   0.697   2.509
 2580SOL     OW 9869   3.751   1.596   1.979
 2580SOL    HW1 9870   3.732   1.500   2.000
 2580SOL    HW2 9871   3.718   1.654   2.054
 2581SOL     OW 9872   3.837   0.737   3.459
 2581SOL    HW1 9873   3.925   0.724   3.504
 2581SOL    HW2 9874   3.824   0.834   3.437
 2582SOL     OW 9875   5.017   1.228   3.285
 2582SOL    HW1 9876   5.054   1.155   3.227
 2582SOL    HW2 9877   5.069   1.233   3.370
 2583SOL     OW 9878   4.533   0.004   2.364
 2583SOL    HW1 9879   4.573   0.095   2.355
 2583SOL    HW2 9880   4.433   0.012   2.370
 2584SOL     OW 9881   3.921   0.976   3.126
 2584SOL    HW1 9882   4.010   0.931   3.112
 2584SOL    HW2 9883   3.848   0.911   3.107
 2585SOL     OW 9884   4.911   1.792   3.478
 2585SOL    HW1 9885   4.935   1.852   3.402
 2585SOL    HW2 9886   4.918   1.697   3.448
 2586SOL     OW 9887   4.041   0.251   3.663
 2586SOL    HW1 9888   4.112   0.322   3.669
 2586SOL    HW2 9889   3.953   0.290   3.691
 2587SOL     OW 9890   5.005   0.345   2.806
 2587SOL    HW1 9891   4.919   0.295   2.793
 2587SOL    HW2 9892   5.067   0.291   2.862
 2588SOL     OW 9893   4.697   0.890   3.434
 2588SOL    HW1 9894   4.743   0.806   3.405
 2588SOL    HW2 9895   4.641   0.924   3.359
 2589SOL     OW 9896   4.715   0.410   3.104
 2589SOL    HW1 9897   4.638   0.444   3.158
 2589SOL    HW2 9898   4.681   0.359   3.025
 2590SOL     OW 9899   4.765   0.701   2.291
 2590SOL    HW1 9900   4.791   0.697   2.387
 2590SOL    HW2 9901   4.680   0.650   2.277
 2591SOL     OW 9902   3.800   0.811   2.651
 2591SOL    HW1 9903   3.899   0.799   2.660
 2591SOL    HW2 9904   3.776   0.906   2.672
 2592SOL     OW 9905   4.589   0.348   2.057
 2592SOL    HW1 9906   4.648   0.411   2.008
 2592SOL    HW2 9907   4.608   0.254   2.028
 2593SOL     OW 9908   4.274   0.196   2.747
 2593SOL    HW1 9909   4.269   0.191   2.847
 2593SOL    HW2 9910   4.276   0.292   2.718
 2594SOL     OW 9911   4.732   1.456   2.339
 2594SOL    HW1 9912   4.686   1.528   2.287
 2594SOL    HW2 9913   4.728   1.476   2.437
 2595SOL     OW 9914   4.075   1.801   2.715
 2595SOL    HW1 9915   4.125   1.715   2.721
 2595SOL    HW2 9916   4.140   1.878   2.712
 2596SOL     OW 9917   4.951   1.550   3.368
 2596SOL    HW1 9918   4.957   1.473   3.432
 2596SOL    HW2 9919   4.899   1.524   3.288
 2597SOL     OW 9920   4.045   0.943   2.104
 2597SOL    HW1 9921   4.127   0.982   2.062
 2597SOL    HW2 9922   4.018   0.861   2.055
 2598SOL     OW 9923   4.185   1.266   3.589
 2598SOL    HW1 9924   4.135   1.267   3.503
 2598SOL    HW2 9925   4.122   1.248   3.665
 2599SOL     OW 9926   4.835   1.776   2.099
 2599SOL    HW1 9927   4.775   1.714   2.149
 2599SOL    HW2 9928   4.866   1.732   2.014
 2600SOL     OW 9929   3.926   0.285   3.360
 2600SOL    HW1 9930   3.846   0.345   3.347
 2600SOL    HW2 9931   3.916   0.236   3.446
 2601SOL     OW 9932   4.188   1.743   2.185
 2601SOL    HW1 9933   4.221   1.782   2.271
 2601SOL    HW2 9934   4.264   1.736   2.120
 2602SOL     OW 9935   4.106   0.700   2.342
 2602SOL    HW1 9936   4.151   0.610   2.339
 2602SOL    HW2 9937   4.012   0.689   2.375
 2603SOL     OW 9938   4.338   0.122   1.979
 2603SOL    HW1 9939   4.436   0.100   1.986
 2603SOL    HW2 9940   4.307   0.105   1.886
 2604SOL     OW 9941   4.505   0.264   3.611
 2604SOL    HW1 9942   4.572   0.203   3.654
 2604SOL    HW2 9943   4.432   0.283   3.676
 2605SOL     OW 9944   4.527   1.402   2.786
 2605SOL    HW1 9945   4.617   1.416   2.744
 2605SOL    HW2 9946   4.456   1.404   2.715
 2606SOL     OW 9947   4.646   0.503   2.761
 2606SOL    HW1 9948   4.621   0.494   2.665
 2606SOL    HW2 9949   4.694   0.421   2.792
 2607SOL     OW 9950   4.263   0.064   2.374
 2607SOL    HW1 9951   4.182   0.065   2.432
 2607SOL    HW2 9952   4.266   0.147   2.319
 2608SOL     OW 9953   4.021   0.035   2.033
 2608SOL    HW1 9954   4.070   0.119   2.012
 2608SOL    HW2 9955   4.083  -0.030   2.078
 2609SOL     OW 9956   4.659   0.236   2.342
 2609SOL    HW1 9957   4.611   0.277   2.264
 2609SOL    HW2 9958   4.758   0.234   2.323
 2610SOL     OW 9959   4.951   1.570   2.655
 2610SOL    HW1 9960   4.972   1.644   2.590
 2610SOL    HW2 9961   5.019   1.570   2.728
 2611SOL     OW 9962   4.756   0.549   1.878
 2611SOL    HW1 9963   4.715   0.631   1.839
 2611SOL    HW2 9964   4.820   0.575   1.951
 2612SOL     OW 9965   3.802   0.556   3.248
 2612SOL    HW1 9966   3.894   0.555   3.207
 2612SOL    HW2 9967   3.796   0.630   3.315
 2613SOL     OW 9968   4.590   0.454   2.504
 2613SOL    HW1 9969   4.558   0.526   2.442
 2613SOL    HW2 9970   4.614   0.373   2.451
 2614SOL     OW 9971   4.741   0.039   2.615
 2614SOL    HW1 9972   4.669   0.044   2.546
 2614SOL    HW2 9973   4.717  -0.030   2.684
 2615SOL     OW 9974   4.212   1.385   2.036
 2615SOL    HW1 9975   4.125   1.370   2.083
 2615SOL    HW2 9976   4.195   1.411   1.941
 2616SOL     OW 9977   5.388   1.280   2.519
 2616SOL    HW1 9978   5.487   1.288   2.533
 2616SOL    HW2 9979   5.343   1.364   2.550
 2617SOL     OW 9980   4.251   0.256   2.190
 2617SOL    HW1 9981   4.278   0.197   2.115
 2617SOL    HW2 9982   4.251   0.351   2.159
 2618SOL     OW 9983   4.788   1.347   3.202
 2618SOL    HW1 9984   4.708   1.324   3.257
 2618SOL    HW2 9985   4.871   1.321   3.251
 2619SOL     OW 9986   4.835   1.195   2.962
 2619SOL    HW1 9987   4.795   1.239   3.043
 2619SOL    HW2 9988   4.794   1.232   2.879
 2620SOL     OW 9989   4.639   0.089   3.264
 2620SOL    HW1 9990   4.664   0.069   3.169
 2620SOL    HW2 9991   4.711   0.145   3.306
 2621SOL     OW 9992   4.704   1.116   3.581
 2621SOL    HW1 9993   4.605   1.122   3.591
 2621SOL    HW2 9994   4.727   1.036   3.525
 2622SOL     OW 9995   4.998   0.386   3.124
 2622SOL    HW1 9996   5.019   0.460   3.188
 2622SOL    HW2 9997   4.909   0.403   3.081
 2623SOL     OW 9998   3.788   1.564   3.193
 2623SOL    HW1 9999   3.742   1.646   3.159
 2623SOL    HW210000   3.886   1.583   3.202
 2624SOL     OW10001   4.290   0.537   2.727
 2624SOL    HW110002   4.302   0.603   2.653
 2624SOL    HW210003   4.336   0.571   2.810
 2625SOL     OW10004   4.976   1.348   2.250
 2625SOL    HW110005   5.026   1.425   2.290
 2625SOL    HW210006   4.881   1.350   2.282
 2626SOL     OW10007   4.078   1.510   3.191
 2626SOL    HW110008   4.057   1.466   3.104
 2626SOL    HW210009   4.175   1.536   3.194
 2627SOL     OW10010   4.737   0.105   3.632
 2627SOL    HW110011   4.743   0.190   3.580
 2627SOL    HW210012   4.769   0.029   3.575
 2628SOL     OW10013   4.228   0.050   3.602
 2628SOL    HW110014   4.186  -0.007   3.532
 2628SOL    HW210015   4.162   0.119   3.634
 2629SOL     OW10016   5.084   0.862   2.907
 2629SOL    HW110017   5.009   0.862   2.841
 2629SOL    HW210018   5.121   0.770   2.916
 2630SOL     OW10019   4.933   0.525   2.137
 2630SOL    HW110020   4.946   0.441   2.191
 2630SOL    HW210021   4.904   0.599   2.197
 2631SOL     OW10022   3.761   1.310   3.144
 2631SOL    HW110023   3.814   1.261   3.212
 2631SOL    HW210024   3.783   1.408   3.149
 2632SOL     OW10025   4.456   0.634   2.926
 2632SOL    HW110026   4.515   0.608   2.850
 2632SOL    HW210027   4.428   0.730   2.915
 2633SOL     OW10028   4.031   0.063   2.480
 2633SOL    HW110029   4.020   0.157   2.513
 2633SOL    HW210030   4.026   0.000   2.557
 2634SOL     OW10031   5.346   0.367   2.236
 2634SOL    HW110032   5.348   0.291   2.300
 2634SOL    HW210033   5.298   0.444   2.276
 2635SOL     OW10034   4.747   0.766   2.828
 2635SOL    HW110035   4.762   0.787   2.924
 2635SOL    HW210036   4.717   0.671   2.819
 2636SOL     OW10037   4.704   1.573   3.562
 2636SOL    HW110038   4.684   1.617   3.474
 2636SOL    HW210039   4.743   1.482   3.546
 2637SOL     OW10040   4.074   0.898   3.666
 2637SOL    HW110041   4.150   0.942   3.714
 2637SOL    HW210042   4.109   0.851   3.584
 2638SOL     OW10043   5.027   0.838   1.904
 2638SOL    HW110044   5.061   0.745   1.919
 2638SOL    HW210045   5.045   0.865   1.809
 2639SOL     OW10046   4.862   0.380   3.540
 2639SOL    HW110047   4.817   0.443   3.604
 2639SOL    HW210048   4.955   0.411   3.523
 2640SOL     OW10049   4.884   0.207   3.339
 2640SOL    HW110050   4.884   0.271   3.416
 2640SOL    HW210051   4.912   0.255   3.256
 2641SOL     OW10052   3.732   1.326   2.062
 2641SOL    HW110053   3.639   1.347   2.031
 2641SOL    HW210054   3.742   1.227   2.075
 2642SOL     OW10055   3.812   1.801   2.789
 2642SOL    HW110056   3.770   1.715   2.762
 2642SOL    HW210057   3.906   1.804   2.755
 2643SOL     OW10058   4.228   1.568   2.772
 2643SOL    HW110059   4.294   1.642   2.781
 2643SOL    HW210060   4.272   1.489   2.730
 2644SOL     OW10061   4.726   0.796   3.100
 2644SOL    HW110062   4.767   0.764   3.186
 2644SOL    HW210063   4.630   0.769   3.097
 2645SOL     OW10064   3.764   0.544   2.976
 2645SOL    HW110065   3.849   0.511   2.935
 2645SOL    HW210066   3.777   0.559   3.074
 2646SOL     OW10067   3.913   0.520   3.584
 2646SOL    HW110068   3.972   0.480   3.514
 2646SOL    HW210069   3.855   0.591   3.543
 2647SOL     OW10070   4.539   0.572   2.187
 2647SOL    HW110071   4.546   0.483   2.141
 2647SOL    HW210072   4.445   0.606   2.179
 2648SOL     OW10073   4.654   1.678   3.327
 2648SOL    HW110074   4.630   1.660   3.232
 2648SOL    HW210075   4.684   1.772   3.337
 2649SOL     OW10076   4.197   0.500   2.053
 2649SOL    HW110077   4.258   0.580   2.057
 2649SOL    HW210078   4.102   0.531   2.060
 2650SOL     OW10079   3.883   1.137   3.328
 2650SOL    HW110080   3.905   1.076   3.404
 2650SOL    HW210081   3.893   1.088   3.242
 2651SOL     OW10082   5.071   1.059   3.096
 2651SOL    HW110083   5.095   0.996   3.022
 2651SOL    HW210084   4.981   1.099   3.078
 2652SOL     OW10085   4.976   1.731   2.990
 2652SOL    HW110086   5.060   1.736   2.936
 2652SOL    HW210087   4.953   1.635   3.008
 2653SOL     OW10088   4.412   1.662   3.578
 2653SOL    HW110089   4.356   1.743   3.587
 2653SOL    HW210090   4.464   1.666   3.492
 2654SOL     OW10091   5.112   1.573   2.339
 2654SOL    HW110092   5.179   1.585   2.265
 2654SOL    HW210093   5.072   1.662   2.362
 2655SOL     OW10094   5.004   0.927   2.534
 2655SOL    HW110095   5.064   0.846   2.536
 2655SOL    HW210096   5.044   0.996   2.474
 2656SOL     OW10097   4.554   1.273   3.284
 2656SOL    HW110098   4.549   1.306   3.379
 2656SOL    HW210099   4.468   1.292   3.238
 2657SOL     OW10100   4.396   1.616   2.016
 2657SOL    HW110101   4.405   1.626   1.917
 2657SOL    HW210102   4.356   1.527   2.037
 2658SOL     OW10103   3.987   0.326   2.582
 2658SOL    HW110104   3.908   0.377   2.548
 2658SOL    HW210105   3.978   0.311   2.680
 2659SOL     OW10106   4.918   1.612   1.893
 2659SOL    HW110107   4.924   1.519   1.930
 2659SOL    HW210108   4.859   1.612   1.813
 2660SOL     OW10109   4.546   1.002   3.234
 2660SOL    HW110110   4.586   1.001   3.142
 2660SOL    HW210111   4.556   1.094   3.274
 2661SOL     OW10112   4.640   0.910   2.153
 2661SOL    HW110113   4.703   0.948   2.085
 2661SOL    HW210114   4.680   0.827   2.192
 2662SOL     OW10115   4.096   1.288   3.352
 2662SOL    HW110116   4.083   1.381   3.318
 2662SOL    HW210117   4.012   1.236   3.339
 2663SOL     OW10118   4.763   1.098   2.558
 2663SOL    HW110119   4.693   1.051   2.612
 2663SOL    HW210120   4.822   1.030   2.515
 2664SOL     OW10121   4.738   0.236   2.833
 2664SOL    HW110122   4.730   0.200   2.740
 2664SOL    HW210123   4.736   0.160   2.898
 2665SOL     OW10124   4.314   1.487   2.353
 2665SOL    HW110125   4.356   1.429   2.283
 2665SOL    HW210126   4.270   1.566   2.309
 2666SOL     OW10127   3.829   1.013   3.588
 2666SOL    HW110128   3.752   0.980   3.642
 2666SOL    HW210129   3.914   0.983   3.630
 2667SOL     OW10130   3.799   0.345   1.895
 2667SOL    HW110131   3.707   0.317   1.866
 2667SOL    HW210132   3.830   0.422   1.839
 2668SOL     OW10133   5.164   0.856   3.260
 2668SOL    HW110134   5.107   0.908   3.197
 2668SOL    HW210135   5.260   0.868   3.236
 2669SOL     OW10136   3.796   0.166   2.180
 2669SOL    HW110137   3.779   0.249   2.126
 2669SOL    HW210138   3.886   0.129   2.158
 2670SOL     OW10139   4.949   0.325   2.311
 2670SOL    HW110140   5.014   0.251   2.300
 2670SOL    HW210141   4.969   0.375   2.395
 2671SOL     OW10142   4.318   0.745   2.514
 2671SOL    HW110143   4.368   0.830   2.495
 2671SOL    HW210144   4.230   0.747   2.466
 2672SOL     OW10145   4.583   1.374   1.878
 2672SOL    HW110146   4.537   1.389   1.966
 2672SOL    HW210147   4.627   1.459   1.848
 2673SOL     OW10148   4.385   1.790   2.815
 2673SOL    HW110149   4.339   1.878   2.802
 2673SOL    HW210150   4.484   1.802   2.808
 2674SOL     OW10151   4.583   0.956   2.723
 2674SOL    HW110152   4.637   0.887   2.771
 2674SOL    HW210153   4.551   1.025   2.789
 2675SOL     OW10154   4.807   0.984   1.949
 2675SOL    HW110155   4.784   1.037   1.867
 2675SOL    HW210156   4.888   0.928   1.930
 2676SOL     OW10157   3.945   1.314   3.706
 2676SOL    HW110158   3.880   1.241   3.685
 2676SOL    HW210159   3.949   1.328   3.804
 2677SOL     OW10160   4.396   1.391   3.486
 2677SOL    HW110161   4.318   1.341   3.524
 2677SOL    HW210162   4.393   1.486   3.517
 2678SOL     OW10163   4.152   0.424   2.382
 2678SOL    HW110164   4.182   0.352   2.320
 2678SOL    HW210165   4.113   0.384   2.465
 2679SOL     OW10166   4.725   0.034   3.016
 2679SOL    HW110167   4.662  -0.038   2.985
 2679SOL    HW210168   4.818  -0.002   3.016
 2680SOL     OW10169   4.494   1.330   2.163
 2680SOL    HW110170   4.448   1.243   2.180
 2680SOL    HW210171   4.585   1.327   2.204
 2681SOL     OW10172   4.342   1.567   3.146
 2681SOL    HW110173   4.337   1.649   3.203
 2681SOL    HW210174   4.431   1.564   3.101
 2682SOL     OW10175   3.763   1.077   2.162
 2682SOL    HW110176   3.862   1.066   2.153
 2682SOL    HW210177   3.723   0.991   2.194
 2683SOL     OW10178   4.599   1.646   2.199
 2683SOL    HW110179   4.522   1.611   2.145
 2683SOL    HW210180   4.567   1.717   2.261
 2684SOL     OW10181   3.954   0.628   3.837
 2684SOL    HW110182   3.861   0.626   3.874
 2684SOL    HW210183   3.955   0.589   3.745
 2685SOL     OW10184   4.859   0.703   4.441
 2685SOL    HW110185   4.916   0.781   4.416
 2685SOL    HW210186   4.799   0.729   4.517
 2686SOL     OW10187   4.409   1.012   4.389
 2686SOL    HW110188   4.478   0.996   4.459
 2686SOL    HW210189   4.336   1.069   4.427
 2687SOL     OW10190   3.955   1.713   4.207
 2687SOL    HW110191   3.989   1.790   4.261
 2687SOL    HW210192   3.999   1.713   4.117
 2688SOL     OW10193   3.954   1.434   4.262
 2688SOL    HW110194   3.928   1.530   4.262
 2688SOL    HW210195   3.883   1.380   4.307
 2689SOL     OW10196   4.344   1.786   5.163
 2689SOL    HW110197   4.252   1.769   5.198
 2689SOL    HW210198   4.372   1.878   5.189
 2690SOL     OW10199   4.330   0.964   3.847
 2690SOL    HW110200   4.337   1.048   3.793
 2690SOL    HW210201   4.376   0.977   3.935
 2691SOL     OW10202   3.846   0.643   4.287
 2691SOL    HW110203   3.801   0.555   4.304
 2691SOL    HW210204   3.845   0.697   4.371
 2692SOL     OW10205   3.751   1.596   3.841
 2692SOL    HW110206   3.732   1.500   3.862
 2692SOL    HW210207   3.718   1.654   3.916
 2693SOL     OW10208   4.337   1.365   4.450
 2693SOL    HW110209   4.288   1.278   4.459
 2693SOL    HW210210   4.314   1.408   4.363
 2694SOL     OW10211   4.322   0.729   3.994
 2694SOL    HW110212   4.346   0.798   3.926
 2694SOL    HW210213   4.244   0.762   4.048
 2695SOL     OW10214   5.005   0.345   4.668
 2695SOL    HW110215   4.919   0.295   4.655
 2695SOL    HW210216   5.067   0.291   4.724
 2696SOL     OW10217   4.715   0.410   4.966
 2696SOL    HW110218   4.638   0.444   5.020
 2696SOL    HW210219   4.681   0.359   4.887
 2697SOL     OW10220   3.800   0.811   4.513
 2697SOL    HW110221   3.899   0.799   4.522
 2697SOL    HW210222   3.776   0.906   4.534
 2698SOL     OW10223   4.589   0.348   3.919
 2698SOL    HW110224   4.648   0.411   3.870
 2698SOL    HW210225   4.608   0.254   3.890
 2699SOL     OW10226   4.274   0.196   4.609
 2699SOL    HW110227   4.269   0.191   4.709
 2699SOL    HW210228   4.276   0.292   4.580
 2700SOL     OW10229   4.732   1.456   4.201
 2700SOL    HW110230   4.686   1.528   4.149
 2700SOL    HW210231   4.728   1.476   4.299
 2701SOL     OW10232   4.075   1.801   4.577
 2701SOL    HW110233   4.125   1.715   4.583
 2701SOL    HW210234   4.140   1.878   4.574
 2702SOL     OW10235   4.045   0.943   3.966
 2702SOL    HW110236   4.127   0.982   3.924
 2702SOL    HW210237   4.018   0.861   3.917
 2703SOL     OW10238   4.835   1.776   3.961
 2703SOL    HW110239   4.775   1.714   4.011
 2703SOL    HW210240   4.866   1.732   3.876
 2704SOL     OW10241   4.664   1.698   4.628
 2704SOL    HW110242   4.744   1.641   4.649
 2704SOL    HW210243   4.615   1.658   4.551
 2705SOL     OW10244   4.106   0.700   4.204
 2705SOL    HW110245   4.151   0.610   4.201
 2705SOL    HW210246   4.012   0.689   4.237
 2706SOL     OW10247   4.338   0.122   3.841
 2706SOL    HW110248   4.436   0.100   3.848
 2706SOL    HW210249   4.307   0.105   3.748
 2707SOL     OW10250   4.527   1.402   4.648
 2707SOL    HW110251   4.617   1.416   4.606
 2707SOL    HW210252   4.456   1.404   4.577
 2708SOL     OW10253   4.646   0.503   4.623
 2708SOL    HW110254   4.621   0.494   4.527
 2708SOL    HW210255   4.694   0.421   4.654
 2709SOL     OW10256   4.263   0.064   4.236
 2709SOL    HW110257   4.182   0.065   4.294
 2709SOL    HW210258   4.266   0.147   4.181
 2710SOL     OW10259   4.951   1.570   4.517
 2710SOL    HW110260   4.972   1.644   4.452
 2710SOL    HW210261   5.019   1.570   4.590
 2711SOL     OW10262   4.995   1.797   4.315
 2711SOL    HW110263   5.039   1.861   4.251
 2711SOL    HW210264   4.945   1.849   4.385
 2712SOL     OW10265   4.756   0.549   3.740
 2712SOL    HW110266   4.715   0.631   3.701
 2712SOL    HW210267   4.820   0.575   3.813
 2713SOL     OW10268   4.285   0.222   4.871
 2713SOL    HW110269   4.323   0.138   4.908
 2713SOL    HW210270   4.197   0.241   4.915
 2714SOL     OW10271   4.590   0.454   4.366
 2714SOL    HW110272   4.558   0.526   4.304
 2714SOL    HW210273   4.614   0.373   4.313
 2715SOL     OW10274   4.741   0.039   4.477
 2715SOL    HW110275   4.669   0.044   4.408
 2715SOL    HW210276   4.717  -0.030   4.546
 2716SOL     OW10277   4.212   1.385   3.898
 2716SOL    HW110278   4.125   1.370   3.945
 2716SOL    HW210279   4.195   1.411   3.803
 2717SOL     OW10280   5.388   1.280   4.381
 2717SOL    HW110281   5.487   1.288   4.395
 2717SOL    HW210282   5.343   1.364   4.412
 2718SOL     OW10283   4.251   0.256   4.052
 2718SOL    HW110284   4.278   0.197   3.977
 2718SOL    HW210285   4.251   0.351   4.021
 2719SOL     OW10286   5.316   1.629   5.349
 2719SOL    HW110287   5.343   1.663   5.259
 2719SOL    HW210288   5.395   1.591   5.395
 2720SOL     OW10289   4.835   1.195   4.824
 2720SOL    HW110290   4.795   1.239   4.905
 2720SOL    HW210291   4.794   1.232   4.741
 2721SOL     OW10292   4.429   1.050   4.092
 2721SOL    HW110293   4.415   1.057   4.191
 2721SOL    HW210294   4.513   0.999   4.074
 2722SOL     OW10295   4.134   0.813   4.975
 2722SOL    HW110296   4.220   0.825   5.025
 2722SOL    HW210297   4.092   0.726   5.002
 2723SOL     OW10298   4.091   1.100   4.225
 2723SOL    HW110299   4.084   1.183   4.169
 2723SOL    HW210300   4.095   1.020   4.165
 2724SOL     OW10301   4.290   0.537   4.589
 2724SOL    HW110302   4.302   0.603   4.515
 2724SOL    HW210303   4.336   0.571   4.672
 2725SOL     OW10304   4.078   1.510   5.053
 2725SOL    HW110305   4.057   1.466   4.966
 2725SOL    HW210306   4.175   1.536   5.056
 2726SOL     OW10307   5.084   0.862   4.769
 2726SOL    HW110308   5.009   0.862   4.703
 2726SOL    HW210309   5.121   0.770   4.778
 2727SOL     OW10310   4.933   0.525   3.999
 2727SOL    HW110311   4.946   0.441   4.053
 2727SOL    HW210312   4.904   0.599   4.059
 2728SOL     OW10313   4.031   0.213   4.955
 2728SOL    HW110314   4.008   0.250   5.045
 2728SOL    HW210315   4.001   0.118   4.949
 2729SOL     OW10316   3.761   1.310   5.006
 2729SOL    HW110317   3.814   1.261   5.074
 2729SOL    HW210318   3.783   1.408   5.011
 2730SOL     OW10319   4.456   0.634   4.788
 2730SOL    HW110320   4.515   0.608   4.712
 2730SOL    HW210321   4.428   0.730   4.777
 2731SOL     OW10322   4.031   0.063   4.342
 2731SOL    HW110323   4.020   0.157   4.375
 2731SOL    HW210324   4.026   0.000   4.419
 2732SOL     OW10325   5.346   0.367   4.098
 2732SOL    HW110326   5.348   0.291   4.162
 2732SOL    HW210327   5.298   0.444   4.138
 2733SOL     OW10328   4.747   0.766   4.690
 2733SOL    HW110329   4.762   0.787   4.786
 2733SOL    HW210330   4.717   0.671   4.681
 2734SOL     OW10331   5.027   0.838   3.766
 2734SOL    HW110332   5.061   0.745   3.781
 2734SOL    HW210333   5.045   0.865   3.671
 2735SOL     OW10334   4.792   1.333   4.573
 2735SOL    HW110335   4.799   1.249   4.518
 2735SOL    HW210336   4.854   1.402   4.537
 2736SOL     OW10337   4.063   0.509   4.730
 2736SOL    HW110338   4.011   0.426   4.713
 2736SOL    HW210339   4.140   0.514   4.666
 2737SOL     OW10340   4.884   0.207   5.201
 2737SOL    HW110341   4.884   0.271   5.278
 2737SOL    HW210342   4.912   0.255   5.118
 2738SOL     OW10343   3.732   1.326   3.924
 2738SOL    HW110344   3.639   1.347   3.893
 2738SOL    HW210345   3.742   1.227   3.937
 2739SOL     OW10346   4.228   1.568   4.634
 2739SOL    HW110347   4.294   1.642   4.643
 2739SOL    HW210348   4.272   1.489   4.592
 2740SOL     OW10349   4.726   0.796   4.962
 2740SOL    HW110350   4.767   0.764   5.048
 2740SOL    HW210351   4.630   0.769   4.959
 2741SOL     OW10352   4.539   0.572   4.049
 2741SOL    HW110353   4.546   0.483   4.003
 2741SOL    HW210354   4.445   0.606   4.041
 2742SOL     OW10355   4.395   0.464   4.993
 2742SOL    HW110356   4.361   0.375   4.963
 2742SOL    HW210357   4.421   0.518   4.913
 2743SOL     OW10358   4.654   1.678   5.189
 2743SOL    HW110359   4.630   1.660   5.094
 2743SOL    HW210360   4.684   1.772   5.199
 2744SOL     OW10361   4.197   0.500   3.915
 2744SOL    HW110362   4.258   0.580   3.919
 2744SOL    HW210363   4.102   0.531   3.922
 2745SOL     OW10364   5.071   1.059   4.958
 2745SOL    HW110365   5.095   0.996   4.884
 2745SOL    HW210366   4.981   1.099   4.940
 2746SOL     OW10367   4.976   1.731   4.852
 2746SOL    HW110368   5.060   1.736   4.798
 2746SOL    HW210369   4.953   1.635   4.870
 2747SOL     OW10370   5.004   0.927   4.396
 2747SOL    HW110371   5.064   0.846   4.398
 2747SOL    HW210372   5.044   0.996   4.336
 2748SOL     OW10373   4.396   1.616   3.878
 2748SOL    HW110374   4.405   1.626   3.779
 2748SOL    HW210375   4.356   1.527   3.899
 2749SOL     OW10376   4.546   1.002   5.096
 2749SOL    HW110377   4.586   1.001   5.004
 2749SOL    HW210378   4.556   1.094   5.136
 2750SOL     OW10379   4.640   0.910   4.015
 2750SOL    HW110380   4.703   0.948   3.947
 2750SOL    HW210381   4.680   0.827   4.054
 2751SOL     OW10382   4.763   1.098   4.420
 2751SOL    HW110383   4.693   1.051   4.474
 2751SOL    HW210384   4.822   1.030   4.377
 2752SOL     OW10385   4.738   0.236   4.695
 2752SOL    HW110386   4.730   0.200   4.602
 2752SOL    HW210387   4.736   0.160   4.760
 2753SOL     OW10388   4.314   1.487   4.215
 2753SOL    HW110389   4.356   1.429   4.145
 2753SOL    HW210390   4.270   1.566   4.171
 2754SOL     OW10391   3.979   1.348   4.014
 2754SOL    HW110392   3.883   1.349   3.987
 2754SOL    HW210393   3.991   1.401   4.098
 2755SOL     OW10394   3.799   0.345   3.757
 2755SOL    HW110395   3.707   0.317   3.728
 2755SOL    HW210396   3.830   0.422   3.701
 2756SOL     OW10397   3.796   0.166   4.042
 2756SOL    HW110398   3.779   0.249   3.988
 2756SOL    HW210399   3.886   0.129   4.020
 2757SOL     OW10400   4.318   0.745   4.376
 2757SOL    HW110401   4.368   0.830   4.357
 2757SOL    HW210402   4.230   0.747   4.328
 2758SOL     OW10403   4.583   1.374   3.740
 2758SOL    HW110404   4.537   1.389   3.828
 2758SOL    HW210405   4.627   1.459   3.710
 2759SOL     OW10406   4.385   1.790   4.677
 2759SOL    HW110407   4.339   1.878   4.664
 2759SOL    HW210408   4.484   1.802   4.670
 2760SOL     OW10409   4.583   0.956   4.585
 2760SOL    HW110410   4.637   0.887   4.633
 2760SOL    HW210411   4.551   1.025   4.651
 2761SOL     OW10412   4.807   0.984   3.811
 2761SOL    HW110413   4.784   1.037   3.729
 2761SOL    HW210414   4.888   0.928   3.792
 2762SOL     OW10415   4.152   0.424   4.244
 2762SOL    HW110416   4.182   0.352   4.182
 2762SOL    HW210417   4.113   0.384   4.327
 2763SOL     OW10418   4.536   1.586   4.411
 2763SOL    HW110419   4.568   1.596   4.317
 2763SOL    HW210420   4.457   1.524   4.413
 2764SOL     OW10421   4.725   0.034   4.878
 2764SOL    HW110422   4.662  -0.038   4.847
 2764SOL    HW210423   4.818  -0.002   4.878
 2765SOL     OW10424   4.494   1.330   4.025
 2765SOL    HW110425   4.448   1.243   4.042
 2765SOL    HW210426   4.585   1.327   4.066
 2766SOL     OW10427   3.763   1.077   4.024
 2766SOL    HW110428   3.862   1.066   4.015
 2766SOL    HW210429   3.723   0.991   4.056
 2767SOL     OW10430   4.599   1.646   4.061
 2767SOL    HW110431   4.522   1.611   4.007
 2767SOL    HW210432   4.567   1.717   4.123
 2768SOL     OW10433   3.954   2.490   0.113
 2768SOL    HW110434   3.861   2.488   0.150
 2768SOL    HW210435   3.955   2.451   0.021
 2769SOL     OW10436   3.949   2.137   0.996
 2769SOL    HW110437   3.984   2.120   1.088
 2769SOL    HW210438   3.861   2.092   0.984
 2770SOL     OW10439   3.743   2.230   0.647
 2770SOL    HW110440   3.661   2.273   0.686
 2770SOL    HW210441   3.715   2.157   0.584
 2771SOL     OW10442   4.293   3.137   1.165
 2771SOL    HW110443   4.200   3.130   1.128
 2771SOL    HW210444   4.304   3.226   1.209
 2772SOL     OW10445   4.859   2.565   0.717
 2772SOL    HW110446   4.916   2.643   0.692
 2772SOL    HW210447   4.799   2.591   0.793
 2773SOL     OW10448   4.409   2.874   0.665
 2773SOL    HW110449   4.478   2.858   0.735
 2773SOL    HW210450   4.336   2.931   0.703
 2774SOL     OW10451   4.410   3.023   1.803
 2774SOL    HW110452   4.470   3.102   1.817
 2774SOL    HW210453   4.324   3.054   1.762
 2775SOL     OW10454   4.059   3.297   1.061
 2775SOL    HW110455   3.981   3.266   1.008
 2775SOL    HW210456   4.117   3.355   1.004
 2776SOL     OW10457   4.162   2.254   1.499
 2776SOL    HW110458   4.244   2.198   1.508
 2776SOL    HW210459   4.081   2.196   1.503
 2777SOL     OW10460   4.851   3.203   1.690
 2777SOL    HW110461   4.898   3.203   1.778
 2777SOL    HW210462   4.803   3.116   1.679
 2778SOL     OW10463   3.954   3.296   0.538
 2778SOL    HW110464   3.928   3.392   0.538
 2778SOL    HW210465   3.883   3.242   0.583
 2779SOL     OW10466   4.330   2.826   0.123
 2779SOL    HW110467   4.337   2.910   0.069
 2779SOL    HW210468   4.376   2.839   0.211
 2780SOL     OW10469   3.846   2.505   0.563
 2780SOL    HW110470   3.801   2.417   0.580
 2780SOL    HW210471   3.845   2.559   0.647
 2781SOL     OW10472   3.837   2.599   1.597
 2781SOL    HW110473   3.925   2.586   1.642
 2781SOL    HW210474   3.824   2.696   1.575
 2782SOL     OW10475   5.017   3.090   1.423
 2782SOL    HW110476   5.054   3.017   1.365
 2782SOL    HW210477   5.069   3.095   1.508
 2783SOL     OW10478   4.533   1.866   0.502
 2783SOL    HW110479   4.573   1.957   0.493
 2783SOL    HW210480   4.433   1.874   0.508
 2784SOL     OW10481   4.911   3.654   1.616
 2784SOL    HW110482   4.935   3.714   1.540
 2784SOL    HW210483   4.918   3.559   1.586
 2785SOL     OW10484   4.041   2.113   1.801
 2785SOL    HW110485   4.112   2.184   1.807
 2785SOL    HW210486   3.953   2.152   1.829
 2786SOL     OW10487   4.322   2.591   0.270
 2786SOL    HW110488   4.346   2.660   0.202
 2786SOL    HW210489   4.244   2.624   0.324
 2787SOL     OW10490   5.005   2.207   0.944
 2787SOL    HW110491   4.919   2.157   0.931
 2787SOL    HW210492   5.067   2.153   1.000
 2788SOL     OW10493   4.531   2.467   1.465
 2788SOL    HW110494   4.484   2.464   1.554
 2788SOL    HW210495   4.480   2.412   1.399
 2789SOL     OW10496   4.697   2.752   1.572
 2789SOL    HW110497   4.743   2.668   1.543
 2789SOL    HW210498   4.641   2.786   1.497
 2790SOL     OW10499   4.715   2.272   1.242
 2790SOL    HW110500   4.638   2.306   1.296
 2790SOL    HW210501   4.681   2.221   1.163
 2791SOL     OW10502   4.765   2.563   0.429
 2791SOL    HW110503   4.791   2.559   0.525
 2791SOL    HW210504   4.680   2.512   0.415
 2792SOL     OW10505   3.854   3.683   1.571
 2792SOL    HW110506   3.844   3.668   1.670
 2792SOL    HW210507   3.768   3.719   1.535
 2793SOL     OW10508   4.589   2.210   0.195
 2793SOL    HW110509   4.648   2.273   0.146
 2793SOL    HW210510   4.608   2.116   0.166
 2794SOL     OW10511   4.274   2.058   0.885
 2794SOL    HW110512   4.269   2.053   0.985
 2794SOL    HW210513   4.276   2.154   0.856
 2795SOL     OW10514   4.732   3.318   0.477
 2795SOL    HW110515   4.686   3.390   0.425
 2795SOL    HW210516   4.728   3.338   0.575
 2796SOL     OW10517   4.075   3.663   0.853
 2796SOL    HW110518   4.125   3.577   0.859
 2796SOL    HW210519   4.140   3.740   0.850
 2797SOL     OW10520   4.951   3.412   1.506
 2797SOL    HW110521   4.957   3.335   1.570
 2797SOL    HW210522   4.899   3.386   1.426
 2798SOL     OW10523   4.045   2.805   0.242
 2798SOL    HW110524   4.127   2.844   0.200
 2798SOL    HW210525   4.018   2.723   0.193
 2799SOL     OW10526   4.185   3.128   1.727
 2799SOL    HW110527   4.135   3.129   1.641
 2799SOL    HW210528   4.122   3.110   1.803
 2800SOL     OW10529   3.926   2.147   1.498
 2800SOL    HW110530   3.846   2.207   1.485
 2800SOL    HW210531   3.916   2.098   1.584
 2801SOL     OW10532   5.356   3.239   0.081
 2801SOL    HW110533   5.324   3.333   0.071
 2801SOL    HW210534   5.280   3.176   0.069
 2802SOL     OW10535   3.973   3.647   1.241
 2802SOL    HW110536   4.030   3.582   1.291
 2802SOL    HW210537   3.957   3.614   1.148
 2803SOL     OW10538   4.664   3.560   0.904
 2803SOL    HW110539   4.744   3.503   0.925
 2803SOL    HW210540   4.615   3.520   0.827
 2804SOL     OW10541   4.106   2.562   0.480
 2804SOL    HW110542   4.151   2.472   0.477
 2804SOL    HW210543   4.012   2.551   0.513
 2805SOL     OW10544   4.505   2.126   1.749
 2805SOL    HW110545   4.572   2.065   1.792
 2805SOL    HW210546   4.432   2.145   1.814
 2806SOL     OW10547   4.612   3.376   1.195
 2806SOL    HW110548   4.589   3.351   1.101
 2806SOL    HW210549   4.673   3.307   1.234
 2807SOL     OW10550   4.527   3.264   0.924
 2807SOL    HW110551   4.617   3.278   0.882
 2807SOL    HW210552   4.456   3.266   0.853
 2808SOL     OW10553   4.646   2.365   0.899
 2808SOL    HW110554   4.621   2.356   0.803
 2808SOL    HW210555   4.694   2.283   0.930
 2809SOL     OW10556   4.263   1.926   0.512
 2809SOL    HW110557   4.182   1.927   0.570
 2809SOL    HW210558   4.266   2.009   0.457
 2810SOL     OW10559   4.021   1.897   0.171
 2810SOL    HW110560   4.070   1.981   0.150
 2810SOL    HW210561   4.083   1.832   0.216
 2811SOL     OW10562   4.659   2.098   0.480
 2811SOL    HW110563   4.611   2.139   0.402
 2811SOL    HW210564   4.758   2.096   0.461
 2812SOL     OW10565   4.800   2.545   1.464
 2812SOL    HW110566   4.720   2.484   1.467
 2812SOL    HW210567   4.881   2.492   1.440
 2813SOL     OW10568   3.802   2.418   1.386
 2813SOL    HW110569   3.894   2.417   1.345
 2813SOL    HW210570   3.796   2.492   1.453
 2814SOL     OW10571   4.285   2.084   1.147
 2814SOL    HW110572   4.323   2.000   1.184
 2814SOL    HW210573   4.197   2.103   1.191
 2815SOL     OW10574   4.590   2.316   0.642
 2815SOL    HW110575   4.558   2.388   0.580
 2815SOL    HW210576   4.614   2.235   0.589
 2816SOL     OW10577   4.212   3.247   0.174
 2816SOL    HW110578   4.125   3.232   0.221
 2816SOL    HW210579   4.195   3.273   0.079
 2817SOL     OW10580   4.251   2.118   0.328
 2817SOL    HW110581   4.278   2.059   0.253
 2817SOL    HW210582   4.251   2.213   0.297
 2818SOL     OW10583   4.788   3.209   1.340
 2818SOL    HW110584   4.708   3.186   1.395
 2818SOL    HW210585   4.871   3.183   1.389
 2819SOL     OW10586   4.835   3.057   1.100
 2819SOL    HW110587   4.795   3.101   1.181
 2819SOL    HW210588   4.794   3.094   1.017
 2820SOL     OW10589   4.639   1.951   1.402
 2820SOL    HW110590   4.664   1.931   1.307
 2820SOL    HW210591   4.711   2.007   1.444
 2821SOL     OW10592   4.704   2.978   1.719
 2821SOL    HW110593   4.605   2.984   1.729
 2821SOL    HW210594   4.727   2.898   1.663
 2822SOL     OW10595   4.429   2.912   0.368
 2822SOL    HW110596   4.415   2.919   0.467
 2822SOL    HW210597   4.513   2.861   0.350
 2823SOL     OW10598   4.134   2.675   1.251
 2823SOL    HW110599   4.220   2.687   1.301
 2823SOL    HW210600   4.092   2.588   1.278
 2824SOL     OW10601   4.998   2.248   1.262
 2824SOL    HW110602   5.019   2.322   1.326
 2824SOL    HW210603   4.909   2.265   1.219
 2825SOL     OW10604   3.788   3.426   1.331
 2825SOL    HW110605   3.742   3.508   1.297
 2825SOL    HW210606   3.886   3.445   1.340
 2826SOL     OW10607   4.091   2.962   0.501
 2826SOL    HW110608   4.084   3.045   0.445
 2826SOL    HW210609   4.095   2.882   0.441
 2827SOL     OW10610   4.290   2.399   0.865
 2827SOL    HW110611   4.302   2.465   0.791
 2827SOL    HW210612   4.336   2.433   0.948
 2828SOL     OW10613   4.976   3.210   0.388
 2828SOL    HW110614   5.026   3.287   0.428
 2828SOL    HW210615   4.881   3.212   0.420
 2829SOL     OW10616   4.126   2.613   1.598
 2829SOL    HW110617   4.194   2.668   1.551
 2829SOL    HW210618   4.166   2.525   1.625
 2830SOL     OW10619   4.737   1.967   1.770
 2830SOL    HW110620   4.743   2.052   1.718
 2830SOL    HW210621   4.769   1.891   1.713
 2831SOL     OW10622   4.228   1.912   1.740
 2831SOL    HW110623   4.186   1.855   1.670
 2831SOL    HW210624   4.162   1.981   1.772
 2832SOL     OW10625   4.297   2.732   1.029
 2832SOL    HW110626   4.341   2.821   1.020
 2832SOL    HW210627   4.234   2.732   1.106
 2833SOL     OW10628   5.084   2.724   1.045
 2833SOL    HW110629   5.009   2.724   0.979
 2833SOL    HW210630   5.121   2.632   1.054
 2834SOL     OW10631   4.933   2.387   0.275
 2834SOL    HW110632   4.946   2.303   0.329
 2834SOL    HW210633   4.904   2.461   0.335
 2835SOL     OW10634   4.031   2.075   1.231
 2835SOL    HW110635   4.008   2.112   1.321
 2835SOL    HW210636   4.001   1.980   1.225
 2836SOL     OW10637   3.761   3.172   1.282
 2836SOL    HW110638   3.814   3.123   1.350
 2836SOL    HW210639   3.783   3.270   1.287
 2837SOL     OW10640   4.456   2.496   1.064
 2837SOL    HW110641   4.515   2.470   0.988
 2837SOL    HW210642   4.428   2.592   1.053
 2838SOL     OW10643   4.031   1.925   0.618
 2838SOL    HW110644   4.020   2.019   0.651
 2838SOL    HW210645   4.026   1.862   0.695
 2839SOL     OW10646   5.346   2.229   0.374
 2839SOL    HW110647   5.348   2.153   0.438
 2839SOL    HW210648   5.298   2.306   0.414
 2840SOL     OW10649   4.747   2.628   0.966
 2840SOL    HW110650   4.762   2.649   1.062
 2840SOL    HW210651   4.717   2.533   0.957
 2841SOL     OW10652   4.074   2.760   1.804
 2841SOL    HW110653   4.150   2.804   1.852
 2841SOL    HW210654   4.109   2.713   1.722
 2842SOL     OW10655   4.792   3.195   0.849
 2842SOL    HW110656   4.799   3.111   0.794
 2842SOL    HW210657   4.854   3.264   0.813
 2843SOL     OW10658   4.043   2.672   0.949
 2843SOL    HW110659   4.136   2.708   0.954
 2843SOL    HW210660   4.037   2.587   1.001
 2844SOL     OW10661   4.063   2.371   1.006
 2844SOL    HW110662   4.011   2.288   0.989
 2844SOL    HW210663   4.140   2.376   0.942
 2845SOL     OW10664   4.862   2.242   1.678
 2845SOL    HW110665   4.817   2.305   1.742
 2845SOL    HW210666   4.955   2.273   1.661
 2846SOL     OW10667   4.884   2.069   1.477
 2846SOL    HW110668   4.884   2.133   1.554
 2846SOL    HW210669   4.912   2.117   1.394
 2847SOL     OW10670   3.812   3.663   0.927
 2847SOL    HW110671   3.770   3.577   0.900
 2847SOL    HW210672   3.906   3.666   0.893
 2848SOL     OW10673   4.228   3.430   0.910
 2848SOL    HW110674   4.294   3.504   0.919
 2848SOL    HW210675   4.272   3.351   0.868
 2849SOL     OW10676   4.726   2.658   1.238
 2849SOL    HW110677   4.767   2.626   1.324
 2849SOL    HW210678   4.630   2.631   1.235
 2850SOL     OW10679   3.764   2.406   1.114
 2850SOL    HW110680   3.849   2.373   1.073
 2850SOL    HW210681   3.777   2.421   1.212
 2851SOL     OW10682   3.913   2.382   1.722
 2851SOL    HW110683   3.972   2.342   1.652
 2851SOL    HW210684   3.855   2.453   1.681
 2852SOL     OW10685   4.539   2.434   0.325
 2852SOL    HW110686   4.546   2.345   0.279
 2852SOL    HW210687   4.445   2.468   0.317
 2853SOL     OW10688   4.395   2.326   1.269
 2853SOL    HW110689   4.361   2.237   1.239
 2853SOL    HW210690   4.421   2.380   1.189
 2854SOL     OW10691   4.654   3.540   1.465
 2854SOL    HW110692   4.630   3.522   1.370
 2854SOL    HW210693   4.684   3.634   1.475
 2855SOL     OW10694   4.197   2.362   0.191
 2855SOL    HW110695   4.258   2.442   0.195
 2855SOL    HW210696   4.102   2.393   0.198
 2856SOL     OW10697   3.883   2.999   1.466
 2856SOL    HW110698   3.905   2.938   1.542
 2856SOL    HW210699   3.893   2.950   1.380
 2857SOL     OW10700   5.071   2.921   1.234
 2857SOL    HW110701   5.095   2.858   1.160
 2857SOL    HW210702   4.981   2.961   1.216
 2858SOL     OW10703   4.627   1.948   0.133
 2858SOL    HW110704   4.678   1.949   0.047
 2858SOL    HW210705   4.683   1.906   0.204
 2859SOL     OW10706   5.112   3.435   0.477
 2859SOL    HW110707   5.179   3.447   0.403
 2859SOL    HW210708   5.072   3.524   0.500
 2860SOL     OW10709   3.854   3.656   1.851
 2860SOL    HW110710   3.813   3.582   1.904
 2860SOL    HW210711   3.918   3.707   1.909
 2861SOL     OW10712   5.004   2.789   0.672
 2861SOL    HW110713   5.064   2.708   0.674
 2861SOL    HW210714   5.044   2.858   0.612
 2862SOL     OW10715   4.554   3.135   1.422
 2862SOL    HW110716   4.549   3.168   1.517
 2862SOL    HW210717   4.468   3.154   1.376
 2863SOL     OW10718   4.396   3.478   0.154
 2863SOL    HW110719   4.405   3.488   0.055
 2863SOL    HW210720   4.356   3.389   0.175
 2864SOL     OW10721   3.987   2.188   0.720
 2864SOL    HW110722   3.908   2.239   0.686
 2864SOL    HW210723   3.978   2.173   0.818
 2865SOL     OW10724   4.918   3.474   0.031
 2865SOL    HW110725   4.924   3.381   0.068
 2865SOL    HW210726   4.859   3.474  -0.049
 2866SOL     OW10727   4.546   2.864   1.372
 2866SOL    HW110728   4.586   2.863   1.280
 2866SOL    HW210729   4.556   2.956   1.412
 2867SOL     OW10730   4.640   2.772   0.291
 2867SOL    HW110731   4.703   2.810   0.223
 2867SOL    HW210732   4.680   2.689   0.330
 2868SOL     OW10733   4.096   3.150   1.490
 2868SOL    HW110734   4.083   3.243   1.456
 2868SOL    HW210735   4.012   3.098   1.477
 2869SOL     OW10736   4.763   2.960   0.696
 2869SOL    HW110737   4.693   2.913   0.750
 2869SOL    HW210738   4.822   2.892   0.653
 2870SOL     OW10739   4.738   2.098   0.971
 2870SOL    HW110740   4.730   2.062   0.878
 2870SOL    HW210741   4.736   2.022   1.036
 2871SOL     OW10742   3.829   2.875   1.726
 2871SOL    HW110743   3.752   2.842   1.780
 2871SOL    HW210744   3.914   2.845   1.768
 2872SOL     OW10745   4.396   2.065   1.489
 2872SOL    HW110746   4.486   2.049   1.449
 2872SOL    HW210747   4.404   2.070   1.588
 2873SOL     OW10748   5.164   2.718   1.398
 2873SOL    HW110749   5.107   2.770   1.335
 2873SOL    HW210750   5.260   2.730   1.374
 2874SOL     OW10751   3.796   2.028   0.318
 2874SOL    HW110752   3.779   2.111   0.264
 2874SOL    HW210753   3.886   1.991   0.296
 2875SOL     OW10754   4.337   2.704   1.431
 2875SOL    HW110755   4.393   2.785   1.414
 2875SOL    HW210756   4.396   2.624   1.434
 2876SOL     OW10757   4.114   3.603   1.560
 2876SOL    HW110758   4.023   3.644   1.558
 2876SOL    HW210759   4.107   3.509   1.592
 2877SOL     OW10760   4.949   2.187   0.449
 2877SOL    HW110761   5.014   2.113   0.438
 2877SOL    HW210762   4.969   2.237   0.533
 2878SOL     OW10763   4.318   2.607   0.652
 2878SOL    HW110764   4.368   2.692   0.633
 2878SOL    HW210765   4.230   2.609   0.604
 2879SOL     OW10766   4.583   3.236   0.016
 2879SOL    HW110767   4.537   3.251   0.104
 2879SOL    HW210768   4.627   3.321  -0.014
 2880SOL     OW10769   4.385   3.652   0.953
 2880SOL    HW110770   4.339   3.740   0.940
 2880SOL    HW210771   4.484   3.664   0.946
 2881SOL     OW10772   4.583   2.818   0.861
 2881SOL    HW110773   4.637   2.749   0.909
 2881SOL    HW210774   4.551   2.887   0.927
 2882SOL     OW10775   4.807   2.846   0.087
 2882SOL    HW110776   4.784   2.899   0.005
 2882SOL    HW210777   4.888   2.790   0.068
 2883SOL     OW10778   3.945   3.176   1.844
 2883SOL    HW110779   3.880   3.103   1.823
 2883SOL    HW210780   3.949   3.190   1.942
 2884SOL     OW10781   4.152   2.286   0.520
 2884SOL    HW110782   4.182   2.214   0.458
 2884SOL    HW210783   4.113   2.246   0.603
 2885SOL     OW10784   4.041   2.409   1.280
 2885SOL    HW110785   4.079   2.350   1.352
 2885SOL    HW210786   4.081   2.383   1.192
 2886SOL     OW10787   4.725   1.896   1.154
 2886SOL    HW110788   4.662   1.824   1.123
 2886SOL    HW210789   4.818   1.860   1.154
 2887SOL     OW10790   4.494   3.192   0.301
 2887SOL    HW110791   4.448   3.105   0.318
 2887SOL    HW210792   4.585   3.189   0.342
 2888SOL     OW10793   3.763   2.939   0.300
 2888SOL    HW110794   3.862   2.928   0.291
 2888SOL    HW210795   3.723   2.853   0.332
 2889SOL     OW10796   3.954   2.490   1.975
 2889SOL    HW110797   3.861   2.488   2.012
 2889SOL    HW210798   3.955   2.451   1.883
 2890SOL     OW10799   3.949   2.137   2.858
 2890SOL    HW110800   3.984   2.120   2.950
 2890SOL    HW210801   3.861   2.092   2.846
 2891SOL     OW10802   3.743   2.230   2.509
 2891SOL    HW110803   3.661   2.273   2.548
 2891SOL    HW210804   3.715   2.157   2.446
 2892SOL     OW10805   4.859   2.565   2.579
 2892SOL    HW110806   4.916   2.643   2.554
 2892SOL    HW210807   4.799   2.591   2.655
 2893SOL     OW10808   4.492   3.006   2.885
 2893SOL    HW110809   4.414   3.023   2.945
 2893SOL    HW210810   4.526   3.093   2.849
 2894SOL     OW10811   4.574   2.660   3.685
 2894SOL    HW110812   4.570   2.736   3.750
 2894SOL    HW210813   4.596   2.696   3.594
 2895SOL     OW10814   4.409   2.874   2.527
 2895SOL    HW110815   4.478   2.858   2.597
 2895SOL    HW210816   4.336   2.931   2.565
 2896SOL     OW10817   4.410   3.023   3.665
 2896SOL    HW110818   4.470   3.102   3.679
 2896SOL    HW210819   4.324   3.054   3.624
 2897SOL     OW10820   4.162   2.254   3.361
 2897SOL    HW110821   4.244   2.198   3.370
 2897SOL    HW210822   4.081   2.196   3.365
 2898SOL     OW10823   3.955   3.575   2.345
 2898SOL    HW110824   3.989   3.652   2.399
 2898SOL    HW210825   3.999   3.575   2.255
 2899SOL     OW10826   4.851   3.203   3.552
 2899SOL    HW110827   4.898   3.203   3.640
 2899SOL    HW210828   4.803   3.116   3.541
 2900SOL     OW10829   3.954   3.296   2.400
 2900SOL    HW110830   3.928   3.392   2.400
 2900SOL    HW210831   3.883   3.242   2.445
 2901SOL     OW10832   3.964   2.953   2.748
 2901SOL    HW110833   3.978   2.869   2.800
 2901SOL    HW210834   3.909   3.017   2.803
 2902SOL     OW10835   4.330   2.826   1.985
 2902SOL    HW110836   4.337   2.910   1.931
 2902SOL    HW210837   4.376   2.839   2.073
 2903SOL     OW10838   3.846   2.505   2.425
 2903SOL    HW110839   3.801   2.417   2.442
 2903SOL    HW210840   3.845   2.559   2.509
 2904SOL     OW10841   3.751   3.458   1.979
 2904SOL    HW110842   3.732   3.362   2.000
 2904SOL    HW210843   3.718   3.516   2.054
 2905SOL     OW10844   4.337   3.227   2.588
 2905SOL    HW110845   4.288   3.140   2.597
 2905SOL    HW210846   4.314   3.270   2.501
 2906SOL     OW10847   5.017   3.090   3.285
 2906SOL    HW110848   5.054   3.017   3.227
 2906SOL    HW210849   5.069   3.095   3.370
 2907SOL     OW10850   4.911   3.654   3.478
 2907SOL    HW110851   4.935   3.714   3.402
 2907SOL    HW210852   4.918   3.559   3.448
 2908SOL     OW10853   4.041   2.113   3.663
 2908SOL    HW110854   4.112   2.184   3.669
 2908SOL    HW210855   3.953   2.152   3.691
 2909SOL     OW10856   4.322   2.591   2.132
 2909SOL    HW110857   4.346   2.660   2.064
 2909SOL    HW210858   4.244   2.624   2.186
 2910SOL     OW10859   5.005   2.207   2.806
 2910SOL    HW110860   4.919   2.157   2.793
 2910SOL    HW210861   5.067   2.153   2.862
 2911SOL     OW10862   4.531   2.467   3.327
 2911SOL    HW110863   4.484   2.464   3.416
 2911SOL    HW210864   4.480   2.412   3.261
 2912SOL     OW10865   4.697   2.752   3.434
 2912SOL    HW110866   4.743   2.668   3.405
 2912SOL    HW210867   4.641   2.786   3.359
 2913SOL     OW10868   4.715   2.272   3.104
 2913SOL    HW110869   4.638   2.306   3.158
 2913SOL    HW210870   4.681   2.221   3.025
 2914SOL     OW10871   4.765   2.563   2.291
 2914SOL    HW110872   4.791   2.559   2.387
 2914SOL    HW210873   4.680   2.512   2.277
 2915SOL     OW10874   3.800   2.673   2.651
 2915SOL    HW110875   3.899   2.661   2.660
 2915SOL    HW210876   3.776   2.768   2.672
 2916SOL     OW10877   4.589   2.210   2.057
 2916SOL    HW110878   4.648   2.273   2.008
 2916SOL    HW210879   4.608   2.116   2.028
 2917SOL     OW10880   4.732   3.318   2.339
 2917SOL    HW110881   4.686   3.390   2.287
 2917SOL    HW210882   4.728   3.338   2.437
 2918SOL     OW10883   4.075   3.663   2.715
 2918SOL    HW110884   4.125   3.577   2.721
 2918SOL    HW210885   4.140   3.740   2.712
 2919SOL     OW10886   4.951   3.412   3.368
 2919SOL    HW110887   4.957   3.335   3.432
 2919SOL    HW210888   4.899   3.386   3.288
 2920SOL     OW10889   4.045   2.805   2.104
 2920SOL    HW110890   4.127   2.844   2.062
 2920SOL    HW210891   4.018   2.723   2.055
 2921SOL     OW10892   4.185   3.128   3.589
 2921SOL    HW110893   4.135   3.129   3.503
 2921SOL    HW210894   4.122   3.110   3.665
 2922SOL     OW10895   4.835   3.638   2.099
 2922SOL    HW110896   4.775   3.576   2.149
 2922SOL    HW210897   4.866   3.594   2.014
 2923SOL     OW10898   3.926   2.147   3.360
 2923SOL    HW110899   3.846   2.207   3.347
 2923SOL    HW210900   3.916   2.098   3.446
 2924SOL     OW10901   4.664   3.560   2.766
 2924SOL    HW110902   4.744   3.503   2.787
 2924SOL    HW210903   4.615   3.520   2.689
 2925SOL     OW10904   4.106   2.562   2.342
 2925SOL    HW110905   4.151   2.472   2.339
 2925SOL    HW210906   4.012   2.551   2.375
 2926SOL     OW10907   4.338   1.984   1.979
 2926SOL    HW110908   4.436   1.962   1.986
 2926SOL    HW210909   4.307   1.967   1.886
 2927SOL     OW10910   4.505   2.126   3.611
 2927SOL    HW110911   4.572   2.065   3.654
 2927SOL    HW210912   4.432   2.145   3.676
 2928SOL     OW10913   4.612   3.376   3.057
 2928SOL    HW110914   4.589   3.351   2.963
 2928SOL    HW210915   4.673   3.307   3.096
 2929SOL     OW10916   4.527   3.264   2.786
 2929SOL    HW110917   4.617   3.278   2.744
 2929SOL    HW210918   4.456   3.266   2.715
 2930SOL     OW10919   4.646   2.365   2.761
 2930SOL    HW110920   4.621   2.356   2.665
 2930SOL    HW210921   4.694   2.283   2.792
 2931SOL     OW10922   4.021   1.897   2.033
 2931SOL    HW110923   4.070   1.981   2.012
 2931SOL    HW210924   4.083   1.832   2.078
 2932SOL     OW10925   4.659   2.098   2.342
 2932SOL    HW110926   4.611   2.139   2.264
 2932SOL    HW210927   4.758   2.096   2.323
 2933SOL     OW10928   4.800   2.545   3.326
 2933SOL    HW110929   4.720   2.484   3.329
 2933SOL    HW210930   4.881   2.492   3.302
 2934SOL     OW10931   4.951   3.432   2.655
 2934SOL    HW110932   4.972   3.506   2.590
 2934SOL    HW210933   5.019   3.432   2.728
 2935SOL     OW10934   4.285   2.084   3.009
 2935SOL    HW110935   4.323   2.000   3.046
 2935SOL    HW210936   4.197   2.103   3.053
 2936SOL     OW10937   4.590   2.316   2.504
 2936SOL    HW110938   4.558   2.388   2.442
 2936SOL    HW210939   4.614   2.235   2.451
 2937SOL     OW10940   5.388   3.142   2.519
 2937SOL    HW110941   5.487   3.150   2.533
 2937SOL    HW210942   5.343   3.226   2.550
 2938SOL     OW10943   4.251   2.118   2.190
 2938SOL    HW110944   4.278   2.059   2.115
 2938SOL    HW210945   4.251   2.213   2.159
 2939SOL     OW10946   4.788   3.209   3.202
 2939SOL    HW110947   4.708   3.186   3.257
 2939SOL    HW210948   4.871   3.183   3.251
 2940SOL     OW10949   4.835   3.057   2.962
 2940SOL    HW110950   4.795   3.101   3.043
 2940SOL    HW210951   4.794   3.094   2.879
 2941SOL     OW10952   4.639   1.951   3.264
 2941SOL    HW110953   4.664   1.931   3.169
 2941SOL    HW210954   4.711   2.007   3.306
 2942SOL     OW10955   4.704   2.978   3.581
 2942SOL    HW110956   4.605   2.984   3.591
 2942SOL    HW210957   4.727   2.898   3.525
 2943SOL     OW10958   4.429   2.912   2.230
 2943SOL    HW110959   4.415   2.919   2.329
 2943SOL    HW210960   4.513   2.861   2.212
 2944SOL     OW10961   4.998   2.248   3.124
 2944SOL    HW110962   5.019   2.322   3.188
 2944SOL    HW210963   4.909   2.265   3.081
 2945SOL     OW10964   4.091   2.962   2.363
 2945SOL    HW110965   4.084   3.045   2.307
 2945SOL    HW210966   4.095   2.882   2.303
 2946SOL     OW10967   4.290   2.399   2.727
 2946SOL    HW110968   4.302   2.465   2.653
 2946SOL    HW210969   4.336   2.433   2.810
 2947SOL     OW10970   4.976   3.210   2.250
 2947SOL    HW110971   5.026   3.287   2.290
 2947SOL    HW210972   4.881   3.212   2.282
 2948SOL     OW10973   4.737   1.967   3.632
 2948SOL    HW110974   4.743   2.052   3.580
 2948SOL    HW210975   4.769   1.891   3.575
 2949SOL     OW10976   5.084   2.724   2.907
 2949SOL    HW110977   5.009   2.724   2.841
 2949SOL    HW210978   5.121   2.632   2.916
 2950SOL     OW10979   4.933   2.387   2.137
 2950SOL    HW110980   4.946   2.303   2.191
 2950SOL    HW210981   4.904   2.461   2.197
 2951SOL     OW10982   4.031   2.075   3.093
 2951SOL    HW110983   4.008   2.112   3.183
 2951SOL    HW210984   4.001   1.980   3.087
 2952SOL     OW10985   3.761   3.172   3.144
 2952SOL    HW110986   3.814   3.123   3.212
 2952SOL    HW210987   3.783   3.270   3.149
 2953SOL     OW10988   4.456   2.496   2.926
 2953SOL    HW110989   4.515   2.470   2.850
 2953SOL    HW210990   4.428   2.592   2.915
 2954SOL     OW10991   4.031   1.925   2.480
 2954SOL    HW110992   4.020   2.019   2.513
 2954SOL    HW210993   4.026   1.862   2.557
 2955SOL     OW10994   5.346   2.229   2.236
 2955SOL    HW110995   5.348   2.153   2.300
 2955SOL    HW210996   5.298   2.306   2.276
 2956SOL     OW10997   4.747   2.628   2.828
 2956SOL    HW110998   4.762   2.649   2.924
 2956SOL    HW210999   4.717   2.533   2.819
 2957SOL     OW11000   4.704   3.435   3.562
 2957SOL    HW111001   4.684   3.479   3.474
 2957SOL    HW211002   4.743   3.344   3.546
 2958SOL     OW11003   4.792   3.195   2.711
 2958SOL    HW111004   4.799   3.111   2.656
 2958SOL    HW211005   4.854   3.264   2.675
 2959SOL     OW11006   4.862   2.242   3.540
 2959SOL    HW111007   4.817   2.305   3.604
 2959SOL    HW211008   4.955   2.273   3.523
 2960SOL     OW11009   4.884   2.069   3.339
 2960SOL    HW111010   4.884   2.133   3.416
 2960SOL    HW211011   4.912   2.117   3.256
 2961SOL     OW11012   3.732   3.188   2.062
 2961SOL    HW111013   3.639   3.209   2.031
 2961SOL    HW211014   3.742   3.089   2.075
 2962SOL     OW11015   3.812   3.663   2.789
 2962SOL    HW111016   3.770   3.577   2.762
 2962SOL    HW211017   3.906   3.666   2.755
 2963SOL     OW11018   4.228   3.430   2.772
 2963SOL    HW111019   4.294   3.504   2.781
 2963SOL    HW211020   4.272   3.351   2.730
 2964SOL     OW11021   4.726   2.658   3.100
 2964SOL    HW111022   4.767   2.626   3.186
 2964SOL    HW211023   4.630   2.631   3.097
 2965SOL     OW11024   3.913   2.382   3.584
 2965SOL    HW111025   3.972   2.342   3.514
 2965SOL    HW211026   3.855   2.453   3.543
 2966SOL     OW11027   4.539   2.434   2.187
 2966SOL    HW111028   4.546   2.345   2.141
 2966SOL    HW211029   4.445   2.468   2.179
 2967SOL     OW11030   4.395   2.326   3.131
 2967SOL    HW111031   4.361   2.237   3.101
 2967SOL    HW211032   4.421   2.380   3.051
 2968SOL     OW11033   4.654   3.540   3.327
 2968SOL    HW111034   4.630   3.522   3.232
 2968SOL    HW211035   4.684   3.634   3.337
 2969SOL     OW11036   4.197   2.362   2.053
 2969SOL    HW111037   4.258   2.442   2.057
 2969SOL    HW211038   4.102   2.393   2.060
 2970SOL     OW11039   3.883   2.999   3.328
 2970SOL    HW111040   3.905   2.938   3.404
 2970SOL    HW211041   3.893   2.950   3.242
 2971SOL     OW11042   5.071   2.921   3.096
 2971SOL    HW111043   5.095   2.858   3.022
 2971SOL    HW211044   4.981   2.961   3.078
 2972SOL     OW11045   4.976   3.593   2.990
 2972SOL    HW111046   5.060   3.598   2.936
 2972SOL    HW211047   4.953   3.497   3.008
 2973SOL     OW11048   3.807   3.120   2.884
 2973SOL    HW111049   3.802   3.119   2.984
 2973SOL    HW211050   3.724   3.079   2.846
 2974SOL     OW11051   5.112   3.435   2.339
 2974SOL    HW111052   5.179   3.447   2.265
 2974SOL    HW211053   5.072   3.524   2.362
 2975SOL     OW11054   4.554   3.135   3.284
 2975SOL    HW111055   4.549   3.168   3.379
 2975SOL    HW211056   4.468   3.154   3.238
 2976SOL     OW11057   3.987   2.188   2.582
 2976SOL    HW111058   3.908   2.239   2.548
 2976SOL    HW211059   3.978   2.173   2.680
 2977SOL     OW11060   4.918   3.474   1.893
 2977SOL    HW111061   4.924   3.381   1.930
 2977SOL    HW211062   4.859   3.474   1.813
 2978SOL     OW11063   4.546   2.864   3.234
 2978SOL    HW111064   4.586   2.863   3.142
 2978SOL    HW211065   4.556   2.956   3.274
 2979SOL     OW11066   4.096   3.150   3.352
 2979SOL    HW111067   4.083   3.243   3.318
 2979SOL    HW211068   4.012   3.098   3.339
 2980SOL     OW11069   4.763   2.960   2.558
 2980SOL    HW111070   4.693   2.913   2.612
 2980SOL    HW211071   4.822   2.892   2.515
 2981SOL     OW11072   3.829   2.875   3.588
 2981SOL    HW111073   3.752   2.842   3.642
 2981SOL    HW211074   3.914   2.845   3.630
 2982SOL     OW11075   4.396   2.065   3.351
 2982SOL    HW111076   4.486   2.049   3.311
 2982SOL    HW211077   4.404   2.070   3.450
 2983SOL     OW11078   3.799   2.207   1.895
 2983SOL    HW111079   3.707   2.179   1.866
 2983SOL    HW211080   3.830   2.284   1.839
 2984SOL     OW11081   5.164   2.718   3.260
 2984SOL    HW111082   5.107   2.770   3.197
 2984SOL    HW211083   5.260   2.730   3.236
 2985SOL     OW11084   3.796   2.028   2.180
 2985SOL    HW111085   3.779   2.111   2.126
 2985SOL    HW211086   3.886   1.991   2.158
 2986SOL     OW11087   4.440   2.427   3.570
 2986SOL    HW111088   4.459   2.492   3.644
 2986SOL    HW211089   4.500   2.347   3.579
 2987SOL     OW11090   4.114   3.603   3.422
 2987SOL    HW111091   4.023   3.644   3.420
 2987SOL    HW211092   4.107   3.509   3.454
 2988SOL     OW11093   4.949   2.187   2.311
 2988SOL    HW111094   5.014   2.113   2.300
 2988SOL    HW211095   4.969   2.237   2.395
 2989SOL     OW11096   4.318   2.607   2.514
 2989SOL    HW111097   4.368   2.692   2.495
 2989SOL    HW211098   4.230   2.609   2.466
 2990SOL     OW11099   4.583   2.818   2.723
 2990SOL    HW111100   4.637   2.749   2.771
 2990SOL    HW211101   4.551   2.887   2.789
 2991SOL     OW11102   4.807   2.846   1.949
 2991SOL    HW111103   4.784   2.899   1.867
 2991SOL    HW211104   4.888   2.790   1.930
 2992SOL     OW11105   3.803   3.102   2.515
 2992SOL    HW111106   3.802   3.055   2.603
 2992SOL    HW211107   3.885   3.074   2.464
 2993SOL     OW11108   4.152   2.286   2.382
 2993SOL    HW111109   4.182   2.214   2.320
 2993SOL    HW211110   4.113   2.246   2.465
 2994SOL     OW11111   4.536   3.448   2.549
 2994SOL    HW111112   4.568   3.458   2.455
 2994SOL    HW211113   4.457   3.386   2.551
 2995SOL     OW11114   4.494   3.192   2.163
 2995SOL    HW111115   4.448   3.105   2.180
 2995SOL    HW211116   4.585   3.189   2.204
 2996SOL     OW11117   5.076   1.914   2.030
 2996SOL    HW111118   5.111   1.873   1.946
 2996SOL    HW211119   4.986   1.876   2.050
 2997SOL     OW11120   3.763   2.939   2.162
 2997SOL    HW111121   3.862   2.928   2.153
 2997SOL    HW211122   3.723   2.853   2.194
 2998SOL     OW11123   3.954   2.490   3.837
 2998SOL    HW111124   3.861   2.488   3.874
 2998SOL    HW211125   3.955   2.451   3.745
 2999SOL     OW11126   4.293   3.137   4.889
 2999SOL    HW111127   4.200   3.130   4.852
 2999SOL    HW211128   4.304   3.226   4.933
 3000SOL     OW11129   4.859   2.565   4.441
 3000SOL    HW111130   4.916   2.643   4.416
 3000SOL    HW211131   4.799   2.591   4.517
 3001SOL     OW11132   4.492   3.006   4.747
 3001SOL    HW111133   4.414   3.023   4.807
 3001SOL    HW211134   4.526   3.093   4.711
 3002SOL     OW11135   4.409   2.874   4.389
 3002SOL    HW111136   4.478   2.858   4.459
 3002SOL    HW211137   4.336   2.931   4.427
 3003SOL     OW11138   4.059   3.297   4.785
 3003SOL    HW111139   3.981   3.266   4.732
 3003SOL    HW211140   4.117   3.355   4.728
 3004SOL     OW11141   3.954   3.296   4.262
 3004SOL    HW111142   3.928   3.392   4.262
 3004SOL    HW211143   3.883   3.242   4.307
 3005SOL     OW11144   3.964   2.953   4.610
 3005SOL    HW111145   3.978   2.869   4.662
 3005SOL    HW211146   3.909   3.017   4.665
 3006SOL     OW11147   4.344   3.648   5.163
 3006SOL    HW111148   4.252   3.631   5.198
 3006SOL    HW211149   4.372   3.740   5.189
 3007SOL     OW11150   4.330   2.826   3.847
 3007SOL    HW111151   4.337   2.910   3.793
 3007SOL    HW211152   4.376   2.839   3.935
 3008SOL     OW11153   4.337   3.227   4.450
 3008SOL    HW111154   4.288   3.140   4.459
 3008SOL    HW211155   4.314   3.270   4.363
 3009SOL     OW11156   4.533   1.866   4.226
 3009SOL    HW111157   4.573   1.957   4.217
 3009SOL    HW211158   4.433   1.874   4.232
 3010SOL     OW11159   3.921   2.838   4.988
 3010SOL    HW111160   4.010   2.793   4.974
 3010SOL    HW211161   3.848   2.773   4.969
 3011SOL     OW11162   4.322   2.591   3.994
 3011SOL    HW111163   4.346   2.660   3.926
 3011SOL    HW211164   4.244   2.624   4.048
 3012SOL     OW11165   4.715   2.272   4.966
 3012SOL    HW111166   4.638   2.306   5.020
 3012SOL    HW211167   4.681   2.221   4.887
 3013SOL     OW11168   4.765   2.563   4.153
 3013SOL    HW111169   4.791   2.559   4.249
 3013SOL    HW211170   4.680   2.512   4.139
 3014SOL     OW11171   3.800   2.673   4.513
 3014SOL    HW111172   3.899   2.661   4.522
 3014SOL    HW211173   3.776   2.768   4.534
 3015SOL     OW11174   4.589   2.210   3.919
 3015SOL    HW111175   4.648   2.273   3.870
 3015SOL    HW211176   4.608   2.116   3.890
 3016SOL     OW11177   4.274   2.058   4.609
 3016SOL    HW111178   4.269   2.053   4.709
 3016SOL    HW211179   4.276   2.154   4.580
 3017SOL     OW11180   4.732   3.318   4.201
 3017SOL    HW111181   4.686   3.390   4.149
 3017SOL    HW211182   4.728   3.338   4.299
 3018SOL     OW11183   4.075   3.663   4.577
 3018SOL    HW111184   4.125   3.577   4.583
 3018SOL    HW211185   4.140   3.740   4.574
 3019SOL     OW11186   4.045   2.805   3.966
 3019SOL    HW111187   4.127   2.844   3.924
 3019SOL    HW211188   4.018   2.723   3.917
 3020SOL     OW11189   4.835   3.638   3.961
 3020SOL    HW111190   4.775   3.576   4.011
 3020SOL    HW211191   4.866   3.594   3.876
 3021SOL     OW11192   4.188   3.605   4.047
 3021SOL    HW111193   4.221   3.644   4.133
 3021SOL    HW211194   4.264   3.598   3.982
 3022SOL     OW11195   3.973   3.647   4.965
 3022SOL    HW111196   4.030   3.582   5.015
 3022SOL    HW211197   3.957   3.614   4.872
 3023SOL     OW11198   4.664   3.560   4.628
 3023SOL    HW111199   4.744   3.503   4.649
 3023SOL    HW211200   4.615   3.520   4.551
 3024SOL     OW11201   4.338   1.984   3.841
 3024SOL    HW111202   4.436   1.962   3.848
 3024SOL    HW211203   4.307   1.967   3.748
 3025SOL     OW11204   4.527   3.264   4.648
 3025SOL    HW111205   4.617   3.278   4.606
 3025SOL    HW211206   4.456   3.266   4.577
 3026SOL     OW11207   4.646   2.365   4.623
 3026SOL    HW111208   4.621   2.356   4.527
 3026SOL    HW211209   4.694   2.283   4.654
 3027SOL     OW11210   4.263   1.926   4.236
 3027SOL    HW111211   4.182   1.927   4.294
 3027SOL    HW211212   4.266   2.009   4.181
 3028SOL     OW11213   4.659   2.098   4.204
 3028SOL    HW111214   4.611   2.139   4.126
 3028SOL    HW211215   4.758   2.096   4.185
 3029SOL     OW11216   4.951   3.432   4.517
 3029SOL    HW111217   4.972   3.506   4.452
 3029SOL    HW211218   5.019   3.432   4.590
 3030SOL     OW11219   4.183   3.014   4.465
 3030SOL    HW111220   4.112   2.987   4.530
 3030SOL    HW211221   4.157   2.986   4.372
 3031SOL     OW11222   4.995   3.659   4.315
 3031SOL    HW111223   5.039   3.723   4.251
 3031SOL    HW211224   4.945   3.711   4.385
 3032SOL     OW11225   4.756   2.411   3.740
 3032SOL    HW111226   4.715   2.493   3.701
 3032SOL    HW211227   4.820   2.437   3.813
 3033SOL     OW11228   4.285   2.084   4.871
 3033SOL    HW111229   4.323   2.000   4.908
 3033SOL    HW211230   4.197   2.103   4.915
 3034SOL     OW11231   4.590   2.316   4.366
 3034SOL    HW111232   4.558   2.388   4.304
 3034SOL    HW211233   4.614   2.235   4.313
 3035SOL     OW11234   4.741   1.901   4.477
 3035SOL    HW111235   4.669   1.906   4.408
 3035SOL    HW211236   4.717   1.832   4.546
 3036SOL     OW11237   5.388   3.142   4.381
 3036SOL    HW111238   5.487   3.150   4.395
 3036SOL    HW211239   5.343   3.226   4.412
 3037SOL     OW11240   4.251   2.118   4.052
 3037SOL    HW111241   4.278   2.059   3.977
 3037SOL    HW211242   4.251   2.213   4.021
 3038SOL     OW11243   5.316   3.491   5.349
 3038SOL    HW111244   5.343   3.525   5.259
 3038SOL    HW211245   5.395   3.453   5.395
 3039SOL     OW11246   4.835   3.057   4.824
 3039SOL    HW111247   4.795   3.101   4.905
 3039SOL    HW211248   4.794   3.094   4.741
 3040SOL     OW11249   4.429   2.912   4.092
 3040SOL    HW111250   4.415   2.919   4.191
 3040SOL    HW211251   4.513   2.861   4.074
 3041SOL     OW11252   4.134   2.675   4.975
 3041SOL    HW111253   4.220   2.687   5.025
 3041SOL    HW211254   4.092   2.588   5.002
 3042SOL     OW11255   4.091   2.962   4.225
 3042SOL    HW111256   4.084   3.045   4.169
 3042SOL    HW211257   4.095   2.882   4.165
 3043SOL     OW11258   4.290   2.399   4.589
 3043SOL    HW111259   4.302   2.465   4.515
 3043SOL    HW211260   4.336   2.433   4.672
 3044SOL     OW11261   4.976   3.210   4.112
 3044SOL    HW111262   5.026   3.287   4.152
 3044SOL    HW211263   4.881   3.212   4.144
 3045SOL     OW11264   4.078   3.372   5.053
 3045SOL    HW111265   4.057   3.328   4.966
 3045SOL    HW211266   4.175   3.398   5.056
 3046SOL     OW11267   4.297   2.732   4.753
 3046SOL    HW111268   4.341   2.821   4.744
 3046SOL    HW211269   4.234   2.732   4.830
 3047SOL     OW11270   5.084   2.724   4.769
 3047SOL    HW111271   5.009   2.724   4.703
 3047SOL    HW211272   5.121   2.632   4.778
 3048SOL     OW11273   4.933   2.387   3.999
 3048SOL    HW111274   4.946   2.303   4.053
 3048SOL    HW211275   4.904   2.461   4.059
 3049SOL     OW11276   3.761   3.172   5.006
 3049SOL    HW111277   3.814   3.123   5.074
 3049SOL    HW211278   3.783   3.270   5.011
 3050SOL     OW11279   4.456   2.496   4.788
 3050SOL    HW111280   4.515   2.470   4.712
 3050SOL    HW211281   4.428   2.592   4.777
 3051SOL     OW11282   4.031   1.925   4.342
 3051SOL    HW111283   4.020   2.019   4.375
 3051SOL    HW211284   4.026   1.862   4.419
 3052SOL     OW11285   5.346   2.229   4.098
 3052SOL    HW111286   5.348   2.153   4.162
 3052SOL    HW211287   5.298   2.306   4.138
 3053SOL     OW11288   4.747   2.628   4.690
 3053SOL    HW111289   4.762   2.649   4.786
 3053SOL    HW211290   4.717   2.533   4.681
 3054SOL     OW11291   5.027   2.700   3.766
 3054SOL    HW111292   5.061   2.607   3.781
 3054SOL    HW211293   5.045   2.727   3.671
 3055SOL     OW11294   4.792   3.195   4.573
 3055SOL    HW111295   4.799   3.111   4.518
 3055SOL    HW211296   4.854   3.264   4.537
 3056SOL     OW11297   4.043   2.672   4.673
 3056SOL    HW111298   4.136   2.708   4.678
 3056SOL    HW211299   4.037   2.587   4.725
 3057SOL     OW11300   4.063   2.371   4.730
 3057SOL    HW111301   4.011   2.288   4.713
 3057SOL    HW211302   4.140   2.376   4.666
 3058SOL     OW11303   4.884   2.069   5.201
 3058SOL    HW111304   4.884   2.133   5.278
 3058SOL    HW211305   4.912   2.117   5.118
 3059SOL     OW11306   3.812   3.663   4.651
 3059SOL    HW111307   3.770   3.577   4.624
 3059SOL    HW211308   3.906   3.666   4.617
 3060SOL     OW11309   4.228   3.430   4.634
 3060SOL    HW111310   4.294   3.504   4.643
 3060SOL    HW211311   4.272   3.351   4.592
 3061SOL     OW11312   3.764   2.406   4.838
 3061SOL    HW111313   3.849   2.373   4.797
 3061SOL    HW211314   3.777   2.421   4.936
 3062SOL     OW11315   4.539   2.434   4.049
 3062SOL    HW111316   4.546   2.345   4.003
 3062SOL    HW211317   4.445   2.468   4.041
 3063SOL     OW11318   4.395   2.326   4.993
 3063SOL    HW111319   4.361   2.237   4.963
 3063SOL    HW211320   4.421   2.380   4.913
 3064SOL     OW11321   4.654   3.540   5.189
 3064SOL    HW111322   4.630   3.522   5.094
 3064SOL    HW211323   4.684   3.634   5.199
 3065SOL     OW11324   4.197   2.362   3.915
 3065SOL    HW111325   4.258   2.442   3.919
 3065SOL    HW211326   4.102   2.393   3.922
 3066SOL     OW11327   5.071   2.921   4.958
 3066SOL    HW111328   5.095   2.858   4.884
 3066SOL    HW211329   4.981   2.961   4.940
 3067SOL     OW11330   4.976   3.593   4.852
 3067SOL    HW111331   5.060   3.598   4.798
 3067SOL    HW211332   4.953   3.497   4.870
 3068SOL     OW11333   3.807   3.120   4.746
 3068SOL    HW111334   3.802   3.119   4.846
 3068SOL    HW211335   3.724   3.079   4.708
 3069SOL     OW11336   5.112   3.435   4.201
 3069SOL    HW111337   5.179   3.447   4.127
 3069SOL    HW211338   5.072   3.524   4.224
 3070SOL     OW11339   5.004   2.789   4.396
 3070SOL    HW111340   5.064   2.708   4.398
 3070SOL    HW211341   5.044   2.858   4.336
 3071SOL     OW11342   4.918   3.474   3.755
 3071SOL    HW111343   4.924   3.381   3.792
 3071SOL    HW211344   4.859   3.474   3.675
 3072SOL     OW11345   4.546   2.864   5.096
 3072SOL    HW111346   4.586   2.863   5.004
 3072SOL    HW211347   4.556   2.956   5.136
 3073SOL     OW11348   4.640   2.772   4.015
 3073SOL    HW111349   4.703   2.810   3.947
 3073SOL    HW211350   4.680   2.689   4.054
 3074SOL     OW11351   4.763   2.960   4.420
 3074SOL    HW111352   4.693   2.913   4.474
 3074SOL    HW211353   4.822   2.892   4.377
 3075SOL     OW11354   4.314   3.349   4.215
 3075SOL    HW111355   4.356   3.291   4.145
 3075SOL    HW211356   4.270   3.428   4.171
 3076SOL     OW11357   3.979   3.210   4.014
 3076SOL    HW111358   3.883   3.211   3.987
 3076SOL    HW211359   3.991   3.263   4.098
 3077SOL     OW11360   3.799   2.207   3.757
 3077SOL    HW111361   3.707   2.179   3.728
 3077SOL    HW211362   3.830   2.284   3.701
 3078SOL     OW11363   3.796   2.028   4.042
 3078SOL    HW111364   3.779   2.111   3.988
 3078SOL    HW211365   3.886   1.991   4.020
 3079SOL     OW11366   4.949   2.187   4.173
 3079SOL    HW111367   5.014   2.113   4.162
 3079SOL    HW211368   4.969   2.237   4.257
 3080SOL     OW11369   4.318   2.607   4.376
 3080SOL    HW111370   4.368   2.692   4.357
 3080SOL    HW211371   4.230   2.609   4.328
 3081SOL     OW11372   4.583   3.236   3.740
 3081SOL    HW111373   4.537   3.251   3.828
 3081SOL    HW211374   4.627   3.321   3.710
 3082SOL     OW11375   4.385   3.652   4.677
 3082SOL    HW111376   4.339   3.740   4.664
 3082SOL    HW211377   4.484   3.664   4.670
 3083SOL     OW11378   4.583   2.818   4.585
 3083SOL    HW111379   4.637   2.749   4.633
 3083SOL    HW211380   4.551   2.887   4.651
 3084SOL     OW11381   4.807   2.846   3.811
 3084SOL    HW111382   4.784   2.899   3.729
 3084SOL    HW211383   4.888   2.790   3.792
 3085SOL     OW11384   3.803   3.102   4.377
 3085SOL    HW111385   3.802   3.055   4.465
 3085SOL    HW211386   3.885   3.074   4.326
 3086SOL     OW11387   4.152   2.286   4.244
 3086SOL    HW111388   4.182   2.214   4.182
 3086SOL    HW211389   4.113   2.246   4.327
 3087SOL     OW11390   4.536   3.448   4.411
 3087SOL    HW111391   4.568   3.458   4.317
 3087SOL    HW211392   4.457   3.386   4.413
 3088SOL     OW11393   4.725   1.896   4.878
 3088SOL    HW111394   4.662   1.824   4.847
 3088SOL    HW211395   4.818   1.860   4.878
 3089SOL     OW11396   4.494   3.192   4.025
 3089SOL    HW111397   4.448   3.105   4.042
 3089SOL    HW211398   4.585   3.189   4.066
 3090SOL     OW11399   5.076   1.914   3.892
 3090SOL    HW111400   5.111   1.873   3.808
 3090SOL    HW211401   4.986   1.876   3.912
 3091SOL     OW11402   3.763   2.939   4.024
 3091SOL    HW111403   3.862   2.928   4.015
 3091SOL    HW211404   3.723   2.853   4.056
 3092SOL     OW11405   4.599   3.508   4.061
 3092SOL    HW111406   4.522   3.473   4.007
 3092SOL    HW211407   4.567   3.579   4.123
 3093SOL     OW11408   3.954   4.352   0.113
 3093SOL    HW111409   3.861   4.350   0.150
 3093SOL    HW211410   3.955   4.313   0.021
 3094SOL     OW11411   3.743   4.092   0.647
 3094SOL    HW111412   3.661   4.135   0.686
 3094SOL    HW211413   3.715   4.019   0.584
 3095SOL     OW11414   4.293   4.999   1.165
 3095SOL    HW111415   4.200   4.992   1.128
 3095SOL    HW211416   4.304   5.088   1.209
 3096SOL     OW11417   4.859   4.427   0.717
 3096SOL    HW111418   4.916   4.505   0.692
 3096SOL    HW211419   4.799   4.453   0.793
 3097SOL     OW11420   4.492   4.868   1.023
 3097SOL    HW111421   4.414   4.885   1.083
 3097SOL    HW211422   4.526   4.955   0.987
 3098SOL     OW11423   4.574   4.522   1.823
 3098SOL    HW111424   4.570   4.598   1.888
 3098SOL    HW211425   4.596   4.558   1.732
 3099SOL     OW11426   4.409   4.736   0.665
 3099SOL    HW111427   4.478   4.720   0.735
 3099SOL    HW211428   4.336   4.793   0.703
 3100SOL     OW11429   4.410   4.885   1.803
 3100SOL    HW111430   4.470   4.964   1.817
 3100SOL    HW211431   4.324   4.916   1.762
 3101SOL     OW11432   4.059   5.159   1.061
 3101SOL    HW111433   3.981   5.128   1.008
 3101SOL    HW211434   4.117   5.217   1.004
 3102SOL     OW11435   3.846   4.367   0.563
 3102SOL    HW111436   3.801   4.279   0.580
 3102SOL    HW211437   3.845   4.421   0.647
 3103SOL     OW11438   3.837   4.461   1.597
 3103SOL    HW111439   3.925   4.448   1.642
 3103SOL    HW211440   3.824   4.558   1.575
 3104SOL     OW11441   4.041   3.975   1.801
 3104SOL    HW111442   4.112   4.046   1.807
 3104SOL    HW211443   3.953   4.014   1.829
 3105SOL     OW11444   4.322   4.453   0.270
 3105SOL    HW111445   4.346   4.522   0.202
 3105SOL    HW211446   4.244   4.486   0.324
 3106SOL     OW11447   4.697   4.614   1.572
 3106SOL    HW111448   4.743   4.530   1.543
 3106SOL    HW211449   4.641   4.648   1.497
 3107SOL     OW11450   4.715   4.134   1.242
 3107SOL    HW111451   4.638   4.168   1.296
 3107SOL    HW211452   4.681   4.083   1.163
 3108SOL     OW11453   4.765   4.425   0.429
 3108SOL    HW111454   4.791   4.421   0.525
 3108SOL    HW211455   4.680   4.374   0.415
 3109SOL     OW11456   4.274   3.920   0.885
 3109SOL    HW111457   4.269   3.915   0.985
 3109SOL    HW211458   4.276   4.016   0.856
 3110SOL     OW11459   4.045   4.667   0.242
 3110SOL    HW111460   4.127   4.706   0.200
 3110SOL    HW211461   4.018   4.585   0.193
 3111SOL     OW11462   3.926   4.009   1.498
 3111SOL    HW111463   3.846   4.069   1.485
 3111SOL    HW211464   3.916   3.960   1.584
 3112SOL     OW11465   4.106   4.424   0.480
 3112SOL    HW111466   4.151   4.334   0.477
 3112SOL    HW211467   4.012   4.413   0.513
 3113SOL     OW11468   4.505   3.988   1.749
 3113SOL    HW111469   4.572   3.927   1.792
 3113SOL    HW211470   4.432   4.007   1.814
 3114SOL     OW11471   4.527   5.126   0.924
 3114SOL    HW111472   4.617   5.140   0.882
 3114SOL    HW211473   4.456   5.128   0.853
 3115SOL     OW11474   4.646   4.227   0.899
 3115SOL    HW111475   4.621   4.218   0.803
 3115SOL    HW211476   4.694   4.145   0.930
 3116SOL     OW11477   4.183   4.876   0.741
 3116SOL    HW111478   4.112   4.849   0.806
 3116SOL    HW211479   4.157   4.848   0.648
 3117SOL     OW11480   4.756   4.273   0.016
 3117SOL    HW111481   4.715   4.355  -0.023
 3117SOL    HW211482   4.820   4.299   0.089
 3118SOL     OW11483   4.285   3.946   1.147
 3118SOL    HW111484   4.323   3.862   1.184
 3118SOL    HW211485   4.197   3.965   1.191
 3119SOL     OW11486   4.590   4.178   0.642
 3119SOL    HW111487   4.558   4.250   0.580
 3119SOL    HW211488   4.614   4.097   0.589
 3120SOL     OW11489   4.741   3.763   0.753
 3120SOL    HW111490   4.669   3.768   0.684
 3120SOL    HW211491   4.717   3.694   0.822
 3121SOL     OW11492   4.639   3.813   1.402
 3121SOL    HW111493   4.664   3.793   1.307
 3121SOL    HW211494   4.711   3.869   1.444
 3122SOL     OW11495   4.704   4.840   1.719
 3122SOL    HW111496   4.605   4.846   1.729
 3122SOL    HW211497   4.727   4.760   1.663
 3123SOL     OW11498   4.429   4.774   0.368
 3123SOL    HW111499   4.415   4.781   0.467
 3123SOL    HW211500   4.513   4.723   0.350
 3124SOL     OW11501   4.998   4.110   1.262
 3124SOL    HW111502   5.019   4.184   1.326
 3124SOL    HW211503   4.909   4.127   1.219
 3125SOL     OW11504   4.091   4.824   0.501
 3125SOL    HW111505   4.084   4.907   0.445
 3125SOL    HW211506   4.095   4.744   0.441
 3126SOL     OW11507   4.290   4.261   0.865
 3126SOL    HW111508   4.302   4.327   0.791
 3126SOL    HW211509   4.336   4.295   0.948
 3127SOL     OW11510   4.976   5.072   0.388
 3127SOL    HW111511   5.026   5.149   0.428
 3127SOL    HW211512   4.881   5.074   0.420
 3128SOL     OW11513   4.126   4.475   1.598
 3128SOL    HW111514   4.194   4.530   1.551
 3128SOL    HW211515   4.166   4.387   1.625
 3129SOL     OW11516   4.228   3.774   1.740
 3129SOL    HW111517   4.186   3.717   1.670
 3129SOL    HW211518   4.162   3.843   1.772
 3130SOL     OW11519   5.084   4.586   1.045
 3130SOL    HW111520   5.009   4.586   0.979
 3130SOL    HW211521   5.121   4.494   1.054
 3131SOL     OW11522   4.933   4.249   0.275
 3131SOL    HW111523   4.946   4.165   0.329
 3131SOL    HW211524   4.904   4.323   0.335
 3132SOL     OW11525   4.456   4.358   1.064
 3132SOL    HW111526   4.515   4.332   0.988
 3132SOL    HW211527   4.428   4.454   1.053
 3133SOL     OW11528   4.031   3.787   0.618
 3133SOL    HW111529   4.020   3.881   0.651
 3133SOL    HW211530   4.026   3.724   0.695
 3134SOL     OW11531   4.747   4.490   0.966
 3134SOL    HW111532   4.762   4.511   1.062
 3134SOL    HW211533   4.717   4.395   0.957
 3135SOL     OW11534   4.074   4.622   1.804
 3135SOL    HW111535   4.150   4.666   1.852
 3135SOL    HW211536   4.109   4.575   1.722
 3136SOL     OW11537   5.027   4.562   0.042
 3136SOL    HW111538   5.061   4.469   0.057
 3136SOL    HW211539   5.045   4.589  -0.053
 3137SOL     OW11540   4.862   4.104   1.678
 3137SOL    HW111541   4.817   4.167   1.742
 3137SOL    HW211542   4.955   4.135   1.661
 3138SOL     OW11543   4.884   3.931   1.477
 3138SOL    HW111544   4.884   3.995   1.554
 3138SOL    HW211545   4.912   3.979   1.394
 3139SOL     OW11546   4.726   4.520   1.238
 3139SOL    HW111547   4.767   4.488   1.324
 3139SOL    HW211548   4.630   4.493   1.235
 3140SOL     OW11549   3.913   4.244   1.722
 3140SOL    HW111550   3.972   4.204   1.652
 3140SOL    HW211551   3.855   4.315   1.681
 3141SOL     OW11552   4.197   4.224   0.191
 3141SOL    HW111553   4.258   4.304   0.195
 3141SOL    HW211554   4.102   4.255   0.198
 3142SOL     OW11555   3.883   4.861   1.466
 3142SOL    HW111556   3.905   4.800   1.542
 3142SOL    HW211557   3.893   4.812   1.380
 3143SOL     OW11558   3.807   4.982   1.022
 3143SOL    HW111559   3.802   4.981   1.122
 3143SOL    HW211560   3.724   4.941   0.984
 3144SOL     OW11561   5.004   4.651   0.672
 3144SOL    HW111562   5.064   4.570   0.674
 3144SOL    HW211563   5.044   4.720   0.612
 3145SOL     OW11564   4.554   4.997   1.422
 3145SOL    HW111565   4.549   5.030   1.517
 3145SOL    HW211566   4.468   5.016   1.376
 3146SOL     OW11567   3.987   4.050   0.720
 3146SOL    HW111568   3.908   4.101   0.686
 3146SOL    HW211569   3.978   4.035   0.818
 3147SOL     OW11570   4.546   4.726   1.372
 3147SOL    HW111571   4.586   4.725   1.280
 3147SOL    HW211572   4.556   4.818   1.412
 3148SOL     OW11573   4.640   4.634   0.291
 3148SOL    HW111574   4.703   4.672   0.223
 3148SOL    HW211575   4.680   4.551   0.330
 3149SOL     OW11576   4.096   5.012   1.490
 3149SOL    HW111577   4.083   5.105   1.456
 3149SOL    HW211578   4.012   4.960   1.477
 3150SOL     OW11579   4.763   4.822   0.696
 3150SOL    HW111580   4.693   4.775   0.750
 3150SOL    HW211581   4.822   4.754   0.653
 3151SOL     OW11582   4.738   3.960   0.971
 3151SOL    HW111583   4.730   3.924   0.878
 3151SOL    HW211584   4.736   3.884   1.036
 3152SOL     OW11585   3.829   4.737   1.726
 3152SOL    HW111586   3.752   4.704   1.780
 3152SOL    HW211587   3.914   4.707   1.768
 3153SOL     OW11588   4.396   3.927   1.489
 3153SOL    HW111589   4.486   3.911   1.449
 3153SOL    HW211590   4.404   3.932   1.588
 3154SOL     OW11591   5.164   4.580   1.398
 3154SOL    HW111592   5.107   4.632   1.335
 3154SOL    HW211593   5.260   4.592   1.374
 3155SOL     OW11594   3.796   3.890   0.318
 3155SOL    HW111595   3.779   3.973   0.264
 3155SOL    HW211596   3.886   3.853   0.296
 3156SOL     OW11597   4.440   4.289   1.708
 3156SOL    HW111598   4.459   4.354   1.782
 3156SOL    HW211599   4.500   4.209   1.717
 3157SOL     OW11600   5.174   4.944   1.633
 3157SOL    HW111601   5.165   4.934   1.732
 3157SOL    HW211602   5.270   4.937   1.607
 3158SOL     OW11603   4.949   4.049   0.449
 3158SOL    HW111604   5.014   3.975   0.438
 3158SOL    HW211605   4.969   4.099   0.533
 3159SOL     OW11606   4.318   4.469   0.652
 3159SOL    HW111607   4.368   4.554   0.633
 3159SOL    HW211608   4.230   4.471   0.604
 3160SOL     OW11609   4.583   4.680   0.861
 3160SOL    HW111610   4.637   4.611   0.909
 3160SOL    HW211611   4.551   4.749   0.927
 3161SOL     OW11612   4.807   4.708   0.087
 3161SOL    HW111613   4.784   4.761   0.005
 3161SOL    HW211614   4.888   4.652   0.068
 3162SOL     OW11615   4.152   4.148   0.520
 3162SOL    HW111616   4.182   4.076   0.458
 3162SOL    HW211617   4.113   4.108   0.603
 3163SOL     OW11618   4.494   5.054   0.301
 3163SOL    HW111619   4.448   4.967   0.318
 3163SOL    HW211620   4.585   5.051   0.342
 3164SOL     OW11621   3.954   4.352   1.975
 3164SOL    HW111622   3.861   4.350   2.012
 3164SOL    HW211623   3.955   4.313   1.883
 3165SOL     OW11624   3.949   3.999   2.858
 3165SOL    HW111625   3.984   3.982   2.950
 3165SOL    HW211626   3.861   3.954   2.846
 3166SOL     OW11627   3.743   4.092   2.509
 3166SOL    HW111628   3.661   4.135   2.548
 3166SOL    HW211629   3.715   4.019   2.446
 3167SOL     OW11630   4.492   4.868   2.885
 3167SOL    HW111631   4.414   4.885   2.945
 3167SOL    HW211632   4.526   4.955   2.849
 3168SOL     OW11633   4.574   4.522   3.685
 3168SOL    HW111634   4.570   4.598   3.750
 3168SOL    HW211635   4.596   4.558   3.594
 3169SOL     OW11636   4.409   4.736   2.527
 3169SOL    HW111637   4.478   4.720   2.597
 3169SOL    HW211638   4.336   4.793   2.565
 3170SOL     OW11639   4.410   4.885   3.665
 3170SOL    HW111640   4.470   4.964   3.679
 3170SOL    HW211641   4.324   4.916   3.624
 3171SOL     OW11642   4.059   5.159   2.923
 3171SOL    HW111643   3.981   5.128   2.870
 3171SOL    HW211644   4.117   5.217   2.866
 3172SOL     OW11645   4.162   4.116   3.361
 3172SOL    HW111646   4.244   4.060   3.370
 3172SOL    HW211647   4.081   4.058   3.365
 3173SOL     OW11648   3.964   4.815   2.748
 3173SOL    HW111649   3.978   4.731   2.800
 3173SOL    HW211650   3.909   4.879   2.803
 3174SOL     OW11651   4.330   4.688   1.985
 3174SOL    HW111652   4.337   4.772   1.931
 3174SOL    HW211653   4.376   4.701   2.073
 3175SOL     OW11654   3.846   4.367   2.425
 3175SOL    HW111655   3.801   4.279   2.442
 3175SOL    HW211656   3.845   4.421   2.509
 3176SOL     OW11657   3.837   4.461   3.459
 3176SOL    HW111658   3.925   4.448   3.504
 3176SOL    HW211659   3.824   4.558   3.437
 3177SOL     OW11660   5.017   4.952   3.285
 3177SOL    HW111661   5.054   4.879   3.227
 3177SOL    HW211662   5.069   4.957   3.370
 3178SOL     OW11663   4.533   3.728   2.364
 3178SOL    HW111664   4.573   3.819   2.355
 3178SOL    HW211665   4.433   3.736   2.370
 3179SOL     OW11666   3.921   4.700   3.126
 3179SOL    HW111667   4.010   4.655   3.112
 3179SOL    HW211668   3.848   4.635   3.107
 3180SOL     OW11669   4.041   3.975   3.663
 3180SOL    HW111670   4.112   4.046   3.669
 3180SOL    HW211671   3.953   4.014   3.691
 3181SOL     OW11672   4.322   4.453   2.132
 3181SOL    HW111673   4.346   4.522   2.064
 3181SOL    HW211674   4.244   4.486   2.186
 3182SOL     OW11675   5.005   4.069   2.806
 3182SOL    HW111676   4.919   4.019   2.793
 3182SOL    HW211677   5.067   4.015   2.862
 3183SOL     OW11678   4.531   4.329   3.327
 3183SOL    HW111679   4.484   4.326   3.416
 3183SOL    HW211680   4.480   4.274   3.261
 3184SOL     OW11681   4.697   4.614   3.434
 3184SOL    HW111682   4.743   4.530   3.405
 3184SOL    HW211683   4.641   4.648   3.359
 3185SOL     OW11684   4.715   4.134   3.104
 3185SOL    HW111685   4.638   4.168   3.158
 3185SOL    HW211686   4.681   4.083   3.025
 3186SOL     OW11687   3.800   4.535   2.651
 3186SOL    HW111688   3.899   4.523   2.660
 3186SOL    HW211689   3.776   4.630   2.672
 3187SOL     OW11690   4.274   3.920   2.747
 3187SOL    HW111691   4.269   3.915   2.847
 3187SOL    HW211692   4.276   4.016   2.718
 3188SOL     OW11693   4.045   4.667   2.104
 3188SOL    HW111694   4.127   4.706   2.062
 3188SOL    HW211695   4.018   4.585   2.055
 3189SOL     OW11696   3.926   4.009   3.360
 3189SOL    HW111697   3.846   4.069   3.347
 3189SOL    HW211698   3.916   3.960   3.446
 3190SOL     OW11699   4.106   4.424   2.342
 3190SOL    HW111700   4.151   4.334   2.339
 3190SOL    HW211701   4.012   4.413   2.375
 3191SOL     OW11702   4.338   3.846   1.979
 3191SOL    HW111703   4.436   3.824   1.986
 3191SOL    HW211704   4.307   3.829   1.886
 3192SOL     OW11705   4.505   3.988   3.611
 3192SOL    HW111706   4.572   3.927   3.654
 3192SOL    HW211707   4.432   4.007   3.676
 3193SOL     OW11708   4.527   5.126   2.786
 3193SOL    HW111709   4.617   5.140   2.744
 3193SOL    HW211710   4.456   5.128   2.715
 3194SOL     OW11711   4.646   4.227   2.761
 3194SOL    HW111712   4.621   4.218   2.665
 3194SOL    HW211713   4.694   4.145   2.792
 3195SOL     OW11714   4.263   3.788   2.374
 3195SOL    HW111715   4.182   3.789   2.432
 3195SOL    HW211716   4.266   3.871   2.319
 3196SOL     OW11717   5.158   4.912   1.903
 3196SOL    HW111718   5.190   4.836   1.960
 3196SOL    HW211719   5.066   4.939   1.933
 3197SOL     OW11720   4.021   3.759   2.033
 3197SOL    HW111721   4.070   3.843   2.012
 3197SOL    HW211722   4.083   3.694   2.078
 3198SOL     OW11723   4.800   4.407   3.326
 3198SOL    HW111724   4.720   4.346   3.329
 3198SOL    HW211725   4.881   4.354   3.302
 3199SOL     OW11726   4.951   5.294   2.655
 3199SOL    HW111727   4.972   5.368   2.590
 3199SOL    HW211728   5.019   5.294   2.728
 3200SOL     OW11729   4.183   4.876   2.603
 3200SOL    HW111730   4.112   4.849   2.668
 3200SOL    HW211731   4.157   4.848   2.510
 3201SOL     OW11732   4.756   4.273   1.878
 3201SOL    HW111733   4.715   4.355   1.839
 3201SOL    HW211734   4.820   4.299   1.951
 3202SOL     OW11735   3.802   4.280   3.248
 3202SOL    HW111736   3.894   4.279   3.207
 3202SOL    HW211737   3.796   4.354   3.315
 3203SOL     OW11738   4.285   3.946   3.009
 3203SOL    HW111739   4.323   3.862   3.046
 3203SOL    HW211740   4.197   3.965   3.053
 3204SOL     OW11741   4.590   4.178   2.504
 3204SOL    HW111742   4.558   4.250   2.442
 3204SOL    HW211743   4.614   4.097   2.451
 3205SOL     OW11744   4.251   3.980   2.190
 3205SOL    HW111745   4.278   3.921   2.115
 3205SOL    HW211746   4.251   4.075   2.159
 3206SOL     OW11747   4.639   3.813   3.264
 3206SOL    HW111748   4.664   3.793   3.169
 3206SOL    HW211749   4.711   3.869   3.306
 3207SOL     OW11750   4.704   4.840   3.581
 3207SOL    HW111751   4.605   4.846   3.591
 3207SOL    HW211752   4.727   4.760   3.525
 3208SOL     OW11753   4.429   4.774   2.230
 3208SOL    HW111754   4.415   4.781   2.329
 3208SOL    HW211755   4.513   4.723   2.212
 3209SOL     OW11756   4.134   4.537   3.113
 3209SOL    HW111757   4.220   4.549   3.163
 3209SOL    HW211758   4.092   4.450   3.140
 3210SOL     OW11759   4.998   4.110   3.124
 3210SOL    HW111760   5.019   4.184   3.188
 3210SOL    HW211761   4.909   4.127   3.081
 3211SOL     OW11762   4.091   4.824   2.363
 3211SOL    HW111763   4.084   4.907   2.307
 3211SOL    HW211764   4.095   4.744   2.303
 3212SOL     OW11765   4.290   4.261   2.727
 3212SOL    HW111766   4.302   4.327   2.653
 3212SOL    HW211767   4.336   4.295   2.810
 3213SOL     OW11768   4.976   5.072   2.250
 3213SOL    HW111769   5.026   5.149   2.290
 3213SOL    HW211770   4.881   5.074   2.282
 3214SOL     OW11771   4.126   4.475   3.460
 3214SOL    HW111772   4.194   4.530   3.413
 3214SOL    HW211773   4.166   4.387   3.487
 3215SOL     OW11774   4.737   3.829   3.632
 3215SOL    HW111775   4.743   3.914   3.580
 3215SOL    HW211776   4.769   3.753   3.575
 3216SOL     OW11777   4.228   3.774   3.602
 3216SOL    HW111778   4.186   3.717   3.532
 3216SOL    HW211779   4.162   3.843   3.634
 3217SOL     OW11780   4.297   4.594   2.891
 3217SOL    HW111781   4.341   4.683   2.882
 3217SOL    HW211782   4.234   4.594   2.968
 3218SOL     OW11783   5.084   4.586   2.907
 3218SOL    HW111784   5.009   4.586   2.841
 3218SOL    HW211785   5.121   4.494   2.916
 3219SOL     OW11786   4.456   4.358   2.926
 3219SOL    HW111787   4.515   4.332   2.850
 3219SOL    HW211788   4.428   4.454   2.915
 3220SOL     OW11789   4.031   3.787   2.480
 3220SOL    HW111790   4.020   3.881   2.513
 3220SOL    HW211791   4.026   3.724   2.557
 3221SOL     OW11792   5.346   4.091   2.236
 3221SOL    HW111793   5.348   4.015   2.300
 3221SOL    HW211794   5.298   4.168   2.276
 3222SOL     OW11795   4.747   4.490   2.828
 3222SOL    HW111796   4.762   4.511   2.924
 3222SOL    HW211797   4.717   4.395   2.819
 3223SOL     OW11798   4.074   4.622   3.666
 3223SOL    HW111799   4.150   4.666   3.714
 3223SOL    HW211800   4.109   4.575   3.584
 3224SOL     OW11801   5.027   4.562   1.904
 3224SOL    HW111802   5.061   4.469   1.919
 3224SOL    HW211803   5.045   4.589   1.809
 3225SOL     OW11804   4.043   4.534   2.811
 3225SOL    HW111805   4.136   4.570   2.816
 3225SOL    HW211806   4.037   4.449   2.863
 3226SOL     OW11807   4.063   4.233   2.868
 3226SOL    HW111808   4.011   4.150   2.851
 3226SOL    HW211809   4.140   4.238   2.804
 3227SOL     OW11810   4.862   4.104   3.540
 3227SOL    HW111811   4.817   4.167   3.604
 3227SOL    HW211812   4.955   4.135   3.523
 3228SOL     OW11813   4.884   3.931   3.339
 3228SOL    HW111814   4.884   3.995   3.416
 3228SOL    HW211815   4.912   3.979   3.256
 3229SOL     OW11816   3.732   5.050   2.062
 3229SOL    HW111817   3.639   5.071   2.031
 3229SOL    HW211818   3.742   4.951   2.075
 3230SOL     OW11819   4.726   4.520   3.100
 3230SOL    HW111820   4.767   4.488   3.186
 3230SOL    HW211821   4.630   4.493   3.097
 3231SOL     OW11822   3.764   4.268   2.976
 3231SOL    HW111823   3.849   4.235   2.935
 3231SOL    HW211824   3.777   4.283   3.074
 3232SOL     OW11825   3.913   4.244   3.584
 3232SOL    HW111826   3.972   4.204   3.514
 3232SOL    HW211827   3.855   4.315   3.543
 3233SOL     OW11828   4.539   4.296   2.187
 3233SOL    HW111829   4.546   4.207   2.141
 3233SOL    HW211830   4.445   4.330   2.179
 3234SOL     OW11831   4.395   4.188   3.131
 3234SOL    HW111832   4.361   4.099   3.101
 3234SOL    HW211833   4.421   4.242   3.051
 3235SOL     OW11834   4.197   4.224   2.053
 3235SOL    HW111835   4.258   4.304   2.057
 3235SOL    HW211836   4.102   4.255   2.060
 3236SOL     OW11837   5.071   4.783   3.096
 3236SOL    HW111838   5.095   4.720   3.022
 3236SOL    HW211839   4.981   4.823   3.078
 3237SOL     OW11840   4.554   4.997   3.284
 3237SOL    HW111841   4.549   5.030   3.379
 3237SOL    HW211842   4.468   5.016   3.238
 3238SOL     OW11843   3.987   4.050   2.582
 3238SOL    HW111844   3.908   4.101   2.548
 3238SOL    HW211845   3.978   4.035   2.680
 3239SOL     OW11846   4.918   5.336   1.893
 3239SOL    HW111847   4.924   5.243   1.930
 3239SOL    HW211848   4.859   5.336   1.813
 3240SOL     OW11849   4.546   4.726   3.234
 3240SOL    HW111850   4.586   4.725   3.142
 3240SOL    HW211851   4.556   4.818   3.274
 3241SOL     OW11852   4.640   4.634   2.153
 3241SOL    HW111853   4.703   4.672   2.085
 3241SOL    HW211854   4.680   4.551   2.192
 3242SOL     OW11855   4.763   4.822   2.558
 3242SOL    HW111856   4.693   4.775   2.612
 3242SOL    HW211857   4.822   4.754   2.515
 3243SOL     OW11858   3.799   4.069   1.895
 3243SOL    HW111859   3.707   4.041   1.866
 3243SOL    HW211860   3.830   4.146   1.839
 3244SOL     OW11861   5.164   4.580   3.260
 3244SOL    HW111862   5.107   4.632   3.197
 3244SOL    HW211863   5.260   4.592   3.236
 3245SOL     OW11864   4.337   4.566   3.293
 3245SOL    HW111865   4.393   4.647   3.276
 3245SOL    HW211866   4.396   4.486   3.296
 3246SOL     OW11867   4.440   4.289   3.570
 3246SOL    HW111868   4.459   4.354   3.644
 3246SOL    HW211869   4.500   4.209   3.579
 3247SOL     OW11870   5.174   4.944   3.495
 3247SOL    HW111871   5.165   4.934   3.594
 3247SOL    HW211872   5.270   4.937   3.469
 3248SOL     OW11873   4.318   4.469   2.514
 3248SOL    HW111874   4.368   4.554   2.495
 3248SOL    HW211875   4.230   4.471   2.466
 3249SOL     OW11876   4.583   4.680   2.723
 3249SOL    HW111877   4.637   4.611   2.771
 3249SOL    HW211878   4.551   4.749   2.789
 3250SOL     OW11879   4.807   4.708   1.949
 3250SOL    HW111880   4.784   4.761   1.867
 3250SOL    HW211881   4.888   4.652   1.930
 3251SOL     OW11882   3.803   4.964   2.515
 3251SOL    HW111883   3.802   4.917   2.603
 3251SOL    HW211884   3.885   4.936   2.464
 3252SOL     OW11885   4.152   4.148   2.382
 3252SOL    HW111886   4.182   4.076   2.320
 3252SOL    HW211887   4.113   4.108   2.465
 3253SOL     OW11888   4.041   4.271   3.142
 3253SOL    HW111889   4.079   4.212   3.214
 3253SOL    HW211890   4.081   4.245   3.054
 3254SOL     OW11891   4.725   3.758   3.016
 3254SOL    HW111892   4.662   3.686   2.985
 3254SOL    HW211893   4.818   3.722   3.016
 3255SOL     OW11894   4.494   5.054   2.163
 3255SOL    HW111895   4.448   4.967   2.180
 3255SOL    HW211896   4.585   5.051   2.204
 3256SOL     OW11897   5.076   3.776   2.030
 3256SOL    HW111898   5.111   3.735   1.946
 3256SOL    HW211899   4.986   3.738   2.050
 3257SOL     OW11900   3.763   4.801   2.162
 3257SOL    HW111901   3.862   4.790   2.153
 3257SOL    HW211902   3.723   4.715   2.194
 3258SOL     OW11903   3.954   4.352   3.837
 3258SOL    HW111904   3.861   4.350   3.874
 3258SOL    HW211905   3.955   4.313   3.745
 3259SOL     OW11906   3.949   3.999   4.720
 3259SOL    HW111907   3.984   3.982   4.812
 3259SOL    HW211908   3.861   3.954   4.708
 3260SOL     OW11909   3.743   4.092   4.371
 3260SOL    HW111910   3.661   4.135   4.410
 3260SOL    HW211911   3.715   4.019   4.308
 3261SOL     OW11912   4.859   4.427   4.441
 3261SOL    HW111913   4.916   4.505   4.416
 3261SOL    HW211914   4.799   4.453   4.517
 3262SOL     OW11915   4.330   4.688   3.847
 3262SOL    HW111916   4.337   4.772   3.793
 3262SOL    HW211917   4.376   4.701   3.935
 3263SOL     OW11918   3.846   4.367   4.287
 3263SOL    HW111919   3.801   4.279   4.304
 3263SOL    HW211920   3.845   4.421   4.371
 3264SOL     OW11921   4.533   3.728   4.226
 3264SOL    HW111922   4.573   3.819   4.217
 3264SOL    HW211923   4.433   3.736   4.232
 3265SOL     OW11924   3.921   4.700   4.988
 3265SOL    HW111925   4.010   4.655   4.974
 3265SOL    HW211926   3.848   4.635   4.969
 3266SOL     OW11927   5.005   4.069   4.668
 3266SOL    HW111928   4.919   4.019   4.655
 3266SOL    HW211929   5.067   4.015   4.724
 3267SOL     OW11930   4.715   4.134   4.966
 3267SOL    HW111931   4.638   4.168   5.020
 3267SOL    HW211932   4.681   4.083   4.887
 3268SOL     OW11933   4.765   4.425   4.153
 3268SOL    HW111934   4.791   4.421   4.249
 3268SOL    HW211935   4.680   4.374   4.139
 3269SOL     OW11936   3.800   4.535   4.513
 3269SOL    HW111937   3.899   4.523   4.522
 3269SOL    HW211938   3.776   4.630   4.534
 3270SOL     OW11939   4.589   4.072   3.919
 3270SOL    HW111940   4.648   4.135   3.870
 3270SOL    HW211941   4.608   3.978   3.890
 3271SOL     OW11942   4.274   3.920   4.609
 3271SOL    HW111943   4.269   3.915   4.709
 3271SOL    HW211944   4.276   4.016   4.580
 3272SOL     OW11945   4.045   4.667   3.966
 3272SOL    HW111946   4.127   4.706   3.924
 3272SOL    HW211947   4.018   4.585   3.917
 3273SOL     OW11948   4.106   4.424   4.204
 3273SOL    HW111949   4.151   4.334   4.201
 3273SOL    HW211950   4.012   4.413   4.237
 3274SOL     OW11951   4.338   3.846   3.841
 3274SOL    HW111952   4.436   3.824   3.848
 3274SOL    HW211953   4.307   3.829   3.748
 3275SOL     OW11954   4.527   5.126   4.648
 3275SOL    HW111955   4.617   5.140   4.606
 3275SOL    HW211956   4.456   5.128   4.577
 3276SOL     OW11957   4.646   4.227   4.623
 3276SOL    HW111958   4.621   4.218   4.527
 3276SOL    HW211959   4.694   4.145   4.654
 3277SOL     OW11960   4.263   3.788   4.236
 3277SOL    HW111961   4.182   3.789   4.294
 3277SOL    HW211962   4.266   3.871   4.181
 3278SOL     OW11963   4.021   3.759   3.895
 3278SOL    HW111964   4.070   3.843   3.874
 3278SOL    HW211965   4.083   3.694   3.940
 3279SOL     OW11966   4.659   3.960   4.204
 3279SOL    HW111967   4.611   4.001   4.126
 3279SOL    HW211968   4.758   3.958   4.185
 3280SOL     OW11969   4.756   4.273   3.740
 3280SOL    HW111970   4.715   4.355   3.701
 3280SOL    HW211971   4.820   4.299   3.813
 3281SOL     OW11972   4.285   3.946   4.871
 3281SOL    HW111973   4.323   3.862   4.908
 3281SOL    HW211974   4.197   3.965   4.915
 3282SOL     OW11975   4.590   4.178   4.366
 3282SOL    HW111976   4.558   4.250   4.304
 3282SOL    HW211977   4.614   4.097   4.313
 3283SOL     OW11978   4.741   3.763   4.477
 3283SOL    HW111979   4.669   3.768   4.408
 3283SOL    HW211980   4.717   3.694   4.546
 3284SOL     OW11981   4.251   3.980   4.052
 3284SOL    HW111982   4.278   3.921   3.977
 3284SOL    HW211983   4.251   4.075   4.021
 3285SOL     OW11984   4.429   4.774   4.092
 3285SOL    HW111985   4.415   4.781   4.191
 3285SOL    HW211986   4.513   4.723   4.074
 3286SOL     OW11987   4.134   4.537   4.975
 3286SOL    HW111988   4.220   4.549   5.025
 3286SOL    HW211989   4.092   4.450   5.002
 3287SOL     OW11990   4.290   4.261   4.589
 3287SOL    HW111991   4.302   4.327   4.515
 3287SOL    HW211992   4.336   4.295   4.672
 3288SOL     OW11993   5.084   4.586   4.769
 3288SOL    HW111994   5.009   4.586   4.703
 3288SOL    HW211995   5.121   4.494   4.778
 3289SOL     OW11996   4.933   4.249   3.999
 3289SOL    HW111997   4.946   4.165   4.053
 3289SOL    HW211998   4.904   4.323   4.059
 3290SOL     OW11999   4.456   4.358   4.788
 3290SOL    HW112000   4.515   4.332   4.712
 3290SOL    HW212001   4.428   4.454   4.777
 3291SOL     OW12002   5.346   4.091   4.098
 3291SOL    HW112003   5.348   4.015   4.162
 3291SOL    HW212004   5.298   4.168   4.138
 3292SOL     OW12005   5.027   4.562   3.766
 3292SOL    HW112006   5.061   4.469   3.781
 3292SOL    HW212007   5.045   4.589   3.671
 3293SOL     OW12008   4.043   4.534   4.673
 3293SOL    HW112009   4.136   4.570   4.678
 3293SOL    HW212010   4.037   4.449   4.725
 3294SOL     OW12011   4.063   4.233   4.730
 3294SOL    HW112012   4.011   4.150   4.713
 3294SOL    HW212013   4.140   4.238   4.666
 3295SOL     OW12014   4.884   3.931   5.201
 3295SOL    HW112015   4.884   3.995   5.278
 3295SOL    HW212016   4.912   3.979   5.118
 3296SOL     OW12017   3.764   4.268   4.838
 3296SOL    HW112018   3.849   4.235   4.797
 3296SOL    HW212019   3.777   4.283   4.936
 3297SOL     OW12020   4.539   4.296   4.049
 3297SOL    HW112021   4.546   4.207   4.003
 3297SOL    HW212022   4.445   4.330   4.041
 3298SOL     OW12023   4.197   4.224   3.915
 3298SOL    HW112024   4.258   4.304   3.919
 3298SOL    HW212025   4.102   4.255   3.922
 3299SOL     OW12026   5.071   4.783   4.958
 3299SOL    HW112027   5.095   4.720   4.884
 3299SOL    HW212028   4.981   4.823   4.940
 3300SOL     OW12029   4.554   4.997   5.146
 3300SOL    HW112030   4.549   5.030   5.241
 3300SOL    HW212031   4.468   5.016   5.100
 3301SOL     OW12032   3.987   4.050   4.444
 3301SOL    HW112033   3.908   4.101   4.410
 3301SOL    HW212034   3.978   4.035   4.542
 3302SOL     OW12035   4.640   4.634   4.015
 3302SOL    HW112036   4.703   4.672   3.947
 3302SOL    HW212037   4.680   4.551   4.054
 3303SOL     OW12038   4.763   4.822   4.420
 3303SOL    HW112039   4.693   4.775   4.474
 3303SOL    HW212040   4.822   4.754   4.377
 3304SOL     OW12041   4.738   3.960   4.695
 3304SOL    HW112042   4.730   3.924   4.602
 3304SOL    HW212043   4.736   3.884   4.760
 3305SOL     OW12044   3.799   4.069   3.757
 3305SOL    HW112045   3.707   4.041   3.728
 3305SOL    HW212046   3.830   4.146   3.701
 3306SOL     OW12047   4.949   4.049   4.173
 3306SOL    HW112048   5.014   3.975   4.162
 3306SOL    HW212049   4.969   4.099   4.257
 3307SOL     OW12050   4.807   4.708   3.811
 3307SOL    HW112051   4.784   4.761   3.729
 3307SOL    HW212052   4.888   4.652   3.792
 3308SOL     OW12053   4.152   4.148   4.244
 3308SOL    HW112054   4.182   4.076   4.182
 3308SOL    HW212055   4.113   4.108   4.327
 3309SOL     OW12056   4.725   3.758   4.878
 3309SOL    HW112057   4.662   3.686   4.847
 3309SOL    HW212058   4.818   3.722   4.878
 3310SOL     OW12059   4.494   5.054   4.025
 3310SOL    HW112060   4.448   4.967   4.042
 3310SOL    HW212061   4.585   5.051   4.066
 3311SOL     OW12062   5.076   3.776   3.892
 3311SOL    HW112063   5.111   3.735   3.808
 3311SOL    HW212064   4.986   3.738   3.912
 3312SOL     OW12065   3.763   4.801   4.024
 3312SOL    HW112066   3.862   4.790   4.015
 3312SOL    HW212067   3.723   4.715   4.056
   5.08970   5.08970   5.08970
