UNITED ATOM STRUCTURE FOR MOLECULE UNK
11971
    0X2IT   H18    1   3.092   2.352   2.583
    0X2IT    N4    2   3.026   2.419   2.548
    0X2IT   H17    3   3.059   2.484   2.478
    0X2IT   C14    4   2.895   2.380   2.546
    0X2IT    O5    5   2.849   2.285   2.607
    0X2IT    O4    6   2.822   2.466   2.469
    0X2IT   C13    7   2.680   2.441   2.463
    0X2IT   C10    8   2.607   2.502   2.584
    0X2IT    C9    9   2.457   2.484   2.578
    0X2IT    C4   10   2.394   2.607   2.582
    0X2IT    C5   11   2.245   2.625   2.577
    0X2IT    O1   12   2.197   2.739   2.585
    0X2IT    C6   13   2.166   2.505   2.564
    0X2IT   C12   14   2.015   2.516   2.558
    0X2IT    C7   15   2.229   2.382   2.561
    0X2IT    C8   16   2.381   2.365   2.567
    0X2IT    O2   17   2.427   2.250   2.559
    0X2IT    N3   18   2.164   2.265   2.551
    0X2IT   H15   19   2.064   2.258   2.544
    0X2IT   H16   20   2.221   2.180   2.548
    0X2IT    N2   21   2.482   2.709   2.599
    0X2IT    C3   22   2.473   2.846   2.546
    0X2IT    C2   23   2.599   2.856   2.461
    0X2IT    H2   24   2.639   2.954   2.435
    0X2IT    N1   25   2.611   2.744   2.365
    0X2IT   H14   26   2.674   2.771   2.289
    0X2IT    C1   27   2.688   2.741   2.491
    0X2IT    H1   28   2.796   2.748   2.490
    0X2IT   C11   29   2.622   2.658   2.600
    0X2IT    O3   30   2.691   2.695   2.718
    0X2IT   C15   31   2.628   2.664   2.843
    1X2IT   H18   32   4.906   2.528   3.608
    1X2IT    N4   33   4.944   2.582   3.533
    1X2IT   H17   34   5.018   2.647   3.554
    1X2IT   C14   35   4.939   2.525   3.409
    1X2IT    O5   36   4.871   2.429   3.378
    1X2IT    O4   37   5.019   2.594   3.322
    1X2IT   C13   38   5.020   2.549   3.186
    1X2IT   C10   39   4.901   2.607   3.107
    1X2IT    C9   40   4.901   2.567   2.961
    1X2IT    C4   41   4.903   2.679   2.881
    1X2IT    C5   42   4.905   2.675   2.731
    1X2IT    O1   43   4.903   2.782   2.667
    1X2IT    C6   44   4.908   2.545   2.670
    1X2IT   C12   45   4.910   2.533   2.519
    1X2IT    C7   46   4.905   2.432   2.750
    1X2IT    C8   47   4.902   2.438   2.903
    1X2IT    O2   48   4.904   2.330   2.965
    1X2IT    N3   49   4.906   2.307   2.702
    1X2IT   H15   50   4.909   2.285   2.604
    1X2IT   H16   51   4.905   2.231   2.771
    1X2IT    N2   52   4.895   2.794   2.953
    1X2IT    C3   53   4.957   2.924   2.923
    1X2IT    C2   54   5.046   2.947   3.045
    1X2IT    H2   55   5.079   3.047   3.070
    1X2IT    N1   56   5.135   2.831   3.071
    1X2IT   H14   57   5.214   2.862   3.128
    1X2IT    C1   58   5.011   2.848   3.150
    1X2IT    H1   59   5.016   2.870   3.256
    1X2IT   C11   60   4.895   2.764   3.099
    1X2IT    O3   61   4.782   2.818   3.164
    1X2IT   C15   62   4.653   2.787   3.109
    2X2IT   H18   63  -0.073   3.638   1.000
    2X2IT    N4   64  -0.020   3.582   0.936
    2X2IT   H17   65   0.006   3.489   0.966
    2X2IT   C14   66  -0.043   3.604   0.803
    2X2IT    O5   67  -0.099   3.702   0.757
    2X2IT    O4   68   0.010   3.503   0.729
    2X2IT   C13   69  -0.001   3.516   0.585
    2X2IT   C10   70   0.112   3.604   0.528
    2X2IT    C9   71   0.108   3.615   0.378
    2X2IT    C4   72   0.227   3.570   0.324
    2X2IT    C5   73   0.256   3.567   0.176
    2X2IT    O1   74   0.367   3.529   0.137
    2X2IT    C6   75   0.150   3.611   0.089
    2X2IT   C12   76   0.172   3.609  -0.061
    2X2IT    C7   77   0.031   3.656   0.143
    2X2IT    C8   78   0.003   3.660   0.293
    2X2IT    O2   79  -0.109   3.698   0.331
    2X2IT    N3   80  -0.072   3.700   0.070
    2X2IT   H15   81  -0.072   3.703  -0.031
    2X2IT   H16   82  -0.156   3.730   0.120
    2X2IT    N2   83   0.317   3.538   0.419
    2X2IT    C3   84   0.420   3.432   0.414
    2X2IT    C2   85   0.381   3.344   0.532
    2X2IT    H2   86   0.455   3.277   0.576
    2X2IT    N1   87   0.239   3.304   0.527
    2X2IT   H14   88   0.225   3.220   0.585
    2X2IT    C1   89   0.281   3.414   0.616
    2X2IT    H1   90   0.276   3.404   0.723
    2X2IT   C11   91   0.258   3.552   0.555
    2X2IT    O3   92   0.333   3.639   0.637
    2X2IT   C15   93   0.364   3.769   0.585
    3X2IT   H18   94   4.561   4.874   4.814
    3X2IT    N4   95   4.508   4.790   4.826
    3X2IT   H17   96   4.551   4.703   4.795
    3X2IT   C14   97   4.421   4.787   4.932
    3X2IT    O5   98   4.383   4.885   4.994
    3X2IT    O4   99   4.380   4.659   4.955
    3X2IT   C13  100   4.282   4.642   5.059
    3X2IT   C10  101   4.139   4.669   5.009
    3X2IT    C9  102   4.033   4.645   5.114
    3X2IT    C4  103   3.943   4.551   5.070
    3X2IT    C5  104   3.825   4.503   5.151
    3X2IT    O1  105   3.747   4.421   5.101
    3X2IT    C6  106   3.811   4.559   5.283
    3X2IT   C12  107   3.695   4.515   5.370
    3X2IT    C7  108   3.901   4.655   5.326
    3X2IT    C8  109   4.020   4.703   5.243
    3X2IT    O2  110   4.097   4.785   5.294
    3X2IT    N3  111   3.895   4.714   5.447
    3X2IT   H15  112   3.824   4.692   5.515
    3X2IT   H16  113   3.968   4.782   5.469
    3X2IT    N2  114   3.968   4.512   4.942
    3X2IT    C3  115   3.945   4.379   4.882
    3X2IT    C2  116   4.086   4.340   4.838
    3X2IT    H2  117   4.099   4.263   4.762
    3X2IT    N1  118   4.184   4.352   4.948
    3X2IT   H14  119   4.266   4.293   4.927
    3X2IT    C1  120   4.175   4.458   4.846
    3X2IT    H1  121   4.256   4.475   4.776
    3X2IT   C11  122   4.091   4.577   4.890
    3X2IT    O3  123   4.067   4.649   4.771
    3X2IT   C15  124   3.960   4.744   4.772
    4X2IT   H18  125   4.315   2.365   2.126
    4X2IT    N4  126   4.273   2.320   2.205
    4X2IT   H17  127   4.300   2.353   2.297
    4X2IT   C14  128   4.148   2.269   2.188
    4X2IT    O5  129   4.094   2.249   2.080
    4X2IT    O4  130   4.092   2.239   2.309
    4X2IT   C13  131   3.961   2.178   2.306
    4X2IT   C10  132   3.970   2.026   2.283
    4X2IT    C9  133   3.836   1.958   2.286
    4X2IT    C4  134   3.834   1.860   2.383
    4X2IT    C5  135   3.715   1.773   2.413
    4X2IT    O1  136   3.724   1.686   2.500
    4X2IT    C6  137   3.596   1.798   2.335
    4X2IT   C12  138   3.472   1.715   2.361
    4X2IT    C7  139   3.598   1.895   2.237
    4X2IT    C8  140   3.721   1.982   2.207
    4X2IT    O2  141   3.710   2.070   2.119
    4X2IT    N3  142   3.493   1.924   2.159
    4X2IT   H15  143   3.404   1.878   2.166
    4X2IT   H16  144   3.506   1.999   2.090
    4X2IT    N2  145   3.955   1.846   2.444
    4X2IT    C3  146   3.982   1.810   2.584
    4X2IT    C2  147   4.059   1.931   2.634
    4X2IT    H2  148   4.122   1.922   2.723
    4X2IT    N1  149   3.988   2.058   2.607
    4X2IT   H14  150   4.023   2.130   2.670
    4X2IT    C1  151   4.099   2.016   2.519
    4X2IT    H1  152   4.191   2.072   2.516
    4X2IT   C11  153   4.052   1.947   2.392
    4X2IT    O3  154   4.169   1.886   2.340
    4X2IT   C15  155   4.151   1.782   2.243
    5X2IT   H18  156   3.956   3.381   0.195
    5X2IT    N4  157   3.859   3.371   0.171
    5X2IT   H17  158   3.824   3.277   0.158
    5X2IT   C14  159   3.774   3.467   0.218
    5X2IT    O5  160   3.809   3.575   0.262
    5X2IT    O4  161   3.645   3.426   0.205
    5X2IT   C13  162   3.544   3.520   0.246
    5X2IT   C10  163   3.513   3.621   0.133
    5X2IT    C9  164   3.402   3.718   0.169
    5X2IT    C4  165   3.299   3.708   0.077
    5X2IT    C5  166   3.174   3.790   0.083
    5X2IT    O1  167   3.088   3.778  -0.006
    5X2IT    C6  168   3.161   3.880   0.195
    5X2IT   C12  169   3.037   3.966   0.208
    5X2IT    C7  170   3.264   3.890   0.287
    5X2IT    C8  171   3.392   3.807   0.279
    5X2IT    O2  172   3.477   3.820   0.369
    5X2IT    N3  173   3.263   3.972   0.393
    5X2IT   H15  174   3.185   4.033   0.414
    5X2IT   H16  175   3.344   3.970   0.455
    5X2IT    N2  176   3.329   3.623  -0.024
    5X2IT    C3  177   3.236   3.537  -0.100
    5X2IT    C2  178   3.292   3.398  -0.071
    5X2IT    H2  179   3.267   3.315  -0.138
    5X2IT    N1  180   3.310   3.373   0.074
    5X2IT   H14  181   3.312   3.272   0.091
    5X2IT    C1  182   3.426   3.410  -0.009
    5X2IT    H1  183   3.506   3.339  -0.027
    5X2IT   C11  184   3.461   3.558  -0.001
    5X2IT    O3  185   3.550   3.578  -0.110
    5X2IT   C15  186   3.570   3.713  -0.153
    6X2IT   H18  187   1.635   2.314   3.142
    6X2IT    N4  188   1.732   2.340   3.154
    6X2IT   H17  189   1.757   2.434   3.128
    6X2IT   C14  190   1.799   2.279   3.256
    6X2IT    O5  191   1.762   2.178   3.313
    6X2IT    O4  192   1.916   2.344   3.280
    6X2IT   C13  193   2.002   2.286   3.381
    6X2IT   C10  194   2.088   2.173   3.323
    6X2IT    C9  195   2.184   2.114   3.424
    6X2IT    C4  196   2.314   2.125   3.379
    6X2IT    C5  197   2.434   2.078   3.455
    6X2IT    O1  198   2.547   2.089   3.405
    6X2IT    C6  199   2.409   2.020   3.585
    6X2IT   C12  200   2.526   1.970   3.668
    6X2IT    C7  201   2.279   2.007   3.630
    6X2IT    C8  202   2.157   2.056   3.550
    6X2IT    O2  203   2.045   2.044   3.603
    6X2IT    N3  204   2.246   1.953   3.748
    6X2IT   H15  205   2.313   1.918   3.814
    6X2IT   H16  206   2.146   1.951   3.772
    6X2IT    N2  207   2.320   2.178   3.253
    6X2IT    C3  208   2.425   2.264   3.196
    6X2IT    C2  209   2.347   2.389   3.160
    6X2IT    H2  210   2.387   2.459   3.086
    6X2IT    N1  211   2.267   2.441   3.273
    6X2IT   H14  212   2.246   2.540   3.258
    6X2IT    C1  213   2.201   2.361   3.168
    6X2IT    H1  214   2.128   2.406   3.102
    6X2IT   C11  215   2.184   2.215   3.206
    6X2IT    O3  216   2.152   2.152   3.083
    6X2IT   C15  217   2.167   2.009   3.077
    7X2IT   H18  218   1.894   2.430  -0.181
    7X2IT    N4  219   1.876   2.515  -0.131
    7X2IT   H17  220   1.789   2.563  -0.152
    7X2IT   C14  221   1.928   2.525  -0.005
    7X2IT    O5  222   2.016   2.453   0.040
    7X2IT    O4  223   1.870   2.629   0.062
    7X2IT   C13  224   1.921   2.655   0.194
    7X2IT   C10  225   2.049   2.741   0.190
    7X2IT    C9  226   2.101   2.777   0.327
    7X2IT    C4  227   2.108   2.914   0.341
    7X2IT    C5  228   2.155   2.983   0.466
    7X2IT    O1  229   2.162   3.107   0.468
    7X2IT    C6  230   2.191   2.898   0.577
    7X2IT   C12  231   2.239   2.962   0.706
    7X2IT    C7  232   2.185   2.761   0.562
    7X2IT    C8  233   2.138   2.692   0.434
    7X2IT    O2  234   2.132   2.568   0.434
    7X2IT    N3  235   2.218   2.674   0.659
    7X2IT   H15  236   2.249   2.703   0.750
    7X2IT   H16  237   2.208   2.574   0.638
    7X2IT    N2  238   2.075   2.979   0.226
    7X2IT    C3  239   2.008   3.109   0.212
    7X2IT    C2  240   1.883   3.072   0.134
    7X2IT    H2  241   1.829   3.149   0.079
    7X2IT    N1  242   1.808   2.961   0.197
    7X2IT   H14  243   1.711   2.963   0.165
    7X2IT    C1  244   1.896   2.934   0.082
    7X2IT    H1  245   1.854   2.903  -0.013
    7X2IT   C11  246   2.033   2.882   0.121
    7X2IT    O3  247   2.110   2.895   0.003
    7X2IT   C15  248   2.253   2.891   0.018
    8X2IT   H18  249   4.986   1.391   2.276
    8X2IT    N4  250   4.951   1.349   2.192
    8X2IT   H17  251   4.852   1.329   2.188
    8X2IT   C14  252   5.017   1.381   2.076
    8X2IT    O5  253   5.127   1.431   2.070
    8X2IT    O4  254   4.942   1.343   1.968
    8X2IT   C13  255   5.002   1.364   1.839
    8X2IT   C10  256   5.097   1.250   1.801
    8X2IT    C9  257   5.157   1.265   1.663
    8X2IT    C4  258   5.126   1.155   1.585
    8X2IT    C5  259   5.169   1.138   1.443
    8X2IT    O1  260   5.140   1.034   1.382
    8X2IT    C6  261   5.245   1.247   1.385
    8X2IT   C12  262   5.292   1.237   1.241
    8X2IT    C7  263   5.277   1.356   1.463
    8X2IT    C8  264   5.233   1.371   1.609
    8X2IT    O2  265   5.264   1.476   1.669
    8X2IT    N3  266   5.349   1.461   1.420
    8X2IT   H15  267   5.384   1.468   1.326
    8X2IT   H16  268   5.365   1.537   1.486
    8X2IT    N2  269   5.059   1.060   1.655
    8X2IT    C3  270   4.955   0.968   1.606
    8X2IT    C2  271   4.835   1.004   1.693
    8X2IT    H2  272   4.753   0.933   1.705
    8X2IT    N1  273   4.807   1.150   1.691
    8X2IT   H14  274   4.710   1.166   1.719
    8X2IT    C1  275   4.880   1.091   1.805
    8X2IT    H1  276   4.836   1.088   1.903
    8X2IT   C11  277   5.031   1.107   1.794
    8X2IT    O3  278   5.082   1.017   1.891
    8X2IT   C15  279   5.220   0.980   1.880
    9X2IT   H18  280   1.722   3.499   2.246
    9X2IT    N4  281   1.743   3.588   2.206
    9X2IT   H17  282   1.839   3.620   2.211
    9X2IT   C14  283   1.666   3.627   2.099
    9X2IT    O5  284   1.559   3.576   2.068
    9X2IT    O4  285   1.723   3.733   2.036
    9X2IT   C13  286   1.649   3.789   1.925
    9X2IT   C10  287   1.542   3.888   1.974
    9X2IT    C9  288   1.466   3.954   1.861
    9X2IT    C4  289   1.479   4.091   1.869
    9X2IT    C5  290   1.417   4.187   1.771
    9X2IT    O1  291   1.431   4.309   1.788
    9X2IT    C6  292   1.343   4.128   1.662
    9X2IT   C12  293   1.279   4.219   1.559
    9X2IT    C7  294   1.330   3.991   1.654
    9X2IT    C8  295   1.393   3.895   1.755
    9X2IT    O2  296   1.377   3.773   1.737
    9X2IT    N3  297   1.261   3.928   1.558
    9X2IT   H15  298   1.215   3.976   1.482
    9X2IT   H16  299   1.259   3.826   1.562
    9X2IT    N2  300   1.548   4.130   1.979
    9X2IT    C3  301   1.637   4.246   1.994
    9X2IT    C2  302   1.769   4.180   2.032
    9X2IT    H2  303   1.846   4.239   2.082
    9X2IT    N1  304   1.808   4.073   1.937
    9X2IT   H14  305   1.909   4.056   1.944
    9X2IT    C1  306   1.745   4.037   2.066
    9X2IT    H1  307   1.801   3.985   2.142
    9X2IT   C11  308   1.596   4.011   2.055
    9X2IT    O3  309   1.551   4.013   2.190
    9X2IT   C15  310   1.410   4.030   2.211
   10X2IT   H18  311   1.856  -0.087   3.106
   10X2IT    N4  312   1.947  -0.084   3.148
   10X2IT   H17  313   1.958  -0.124   3.240
   10X2IT   C14  314   2.053  -0.088   3.061
   10X2IT    O5  315   2.047  -0.067   2.941
   10X2IT    O4  316   2.168  -0.114   3.130
   10X2IT   C13  317   2.290  -0.115   3.052
   10X2IT   C10  318   2.345   0.027   3.032
   10X2IT    C9  319   2.476   0.030   2.957
   10X2IT    C4  320   2.573   0.092   3.034
   10X2IT    C5  321   2.716   0.110   2.989
   10X2IT    O1  322   2.795   0.170   3.063
   10X2IT    C6  323   2.750   0.057   2.859
   10X2IT   C12  324   2.892   0.072   2.808
   10X2IT    C7  325   2.652  -0.003   2.782
   10X2IT    C8  326   2.507  -0.021   2.829
   10X2IT    O2  327   2.429  -0.080   2.753
   10X2IT    N3  328   2.674  -0.053   2.660
   10X2IT   H15  329   2.764  -0.052   2.615
   10X2IT   H16  330   2.594  -0.097   2.613
   10X2IT    N2  331   2.524   0.140   3.151
   10X2IT    C3  332   2.592   0.149   3.281
   10X2IT    C2  333   2.504   0.063   3.370
   10X2IT    H2  334   2.507   0.076   3.478
   10X2IT    N1  335   2.480  -0.071   3.313
   10X2IT   H14  336   2.452  -0.135   3.387
   10X2IT    C1  337   2.377   0.033   3.299
   10X2IT    H1  338   2.282   0.024   3.350
   10X2IT   C11  339   2.380   0.105   3.165
   10X2IT    O3  340   2.299   0.219   3.185
   10X2IT   C15  341   2.313   0.326   3.091
   11X2IT   H18  342   1.948   4.125   3.456
   11X2IT    N4  343   1.917   4.122   3.551
   11X2IT   H17  344   1.947   4.197   3.612
   11X2IT   C14  345   1.797   4.061   3.575
   11X2IT    O5  346   1.738   3.989   3.496
   11X2IT    O4  347   1.754   4.091   3.701
   11X2IT   C13  348   1.630   4.028   3.742
   11X2IT   C10  349   1.655   3.885   3.793
   11X2IT    C9  350   1.529   3.818   3.844
   11X2IT    C4  351   1.545   3.780   3.976
   11X2IT    C5  352   1.438   3.712   4.057
   11X2IT    O1  353   1.463   3.678   4.174
   11X2IT    C6  354   1.312   3.689   3.991
   11X2IT   C12  355   1.200   3.620   4.068
   11X2IT    C7  356   1.297   3.726   3.859
   11X2IT    C8  357   1.406   3.795   3.777
   11X2IT    O2  358   1.380   3.827   3.661
   11X2IT    N3  359   1.184   3.707   3.789
   11X2IT   H15  360   1.101   3.665   3.828
   11X2IT   H16  361   1.183   3.739   3.692
   11X2IT    N2  362   1.670   3.805   4.022
   11X2IT    C3  363   1.712   3.842   4.158
   11X2IT    C2  364   1.778   3.977   4.135
   11X2IT    H2  365   1.848   4.016   4.209
   11X2IT    N1  366   1.692   4.071   4.059
   11X2IT   H14  367   1.723   4.167   4.076
   11X2IT    C1  368   1.800   3.998   3.989
   11X2IT    H1  369   1.885   4.051   3.949
   11X2IT   C11  370   1.752   3.873   3.917
   11X2IT    O3  371   1.871   3.802   3.887
   11X2IT   C15  372   1.857   3.663   3.854
   12X2IT   H18  373   1.271   4.867   2.656
   12X2IT    N4  374   1.369   4.887   2.661
   12X2IT   H17  375   1.395   4.984   2.673
   12X2IT   C14  376   1.448   4.789   2.713
   12X2IT    O5  377   1.416   4.673   2.727
   12X2IT    O4  378   1.572   4.840   2.743
   12X2IT   C13  379   1.669   4.746   2.793
   12X2IT   C10  380   1.738   4.671   2.678
   12X2IT    C9  381   1.846   4.576   2.725
   12X2IT    C4  382   1.967   4.609   2.668
   12X2IT    C5  383   2.095   4.535   2.694
   12X2IT    O1  384   2.199   4.569   2.635
   12X2IT    C6  385   2.089   4.426   2.789
   12X2IT   C12  386   2.214   4.348   2.821
   12X2IT    C7  387   1.967   4.393   2.846
   12X2IT    C8  388   1.837   4.469   2.817
   12X2IT    O2  389   1.735   4.433   2.878
   12X2IT    N3  390   1.951   4.293   2.933
   12X2IT   H15  391   2.026   4.234   2.965
   12X2IT   H16  392   1.856   4.278   2.971
   12X2IT    N2  393   1.955   4.710   2.578
   12X2IT    C3  394   2.054   4.815   2.546
   12X2IT    C2  395   1.978   4.942   2.581
   12X2IT    H2  396   2.010   5.037   2.538
   12X2IT    N1  397   1.921   4.938   2.717
   12X2IT   H14  398   1.903   5.033   2.749
   12X2IT    C1  399   1.835   4.910   2.601
   12X2IT    H1  400   1.755   4.978   2.574
   12X2IT   C11  401   1.816   4.761   2.575
   12X2IT    O3  402   1.760   4.757   2.444
   12X2IT   C15  403   1.767   4.631   2.375
   13X2IT   H18  404   1.317   4.212   0.923
   13X2IT    N4  405   1.384   4.166   0.864
   13X2IT   H17  406   1.434   4.087   0.903
   13X2IT   C14  407   1.359   4.170   0.730
   13X2IT    O5  408   1.281   4.244   0.675
   13X2IT    O4  409   1.440   4.080   0.666
   13X2IT   C13  410   1.429   4.076   0.522
   13X2IT   C10  411   1.516   4.186   0.457
   13X2IT    C9  412   1.513   4.182   0.306
   13X2IT    C4  413   1.641   4.166   0.256
   13X2IT    C5  414   1.674   4.157   0.110
   13X2IT    O1  415   1.793   4.147   0.074
   13X2IT    C6  416   1.563   4.162   0.019
   13X2IT   C12  417   1.589   4.153  -0.130
   13X2IT    C7  418   1.435   4.179   0.068
   13X2IT    C8  419   1.403   4.189   0.217
   13X2IT    O2  420   1.284   4.199   0.251
   13X2IT    N3  421   1.325   4.187  -0.009
   13X2IT   H15  422   1.328   4.180  -0.109
   13X2IT   H16  423   1.235   4.197   0.038
   13X2IT    N2  424   1.735   4.168   0.355
   13X2IT    C3  425   1.862   4.094   0.360
   13X2IT    C2  426   1.845   4.009   0.486
   13X2IT    H2  427   1.933   3.969   0.536
   13X2IT    N1  428   1.719   3.932   0.485
   13X2IT   H14  429   1.727   3.853   0.550
   13X2IT    C1  430   1.728   4.058   0.562
   13X2IT    H1  431   1.723   4.056   0.670
   13X2IT   C11  432   1.670   4.178   0.489
   13X2IT    O3  433   1.717   4.289   0.562
   13X2IT   C15  434   1.713   4.417   0.497
   14X2IT   H18  435   2.644   1.661  -0.469
   14X2IT    N4  436   2.588   1.722  -0.412
   14X2IT   H17  437   2.505   1.761  -0.455
   14X2IT   C14  438   2.587   1.696  -0.278
   14X2IT    O5  439   2.668   1.626  -0.219
   14X2IT    O4  440   2.484   1.763  -0.218
   14X2IT   C13  441   2.475   1.750  -0.075
   14X2IT   C10  442   2.568   1.850  -0.004
   14X2IT    C9  443   2.557   1.844   0.147
   14X2IT    C4  444   2.522   1.969   0.196
   14X2IT    C5  445   2.501   1.998   0.342
   14X2IT    O1  446   2.474   2.114   0.378
   14X2IT    C6  447   2.516   1.887   0.433
   14X2IT   C12  448   2.496   1.910   0.581
   14X2IT    C7  449   2.552   1.763   0.384
   14X2IT    C8  450   2.573   1.735   0.235
   14X2IT    O2  451   2.601   1.618   0.201
   14X2IT    N3  452   2.570   1.655   0.460
   14X2IT   H15  453   2.557   1.655   0.560
   14X2IT   H16  454   2.594   1.567   0.413
   14X2IT    N2  455   2.516   2.063   0.098
   14X2IT    C3  456   2.427   2.180   0.090
   14X2IT    C2  457   2.352   2.154  -0.040
   14X2IT    H2  458   2.303   2.236  -0.091
   14X2IT    N1  459   2.292   2.019  -0.044
   14X2IT   H14  460   2.216   2.017  -0.113
   14X2IT    C1  461   2.419   2.044  -0.114
   14X2IT    H1  462   2.424   2.041  -0.222
   14X2IT   C11  463   2.542   2.002  -0.035
   14X2IT    O3  464   2.650   2.064  -0.102
   14X2IT   C15  465   2.773   2.075  -0.031
   15X2IT   H18  466   1.917   4.365   1.676
   15X2IT    N4  467   1.991   4.410   1.626
   15X2IT   H17  468   2.020   4.501   1.658
   15X2IT   C14  469   2.083   4.328   1.567
   15X2IT    O5  470   2.069   4.208   1.547
   15X2IT    O4  471   2.193   4.400   1.529
   15X2IT   C13  472   2.296   4.327   1.459
   15X2IT   C10  473   2.264   4.314   1.309
   15X2IT    C9  474   2.374   4.245   1.231
   15X2IT    C4  475   2.420   4.327   1.130
   15X2IT    C5  476   2.529   4.288   1.035
   15X2IT    O1  477   2.562   4.367   0.945
   15X2IT    C6  478   2.589   4.159   1.054
   15X2IT   C12  479   2.700   4.114   0.961
   15X2IT    C7  480   2.542   4.076   1.155
   15X2IT    C8  481   2.430   4.116   1.251
   15X2IT    O2  482   2.399   4.036   1.340
   15X2IT    N3  483   2.590   3.953   1.179
   15X2IT   H15  484   2.665   3.912   1.126
   15X2IT   H16  485   2.549   3.902   1.257
   15X2IT    N2  486   2.350   4.443   1.123
   15X2IT    C3  487   2.400   4.576   1.084
   15X2IT    C2  488   2.371   4.659   1.208
   15X2IT    H2  489   2.366   4.767   1.200
   15X2IT    N1  490   2.426   4.597   1.331
   15X2IT   H14  491   2.437   4.668   1.403
   15X2IT    C1  492   2.283   4.582   1.299
   15X2IT    H1  493   2.208   4.629   1.362
   15X2IT   C11  494   2.249   4.450   1.232
   15X2IT    O3  495   2.118   4.471   1.181
   15X2IT   C15  496   2.073   4.380   1.080
   16X2IT   H18  497   2.690   0.168   3.799
   16X2IT    N4  498   2.634   0.218   3.866
   16X2IT   H17  499   2.564   0.165   3.916
   16X2IT   C14  500   2.693   0.325   3.928
   16X2IT    O5  501   2.795   0.380   3.890
   16X2IT    O4  502   2.619   0.363   4.036
   16X2IT   C13  503   2.667   0.479   4.107
   16X2IT   C10  504   2.620   0.610   4.040
   16X2IT    C9  505   2.661   0.734   4.116
   16X2IT    C4  506   2.550   0.808   4.151
   16X2IT    C5  507   2.556   0.937   4.227
   16X2IT    O1  508   2.451   0.999   4.251
   16X2IT    C6  509   2.687   0.981   4.269
   16X2IT   C12  510   2.700   1.110   4.347
   16X2IT    C7  511   2.798   0.907   4.233
   16X2IT    C8  512   2.791   0.776   4.154
   16X2IT    O2  513   2.897   0.716   4.131
   16X2IT    N3  514   2.924   0.941   4.265
   16X2IT   H15  515   2.947   1.023   4.319
   16X2IT   H16  516   2.999   0.878   4.235
   16X2IT    N2  517   2.436   0.755   4.100
   16X2IT    C3  518   2.301   0.757   4.160
   16X2IT    C2  519   2.270   0.609   4.175
   16X2IT    H2  520   2.166   0.576   4.185
   16X2IT    N1  521   2.377   0.536   4.246
   16X2IT   H14  522   2.339   0.449   4.284
   16X2IT    C1  523   2.370   0.530   4.099
   16X2IT    H1  524   2.345   0.437   4.048
   16X2IT   C11  525   2.463   0.627   4.029
   16X2IT    O3  526   2.417   0.630   3.895
   16X2IT   C15  527   2.460   0.740   3.814
   17X2IT   H18  528   2.721   1.079   3.621
   17X2IT    N4  529   2.713   1.111   3.527
   17X2IT   H17  530   2.640   1.177   3.506
   17X2IT   C14  531   2.829   1.116   3.454
   17X2IT    O5  532   2.933   1.060   3.485
   17X2IT    O4  533   2.810   1.188   3.340
   17X2IT   C13  534   2.923   1.197   3.251
   17X2IT   C10  535   2.931   1.073   3.159
   17X2IT    C9  536   3.044   1.081   3.059
   17X2IT    C4  537   2.994   1.071   2.930
   17X2IT    C5  538   3.079   1.076   2.807
   17X2IT    O1  539   3.026   1.062   2.695
   17X2IT    C6  540   3.221   1.095   2.827
   17X2IT   C12  541   3.312   1.101   2.706
   17X2IT    C7  542   3.270   1.104   2.955
   17X2IT    C8  543   3.183   1.098   3.080
   17X2IT    O2  544   3.238   1.112   3.191
   17X2IT    N3  545   3.401   1.121   2.984
   17X2IT   H15  546   3.472   1.129   2.914
   17X2IT   H16  547   3.426   1.128   3.083
   17X2IT    N2  548   2.860   1.048   2.929
   17X2IT    C3  549   2.761   1.094   2.830
   17X2IT    C2  550   2.667   1.177   2.915
   17X2IT    H2  551   2.566   1.198   2.879
   17X2IT    N1  552   2.738   1.279   2.995
   17X2IT   H14  553   2.673   1.353   3.022
   17X2IT    C1  554   2.695   1.153   3.059
   17X2IT    H1  555   2.618   1.153   3.135
   17X2IT   C11  556   2.805   1.049   3.068
   17X2IT    O3  557   2.737   0.929   3.098
   17X2IT   C15  558   2.807   0.806   3.075
   18X2IT   H18  559   4.762   0.016   4.201
   18X2IT    N4  560   4.811   0.068   4.130
   18X2IT   H17  561   4.898   0.111   4.157
   18X2IT   C14  562   4.793   0.027   4.001
   18X2IT    O5  563   4.704  -0.047   3.963
   18X2IT    O4  564   4.886   0.085   3.921
   18X2IT   C13  565   4.876   0.056   3.780
   18X2IT   C10  566   4.773   0.148   3.711
   18X2IT    C9  567   4.764   0.126   3.562
   18X2IT    C4  568   4.792   0.243   3.494
   18X2IT    C5  569   4.792   0.256   3.344
   18X2IT    O1  570   4.815   0.366   3.292
   18X2IT    C6  571   4.765   0.135   3.270
   18X2IT   C12  572   4.764   0.140   3.118
   18X2IT    C7  573   4.736   0.018   3.338
   18X2IT    C8  574   4.735   0.007   3.490
   18X2IT    O2  575   4.713  -0.104   3.540
   18X2IT    N3  576   4.708  -0.098   3.277
   18X2IT   H15  577   4.706  -0.109   3.177
   18X2IT   H16  578   4.690  -0.179   3.337
   18X2IT    N2  579   4.811   0.348   3.579
   18X2IT    C3  580   4.901   0.463   3.561
   18X2IT    C2  581   4.993   0.451   3.682
   18X2IT    H2  582   5.048   0.538   3.716
   18X2IT    N1  583   5.053   0.316   3.693
   18X2IT   H14  584   5.137   0.321   3.751
   18X2IT    C1  585   4.936   0.352   3.777
   18X2IT    H1  586   4.946   0.361   3.884
   18X2IT   C11  587   4.804   0.303   3.721
   18X2IT    O3  588   4.707   0.374   3.794
   18X2IT   C15  589   4.574   0.379   3.740
   19X2IT   H18  590   0.298   2.310   3.571
   19X2IT    N4  591   0.270   2.235   3.510
   19X2IT   H17  592   0.188   2.183   3.535
   19X2IT   C14  593   0.301   2.251   3.378
   19X2IT    O5  594   0.382   2.331   3.333
   19X2IT    O4  595   0.232   2.160   3.303
   19X2IT   C13  596   0.260   2.160   3.161
   19X2IT   C10  597   0.386   2.077   3.129
   19X2IT    C9  598   0.415   2.069   2.981
   19X2IT    C4  599   0.417   1.937   2.940
   19X2IT    C5  600   0.443   1.893   2.798
   19X2IT    O1  601   0.447   1.772   2.771
   19X2IT    C6  602   0.462   1.998   2.701
   19X2IT   C12  603   0.487   1.961   2.556
   19X2IT    C7  604   0.460   2.130   2.742
   19X2IT    C8  605   0.435   2.173   2.887
   19X2IT    O2  606   0.431   2.295   2.912
   19X2IT    N3  607   0.478   2.234   2.659
   19X2IT   H15  608   0.494   2.224   2.561
   19X2IT   H16  609   0.473   2.328   2.700
   19X2IT    N2  610   0.403   1.851   3.044
   19X2IT    C3  611   0.337   1.719   3.044
   19X2IT    C2  612   0.226   1.738   3.146
   19X2IT    H2  613   0.180   1.652   3.194
   19X2IT    N1  614   0.144   1.858   3.118
   19X2IT   H14  615   0.053   1.849   3.165
   19X2IT    C1  616   0.250   1.864   3.221
   19X2IT    H1  617   0.224   1.877   3.326
   19X2IT   C11  618   0.379   1.925   3.171
   19X2IT    O3  619   0.474   1.891   3.270
   19X2IT   C15  620   0.613   1.900   3.234
   20X2IT   H18  621   3.556   4.656   0.791
   20X2IT    N4  622   3.479   4.719   0.805
   20X2IT   H17  623   3.487   4.785   0.881
   20X2IT   C14  624   3.409   4.755   0.693
   20X2IT    O5  625   3.413   4.696   0.586
   20X2IT    O4  626   3.330   4.863   0.720
   20X2IT   C13  627   3.245   4.907   0.612
   20X2IT   C10  628   3.115   4.826   0.606
   20X2IT    C9  629   3.020   4.874   0.499
   20X2IT    C4  630   2.898   4.909   0.555
   20X2IT    C5  631   2.782   4.961   0.476
   20X2IT    O1  632   2.675   4.986   0.535
   20X2IT    C6  633   2.802   4.979   0.335
   20X2IT   C12  634   2.689   5.032   0.249
   20X2IT    C7  635   2.923   4.943   0.278
   20X2IT    C8  636   3.041   4.889   0.359
   20X2IT    O2  637   3.147   4.864   0.299
   20X2IT    N3  638   2.951   4.954   0.147
   20X2IT   H15  639   2.885   4.990   0.080
   20X2IT   H16  640   3.045   4.926   0.117
   20X2IT    N2  641   2.894   4.882   0.688
   20X2IT    C3  642   2.822   4.956   0.793
   20X2IT    C2  643   2.935   4.999   0.885
   20X2IT    H2  644   2.913   5.027   0.988
   20X2IT    N1  645   3.044   5.068   0.812
   20X2IT   H14  646   3.098   5.124   0.878
   20X2IT    C1  647   3.059   4.926   0.849
   20X2IT    H1  648   3.133   4.895   0.922
   20X2IT   C11  649   3.026   4.830   0.735
   20X2IT    O3  650   3.013   4.704   0.799
   20X2IT   C15  651   2.945   4.601   0.726
   21X2IT   H18  652   1.973   0.805   3.229
   21X2IT    N4  653   1.980   0.757   3.141
   21X2IT   H17  654   2.021   0.665   3.141
   21X2IT   C14  655   1.886   0.788   3.047
   21X2IT    O5  656   1.812   0.884   3.050
   21X2IT    O4  657   1.889   0.696   2.946
   21X2IT   C13  658   1.799   0.719   2.836
   21X2IT   C10  659   1.858   0.818   2.734
   21X2IT    C9  660   1.769   0.840   2.614
   21X2IT    C4  661   1.838   0.808   2.498
   21X2IT    C5  662   1.778   0.818   2.360
   21X2IT    O1  663   1.848   0.790   2.262
   21X2IT    C6  664   1.641   0.860   2.352
   21X2IT   C12  665   1.574   0.871   2.217
   21X2IT    C7  666   1.573   0.893   2.468
   21X2IT    C8  667   1.635   0.883   2.608
   21X2IT    O2  668   1.563   0.911   2.705
   21X2IT    N3  669   1.445   0.935   2.471
   21X2IT   H15  670   1.389   0.945   2.388
   21X2IT   H16  671   1.404   0.955   2.562
   21X2IT    N2  672   1.967   0.775   2.522
   21X2IT    C3  673   2.051   0.678   2.450
   21X2IT    C2  674   2.087   0.578   2.560
   21X2IT    H2  675   2.173   0.513   2.547
   21X2IT    N1  676   1.968   0.529   2.632
   21X2IT   H14  677   1.990   0.440   2.678
   21X2IT    C1  678   2.050   0.635   2.692
   21X2IT    H1  679   2.107   0.617   2.782
   21X2IT   C11  680   1.994   0.775   2.669
   21X2IT    O3  681   2.102   0.861   2.703
   21X2IT   C15  682   2.095   0.996   2.655
   22X2IT   H18  683   3.079   4.666   3.945
   22X2IT    N4  684   3.165   4.701   3.984
   22X2IT   H17  685   3.212   4.774   3.931
   22X2IT   C14  686   3.176   4.700   4.120
   22X2IT    O5  687   3.106   4.635   4.195
   22X2IT    O4  688   3.281   4.778   4.159
   22X2IT   C13  689   3.310   4.780   4.300
   22X2IT   C10  690   3.396   4.660   4.342
   22X2IT    C9  691   3.434   4.662   4.489
   22X2IT    C4  692   3.571   4.661   4.502
   22X2IT    C5  693   3.642   4.663   4.635
   22X2IT    O1  694   3.766   4.658   4.638
   22X2IT    C6  695   3.559   4.671   4.752
   22X2IT   C12  696   3.624   4.674   4.889
   22X2IT    C7  697   3.421   4.671   4.738
   22X2IT    C8  698   3.350   4.668   4.603
   22X2IT    O2  699   3.226   4.673   4.602
   22X2IT    N3  700   3.336   4.676   4.842
   22X2IT   H15  701   3.366   4.681   4.938
   22X2IT   H16  702   3.236   4.677   4.820
   22X2IT    N2  703   3.634   4.649   4.383
   22X2IT    C3  704   3.764   4.706   4.343
   22X2IT    C2  705   3.725   4.794   4.225
   22X2IT    H2  706   3.801   4.823   4.152
   22X2IT    N1  707   3.615   4.886   4.257
   22X2IT   H14  708   3.615   4.964   4.191
   22X2IT    C1  709   3.587   4.762   4.183
   22X2IT    H1  710   3.554   4.765   4.080
   22X2IT   C11  711   3.536   4.649   4.271
   22X2IT    O3  712   3.548   4.534   4.190
   22X2IT   C15  713   3.545   4.406   4.256
   23X2IT   H18  714   3.977   1.199   0.565
   23X2IT    N4  715   3.905   1.161   0.624
   23X2IT   H17  716   3.859   1.077   0.593
   23X2IT   C14  717   3.918   1.184   0.758
   23X2IT    O5  718   3.993   1.266   0.809
   23X2IT    O4  719   3.832   1.103   0.828
   23X2IT   C13  720   3.831   1.120   0.971
   23X2IT   C10  721   3.740   1.237   1.012
   23X2IT    C9  722   3.729   1.255   1.162
   23X2IT    C4  723   3.597   1.245   1.202
   23X2IT    C5  724   3.552   1.257   1.345
   23X2IT    O1  725   3.432   1.251   1.372
   23X2IT    C6  726   3.656   1.276   1.444
   23X2IT   C12  727   3.617   1.288   1.590
   23X2IT    C7  728   3.788   1.286   1.404
   23X2IT    C8  729   3.832   1.275   1.258
   23X2IT    O2  730   3.954   1.281   1.233
   23X2IT    N3  731   3.890   1.306   1.488
   23X2IT   H15  732   3.879   1.313   1.587
   23X2IT   H16  733   3.984   1.310   1.447
   23X2IT    N2  734   3.513   1.232   1.097
   23X2IT    C3  735   3.386   1.157   1.092
   23X2IT    C2  736   3.413   1.056   0.981
   23X2IT    H2  737   3.329   1.008   0.930
   23X2IT    N1  738   3.538   0.981   1.004
   23X2IT   H14  739   3.535   0.893   0.950
   23X2IT    C1  740   3.537   1.094   0.909
   23X2IT    H1  741   3.551   1.077   0.803
   23X2IT   C11  742   3.589   1.224   0.969
   23X2IT    O3  743   3.548   1.323   0.877
   23X2IT   C15  744   3.548   1.459   0.923
   24X2IT   H18  745   4.584   3.997   2.109
   24X2IT    N4  746   4.510   3.954   2.056
   24X2IT   H17  747   4.516   3.957   1.956
   24X2IT   C14  748   4.449   3.846   2.115
   24X2IT    O5  749   4.457   3.817   2.233
   24X2IT    O4  750   4.374   3.779   2.023
   24X2IT   C13  751   4.299   3.666   2.073
   24X2IT   C10  752   4.165   3.711   2.135
   24X2IT    C9  753   4.080   3.596   2.182
   24X2IT    C4  754   3.957   3.598   2.118
   24X2IT    C5  755   3.848   3.497   2.141
   24X2IT    O1  756   3.740   3.509   2.083
   24X2IT    C6  757   3.879   3.390   2.233
   24X2IT   C12  758   3.774   3.284   2.261
   24X2IT    C7  759   4.001   3.388   2.297
   24X2IT    C8  760   4.110   3.492   2.274
   24X2IT    O2  761   4.218   3.478   2.333
   24X2IT    N3  762   4.037   3.294   2.386
   24X2IT   H15  763   3.978   3.217   2.412
   24X2IT   H16  764   4.131   3.301   2.426
   24X2IT    N2  765   3.943   3.707   2.039
   24X2IT    C3  766   3.868   3.718   1.912
   24X2IT    C2  767   3.977   3.758   1.814
   24X2IT    H2  768   3.950   3.806   1.719
   24X2IT    N1  769   4.094   3.667   1.819
   24X2IT   H14  770   4.147   3.675   1.732
   24X2IT    C1  771   4.099   3.798   1.889
   24X2IT    H1  772   4.167   3.875   1.855
   24X2IT   C11  773   4.068   3.788   2.037
   24X2IT    O3  774   4.045   3.922   2.076
   24X2IT   C15  775   3.976   3.943   2.200
   25X2IT   H18  776   1.092   1.609   4.331
   25X2IT    N4  777   1.062   1.686   4.275
   25X2IT   H17  778   1.045   1.774   4.323
   25X2IT   C14  779   1.106   1.688   4.145
   25X2IT    O5  780   1.153   1.593   4.086
   25X2IT    O4  781   1.084   1.812   4.091
   25X2IT   C13  782   1.119   1.827   3.952
   25X2IT   C10  783   1.007   1.777   3.860
   25X2IT    C9  784   1.037   1.797   3.713
   25X2IT    C4  785   0.939   1.874   3.654
   25X2IT    C5  786   0.939   1.914   3.509
   25X2IT    O1  787   0.844   1.981   3.464
   25X2IT    C6  788   1.051   1.870   3.430
   25X2IT   C12  789   1.058   1.907   3.284
   25X2IT    C7  790   1.149   1.792   3.489
   25X2IT    C8  791   1.148   1.751   3.636
   25X2IT    O2  792   1.243   1.685   3.679
   25X2IT    N3  793   1.256   1.745   3.423
   25X2IT   H15  794   1.274   1.764   3.326
   25X2IT   H16  795   1.323   1.689   3.477
   25X2IT    N2  796   0.838   1.903   3.741
   25X2IT    C3  797   0.756   2.025   3.746
   25X2IT    C2  798   0.786   2.078   3.886
   25X2IT    H2  799   0.716   2.147   3.933
   25X2IT    N1  800   0.931   2.090   3.912
   25X2IT   H14  801   0.946   2.155   3.989
   25X2IT    C1  802   0.856   1.973   3.964
   25X2IT    H1  803   0.842   1.959   4.071
   25X2IT   C11  804   0.869   1.850   3.876
   25X2IT    O3  805   0.766   1.764   3.923
   25X2IT   C15  806   0.726   1.656   3.837
   26X2IT   H18  807   2.010   2.412   1.238
   26X2IT    N4  808   2.109   2.400   1.247
   26X2IT   H17  809   2.143   2.310   1.279
   26X2IT   C14  810   2.187   2.474   1.162
   26X2IT    O5  811   2.149   2.570   1.097
   26X2IT    O4  812   2.315   2.427   1.164
   26X2IT   C13  813   2.411   2.499   1.083
   26X2IT   C10  814   2.465   2.623   1.158
   26X2IT    C9  815   2.571   2.697   1.080
   26X2IT    C4  816   2.688   2.704   1.152
   26X2IT    C5  817   2.813   2.771   1.103
   26X2IT    O1  818   2.913   2.775   1.177
   26X2IT    C6  819   2.808   2.828   0.971
   26X2IT   C12  820   2.931   2.897   0.915
   26X2IT    C7  821   2.690   2.822   0.899
   26X2IT    C8  822   2.563   2.754   0.950
   26X2IT    O2  823   2.464   2.751   0.875
   26X2IT    N3  824   2.676   2.874   0.776
   26X2IT   H15  825   2.750   2.920   0.726
   26X2IT   H16  826   2.584   2.862   0.731
   26X2IT    N2  827   2.675   2.650   1.276
   26X2IT    C3  828   2.776   2.579   1.355
   26X2IT    C2  829   2.712   2.442   1.375
   26X2IT    H2  830   2.745   2.378   1.456
   26X2IT    N1  831   2.667   2.382   1.247
   26X2IT   H14  832   2.658   2.281   1.258
   26X2IT    C1  833   2.569   2.449   1.335
   26X2IT    H1  834   2.491   2.392   1.384
   26X2IT   C11  835   2.538   2.592   1.294
   26X2IT    O3  836   2.472   2.647   1.406
   26X2IT   C15  837   2.464   2.790   1.414
   27X2IT   H18  838  -0.049   0.820   0.452
   27X2IT    N4  839   0.035   0.795   0.501
   27X2IT   H17  840   0.113   0.858   0.495
   27X2IT   C14  841   0.018   0.721   0.615
   27X2IT    O5  842  -0.083   0.661   0.646
   27X2IT    O4  843   0.134   0.721   0.688
   27X2IT   C13  844   0.134   0.641   0.808
   27X2IT   C10  845   0.163   0.493   0.778
   27X2IT    C9  846   0.170   0.407   0.902
   27X2IT    C4  847   0.294   0.345   0.910
   27X2IT    C5  848   0.334   0.253   1.022
   27X2IT    O1  849   0.445   0.199   1.019
   27X2IT    C6  850   0.238   0.234   1.127
   27X2IT   C12  851   0.272   0.142   1.243
   27X2IT    C7  852   0.114   0.295   1.118
   27X2IT    C8  853   0.074   0.388   1.003
   27X2IT    O2  854  -0.038   0.441   1.008
   27X2IT    N3  855   0.017   0.281   1.210
   27X2IT   H15  856   0.028   0.225   1.293
   27X2IT   H16  857  -0.070   0.333   1.195
   27X2IT    N2  858   0.371   0.370   0.801
   27X2IT    C3  859   0.517   0.383   0.795
   27X2IT    C2  860   0.535   0.525   0.742
   27X2IT    H2  861   0.629   0.554   0.696
   27X2IT    N1  862   0.459   0.624   0.822
   27X2IT   H14  863   0.499   0.717   0.807
   27X2IT    C1  864   0.405   0.576   0.693
   27X2IT    H1  865   0.396   0.643   0.608
   27X2IT   C11  866   0.302   0.465   0.709
   27X2IT    O3  867   0.289   0.411   0.578
   27X2IT   C15  868   0.229   0.281   0.566
   28X2IT   H18  869   4.876   0.846   4.401
   28X2IT    N4  870   4.841   0.937   4.377
   28X2IT   H17  871   4.743   0.955   4.397
   28X2IT   C14  872   4.930   1.040   4.382
   28X2IT    O5  873   5.051   1.028   4.385
   28X2IT    O4  874   4.864   1.160   4.378
   28X2IT   C13  875   4.946   1.278   4.376
   28X2IT   C10  876   4.994   1.311   4.233
   28X2IT    C9  877   5.075   1.438   4.225
   28X2IT    C4  878   5.016   1.527   4.137
   28X2IT    C5  879   5.070   1.664   4.107
   28X2IT    O1  880   5.013   1.735   4.024
   28X2IT    C6  881   5.189   1.703   4.178
   28X2IT   C12  882   5.249   1.839   4.153
   28X2IT    C7  883   5.249   1.614   4.266
   28X2IT    C8  884   5.193   1.474   4.295
   28X2IT    O2  885   5.252   1.404   4.378
   28X2IT    N3  886   5.361   1.640   4.335
   28X2IT   H15  887   5.410   1.728   4.329
   28X2IT   H16  888   5.395   1.567   4.398
   28X2IT    N2  889   4.907   1.473   4.076
   28X2IT    C3  890   4.785   1.542   4.032
   28X2IT    C2  891   4.677   1.470   4.111
   28X2IT    H2  892   4.573   1.474   4.078
   28X2IT    N1  893   4.707   1.465   4.256
   28X2IT   H14  894   4.621   1.449   4.308
   28X2IT    C1  895   4.735   1.347   4.172
   28X2IT    H1  896   4.678   1.255   4.185
   28X2IT   C11  897   4.880   1.336   4.128
   28X2IT    O3  898   4.877   1.240   4.024
   28X2IT   C15  899   4.990   1.235   3.936
   29X2IT   H18  900   0.743   1.156   1.692
   29X2IT    N4  901   0.691   1.100   1.756
   29X2IT   H17  902   0.704   1.118   1.855
   29X2IT   C14  903   0.571   1.053   1.712
   29X2IT    O5  904   0.534   1.051   1.596
   29X2IT    O4  905   0.498   1.005   1.817
   29X2IT   C13  906   0.370   0.946   1.785
   29X2IT   C10  907   0.386   0.799   1.740
   29X2IT    C9  908   0.253   0.732   1.712
   29X2IT    C4  909   0.239   0.620   1.792
   29X2IT    C5  910   0.118   0.531   1.790
   29X2IT    O1  911   0.115   0.430   1.862
   29X2IT    C6  912   0.012   0.568   1.700
   29X2IT   C12  913  -0.113   0.482   1.693
   29X2IT    C7  914   0.027   0.679   1.619
   29X2IT    C8  915   0.151   0.769   1.622
   29X2IT    O2  916   0.152   0.869   1.548
   29X2IT    N3  917  -0.065   0.721   1.531
   29X2IT   H15  918  -0.153   0.674   1.518
   29X2IT   H16  919  -0.044   0.805   1.477
   29X2IT    N2  920   0.349   0.596   1.867
   29X2IT    C3  921   0.356   0.538   2.002
   29X2IT    C2  922   0.422   0.650   2.082
   29X2IT    H2  923   0.471   0.627   2.177
   29X2IT    N1  924   0.354   0.780   2.065
   29X2IT   H14  925   0.377   0.841   2.143
   29X2IT    C1  926   0.477   0.751   1.989
   29X2IT    H1  927   0.568   0.807   2.008
   29X2IT   C11  928   0.451   0.703   1.847
   29X2IT    O3  929   0.575   0.651   1.805
   29X2IT   C15  930   0.574   0.563   1.691
   30X2IT   H18  931   4.764   2.013   4.214
   30X2IT    N4  932   4.783   2.091   4.275
   30X2IT   H17  933   4.777   2.183   4.235
   30X2IT   C14  934   4.751   2.073   4.407
   30X2IT    O5  935   4.729   1.966   4.460
   30X2IT    O4  936   4.751   2.193   4.471
   30X2IT   C13  937   4.726   2.190   4.613
   30X2IT   C10  938   4.854   2.157   4.692
   30X2IT    C9  939   4.833   2.159   4.842
   30X2IT    C4  940   4.918   2.251   4.901
   30X2IT    C5  941   4.922   2.278   5.049
   30X2IT    O1  942   5.005   2.360   5.093
   30X2IT    C6  943   4.829   2.205   5.131
   30X2IT   C12  944   4.828   2.228   5.280
   30X2IT    C7  945   4.745   2.113   5.072
   30X2IT    C8  946   4.742   2.085   4.921
   30X2IT    O2  947   4.659   2.003   4.879
   30X2IT    N3  948   4.656   2.039   5.140
   30X2IT   H15  949   4.643   2.046   5.239
   30X2IT   H16  950   4.597   1.975   5.086
   30X2IT    N2  951   5.002   2.308   4.811
   30X2IT    C3  952   5.057   2.444   4.812
   30X2IT    C2  953   5.005   2.500   4.680
   30X2IT    H2  954   5.054   2.587   4.635
   30X2IT    N1  955   4.859   2.483   4.665
   30X2IT   H14  956   4.823   2.549   4.596
   30X2IT    C1  957   4.951   2.389   4.597
   30X2IT    H1  958   4.958   2.387   4.489
   30X2IT   C11  959   4.972   2.260   4.673
   30X2IT    O3  960   5.086   2.201   4.611
   30X2IT   C15  961   5.154   2.099   4.684
   31X2IT   H18  962   4.590   4.663   2.756
   31X2IT    N4  963   4.659   4.718   2.804
   31X2IT   H17  964   4.669   4.814   2.775
   31X2IT   C14  965   4.683   4.685   2.935
   31X2IT    O5  966   4.650   4.580   2.987
   31X2IT    O4  967   4.754   4.784   2.996
   31X2IT   C13  968   4.793   4.760   3.133
   31X2IT   C10  969   4.922   4.676   3.140
   31X2IT    C9  970   4.970   4.654   3.282
   31X2IT    C4  971   5.098   4.703   3.297
   31X2IT    C5  972   5.175   4.697   3.425
   31X2IT    O1  973   5.292   4.740   3.429
   31X2IT    C6  974   5.107   4.640   3.539
   31X2IT   C12  975   5.179   4.632   3.672
   31X2IT    C7  976   4.979   4.590   3.524
   31X2IT    C8  977   4.902   4.596   3.392
   31X2IT    O2  978   4.786   4.552   3.391
   31X2IT    N3  979   4.909   4.534   3.623
   31X2IT   H15  980   4.944   4.524   3.717
   31X2IT   H16  981   4.814   4.502   3.601
   31X2IT    N2  982   5.149   4.749   3.180
   31X2IT    C3  983   5.243   4.860   3.160
   31X2IT    C2  984   5.163   4.954   3.071
   31X2IT    H2  985   5.215   5.029   3.011
   31X2IT    N1  986   5.029   4.984   3.126
   31X2IT   H14  987   4.994   5.070   3.085
   31X2IT    C1  988   5.043   4.883   3.019
   31X2IT    H1  989   5.002   4.901   2.921
   31X2IT   C11  990   5.048   4.740   3.071
   31X2IT    O3  991   5.095   4.665   2.961
   31X2IT   C15  992   5.146   4.534   2.988
   32X2IT   H18  993   5.123   1.486   0.125
   32X2IT    N4  994   5.065   1.521   0.200
   32X2IT   H17  995   4.981   1.468   0.220
   32X2IT   C14  996   5.129   1.586   0.301
   32X2IT    O5  997   5.242   1.631   0.295
   32X2IT    O4  998   5.045   1.599   0.408
   32X2IT   C13  999   5.097   1.673   0.521
   32X2IT   C10 1000   5.080   1.825   0.501
   32X2IT    C9 1001   5.127   1.906   0.620
   32X2IT    C4 1002   5.024   1.983   0.668
   32X2IT    C5 1003   5.036   2.075   0.787
   32X2IT    O1 1004   4.939   2.144   0.821
   32X2IT    C6 1005   5.164   2.077   0.853
   32X2IT   C12 1006   5.184   2.167   0.974
   32X2IT    C7 1007   5.268   2.000   0.804
   32X2IT    C8 1008   5.254   1.908   0.683
   32X2IT    O2 1009   5.352   1.840   0.650
   32X2IT    N3 1010   5.391   1.997   0.858
   32X2IT   H15 1011   5.416   2.050   0.939
   32X2IT   H16 1012   5.459   1.935   0.814
   32X2IT    N2 1013   4.912   1.974   0.592
   32X2IT    C3 1014   4.771   1.981   0.636
   32X2IT    C2 1015   4.717   1.845   0.593
   32X2IT    H2 1016   4.610   1.831   0.581
   32X2IT    N1 1017   4.801   1.733   0.643
   32X2IT   H14 1018   4.745   1.647   0.643
   32X2IT    C1 1019   4.815   1.779   0.503
   32X2IT    H1 1020   4.786   1.715   0.421
   32X2IT   C11 1021   4.932   1.874   0.483
   32X2IT    O3 1022   4.908   1.931   0.355
   32X2IT   C15 1023   4.978   2.052   0.323
   33X2IT   H18 1024   1.382   2.817   2.261
   33X2IT    N4 1025   1.312   2.778   2.321
   33X2IT   H17 1026   1.219   2.768   2.282
   33X2IT   C14 1027   1.354   2.689   2.415
   33X2IT    O5 1028   1.470   2.674   2.451
   33X2IT    O4 1029   1.247   2.622   2.468
   33X2IT   C13 1030   1.276   2.529   2.574
   33X2IT   C10 1031   1.286   2.601   2.710
   33X2IT    C9 1032   1.310   2.506   2.825
   33X2IT    C4 1033   1.209   2.519   2.919
   33X2IT    C5 1034   1.201   2.438   3.045
   33X2IT    O1 1035   1.109   2.459   3.126
   33X2IT    C6 1036   1.305   2.340   3.066
   33X2IT   C12 1037   1.304   2.255   3.191
   33X2IT    C7 1038   1.407   2.328   2.973
   33X2IT    C8 1039   1.414   2.412   2.845
   33X2IT    O2 1040   1.507   2.389   2.766
   33X2IT    N3 1041   1.509   2.242   2.984
   33X2IT   H15 1042   1.519   2.178   3.061
   33X2IT   H16 1043   1.578   2.240   2.908
   33X2IT    N2 1044   1.122   2.618   2.887
   33X2IT    C3 1045   0.977   2.623   2.914
   33X2IT    C2 1046   0.918   2.634   2.774
   33X2IT    H2 1047   0.818   2.673   2.761
   33X2IT    N1 1048   0.969   2.529   2.684
   33X2IT   H14 1049   0.904   2.517   2.605
   33X2IT    C1 1050   1.027   2.664   2.677
   33X2IT    H1 1051   1.013   2.727   2.590
   33X2IT   C11 1052   1.157   2.678   2.755
   33X2IT    O3 1053   1.176   2.818   2.765
   33X2IT   C15 1054   1.268   2.864   2.865
   34X2IT   H18 1055   5.237   2.883   0.739
   34X2IT    N4 1056   5.165   2.918   0.799
   34X2IT   H17 1057   5.079   2.948   0.756
   34X2IT   C14 1058   5.161   2.866   0.926
   34X2IT    O5 1059   5.251   2.803   0.979
   34X2IT    O4 1060   5.042   2.898   0.986
   34X2IT   C13 1061   5.027   2.855   1.123
   34X2IT   C10 1062   5.093   2.953   1.220
   34X2IT    C9 1063   5.073   2.915   1.365
   34X2IT    C4 1064   5.009   3.018   1.433
   34X2IT    C5 1065   4.973   3.012   1.579
   34X2IT    O1 1066   4.920   3.111   1.632
   34X2IT    C6 1067   5.006   2.890   1.649
   34X2IT   C12 1068   4.972   2.878   1.796
   34X2IT    C7 1069   5.070   2.788   1.581
   34X2IT    C8 1070   5.107   2.796   1.433
   34X2IT    O2 1071   5.160   2.696   1.381
   34X2IT    N3 1072   5.106   2.672   1.638
   34X2IT   H15 1073   5.087   2.650   1.734
   34X2IT   H16 1074   5.151   2.603   1.578
   34X2IT    N2 1075   4.990   3.127   1.355
   34X2IT    C3 1076   4.879   3.223   1.359
   34X2IT    C2 1077   4.820   3.210   1.219
   34X2IT    H2 1078   4.758   3.290   1.179
   34X2IT    N1 1079   4.790   3.070   1.184
   34X2IT   H14 1080   4.721   3.067   1.108
   34X2IT    C1 1081   4.913   3.133   1.133
   34X2IT    H1 1082   4.926   3.153   1.027
   34X2IT   C11 1083   5.036   3.100   1.216
   34X2IT    O3 1084   5.133   3.195   1.173
   34X2IT   C15 1085   5.246   3.216   1.258
   35X2IT   H18 1086   0.605   0.948   5.511
   35X2IT    N4 1087   0.627   0.940   5.413
   35X2IT   H17 1088   0.675   0.857   5.383
   35X2IT   C14 1089   0.543   1.004   5.327
   35X2IT    O5 1090   0.461   1.089   5.357
   35X2IT    O4 1091   0.567   0.961   5.199
   35X2IT   C13 1092   0.489   1.024   5.095
   35X2IT   C10 1093   0.551   1.158   5.052
   35X2IT    C9 1094   0.477   1.224   4.939
   35X2IT    C4 1095   0.561   1.244   4.831
   35X2IT    C5 1096   0.519   1.307   4.702
   35X2IT    O1 1097   0.603   1.325   4.612
   35X2IT    C6 1098   0.380   1.345   4.691
   35X2IT   C12 1099   0.330   1.409   4.563
   35X2IT    C7 1100   0.296   1.326   4.799
   35X2IT    C8 1101   0.341   1.263   4.930
   35X2IT    O2 1102   0.255   1.246   5.019
   35X2IT    N3 1103   0.166   1.360   4.799
   35X2IT   H15 1104   0.120   1.401   4.720
   35X2IT   H16 1105   0.112   1.340   4.884
   35X2IT    N2 1106   0.689   1.208   4.859
   35X2IT    C3 1107   0.789   1.151   4.767
   35X2IT    C2 1108   0.820   1.017   4.832
   35X2IT    H2 1109   0.913   0.965   4.808
   35X2IT    N1 1110   0.698   0.938   4.860
   35X2IT   H14 1111   0.722   0.840   4.870
   35X2IT    C1 1112   0.763   1.014   4.969
   35X2IT    H1 1113   0.810   0.962   5.052
   35X2IT   C11 1114   0.698   1.149   4.996
   35X2IT    O3 1115   0.793   1.217   5.076
   35X2IT   C15 1116   0.780   1.359   5.087
   36X2IT   H18 1117   1.300   3.398   0.658
   36X2IT    N4 1118   1.255   3.308   0.650
   36X2IT   H17 1119   1.230   3.278   0.557
   36X2IT   C14 1120   1.287   3.215   0.744
   36X2IT    O5 1121   1.343   3.239   0.850
   36X2IT    O4 1122   1.244   3.092   0.705
   36X2IT   C13 1123   1.265   2.984   0.798
   36X2IT   C10 1124   1.154   2.978   0.904
   36X2IT    C9 1125   1.169   2.862   1.000
   36X2IT    C4 1126   1.056   2.782   0.996
   36X2IT    C5 1127   1.039   2.658   1.079
   36X2IT    O1 1128   0.933   2.595   1.072
   36X2IT    C6 1129   1.149   2.621   1.163
   36X2IT   C12 1130   1.139   2.496   1.249
   36X2IT    C7 1131   1.262   2.701   1.168
   36X2IT    C8 1132   1.278   2.828   1.084
   36X2IT    O2 1133   1.385   2.891   1.093
   36X2IT    N3 1134   1.369   2.676   1.245
   36X2IT   H15 1135   1.376   2.596   1.305
   36X2IT   H16 1136   1.447   2.742   1.239
   36X2IT    N2 1137   0.960   2.834   0.915
   36X2IT    C3 1138   0.862   2.760   0.833
   36X2IT    C2 1139   0.895   2.809   0.693
   36X2IT    H2 1140   0.821   2.799   0.614
   36X2IT    N1 1141   1.039   2.794   0.661
   36X2IT   H14 1142   1.051   2.793   0.559
   36X2IT    C1 1143   0.986   2.926   0.701
   36X2IT    H1 1144   0.983   3.008   0.630
   36X2IT   C11 1145   1.008   2.958   0.848
   36X2IT    O3 1146   0.923   3.068   0.873
   36X2IT   C15 1147   0.892   3.097   1.010
   37X2IT   H18 1148   3.127   4.361   1.731
   37X2IT    N4 1149   3.132   4.329   1.826
   37X2IT   H17 1150   3.159   4.232   1.840
   37X2IT   C14 1151   3.165   4.422   1.920
   37X2IT    O5 1152   3.162   4.543   1.903
   37X2IT    O4 1153   3.199   4.360   2.037
   37X2IT   C13 1154   3.230   4.447   2.148
   37X2IT   C10 1155   3.103   4.494   2.220
   37X2IT    C9 1156   3.132   4.580   2.341
   37X2IT    C4 1157   3.076   4.523   2.454
   37X2IT    C5 1158   3.087   4.583   2.592
   37X2IT    O1 1159   3.030   4.527   2.687
   37X2IT    C6 1160   3.163   4.704   2.604
   37X2IT   C12 1161   3.179   4.769   2.740
   37X2IT    C7 1162   3.218   4.761   2.491
   37X2IT    C8 1163   3.206   4.700   2.351
   37X2IT    O2 1164   3.263   4.758   2.257
   37X2IT    N3 1165   3.290   4.875   2.491
   37X2IT   H15 1166   3.309   4.927   2.575
   37X2IT   H16 1167   3.327   4.908   2.402
   37X2IT    N2 1168   3.004   4.412   2.425
   37X2IT    C3 1169   2.985   4.292   2.508
   37X2IT    C2 1170   3.042   4.182   2.419
   37X2IT    H2 1171   3.014   4.079   2.436
   37X2IT    N1 1172   3.178   4.214   2.370
   37X2IT   H14 1173   3.225   4.128   2.341
   37X2IT    C1 1174   3.062   4.236   2.281
   37X2IT    H1 1175   3.049   4.176   2.192
   37X2IT   C11 1176   3.013   4.380   2.280
   37X2IT    O3 1177   2.885   4.372   2.219
   37X2IT   C15 1178   2.797   4.484   2.237
   38X2IT   H18 1179   3.915   0.832   0.786
   38X2IT    N4 1180   3.816   0.848   0.783
   38X2IT   H17 1181   3.776   0.906   0.856
   38X2IT   C14 1182   3.758   0.849   0.659
   38X2IT    O5 1183   3.809   0.804   0.558
   38X2IT    O4 1184   3.633   0.902   0.666
   38X2IT   C13 1185   3.557   0.902   0.544
   38X2IT   C10 1186   3.488   0.767   0.519
   38X2IT    C9 1187   3.402   0.765   0.395
   38X2IT    C4 1188   3.271   0.733   0.428
   38X2IT    C5 1189   3.160   0.724   0.328
   38X2IT    O1 1190   3.046   0.690   0.366
   38X2IT    C6 1191   3.193   0.754   0.191
   38X2IT   C12 1192   3.085   0.747   0.085
   38X2IT    C7 1193   3.323   0.786   0.158
   38X2IT    C8 1194   3.437   0.794   0.261
   38X2IT    O2 1195   3.549   0.828   0.221
   38X2IT    N3 1196   3.364   0.814   0.033
   38X2IT   H15 1197   3.303   0.815  -0.046
   38X2IT   H16 1198   3.463   0.837   0.021
   38X2IT    N2 1199   3.258   0.703   0.560
   38X2IT    C3 1200   3.141   0.727   0.647
   38X2IT    C2 1201   3.200   0.817   0.754
   38X2IT    H2 1202   3.150   0.826   0.851
   38X2IT    N1 1203   3.271   0.934   0.697
   38X2IT   H14 1204   3.278   1.007   0.768
   38X2IT    C1 1205   3.348   0.817   0.744
   38X2IT    H1 1206   3.414   0.824   0.830
   38X2IT   C11 1207   3.387   0.722   0.632
   38X2IT    O3 1208   3.428   0.604   0.699
   38X2IT   C15 1209   3.434   0.483   0.621
   39X2IT   H18 1210   0.676   4.312   1.290
   39X2IT    N4 1211   0.661   4.407   1.260
   39X2IT   H17 1212   0.726   4.477   1.293
   39X2IT   C14 1213   0.602   4.424   1.137
   39X2IT    O5 1214   0.543   4.337   1.075
   39X2IT    O4 1215   0.616   4.553   1.096
   39X2IT   C13 1216   0.553   4.588   0.971
   39X2IT   C10 1217   0.404   4.619   0.990
   39X2IT    C9 1218   0.335   4.662   0.862
   39X2IT    C4 1219   0.280   4.788   0.878
   39X2IT    C5 1220   0.205   4.860   0.769
   39X2IT    O1 1221   0.155   4.971   0.793
   39X2IT    C6 1222   0.196   4.794   0.642
   39X2IT   C12 1223   0.123   4.862   0.528
   39X2IT    C7 1224   0.251   4.668   0.627
   39X2IT    C8 1225   0.326   4.594   0.738
   39X2IT    O2 1226   0.375   4.483   0.712
   39X2IT    N3 1227   0.246   4.597   0.512
   39X2IT   H15 1228   0.202   4.631   0.429
   39X2IT   H16 1229   0.291   4.505   0.512
   39X2IT    N2 1230   0.293   4.834   1.004
   39X2IT    C3 1231   0.311   4.974   1.048
   39X2IT    C2 1232   0.445   4.968   1.120
   39X2IT    H2 1233   0.471   5.046   1.192
   39X2IT    N1 1234   0.551   4.907   1.037
   39X2IT   H14 1235   0.643   4.935   1.072
   39X2IT    C1 1236   0.484   4.827   1.141
   39X2IT    H1 1237   0.538   4.793   1.228
   39X2IT   C11 1238   0.372   4.739   1.087
   39X2IT    O3 1239   0.301   4.699   1.203
   39X2IT   C15 1240   0.169   4.647   1.184
   40X2IT   H18 1241   2.043   1.943   2.396
   40X2IT    N4 1242   2.043   1.849   2.430
   40X2IT   H17 1243   2.131   1.813   2.465
   40X2IT   C14 1244   1.926   1.804   2.485
   40X2IT    O5 1245   1.817   1.856   2.471
   40X2IT    O4 1246   1.949   1.688   2.555
   40X2IT   C13 1247   1.833   1.625   2.613
   40X2IT   C10 1248   1.759   1.538   2.510
   40X2IT    C9 1249   1.641   1.464   2.569
   40X2IT    C4 1250   1.656   1.328   2.552
   40X2IT    C5 1251   1.557   1.226   2.600
   40X2IT    O1 1252   1.577   1.106   2.577
   40X2IT    C6 1253   1.441   1.276   2.670
   40X2IT   C12 1254   1.337   1.179   2.721
   40X2IT    C7 1255   1.426   1.413   2.686
   40X2IT    C8 1256   1.527   1.516   2.636
   40X2IT    O2 1257   1.505   1.636   2.660
   40X2IT    N3 1258   1.321   1.469   2.748
   40X2IT   H15 1259   1.246   1.416   2.789
   40X2IT   H16 1260   1.320   1.571   2.756
   40X2IT    N2 1261   1.767   1.297   2.481
   40X2IT    C3 1262   1.854   1.179   2.494
   40X2IT    C2 1263   1.989   1.242   2.528
   40X2IT    H2 1264   2.080   1.185   2.511
   40X2IT    N1 1265   1.980   1.336   2.641
   40X2IT   H14 1266   2.073   1.348   2.682
   40X2IT    C1 1267   1.983   1.388   2.503
   40X2IT    H1 1268   2.067   1.445   2.467
   40X2IT   C11 1269   1.845   1.421   2.448
   40X2IT    O3 1270   1.865   1.435   2.309
   40X2IT   C15 1271   1.750   1.428   2.225
   41X2IT   H18 1272   5.099   4.722   3.904
   41X2IT    N4 1273   5.038   4.705   3.983
   41X2IT   H17 1274   5.075   4.723   4.075
   41X2IT   C14 1275   4.904   4.720   3.960
   41X2IT    O5 1276   4.851   4.726   3.851
   41X2IT    O4 1277   4.838   4.724   4.080
   41X2IT   C13 1278   4.694   4.734   4.072
   41X2IT   C10 1279   4.629   4.596   4.051
   41X2IT    C9 1280   4.478   4.601   4.049
   41X2IT    C4 1281   4.427   4.519   4.148
   41X2IT    C5 1282   4.280   4.501   4.173
   41X2IT    O1 1283   4.242   4.423   4.262
   41X2IT    C6 1284   4.190   4.578   4.091
   41X2IT   C12 1285   4.040   4.566   4.112
   41X2IT    C7 1286   4.242   4.659   3.991
   41X2IT    C8 1287   4.392   4.676   3.965
   41X2IT    O2 1288   4.427   4.755   3.876
   41X2IT    N3 1289   4.166   4.733   3.908
   41X2IT   H15 1290   4.066   4.736   3.913
   41X2IT   H16 1291   4.215   4.791   3.839
   41X2IT    N2 1292   4.524   4.450   4.213
   41X2IT    C3 1293   4.526   4.409   4.354
   41X2IT    C2 1294   4.650   4.480   4.407
   41X2IT    H2 1295   4.698   4.444   4.498
   41X2IT    N1 1296   4.650   4.624   4.375
   41X2IT   H14 1297   4.713   4.673   4.439
   41X2IT    C1 1298   4.729   4.532   4.292
   41X2IT    H1 1299   4.837   4.536   4.292
   41X2IT   C11 1300   4.659   4.490   4.164
   41X2IT    O3 1301   4.733   4.379   4.118
   41X2IT   C15 1302   4.670   4.294   4.021
   42X2IT   H18 1303   0.788   3.389   1.662
   42X2IT    N4 1304   0.852   3.370   1.737
   42X2IT   H17 1305   0.850   3.433   1.816
   42X2IT   C14 1306   0.886   3.239   1.757
   42X2IT    O5 1307   0.868   3.149   1.676
   42X2IT    O4 1308   0.947   3.224   1.878
   42X2IT   C13 1309   0.995   3.092   1.910
   42X2IT   C10 1310   1.133   3.065   1.847
   42X2IT    C9 1311   1.189   2.930   1.884
   42X2IT    C4 1312   1.311   2.944   1.947
   42X2IT    C5 1313   1.394   2.829   1.997
   42X2IT    O1 1314   1.504   2.851   2.049
   42X2IT    C6 1315   1.338   2.697   1.980
   42X2IT   C12 1316   1.416   2.577   2.029
   42X2IT    C7 1317   1.216   2.683   1.916
   42X2IT    C8 1318   1.133   2.801   1.865
   42X2IT    O2 1319   1.023   2.776   1.813
   42X2IT    N3 1320   1.157   2.564   1.894
   42X2IT   H15 1321   1.197   2.477   1.923
   42X2IT   H16 1322   1.066   2.565   1.848
   42X2IT    N2 1323   1.352   3.074   1.951
   42X2IT    C3 1324   1.431   3.141   2.055
   42X2IT    C2 1325   1.336   3.251   2.101
   42X2IT    H2 1326   1.376   3.338   2.154
   42X2IT    N1 1327   1.202   3.199   2.137
   42X2IT   H14 1328   1.155   3.266   2.198
   42X2IT    C1 1329   1.224   3.263   2.005
   42X2IT    H1 1330   1.176   3.357   1.981
   42X2IT   C11 1331   1.247   3.163   1.893
   42X2IT    O3 1332   1.298   3.242   1.787
   42X2IT   C15 1333   1.366   3.173   1.681
   43X2IT   H18 1334   3.985   4.313   2.687
   43X2IT    N4 1335   3.943   4.389   2.637
   43X2IT   H17 1336   3.859   4.430   2.675
   43X2IT   C14 1337   4.029   4.468   2.565
   43X2IT    O5 1338   4.143   4.439   2.535
   43X2IT    O4 1339   3.965   4.583   2.528
   43X2IT   C13 1340   4.041   4.674   2.446
   43X2IT   C10 1341   4.036   4.634   2.297
   43X2IT    C9 1342   4.109   4.731   2.207
   43X2IT    C4 1343   4.022   4.782   2.112
   43X2IT    C5 1344   4.063   4.881   2.007
   43X2IT    O1 1345   3.979   4.919   1.923
   43X2IT    C6 1346   4.199   4.927   2.010
   43X2IT   C12 1347   4.247   5.028   1.908
   43X2IT    C7 1348   4.286   4.875   2.105
   43X2IT    C8 1349   4.244   4.773   2.211
   43X2IT    O2 1350   4.329   4.737   2.294
   43X2IT    N3 1351   4.415   4.910   2.115
   43X2IT   H15 1352   4.459   4.978   2.054
   43X2IT   H16 1353   4.470   4.867   2.190
   43X2IT    N2 1354   3.899   4.725   2.119
   43X2IT    C3 1355   3.769   4.788   2.090
   43X2IT    C2 1356   3.696   4.775   2.223
   43X2IT    H2 1357   3.588   4.781   2.226
   43X2IT    N1 1358   3.776   4.828   2.336
   43X2IT   H14 1359   3.714   4.850   2.414
   43X2IT    C1 1360   3.772   4.683   2.312
   43X2IT    H1 1361   3.724   4.616   2.383
   43X2IT   C11 1362   3.892   4.631   2.234
   43X2IT    O3 1363   3.852   4.501   2.193
   43X2IT   C15 1364   3.927   4.441   2.087
   44X2IT   H18 1365   2.878   2.049   3.653
   44X2IT    N4 1366   2.801   2.059   3.717
   44X2IT   H17 1367   2.709   2.036   3.684
   44X2IT   C14 1368   2.831   2.042   3.850
   44X2IT    O5 1369   2.943   2.042   3.898
   44X2IT    O4 1370   2.715   2.028   3.921
   44X2IT   C13 1371   2.730   2.015   4.064
   44X2IT   C10 1372   2.745   2.153   4.132
   44X2IT    C9 1373   2.754   2.144   4.283
   44X2IT    C4 1374   2.653   2.218   4.341
   44X2IT    C5 1375   2.633   2.230   4.489
   44X2IT    O1 1376   2.541   2.301   4.533
   44X2IT    C6 1377   2.724   2.156   4.573
   44X2IT   C12 1378   2.709   2.163   4.724
   44X2IT    C7 1379   2.826   2.083   4.515
   44X2IT    C8 1380   2.846   2.072   4.363
   44X2IT    O2 1381   2.938   2.000   4.322
   44X2IT    N3 1382   2.917   2.012   4.584
   44X2IT   H15 1383   2.917   2.007   4.685
   44X2IT   H16 1384   2.987   1.961   4.530
   44X2IT    N2 1385   2.579   2.285   4.249
   44X2IT    C3 1386   2.435   2.316   4.254
   44X2IT    C2 1387   2.382   2.246   4.130
   44X2IT    H2 1388   2.287   2.277   4.087
   44X2IT    N1 1389   2.422   2.104   4.125
   44X2IT   H14 1390   2.359   2.053   4.063
   44X2IT    C1 1391   2.496   2.204   4.045
   44X2IT    H1 1392   2.491   2.202   3.936
   44X2IT   C11 1393   2.624   2.251   4.111
   44X2IT    O3 1394   2.660   2.367   4.038
   44X2IT   C15 1395   2.754   2.457   4.099
   45X2IT   H18 1396   1.000   1.190   3.322
   45X2IT    N4 1397   0.918   1.230   3.281
   45X2IT   H17 1398   0.929   1.311   3.222
   45X2IT   C14 1399   0.815   1.142   3.255
   45X2IT    O5 1400   0.805   1.030   3.302
   45X2IT    O4 1401   0.724   1.201   3.173
   45X2IT   C13 1402   0.606   1.123   3.142
   45X2IT   C10 1403   0.501   1.135   3.253
   45X2IT    C9 1404   0.373   1.060   3.222
   45X2IT    C4 1405   0.265   1.146   3.223
   45X2IT    C5 1406   0.124   1.104   3.195
   45X2IT    O1 1407   0.033   1.188   3.202
   45X2IT    C6 1408   0.103   0.965   3.162
   45X2IT   C12 1409  -0.037   0.916   3.132
   45X2IT    C7 1410   0.211   0.879   3.161
   45X2IT    C8 1411   0.355   0.923   3.191
   45X2IT    O2 1412   0.444   0.837   3.183
   45X2IT    N3 1413   0.202   0.748   3.133
   45X2IT   H15 1414   0.115   0.703   3.110
   45X2IT   H16 1415   0.288   0.693   3.134
   45X2IT    N2 1416   0.301   1.272   3.261
   45X2IT    C3 1417   0.243   1.399   3.216
   45X2IT    C2 1418   0.363   1.469   3.153
   45X2IT    H2 1419   0.362   1.577   3.140
   45X2IT    N1 1420   0.432   1.384   3.054
   45X2IT   H14 1421   0.487   1.443   2.991
   45X2IT    C1 1422   0.487   1.396   3.190
   45X2IT    H1 1423   0.582   1.445   3.207
   45X2IT   C11 1424   0.448   1.280   3.281
   45X2IT    O3 1425   0.481   1.327   3.411
   45X2IT   C15 1426   0.421   1.258   3.522
   46X2IT   H18 1427   4.946   3.452  -0.121
   46X2IT    N4 1428   4.922   3.417  -0.030
   46X2IT   H17 1429   4.859   3.472   0.027
   46X2IT   C14 1430   4.922   3.281  -0.016
   46X2IT    O5 1431   4.973   3.202  -0.094
   46X2IT    O4 1432   4.860   3.246   0.101
   46X2IT   C13 1433   4.858   3.105   0.132
   46X2IT   C10 1434   4.989   3.061   0.199
   46X2IT    C9 1435   4.988   2.915   0.240
   46X2IT    C4 1436   5.010   2.904   0.376
   46X2IT    C5 1437   5.014   2.773   0.449
   46X2IT    O1 1438   5.039   2.771   0.571
   46X2IT    C6 1439   4.991   2.654   0.371
   46X2IT   C12 1440   4.993   2.518   0.438
   46X2IT    C7 1441   4.969   2.666   0.235
   46X2IT    C8 1442   4.966   2.800   0.161
   46X2IT    O2 1443   4.941   2.799   0.039
   46X2IT    N3 1444   4.948   2.561   0.153
   46X2IT   H15 1445   4.945   2.466   0.185
   46X2IT   H16 1446   4.932   2.581   0.054
   46X2IT    N2 1447   5.035   3.024   0.434
   46X2IT    C3 1448   5.000   3.067   0.570
   46X2IT    C2 1449   4.911   3.188   0.543
   46X2IT    H2 1450   4.895   3.262   0.621
   46X2IT    N1 1451   4.801   3.157   0.449
   46X2IT   H14 1452   4.726   3.225   0.460
   46X2IT    C1 1453   4.922   3.227   0.400
   46X2IT    H1 1454   4.917   3.329   0.366
   46X2IT   C11 1455   5.023   3.134   0.334
   46X2IT    O3 1456   5.141   3.211   0.327
   46X2IT   C15 1457   5.264   3.141   0.305
   47X2IT   H18 1458   3.001   1.343  -0.375
   47X2IT    N4 1459   3.052   1.371  -0.293
   47X2IT   H17 1460   3.108   1.455  -0.300
   47X2IT   C14 1461   2.996   1.338  -0.173
   47X2IT    O5 1462   2.907   1.256  -0.156
   47X2IT    O4 1463   3.057   1.408  -0.073
   47X2IT   C13 1464   3.013   1.378   0.062
   47X2IT   C10 1465   3.083   1.253   0.118
   47X2IT    C9 1466   3.045   1.223   0.261
   47X2IT    C4 1467   3.157   1.221   0.341
   47X2IT    C5 1468   3.154   1.195   0.489
   47X2IT    O1 1469   3.261   1.191   0.552
   47X2IT    C6 1470   3.024   1.174   0.548
   47X2IT   C12 1471   3.014   1.147   0.697
   47X2IT    C7 1472   2.912   1.174   0.467
   47X2IT    C8 1473   2.916   1.200   0.317
   47X2IT    O2 1474   2.809   1.203   0.255
   47X2IT    N3 1475   2.787   1.154   0.513
   47X2IT   H15 1476   2.766   1.137   0.610
   47X2IT   H16 1477   2.711   1.158   0.444
   47X2IT    N2 1478   3.271   1.238   0.269
   47X2IT    C3 1479   3.395   1.305   0.311
   47X2IT    C2 1480   3.408   1.417   0.209
   47X2IT    H2 1481   3.504   1.464   0.192
   47X2IT    N1 1482   3.284   1.498   0.198
   47X2IT   H14 1483   3.306   1.589   0.157
   47X2IT    C1 1484   3.312   1.393   0.098
   47X2IT    H1 1485   3.333   1.419  -0.005
   47X2IT   C11 1486   3.240   1.262   0.126
   47X2IT    O3 1487   3.305   1.168   0.041
   47X2IT   C15 1488   3.287   1.029   0.072
   48X2IT   H18 1489   4.857   4.399   2.781
   48X2IT    N4 1490   4.863   4.313   2.832
   48X2IT   H17 1491   4.955   4.286   2.866
   48X2IT   C14 1492   4.753   4.277   2.904
   48X2IT    O5 1493   4.641   4.323   2.889
   48X2IT    O4 1494   4.785   4.177   2.992
   48X2IT   C13 1495   4.676   4.123   3.070
   48X2IT   C10 1496   4.598   4.017   2.991
   48X2IT    C9 1497   4.487   3.953   3.072
   48X2IT    C4 1498   4.506   3.816   3.080
   48X2IT    C5 1499   4.414   3.723   3.153
   48X2IT    O1 1500   4.436   3.601   3.151
   48X2IT    C6 1501   4.303   3.783   3.222
   48X2IT   C12 1502   4.206   3.695   3.299
   48X2IT    C7 1503   4.283   3.920   3.214
   48X2IT    C8 1504   4.377   4.014   3.138
   48X2IT    O2 1505   4.353   4.135   3.141
   48X2IT    N3 1506   4.182   3.985   3.273
   48X2IT   H15 1507   4.112   3.938   3.329
   48X2IT   H16 1508   4.178   4.086   3.262
   48X2IT    N2 1509   4.612   3.775   3.006
   48X2IT    C3 1510   4.704   3.663   3.034
   48X2IT    C2 1511   4.838   3.734   3.044
   48X2IT    H2 1512   4.930   3.677   3.031
   48X2IT    N1 1513   4.835   3.847   3.139
   48X2IT   H14 1514   4.930   3.869   3.169
   48X2IT    C1 1515   4.825   3.873   2.993
   48X2IT    H1 1516   4.904   3.924   2.941
   48X2IT   C11 1517   4.682   3.892   2.945
   48X2IT    O3 1518   4.692   3.881   2.804
   48X2IT   C15 1519   4.570   3.855   2.733
   49X2IT   H18 1520   3.879   4.810   1.007
   49X2IT    N4 1521   3.903   4.866   0.928
   49X2IT   H17 1522   4.001   4.887   0.915
   49X2IT   C14 1523   3.822   4.856   0.818
   49X2IT    O5 1524   3.711   4.807   0.818
   49X2IT    O4 1525   3.883   4.913   0.710
   49X2IT   C13 1526   3.807   4.915   0.588
   49X2IT   C10 1527   3.710   5.035   0.585
   49X2IT    C9 1528   3.632   5.045   0.455
   49X2IT    C4 1529   3.656   5.168   0.395
   49X2IT    C5 1530   3.595   5.210   0.264
   49X2IT    O1 1531   3.618   5.323   0.220
   49X2IT    C6 1532   3.510   5.113   0.199
   49X2IT   C12 1533   3.445   5.149   0.067
   49X2IT    C7 1534   3.486   4.991   0.259
   49X2IT    C8 1535   3.548   4.950   0.393
   49X2IT    O2 1536   3.523   4.836   0.436
   49X2IT    N3 1537   3.407   4.896   0.207
   49X2IT   H15 1538   3.360   4.906   0.119
   49X2IT   H16 1539   3.398   4.809   0.260
   49X2IT    N2 1540   3.734   5.248   0.472
   49X2IT    C3 1541   3.832   5.348   0.427
   49X2IT    C2 1542   3.961   5.296   0.489
   49X2IT    H2 1543   4.046   5.364   0.503
   49X2IT    N1 1544   3.986   5.154   0.457
   49X2IT   H14 1545   4.085   5.133   0.469
   49X2IT    C1 1546   3.929   5.191   0.588
   49X2IT    H1 1547   3.986   5.176   0.679
   49X2IT   C11 1548   3.778   5.177   0.595
   49X2IT    O3 1549   3.742   5.247   0.712
   49X2IT   C15 1550   3.605   5.285   0.726
   50X2IT   H18 1551   1.626  -0.267   3.452
   50X2IT    N4 1552   1.622  -0.174   3.488
   50X2IT   H17 1553   1.568  -0.106   3.436
   50X2IT   C14 1554   1.629  -0.161   3.624
   50X2IT    O5 1555   1.668  -0.247   3.701
   50X2IT    O4 1556   1.592  -0.035   3.661
   50X2IT   C13 1557   1.601  -0.005   3.802
   50X2IT   C10 1558   1.744   0.037   3.841
   50X2IT    C9 1559   1.757   0.076   3.987
   50X2IT    C4 1560   1.805   0.205   3.997
   50X2IT    C5 1561   1.828   0.275   4.128
   50X2IT    O1 1562   1.875   0.390   4.128
   50X2IT    C6 1563   1.795   0.202   4.247
   50X2IT   C12 1564   1.816   0.267   4.383
   50X2IT    C7 1565   1.748   0.072   4.237
   50X2IT    C8 1566   1.725   0.001   4.103
   50X2IT    O2 1567   1.679  -0.114   4.105
   50X2IT    N3 1568   1.717  -0.005   4.342
   50X2IT   H15 1569   1.724   0.027   4.437
   50X2IT   H16 1570   1.681  -0.099   4.322
   50X2IT    N2 1571   1.835   0.258   3.876
   50X2IT    C3 1572   1.824   0.399   3.834
   50X2IT    C2 1573   1.727   0.390   3.717
   50X2IT    H2 1574   1.723   0.470   3.644
   50X2IT    N1 1575   1.603   0.317   3.753
   50X2IT   H14 1576   1.528   0.343   3.688
   50X2IT    C1 1577   1.709   0.248   3.678
   50X2IT    H1 1578   1.693   0.216   3.576
   50X2IT   C11 1579   1.800   0.164   3.767
   50X2IT    O3 1580   1.911   0.135   3.684
   50X2IT   C15 1581   2.031   0.090   3.749
   51X2IT   H18 1582   0.323   4.803   5.553
   51X2IT    N4 1583   0.278   4.861   5.484
   51X2IT   H17 1584   0.245   4.951   5.515
   51X2IT   C14 1585   0.321   4.845   5.355
   51X2IT    O5 1586   0.386   4.751   5.314
   51X2IT    O4 1587   0.276   4.949   5.279
   51X2IT   C13 1588   0.308   4.943   5.138
   51X2IT   C10 1589   0.207   4.855   5.062
   51X2IT    C9 1590   0.233   4.851   4.913
   51X2IT    C4 1591   0.121   4.895   4.844
   51X2IT    C5 1592   0.114   4.905   4.694
   51X2IT    O1 1593   0.008   4.942   4.641
   51X2IT    C6 1594   0.233   4.868   4.621
   51X2IT   C12 1595   0.232   4.876   4.470
   51X2IT    C7 1596   0.344   4.823   4.690
   51X2IT    C8 1597   0.350   4.813   4.843
   51X2IT    O2 1598   0.456   4.775   4.894
   51X2IT    N3 1599   0.458   4.785   4.631
   51X2IT   H15 1600   0.472   4.787   4.531
   51X2IT   H16 1601   0.535   4.755   4.692
   51X2IT    N2 1602   0.017   4.921   4.927
   51X2IT    C3 1603  -0.087   5.024   4.912
   51X2IT    C2 1604  -0.068   5.108   5.038
   51X2IT    H2 1605  -0.150   5.171   5.073
   51X2IT    N1 1606   0.072   5.152   5.055
   51X2IT   H14 1607   0.074   5.233   5.118
   51X2IT    C1 1608   0.021   5.036   5.132
   51X2IT    H1 1609   0.010   5.041   5.239
   51X2IT   C11 1610   0.057   4.902   5.069
   51X2IT    O3 1611  -0.027   4.809   5.136
   51X2IT   C15 1612  -0.045   4.681   5.073
   52X2IT   H18 1613   3.499   4.025   1.440
   52X2IT    N4 1614   3.419   3.987   1.392
   52X2IT   H17 1615   3.406   4.016   1.296
   52X2IT   C14 1616   3.377   3.863   1.431
   52X2IT    O5 1617   3.409   3.808   1.534
   52X2IT    O4 1618   3.290   3.813   1.339
   52X2IT   C13 1619   3.232   3.684   1.370
   52X2IT   C10 1620   3.111   3.699   1.463
   52X2IT    C9 1621   3.043   3.567   1.493
   52X2IT    C4 1622   2.910   3.572   1.454
   52X2IT    C5 1623   2.814   3.457   1.469
   52X2IT    O1 1624   2.696   3.472   1.435
   52X2IT    C6 1625   2.868   3.335   1.524
   52X2IT   C12 1626   2.776   3.215   1.541
   52X2IT    C7 1627   3.000   3.331   1.564
   52X2IT    C8 1628   3.097   3.448   1.549
   52X2IT    O2 1629   3.215   3.432   1.584
   52X2IT    N3 1630   3.058   3.222   1.618
   52X2IT   H15 1631   3.010   3.136   1.633
   52X2IT   H16 1632   3.158   3.230   1.642
   52X2IT    N2 1633   2.875   3.695   1.409
   52X2IT    C3 1634   2.777   3.728   1.304
   52X2IT    C2 1635   2.862   3.802   1.202
   52X2IT    H2 1636   2.815   3.867   1.129
   52X2IT    N1 1637   2.983   3.725   1.164
   52X2IT   H14 1638   3.017   3.759   1.074
   52X2IT    C1 1639   2.994   3.834   1.263
   52X2IT    H1 1640   3.049   3.925   1.239
   52X2IT   C11 1641   2.992   3.786   1.407
   52X2IT    O3 1642   2.970   3.904   1.482
   52X2IT   C15 1643   2.925   3.887   1.617
   53X2IT   H18 1644   1.811   4.752   5.243
   53X2IT    N4 1645   1.725   4.753   5.191
   53X2IT   H17 1646   1.644   4.793   5.237
   53X2IT   C14 1647   1.736   4.762   5.056
   53X2IT    O5 1648   1.838   4.742   4.992
   53X2IT    O4 1649   1.615   4.794   5.001
   53X2IT   C13 1650   1.610   4.801   4.857
   53X2IT   C10 1651   1.592   4.661   4.794
   53X2IT    C9 1652   1.580   4.665   4.644
   53X2IT    C4 1653   1.460   4.608   4.604
   53X2IT    C5 1654   1.416   4.596   4.461
   53X2IT    O1 1655   1.308   4.540   4.435
   53X2IT    C6 1656   1.504   4.651   4.362
   53X2IT   C12 1657   1.465   4.643   4.216
   53X2IT    C7 1658   1.624   4.707   4.401
   53X2IT    C8 1659   1.668   4.718   4.547
   53X2IT    O2 1660   1.776   4.774   4.571
   53X2IT    N3 1661   1.714   4.760   4.316
   53X2IT   H15 1662   1.700   4.763   4.216
   53X2IT   H16 1663   1.799   4.800   4.356
   53X2IT    N2 1664   1.391   4.556   4.709
   53X2IT    C3 1665   1.245   4.549   4.727
   53X2IT    C2 1666   1.223   4.630   4.854
   53X2IT    H2 1667   1.132   4.617   4.912
   53X2IT    N1 1668   1.287   4.764   4.846
   53X2IT   H14 1669   1.242   4.826   4.914
   53X2IT    C1 1670   1.354   4.655   4.920
   53X2IT    H1 1671   1.366   4.659   5.027
   53X2IT   C11 1672   1.461   4.585   4.838
   53X2IT    O3 1673   1.488   4.466   4.910
   53X2IT   C15 1674   1.556   4.361   4.841
   54X2IT   H18 1675   2.180   0.964   0.913
   54X2IT    N4 1676   2.266   0.919   0.938
   54X2IT   H17 1677   2.338   0.914   0.867
   54X2IT   C14 1678   2.303   0.928   1.070
   54X2IT    O5 1679   2.230   0.960   1.161
   54X2IT    O4 1680   2.434   0.891   1.084
   54X2IT   C13 1681   2.485   0.889   1.219
   54X2IT   C10 1682   2.450   0.757   1.290
   54X2IT    C9 1683   2.508   0.748   1.429
   54X2IT    C4 1684   2.588   0.636   1.440
   54X2IT    C5 1685   2.662   0.598   1.565
   54X2IT    O1 1686   2.729   0.494   1.567
   54X2IT    C6 1687   2.648   0.687   1.678
   54X2IT   C12 1688   2.720   0.654   1.808
   54X2IT    C7 1689   2.566   0.798   1.668
   54X2IT    C8 1690   2.491   0.835   1.540
   54X2IT    O2 1691   2.424   0.940   1.540
   54X2IT    N3 1692   2.546   0.885   1.767
   54X2IT   H15 1693   2.589   0.877   1.858
   54X2IT   H16 1694   2.484   0.965   1.748
   54X2IT    N2 1695   2.587   0.561   1.327
   54X2IT    C3 1696   2.697   0.481   1.271
   54X2IT    C2 1697   2.716   0.545   1.134
   54X2IT    H2 1698   2.766   0.489   1.055
   54X2IT    N1 1699   2.733   0.692   1.142
   54X2IT   H14 1700   2.779   0.725   1.057
   54X2IT    C1 1701   2.602   0.635   1.105
   54X2IT    H1 1702   2.562   0.650   1.006
   54X2IT   C11 1703   2.505   0.626   1.222
   54X2IT    O3 1704   2.402   0.541   1.175
   54X2IT   C15 1705   2.316   0.482   1.273
   55X2IT   H18 1706   0.623   0.329   4.595
   55X2IT    N4 1707   0.711   0.311   4.640
   55X2IT   H17 1708   0.793   0.312   4.582
   55X2IT   C14 1709   0.721   0.349   4.771
   55X2IT    O5 1710   0.627   0.376   4.844
   55X2IT    O4 1711   0.852   0.348   4.810
   55X2IT   C13 1712   0.877   0.380   4.949
   55X2IT   C10 1713   0.859   0.257   5.039
   55X2IT    C9 1714   0.892   0.284   5.184
   55X2IT    C4 1715   0.992   0.200   5.227
   55X2IT    C5 1716   1.048   0.201   5.367
   55X2IT    O1 1717   1.135   0.119   5.398
   55X2IT    C6 1718   0.995   0.300   5.457
   55X2IT   C12 1719   1.048   0.307   5.599
   55X2IT    C7 1720   0.894   0.384   5.414
   55X2IT    C8 1721   0.837   0.381   5.272
   55X2IT    O2 1722   0.749   0.464   5.242
   55X2IT    N3 1723   0.837   0.478   5.491
   55X2IT   H15 1724   0.864   0.495   5.586
   55X2IT   H16 1725   0.764   0.536   5.448
   55X2IT    N2 1726   1.027   0.110   5.132
   55X2IT    C3 1727   1.160   0.051   5.108
   55X2IT    C2 1728   1.189   0.096   4.965
   55X2IT    H2 1729   1.264   0.042   4.906
   55X2IT    N1 1730   1.172   0.241   4.947
   55X2IT   H14 1731   1.224   0.272   4.864
   55X2IT    C1 1732   1.065   0.149   4.904
   55X2IT    H1 1733   1.041   0.137   4.799
   55X2IT   C11 1734   0.953   0.135   5.006
   55X2IT    O3 1735   0.882   0.020   4.963
   55X2IT   C15 1736   0.794  -0.042   5.058
   56X2IT   H18 1737   5.345   3.099   4.094
   56X2IT    N4 1738   5.252   3.115   4.061
   56X2IT   H17 1739   5.188   3.162   4.124
   56X2IT   C14 1740   5.237   3.133   3.926
   56X2IT    O5 1741   5.320   3.104   3.842
   56X2IT    O4 1742   5.113   3.185   3.899
   56X2IT   C13 1743   5.081   3.203   3.760
   56X2IT   C10 1744   5.030   3.072   3.696
   56X2IT    C9 1745   4.989   3.088   3.552
   56X2IT    C4 1746   4.857   3.051   3.536
   56X2IT    C5 1747   4.784   3.056   3.404
   56X2IT    O1 1748   4.666   3.017   3.399
   56X2IT    C6 1749   4.858   3.106   3.291
   56X2IT   C12 1750   4.790   3.114   3.156
   56X2IT    C7 1751   4.990   3.142   3.307
   56X2IT    C8 1752   5.064   3.136   3.441
   56X2IT    O2 1753   5.181   3.175   3.445
   56X2IT    N3 1754   5.068   3.188   3.208
   56X2IT   H15 1755   5.035   3.200   3.113
   56X2IT   H16 1756   5.164   3.213   3.231
   56X2IT    N2 1757   4.803   3.002   3.650
   56X2IT    C3 1758   4.664   3.014   3.697
   56X2IT    C2 1759   4.680   3.088   3.829
   56X2IT    H2 1760   4.601   3.083   3.904
   56X2IT    N1 1761   4.760   3.211   3.815
   56X2IT   H14 1762   4.740   3.274   3.893
   56X2IT    C1 1763   4.824   3.089   3.868
   56X2IT    H1 1764   4.858   3.084   3.970
   56X2IT   C11 1765   4.901   3.011   3.762
   56X2IT    O3 1766   4.924   2.885   3.823
   56X2IT   C15 1767   4.960   2.777   3.736
   57X2IT   H18 1768   3.598   2.621   2.318
   57X2IT    N4 1769   3.625   2.700   2.263
   57X2IT   H17 1770   3.601   2.791   2.300
   57X2IT   C14 1771   3.738   2.687   2.188
   57X2IT    O5 1772   3.792   2.581   2.160
   57X2IT    O4 1773   3.780   2.810   2.145
   57X2IT   C13 1774   3.896   2.810   2.059
   57X2IT   C10 1775   3.857   2.783   1.912
   57X2IT    C9 1776   3.975   2.790   1.817
   57X2IT    C4 1777   3.951   2.884   1.719
   57X2IT    C5 1778   4.048   2.917   1.610
   57X2IT    O1 1779   4.018   3.001   1.524
   57X2IT    C6 1780   4.174   2.846   1.611
   57X2IT   C12 1781   4.277   2.874   1.504
   57X2IT    C7 1782   4.197   2.750   1.709
   57X2IT    C8 1783   4.096   2.717   1.820
   57X2IT    O2 1784   4.129   2.633   1.904
   57X2IT    N3 1785   4.309   2.678   1.717
   57X2IT   H15 1786   4.386   2.688   1.653
   57X2IT   H16 1787   4.316   2.611   1.794
   57X2IT    N2 1788   3.827   2.939   1.729
   57X2IT    C3 1789   3.786   3.076   1.697
   57X2IT    C2 1790   3.733   3.127   1.830
   57X2IT    H2 1791   3.665   3.212   1.832
   57X2IT    N1 1792   3.830   3.107   1.940
   57X2IT   H14 1793   3.807   3.171   2.017
   57X2IT    C1 1794   3.717   3.012   1.923
   57X2IT    H1 1795   3.639   3.006   1.997
   57X2IT   C11 1796   3.756   2.885   1.849
   57X2IT    O3 1797   3.632   2.827   1.814
   57X2IT   C15 1798   3.633   2.727   1.711
   58X2IT   H18 1799   5.010   0.845   0.907
   58X2IT    N4 1800   4.956   0.902   0.845
   58X2IT   H17 1801   5.001   0.985   0.809
   58X2IT   C14 1802   4.863   0.838   0.769
   58X2IT    O5 1803   4.821   0.725   0.789
   58X2IT    O4 1804   4.820   0.920   0.669
   58X2IT   C13 1805   4.716   0.868   0.584
   58X2IT   C10 1806   4.577   0.887   0.647
   58X2IT    C9 1807   4.464   0.839   0.558
   58X2IT    C4 1808   4.376   0.943   0.533
   58X2IT    C5 1809   4.254   0.930   0.447
   58X2IT    O1 1810   4.178   1.027   0.433
   58X2IT    C6 1811   4.231   0.801   0.386
   58X2IT   C12 1812   4.109   0.781   0.298
   58X2IT    C7 1813   4.318   0.697   0.412
   58X2IT    C8 1814   4.443   0.711   0.500
   58X2IT    O2 1815   4.516   0.613   0.513
   58X2IT    N3 1816   4.305   0.573   0.362
   58X2IT   H15 1817   4.230   0.547   0.300
   58X2IT   H16 1818   4.376   0.505   0.386
   58X2IT    N2 1819   4.409   1.055   0.601
   58X2IT    C3 1820   4.391   1.195   0.559
   58X2IT    C2 1821   4.533   1.248   0.559
   58X2IT    H2 1822   4.551   1.356   0.564
   58X2IT    N1 1823   4.625   1.163   0.480
   58X2IT   H14 1824   4.707   1.217   0.453
   58X2IT    C1 1825   4.622   1.151   0.627
   58X2IT    H1 1826   4.708   1.180   0.686
   58X2IT   C11 1827   4.536   1.036   0.677
   58X2IT    O3 1828   4.520   1.062   0.815
   58X2IT   C15 1829   4.413   0.994   0.882
   59X2IT   H18 1830   1.786   0.767   5.558
   59X2IT    N4 1831   1.782   0.698   5.485
   59X2IT   H17 1832   1.816   0.606   5.507
   59X2IT   C14 1833   1.681   0.713   5.394
   59X2IT    O5 1834   1.615   0.814   5.378
   59X2IT    O4 1835   1.668   0.598   5.320
   59X2IT   C13 1836   1.570   0.601   5.215
   59X2IT   C10 1837   1.626   0.667   5.087
   59X2IT    C9 1838   1.528   0.665   4.972
   59X2IT    C4 1839   1.582   0.599   4.864
   59X2IT    C5 1840   1.510   0.579   4.733
   59X2IT    O1 1841   1.569   0.522   4.640
   59X2IT    C6 1842   1.376   0.631   4.725
   59X2IT   C12 1843   1.298   0.614   4.596
   59X2IT    C7 1844   1.322   0.698   4.833
   59X2IT    C8 1845   1.396   0.718   4.965
   59X2IT    O2 1846   1.336   0.776   5.057
   59X2IT    N3 1847   1.199   0.751   4.834
   59X2IT   H15 1848   1.135   0.745   4.756
   59X2IT   H16 1849   1.168   0.797   4.920
   59X2IT    N2 1850   1.710   0.561   4.886
   59X2IT    C3 1851   1.780   0.442   4.835
   59X2IT    C2 1852   1.819   0.370   4.964
   59X2IT    H2 1853   1.899   0.296   4.962
   59X2IT    N1 1854   1.704   0.351   5.055
   59X2IT   H14 1855   1.725   0.275   5.120
   59X2IT    C1 1856   1.800   0.461   5.079
   59X2IT    H1 1857   1.864   0.461   5.166
   59X2IT   C11 1858   1.752   0.595   5.025
   59X2IT    O3 1859   1.868   0.677   5.027
   59X2IT   C15 1860   1.866   0.796   4.947
   60X2IT   H18 1861   0.909   2.409   4.295
   60X2IT    N4 1862   0.960   2.411   4.209
   60X2IT   H17 1863   0.912   2.379   4.126
   60X2IT   C14 1864   1.056   2.507   4.197
   60X2IT    O5 1865   1.103   2.572   4.289
   60X2IT    O4 1866   1.096   2.518   4.067
   60X2IT   C13 1867   1.202   2.612   4.040
   60X2IT   C10 1868   1.340   2.549   4.067
   60X2IT    C9 1869   1.455   2.642   4.033
   60X2IT    C4 1870   1.538   2.584   3.939
   60X2IT    C5 1871   1.660   2.650   3.883
   60X2IT    O1 1872   1.731   2.588   3.802
   60X2IT    C6 1873   1.689   2.783   3.930
   60X2IT   C12 1874   1.811   2.856   3.877
   60X2IT    C7 1875   1.606   2.841   4.025
   60X2IT    C8 1876   1.482   2.773   4.081
   60X2IT    O2 1877   1.412   2.836   4.163
   60X2IT    N3 1878   1.626   2.964   4.075
   60X2IT   H15 1879   1.702   3.024   4.047
   60X2IT   H16 1880   1.557   2.998   4.144
   60X2IT    N2 1881   1.500   2.457   3.910
   60X2IT    C3 1882   1.512   2.387   3.781
   60X2IT    C2 1883   1.367   2.354   3.748
   60X2IT    H2 1884   1.344   2.274   3.677
   60X2IT    N1 1885   1.279   2.473   3.755
   60X2IT   H14 1886   1.194   2.456   3.701
   60X2IT    C1 1887   1.283   2.377   3.868
   60X2IT    H1 1888   1.196   2.317   3.892
   60X2IT   C11 1889   1.374   2.421   3.981
   60X2IT    O3 1890   1.389   2.305   4.060
   60X2IT   C15 1891   1.499   2.302   4.152
   61X2IT   H18 1892   4.495   3.896   1.169
   61X2IT    N4 1893   4.430   3.867   1.098
   61X2IT   H17 1894   4.335   3.851   1.127
   61X2IT   C14 1895   4.454   3.913   0.972
   61X2IT    O5 1896   4.560   3.960   0.933
   61X2IT    O4 1897   4.344   3.893   0.893
   61X2IT   C13 1898   4.358   3.930   0.754
   61X2IT   C10 1899   4.424   3.819   0.672
   61X2IT    C9 1900   4.434   3.851   0.525
   61X2IT    C4 1901   4.369   3.754   0.451
   61X2IT    C5 1902   4.359   3.756   0.301
   61X2IT    O1 1903   4.302   3.663   0.242
   61X2IT    C6 1904   4.419   3.869   0.234
   61X2IT   C12 1905   4.412   3.878   0.083
   61X2IT    C7 1906   4.485   3.965   0.308
   61X2IT    C8 1907   4.495   3.961   0.461
   61X2IT    O2 1908   4.553   4.055   0.518
   61X2IT    N3 1909   4.545   4.073   0.255
   61X2IT   H15 1910   4.546   4.092   0.156
   61X2IT   H16 1911   4.589   4.138   0.320
   61X2IT    N2 1912   4.322   3.653   0.528
   61X2IT    C3 1913   4.201   3.572   0.508
   61X2IT    C2 1914   4.122   3.600   0.635
   61X2IT    H2 1915   4.043   3.531   0.666
   61X2IT    N1 1916   4.106   3.745   0.660
   61X2IT   H14 1917   4.027   3.761   0.723
   61X2IT    C1 1918   4.209   3.669   0.733
   61X2IT    H1 1919   4.202   3.653   0.840
   61X2IT   C11 1920   4.348   3.681   0.672
   61X2IT    O3 1921   4.422   3.577   0.734
   61X2IT   C15 1922   4.544   3.537   0.670
   62X2IT   H18 1923   2.589   4.506   5.360
   62X2IT    N4 1924   2.579   4.597   5.319
   62X2IT   H17 1925   2.659   4.658   5.323
   62X2IT   C14 1926   2.494   4.606   5.212
   62X2IT    O5 1927   2.410   4.522   5.182
   62X2IT    O4 1928   2.513   4.724   5.147
   62X2IT   C13 1929   2.425   4.751   5.036
   62X2IT   C10 1930   2.290   4.809   5.084
   62X2IT    C9 1931   2.197   4.845   4.970
   62X2IT    C4 1932   2.164   4.979   4.976
   62X2IT    C5 1933   2.074   5.047   4.878
   62X2IT    O1 1934   2.046   5.167   4.893
   62X2IT    C6 1935   2.023   4.966   4.769
   62X2IT   C12 1936   1.932   5.029   4.666
   62X2IT    C7 1937   2.056   4.832   4.764
   62X2IT    C8 1938   2.147   4.763   4.866
   62X2IT    O2 1939   2.174   4.643   4.849
   62X2IT    N3 1940   2.013   4.748   4.669
   62X2IT   H15 1941   1.953   4.777   4.593
   62X2IT   H16 1942   2.045   4.651   4.674
   62X2IT    N2 1943   2.216   5.040   5.086
   62X2IT    C3 1944   2.262   5.179   5.100
   62X2IT    C2 1945   2.408   5.161   5.138
   62X2IT    H2 1946   2.461   5.243   5.186
   62X2IT    N1 1947   2.480   5.072   5.044
   62X2IT   H14 1948   2.580   5.090   5.051
   62X2IT    C1 1949   2.433   5.019   5.173
   62X2IT    H1 1950   2.503   4.989   5.250
   62X2IT   C11 1951   2.300   4.945   5.164
   62X2IT    O3 1952   2.257   4.933   5.298
   62X2IT   C15 1953   2.119   4.903   5.320
   63X2IT   H18 1954   3.291   1.312   1.907
   63X2IT    N4 1955   3.214   1.374   1.922
   63X2IT   H17 1956   3.124   1.344   1.887
   63X2IT   C14 1957   3.219   1.452   2.034
   63X2IT    O5 1958   3.318   1.474   2.100
   63X2IT    O4 1959   3.096   1.507   2.058
   63X2IT   C13 1960   3.087   1.598   2.169
   63X2IT   C10 1961   3.132   1.740   2.130
   63X2IT    C9 1962   3.118   1.840   2.242
   63X2IT    C4 1963   3.036   1.944   2.204
   63X2IT    C5 1964   3.001   2.060   2.292
   63X2IT    O1 1965   2.929   2.151   2.248
   63X2IT    C6 1966   3.055   2.058   2.426
   63X2IT   C12 1967   3.023   2.172   2.521
   63X2IT    C7 1968   3.138   1.954   2.464
   63X2IT    C8 1969   3.174   1.837   2.373
   63X2IT    O2 1970   3.246   1.747   2.419
   63X2IT    N3 1971   3.194   1.945   2.586
   63X2IT   H15 1972   3.180   2.012   2.659
   63X2IT   H16 1973   3.253   1.863   2.604
   63X2IT    N2 1974   2.998   1.933   2.074
   63X2IT    C3 1975   2.870   1.975   2.014
   63X2IT    C2 1976   2.816   1.844   1.959
   63X2IT    H2 1977   2.740   1.846   1.880
   63X2IT    N1 1978   2.813   1.737   2.061
   63X2IT   H14 1979   2.747   1.665   2.033
   63X2IT    C1 1980   2.923   1.741   1.962
   63X2IT    H1 1981   2.932   1.664   1.887
   63X2IT   C11 1982   3.049   1.807   2.014
   63X2IT    O3 1983   3.126   1.831   1.898
   63X2IT   C15 1984   3.233   1.926   1.909
   64X2IT   H18 1985   4.357   2.491   3.376
   64X2IT    N4 1986   4.351   2.572   3.317
   64X2IT   H17 1987   4.403   2.654   3.346
   64X2IT   C14 1988   4.332   2.549   3.184
   64X2IT    O5 1989   4.294   2.443   3.136
   64X2IT    O4 1990   4.356   2.663   3.113
   64X2IT   C13 1991   4.333   2.655   2.971
   64X2IT   C10 1992   4.184   2.676   2.936
   64X2IT    C9 1993   4.157   2.676   2.788
   64X2IT    C4 1994   4.098   2.795   2.750
   64X2IT    C5 1995   4.059   2.828   2.609
   64X2IT    O1 1996   4.003   2.936   2.584
   64X2IT    C6 1997   4.089   2.728   2.509
   64X2IT   C12 1998   4.052   2.755   2.364
   64X2IT    C7 1999   4.147   2.609   2.547
   64X2IT    C8 2000   4.185   2.576   2.691
   64X2IT    O2 2001   4.241   2.468   2.714
   64X2IT    N3 2002   4.176   2.509   2.462
   64X2IT   H15 2003   4.159   2.515   2.363
   64X2IT   H16 2004   4.221   2.426   2.501
   64X2IT    N2 2005   4.073   2.876   2.856
   64X2IT    C3 2006   4.075   3.023   2.861
   64X2IT    C2 2007   4.182   3.050   2.966
   64X2IT    H2 2008   4.185   3.147   3.016
   64X2IT    N1 2009   4.308   2.978   2.938
   64X2IT   H14 2010   4.385   3.024   2.987
   64X2IT    C1 2011   4.214   2.924   3.037
   64X2IT    H1 2012   4.240   2.921   3.142
   64X2IT   C11 2013   4.124   2.815   2.982
   64X2IT    O3 2014   4.022   2.801   3.079
   64X2IT   C15 2015   3.902   2.734   3.039
   65X2IT   H18 2016   4.345   4.560   1.365
   65X2IT    N4 2017   4.295   4.491   1.312
   65X2IT   H17 2018   4.349   4.419   1.267
   65X2IT   C14 2019   4.168   4.463   1.353
   65X2IT    O5 2020   4.102   4.532   1.429
   65X2IT    O4 2021   4.123   4.349   1.292
   65X2IT   C13 2022   3.987   4.311   1.321
   65X2IT   C10 2023   3.887   4.387   1.232
   65X2IT    C9 2024   3.744   4.344   1.254
   65X2IT    C4 2025   3.689   4.298   1.136
   65X2IT    C5 2026   3.548   4.248   1.123
   65X2IT    O1 2027   3.506   4.212   1.012
   65X2IT    C6 2028   3.469   4.245   1.244
   65X2IT   C12 2029   3.326   4.195   1.238
   65X2IT    C7 2030   3.524   4.292   1.362
   65X2IT    C8 2031   3.667   4.344   1.373
   65X2IT    O2 2032   3.708   4.379   1.485
   65X2IT    N3 2033   3.458   4.295   1.479
   65X2IT   H15 2034   3.364   4.263   1.490
   65X2IT   H16 2035   3.509   4.330   1.560
   65X2IT    N2 2036   3.774   4.312   1.031
   65X2IT    C3 2037   3.787   4.225   0.913
   65X2IT    C2 2038   3.932   4.178   0.923
   65X2IT    H2 2039   3.982   4.140   0.835
   65X2IT    N1 2040   3.964   4.122   1.056
   65X2IT   H14 2041   4.046   4.062   1.049
   65X2IT    C1 2042   4.003   4.261   1.024
   65X2IT    H1 2043   4.107   4.288   1.015
   65X2IT   C11 2044   3.905   4.365   1.077
   65X2IT    O3 2045   3.941   4.483   1.008
   65X2IT   C15 2046   3.845   4.590   1.006
   66X2IT   H18 2047   0.840   3.898   3.250
   66X2IT    N4 2048   0.939   3.888   3.233
   66X2IT   H17 2049   0.990   3.971   3.207
   66X2IT   C14 2050   1.003   3.789   3.302
   66X2IT    O5 2051   0.948   3.697   3.360
   66X2IT    O4 2052   1.138   3.806   3.294
   66X2IT   C13 2053   1.219   3.705   3.357
   66X2IT   C10 2054   1.238   3.583   3.265
   66X2IT    C9 2055   1.328   3.477   3.325
   66X2IT    C4 2056   1.436   3.453   3.242
   66X2IT    C5 2057   1.545   3.355   3.272
   66X2IT    O1 2058   1.636   3.337   3.190
   66X2IT    C6 2059   1.536   3.285   3.398
   66X2IT   C12 2060   1.643   3.184   3.435
   66X2IT    C7 2061   1.428   3.308   3.481
   66X2IT    C8 2062   1.317   3.408   3.448
   66X2IT    O2 2063   1.226   3.424   3.532
   66X2IT    N3 2064   1.409   3.246   3.599
   66X2IT   H15 2065   1.474   3.179   3.636
   66X2IT   H16 2066   1.326   3.272   3.653
   66X2IT    N2 2067   1.427   3.524   3.126
   66X2IT    C3 2068   1.537   3.580   3.046
   66X2IT    C2 2069   1.505   3.729   3.047
   66X2IT    H2 2070   1.548   3.793   2.970
   66X2IT    N1 2071   1.484   3.781   3.183
   66X2IT   H14 2072   1.498   3.882   3.183
   66X2IT    C1 2073   1.368   3.749   3.098
   66X2IT    H1 2074   1.302   3.827   3.063
   66X2IT   C11 2075   1.308   3.612   3.127
   66X2IT    O3 2076   1.223   3.588   3.016
   66X2IT   C15 2077   1.182   3.452   2.994
   67X2IT   H18 2078   3.368   2.770   3.200
   67X2IT    N4 2079   3.457   2.735   3.230
   67X2IT   H17 2080   3.538   2.759   3.174
   67X2IT   C14 2081   3.473   2.717   3.365
   67X2IT    O5 2082   3.383   2.713   3.446
   67X2IT    O4 2083   3.605   2.700   3.394
   67X2IT   C13 2084   3.637   2.673   3.532
   67X2IT   C10 2085   3.619   2.524   3.566
   67X2IT    C9 2086   3.658   2.491   3.709
   67X2IT    C4 2087   3.758   2.395   3.710
   67X2IT    C5 2088   3.820   2.340   3.835
   67X2IT    O1 2089   3.906   2.251   3.826
   67X2IT    C6 2090   3.772   2.394   3.960
   67X2IT   C12 2091   3.831   2.344   4.090
   67X2IT    C7 2092   3.672   2.490   3.959
   67X2IT    C8 2093   3.609   2.544   3.830
   67X2IT    O2 2094   3.523   2.633   3.841
   67X2IT    N3 2095   3.620   2.545   4.069
   67X2IT   H15 2096   3.652   2.522   4.162
   67X2IT   H16 2097   3.547   2.616   4.057
   67X2IT    N2 2098   3.788   2.350   3.585
   67X2IT    C3 2099   3.918   2.306   3.533
   67X2IT    C2 2100   3.943   2.404   3.419
   67X2IT    H2 2101   4.013   2.378   3.340
   67X2IT    N1 2102   3.928   2.545   3.462
   67X2IT   H14 2103   3.978   2.605   3.396
   67X2IT    C1 2104   3.817   2.478   3.390
   67X2IT    H1 2105   3.789   2.510   3.290
   67X2IT   C11 2106   3.709   2.425   3.483
   67X2IT    O3 2107   3.633   2.338   3.400
   67X2IT   C15 2108   3.548   2.244   3.466
   68X2IT   H18 2109   0.414  -0.080   2.795
   68X2IT    N4 2110   0.425  -0.051   2.891
   68X2IT   H17 2111   0.342  -0.047   2.948
   68X2IT   C14 2112   0.545  -0.079   2.949
   68X2IT    O5 2113   0.647  -0.111   2.889
   68X2IT    O4 2114   0.536  -0.063   3.084
   68X2IT   C13 2115   0.658  -0.083   3.159
   68X2IT   C10 2116   0.746   0.043   3.159
   68X2IT    C9 2117   0.871   0.028   3.242
   68X2IT    C4 2118   0.876   0.125   3.340
   68X2IT    C5 2119   0.986   0.138   3.440
   68X2IT    O1 2120   0.984   0.231   3.523
   68X2IT    C6 2121   1.092   0.040   3.433
   68X2IT   C12 2122   1.206   0.047   3.532
   68X2IT    C7 2123   1.088  -0.057   3.335
   68X2IT    C8 2124   0.975  -0.068   3.232
   68X2IT    O2 2125   0.979  -0.162   3.151
   68X2IT    N3 2126   1.182  -0.151   3.319
   68X2IT   H15 2127   1.262  -0.159   3.379
   68X2IT   H16 2128   1.168  -0.219   3.243
   68X2IT    N2 2129   0.772   0.212   3.330
   68X2IT    C3 2130   0.702   0.282   3.439
   68X2IT    C2 2131   0.559   0.233   3.422
   68X2IT    H2 2132   0.476   0.290   3.465
   68X2IT    N1 2133   0.551   0.085   3.417
   68X2IT   H14 2134   0.456   0.055   3.441
   68X2IT    C1 2135   0.546   0.163   3.292
   68X2IT    H1 2136   0.455   0.166   3.232
   68X2IT   C11 2137   0.680   0.172   3.220
   68X2IT    O3 2138   0.661   0.275   3.126
   68X2IT   C15 2139   0.779   0.334   3.069
   69X2IT   H18 2140   1.429   1.342   1.999
   69X2IT    N4 2141   1.464   1.392   1.919
   69X2IT   H17 2142   1.553   1.438   1.929
   69X2IT   C14 2143   1.427   1.343   1.796
   69X2IT    O5 2144   1.336   1.264   1.776
   69X2IT    O4 2145   1.504   1.400   1.699
   69X2IT   C13 2146   1.472   1.363   1.563
   69X2IT   C10 2147   1.356   1.448   1.508
   69X2IT    C9 2148   1.324   1.417   1.363
   69X2IT    C4 2149   1.336   1.531   1.286
   69X2IT    C5 2150   1.312   1.535   1.138
   69X2IT    O1 2151   1.321   1.643   1.078
   69X2IT    C6 2152   1.278   1.410   1.075
   69X2IT   C12 2153   1.253   1.407   0.926
   69X2IT    C7 2154   1.265   1.296   1.152
   69X2IT    C8 2155   1.289   1.293   1.303
   69X2IT    O2 2156   1.279   1.184   1.362
   69X2IT    N3 2157   1.232   1.176   1.103
   69X2IT   H15 2158   1.215   1.159   1.005
   69X2IT   H16 2159   1.227   1.098   1.169
   69X2IT    N2 2160   1.364   1.641   1.361
   69X2IT    C3 2161   1.445   1.758   1.324
   69X2IT    C2 2162   1.556   1.755   1.429
   69X2IT    H2 2163   1.613   1.845   1.449
   69X2IT    N1 2164   1.622   1.623   1.437
   69X2IT   H14 2165   1.715   1.634   1.479
   69X2IT    C1 2166   1.520   1.659   1.536
   69X2IT    H1 2167   1.546   1.674   1.640
   69X2IT   C11 2168   1.382   1.603   1.505
   69X2IT    O3 2169   1.295   1.675   1.590
   69X2IT   C15 2170   1.155   1.673   1.557
   70X2IT   H18 2171   1.439   1.780   4.987
   70X2IT    N4 2172   1.433   1.694   4.935
   70X2IT   H17 2173   1.487   1.616   4.969
   70X2IT   C14 2174   1.315   1.671   4.869
   70X2IT    O5 2175   1.230   1.755   4.847
   70X2IT    O4 2176   1.309   1.541   4.829
   70X2IT   C13 2177   1.192   1.504   4.752
   70X2IT   C10 2178   1.209   1.539   4.604
   70X2IT    C9 2179   1.092   1.495   4.519
   70X2IT    C4 2180   1.135   1.410   4.419
   70X2IT    C5 2181   1.044   1.348   4.317
   70X2IT    O1 2182   1.092   1.275   4.228
   70X2IT    C6 2183   0.904   1.378   4.329
   70X2IT   C12 2184   0.806   1.318   4.230
   70X2IT    C7 2185   0.861   1.464   4.429
   70X2IT    C8 2186   0.955   1.527   4.531
   70X2IT    O2 2187   0.905   1.599   4.619
   70X2IT    N3 2188   0.733   1.499   4.447
   70X2IT   H15 2189   0.657   1.465   4.390
   70X2IT   H16 2190   0.712   1.562   4.525
   70X2IT    N2 2191   1.270   1.396   4.418
   70X2IT    C3 2192   1.349   1.277   4.381
   70X2IT    C2 2193   1.425   1.248   4.509
   70X2IT    H2 2194   1.515   1.187   4.506
   70X2IT    N1 2195   1.336   1.239   4.627
   70X2IT   H14 2196   1.383   1.187   4.701
   70X2IT    C1 2197   1.412   1.363   4.602
   70X2IT    H1 2198   1.491   1.394   4.669
   70X2IT   C11 2199   1.331   1.471   4.531
   70X2IT    O3 2200   1.429   1.564   4.487
   70X2IT   C15 2201   1.389   1.656   4.385
   71X2IT   H18 2202   0.715   1.902  -0.361
   71X2IT    N4 2203   0.659   1.920  -0.279
   71X2IT   H17 2204   0.581   1.858  -0.262
   71X2IT   C14 2205   0.724   1.977  -0.173
   71X2IT    O5 2206   0.832   2.032  -0.178
   71X2IT    O4 2207   0.646   1.967  -0.061
   71X2IT   C13 2208   0.699   2.029   0.058
   71X2IT   C10 2209   0.668   2.180   0.062
   71X2IT    C9 2210   0.716   2.248   0.188
   71X2IT    C4 2211   0.609   2.308   0.253
   71X2IT    C5 2212   0.622   2.383   0.382
   71X2IT    O1 2213   0.521   2.438   0.431
   71X2IT    C6 2214   0.753   2.388   0.442
   71X2IT   C12 2215   0.772   2.462   0.573
   71X2IT    C7 2216   0.859   2.328   0.377
   71X2IT    C8 2217   0.846   2.253   0.244
   71X2IT    O2 2218   0.947   2.199   0.197
   71X2IT    N3 2219   0.985   2.329   0.423
   71X2IT   H15 2220   1.012   2.372   0.510
   71X2IT   H16 2221   1.056   2.280   0.368
   71X2IT    N2 2222   0.494   2.298   0.181
   71X2IT    C3 2223   0.357   2.287   0.233
   71X2IT    C2 2224   0.312   2.154   0.174
   71X2IT    H2 2225   0.205   2.132   0.166
   71X2IT    N1 2226   0.407   2.044   0.203
   71X2IT   H14 2227   0.359   1.954   0.194
   71X2IT    C1 2228   0.409   2.110   0.071
   71X2IT    H1 2229   0.380   2.056  -0.019
   71X2IT   C11 2230   0.515   2.218   0.058
   71X2IT    O3 2231   0.479   2.289  -0.059
   71X2IT   C15 2232   0.536   2.419  -0.076
   72X2IT   H18 2233   3.146   3.655   0.705
   72X2IT    N4 2234   3.145   3.563   0.664
   72X2IT   H17 2235   3.163   3.557   0.565
   72X2IT   C14 2236   3.185   3.460   0.745
   72X2IT    O5 2237   3.194   3.466   0.867
   72X2IT    O4 2238   3.210   3.349   0.670
   72X2IT   C13 2239   3.247   3.230   0.743
   72X2IT   C10 2240   3.123   3.156   0.796
   72X2IT    C9 2241   3.157   3.027   0.868
   72X2IT    C4 2242   3.093   2.921   0.807
   72X2IT    C5 2243   3.106   2.778   0.852
   72X2IT    O1 2244   3.042   2.689   0.794
   72X2IT    C6 2245   3.193   2.754   0.964
   72X2IT   C12 2246   3.211   2.612   1.015
   72X2IT    C7 2247   3.256   2.860   1.026
   72X2IT    C8 2248   3.241   3.005   0.979
   72X2IT    O2 2249   3.306   3.093   1.039
   72X2IT    N3 2250   3.338   2.848   1.132
   72X2IT   H15 2251   3.360   2.760   1.174
   72X2IT   H16 2252   3.380   2.934   1.168
   72X2IT    N2 2253   3.011   2.961   0.706
   72X2IT    C3 2254   2.979   2.889   0.581
   72X2IT    C2 2255   3.028   2.988   0.475
   72X2IT    H2 2256   2.990   2.980   0.373
   72X2IT    N1 2257   3.167   3.031   0.498
   72X2IT   H14 2258   3.207   3.066   0.411
   72X2IT    C1 2259   3.056   3.119   0.538
   72X2IT    H1 2260   3.039   3.213   0.488
   72X2IT   C11 2261   3.021   3.108   0.686
   72X2IT    O3 2262   2.895   3.171   0.696
   72X2IT   C15 2263   2.817   3.144   0.814
   73X2IT   H18 2264   5.221   4.327   2.020
   73X2IT    N4 2265   5.204   4.228   2.028
   73X2IT   H17 2266   5.223   4.185   2.118
   73X2IT   C14 2267   5.106   4.176   1.949
   73X2IT    O5 2268   5.057   4.231   1.852
   73X2IT    O4 2269   5.074   4.050   1.991
   73X2IT   C13 2270   4.976   3.980   1.912
   73X2IT   C10 2271   5.040   3.912   1.790
   73X2IT    C9 2272   4.942   3.831   1.708
   73X2IT    C4 2273   4.983   3.700   1.699
   73X2IT    C5 2274   4.908   3.593   1.626
   73X2IT    O1 2275   4.955   3.478   1.621
   73X2IT    C6 2276   4.784   3.632   1.564
   73X2IT   C12 2277   4.702   3.529   1.489
   73X2IT    C7 2278   4.743   3.764   1.572
   73X2IT    C8 2279   4.821   3.872   1.646
   73X2IT    O2 2280   4.772   3.987   1.651
   73X2IT    N3 2281   4.630   3.810   1.516
   73X2IT   H15 2282   4.565   3.752   1.465
   73X2IT   H16 2283   4.608   3.910   1.530
   73X2IT    N2 2284   5.104   3.680   1.759
   73X2IT    C3 2285   5.152   3.560   1.829
   73X2IT    C2 2286   5.181   3.614   1.968
   73X2IT    H2 2287   5.248   3.559   2.035
   73X2IT    N1 2288   5.065   3.688   2.025
   73X2IT   H14 2289   5.074   3.691   2.127
   73X2IT    C1 2290   5.178   3.763   1.966
   73X2IT    H1 2291   5.242   3.824   2.027
   73X2IT   C11 2292   5.152   3.806   1.822
   73X2IT    O3 2293   5.280   3.844   1.774
   73X2IT   C15 2294   5.296   3.854   1.632
   74X2IT   H18 2295   3.684   2.581   2.979
   74X2IT    N4 2296   3.670   2.488   3.012
   74X2IT   H17 2297   3.750   2.439   3.050
   74X2IT   C14 2298   3.546   2.460   3.063
   74X2IT    O5 2299   3.446   2.528   3.045
   74X2IT    O4 2300   3.549   2.342   3.131
   74X2IT   C13 2301   3.422   2.296   3.185
   74X2IT   C10 2302   3.340   2.221   3.078
   74X2IT    C9 2303   3.210   2.166   3.132
   74X2IT    C4 2304   3.206   2.029   3.114
   74X2IT    C5 2305   3.091   1.942   3.157
   74X2IT    O1 2306   3.094   1.821   3.133
   74X2IT    C6 2307   2.982   2.009   3.224
   74X2IT   C12 2308   2.863   1.927   3.270
   74X2IT    C7 2309   2.986   2.146   3.241
   74X2IT    C8 2310   3.103   2.233   3.196
   74X2IT    O2 2311   3.098   2.355   3.221
   74X2IT    N3 2312   2.888   2.217   3.301
   74X2IT   H15 2313   2.805   2.175   3.338
   74X2IT   H16 2314   2.903   2.318   3.310
   74X2IT    N2 2315   3.314   1.983   3.045
   74X2IT    C3 2316   3.381   1.853   3.060
   74X2IT    C2 2317   3.523   1.894   3.099
   74X2IT    H2 2318   3.605   1.825   3.085
   74X2IT    N1 2319   3.524   1.988   3.214
   74X2IT   H14 2320   3.616   1.986   3.258
   74X2IT    C1 2321   3.539   2.040   3.076
   74X2IT    H1 2322   3.632   2.085   3.044
   74X2IT   C11 2323   3.409   2.093   3.018
   74X2IT    O3 2324   3.437   2.106   2.879
   74X2IT   C15 2325   3.324   2.117   2.791
   75X2IT   H18 2326   3.844   0.593   2.493
   75X2IT    N4 2327   3.803   0.672   2.446
   75X2IT   H17 2328   3.804   0.761   2.494
   75X2IT   C14 2329   3.811   0.671   2.309
   75X2IT    O5 2330   3.837   0.573   2.241
   75X2IT    O4 2331   3.781   0.795   2.260
   75X2IT   C13 2332   3.779   0.807   2.116
   75X2IT   C10 2333   3.644   0.762   2.058
   75X2IT    C9 2334   3.635   0.779   1.908
   75X2IT    C4 2335   3.528   0.861   1.876
   75X2IT    C5 2336   3.491   0.900   1.736
   75X2IT    O1 2337   3.391   0.970   1.716
   75X2IT    C6 2338   3.576   0.850   1.631
   75X2IT   C12 2339   3.545   0.886   1.487
   75X2IT    C7 2340   3.683   0.768   1.663
   75X2IT    C8 2341   3.719   0.728   1.806
   75X2IT    O2 2342   3.819   0.657   1.824
   75X2IT    N3 2343   3.766   0.715   1.572
   75X2IT   H15 2344   3.758   0.732   1.473
   75X2IT   H16 2345   3.843   0.657   1.607
   75X2IT    N2 2346   3.455   0.895   1.986
   75X2IT    C3 2347   3.383   1.021   2.010
   75X2IT    C2 2348   3.451   1.073   2.137
   75X2IT    H2 2349   3.399   1.146   2.199
   75X2IT    N1 2350   3.598   1.078   2.123
   75X2IT   H14 2351   3.636   1.144   2.192
   75X2IT    C1 2352   3.535   0.966   2.195
   75X2IT    H1 2353   3.549   0.953   2.302
   75X2IT   C11 2354   3.518   0.841   2.110
   75X2IT    O3 2355   3.428   0.760   2.184
   75X2IT   C15 2356   3.362   0.654   2.113
   76X2IT   H18 2357   4.477   0.320   4.241
   76X2IT    N4 2358   4.508   0.413   4.220
   76X2IT   H17 2359   4.575   0.455   4.282
   76X2IT   C14 2360   4.508   0.448   4.087
   76X2IT    O5 2361   4.451   0.388   3.999
   76X2IT    O4 2362   4.580   0.563   4.070
   76X2IT   C13 2363   4.584   0.616   3.936
   76X2IT   C10 2364   4.459   0.700   3.904
   76X2IT    C9 2365   4.463   0.763   3.767
   76X2IT    C4 2366   4.452   0.900   3.777
   76X2IT    C5 2367   4.453   0.993   3.659
   76X2IT    O1 2368   4.439   1.115   3.677
   76X2IT    C6 2369   4.469   0.932   3.529
   76X2IT   C12 2370   4.472   1.020   3.406
   76X2IT    C7 2371   4.479   0.795   3.519
   76X2IT    C8 2372   4.477   0.701   3.640
   76X2IT    O2 2373   4.491   0.579   3.620
   76X2IT    N3 2374   4.493   0.729   3.403
   76X2IT   H15 2375   4.498   0.775   3.314
   76X2IT   H16 2376   4.500   0.627   3.408
   76X2IT    N2 2377   4.433   0.941   3.905
   76X2IT    C3 2378   4.479   1.065   3.969
   76X2IT    C2 2379   4.567   1.012   4.082
   76X2IT    H2 2380   4.589   1.076   4.167
   76X2IT    N1 2381   4.668   0.915   4.034
   76X2IT   H14 2382   4.744   0.909   4.102
   76X2IT    C1 2383   4.543   0.866   4.098
   76X2IT    H1 2384   4.547   0.816   4.194
   76X2IT   C11 2385   4.437   0.825   3.998
   76X2IT    O3 2386   4.319   0.815   4.076
   76X2IT   C15 2387   4.194   0.815   4.006
   77X2IT   H18 2388   1.875   0.977   0.704
   77X2IT    N4 2389   1.859   0.905   0.772
   77X2IT   H17 2390   1.870   0.809   0.741
   77X2IT   C14 2391   1.888   0.937   0.901
   77X2IT    O5 2392   1.903   1.050   0.944
   77X2IT    O4 2393   1.892   0.823   0.977
   77X2IT   C13 2394   1.915   0.842   1.118
   77X2IT   C10 2395   1.785   0.875   1.193
   77X2IT    C9 2396   1.803   0.889   1.342
   77X2IT    C4 2397   1.722   0.799   1.408
   77X2IT    C5 2398   1.716   0.785   1.558
   77X2IT    O1 2399   1.637   0.705   1.609
   77X2IT    C6 2400   1.805   0.871   1.634
   77X2IT   C12 2401   1.804   0.862   1.785
   77X2IT    C7 2402   1.885   0.961   1.567
   77X2IT    C8 2403   1.889   0.974   1.415
   77X2IT    O2 2404   1.969   1.056   1.365
   77X2IT    N3 2405   1.969   1.045   1.629
   77X2IT   H15 2406   1.981   1.049   1.729
   77X2IT   H16 2407   2.026   1.107   1.569
   77X2IT    N2 2408   1.641   0.730   1.323
   77X2IT    C3 2409   1.594   0.591   1.336
   77X2IT    C2 2410   1.650   0.526   1.211
   77X2IT    H2 2411   1.606   0.433   1.174
   77X2IT    N1 2412   1.796   0.549   1.196
   77X2IT   H14 2413   1.835   0.478   1.134
   77X2IT    C1 2414   1.700   0.631   1.119
   77X2IT    H1 2415   1.695   0.622   1.011
   77X2IT   C11 2416   1.671   0.766   1.182
   77X2IT    O3 2417   1.556   0.812   1.113
   77X2IT   C15 2418   1.482   0.918   1.175
   78X2IT   H18 2419   3.755   3.323   3.408
   78X2IT    N4 2420   3.737   3.421   3.404
   78X2IT   H17 2421   3.815   3.483   3.424
   78X2IT   C14 2422   3.640   3.463   3.317
   78X2IT    O5 2423   3.557   3.390   3.266
   78X2IT    O4 2424   3.648   3.598   3.300
   78X2IT   C13 2425   3.547   3.657   3.215
   78X2IT   C10 2426   3.417   3.683   3.293
   78X2IT    C9 2427   3.311   3.751   3.209
   78X2IT    C4 2428   3.273   3.871   3.268
   78X2IT    C5 2429   3.170   3.964   3.210
   78X2IT    O1 2430   3.140   4.067   3.272
   78X2IT    C6 2431   3.111   3.925   3.085
   78X2IT   C12 2432   3.007   4.014   3.021
   78X2IT    C7 2433   3.148   3.805   3.027
   78X2IT    C8 2434   3.252   3.711   3.087
   78X2IT    O2 2435   3.281   3.608   3.024
   78X2IT    N3 2436   3.097   3.759   2.911
   78X2IT   H15 2437   3.029   3.810   2.857
   78X2IT   H16 2438   3.133   3.670   2.876
   78X2IT    N2 2439   3.334   3.891   3.388
   78X2IT    C3 2440   3.376   4.018   3.448
   78X2IT    C2 2441   3.527   3.998   3.464
   78X2IT    H2 2442   3.582   4.060   3.534
   78X2IT    N1 2443   3.591   3.956   3.337
   78X2IT   H14 2444   3.691   3.977   3.341
   78X2IT    C1 2445   3.560   3.855   3.441
   78X2IT    H1 2446   3.640   3.805   3.494
   78X2IT   C11 2447   3.430   3.780   3.416
   78X2IT    O3 2448   3.403   3.717   3.540
   78X2IT   C15 2449   3.269   3.670   3.561
   79X2IT   H18 2450   4.277   2.093   4.434
   79X2IT    N4 2451   4.207   2.079   4.504
   79X2IT   H17 2452   4.126   2.025   4.478
   79X2IT   C14 2453   4.251   2.075   4.634
   79X2IT    O5 2454   4.359   2.114   4.672
   79X2IT    O4 2455   4.152   2.026   4.714
   79X2IT   C13 2456   4.182   2.022   4.856
   79X2IT   C10 2457   4.155   2.158   4.922
   79X2IT    C9 2458   4.178   2.156   5.072
   79X2IT    C4 2459   4.063   2.193   5.138
   79X2IT    C5 2460   4.052   2.201   5.288
   79X2IT    O1 2461   3.945   2.239   5.339
   79X2IT    C6 2462   4.169   2.164   5.364
   79X2IT   C12 2463   4.164   2.170   5.515
   79X2IT    C7 2464   4.284   2.128   5.297
   79X2IT    C8 2465   4.295   2.121   5.144
   79X2IT    O2 2466   4.402   2.083   5.095
   79X2IT    N3 2467   4.398   2.094   5.359
   79X2IT   H15 2468   4.408   2.091   5.459
   79X2IT   H16 2469   4.477   2.067   5.299
   79X2IT    N2 2470   3.964   2.229   5.053
   79X2IT    C3 2471   3.819   2.212   5.070
   79X2IT    C2 2472   3.783   2.125   4.950
   79X2IT    H2 2473   3.680   2.121   4.915
   79X2IT    N1 2474   3.868   2.004   4.941
   79X2IT   H14 2475   3.821   1.933   4.884
   79X2IT    C1 2476   3.897   2.121   4.856
   79X2IT    H1 2477   3.885   2.115   4.748
   79X2IT   C11 2478   4.007   2.210   4.912
   79X2IT    O3 2479   3.996   2.330   4.836
   79X2IT   C15 2480   4.059   2.447   4.890
   80X2IT   H18 2481   4.241   0.760   2.319
   80X2IT    N4 2482   4.192   0.841   2.285
   80X2IT   H17 2483   4.113   0.873   2.341
   80X2IT   C14 2484   4.265   0.933   2.215
   80X2IT    O5 2485   4.375   0.912   2.166
   80X2IT    O4 2486   4.195   1.049   2.204
   80X2IT   C13 2487   4.258   1.153   2.126
   80X2IT   C10 2488   4.232   1.134   1.975
   80X2IT    C9 2489   4.291   1.245   1.890
   80X2IT    C4 2490   4.191   1.305   1.816
   80X2IT    C5 2491   4.215   1.420   1.722
   80X2IT    O1 2492   4.120   1.465   1.656
   80X2IT    C6 2493   4.350   1.469   1.713
   80X2IT   C12 2494   4.380   1.585   1.620
   80X2IT    C7 2495   4.449   1.409   1.787
   80X2IT    C8 2496   4.424   1.291   1.882
   80X2IT    O2 2497   4.520   1.247   1.947
   80X2IT    N3 2498   4.578   1.446   1.784
   80X2IT   H15 2499   4.612   1.523   1.729
   80X2IT   H16 2500   4.643   1.395   1.844
   80X2IT    N2 2501   4.071   1.244   1.832
   80X2IT    C3 2502   3.937   1.305   1.829
   80X2IT    C2 2503   3.884   1.271   1.968
   80X2IT    H2 2504   3.776   1.273   1.986
   80X2IT    N1 2505   3.977   1.311   2.075
   80X2IT   H14 2506   3.926   1.320   2.163
   80X2IT    C1 2507   3.972   1.170   2.032
   80X2IT    H1 2508   3.935   1.093   2.098
   80X2IT   C11 2509   4.081   1.134   1.932
   80X2IT    O3 2510   4.039   1.010   1.879
   80X2IT   C15 2511   4.099   0.968   1.756
   81X2IT   H18 2512   1.770   0.388   1.945
   81X2IT    N4 2513   1.847   0.381   2.009
   81X2IT   H17 2514   1.869   0.463   2.064
   81X2IT   C14 2515   1.869   0.258   2.064
   81X2IT    O5 2516   1.824   0.153   2.021
   81X2IT    O4 2517   1.953   0.268   2.171
   81X2IT   C13 2518   1.991   0.145   2.234
   81X2IT   C10 2519   2.109   0.077   2.161
   81X2IT    C9 2520   2.156  -0.049   2.228
   81X2IT    C4 2521   2.290  -0.039   2.261
   81X2IT    C5 2522   2.369  -0.147   2.330
   81X2IT    O1 2523   2.489  -0.130   2.352
   81X2IT    C6 2524   2.296  -0.266   2.366
   81X2IT   C12 2525   2.369  -0.379   2.436
   81X2IT    C7 2526   2.162  -0.277   2.332
   81X2IT    C8 2527   2.084  -0.166   2.261
   81X2IT    O2 2528   1.963  -0.185   2.240
   81X2IT    N3 2529   2.087  -0.385   2.360
   81X2IT   H15 2530   2.122  -0.466   2.408
   81X2IT   H16 2531   1.989  -0.381   2.332
   81X2IT    N2 2532   2.345   0.077   2.216
   81X2IT    C3 2533   2.452   0.157   2.278
   81X2IT    C2 2534   2.382   0.291   2.302
   81X2IT    H2 2535   2.442   0.381   2.316
   81X2IT    N1 2536   2.255   0.275   2.375
   81X2IT   H14 2537   2.230   0.364   2.419
   81X2IT    C1 2538   2.254   0.293   2.229
   81X2IT    H1 2539   2.213   0.383   2.184
   81X2IT   C11 2540   2.241   0.163   2.152
   81X2IT    O3 2541   2.275   0.197   2.019
   81X2IT   C15 2542   2.310   0.090   1.930
   82X2IT   H18 2543   2.055   1.217   0.213
   82X2IT    N4 2544   2.038   1.309   0.249
   82X2IT   H17 2545   2.023   1.383   0.182
   82X2IT   C14 2546   1.977   1.316   0.371
   82X2IT    O5 2547   1.967   1.224   0.450
   82X2IT    O4 2548   1.933   1.443   0.394
   82X2IT   C13 2549   1.873   1.468   0.522
   82X2IT   C10 2550   1.979   1.495   0.631
   82X2IT    C9 2551   1.919   1.527   0.765
   82X2IT    C4 2552   1.962   1.652   0.808
   82X2IT    C5 2553   1.921   1.715   0.938
   82X2IT    O1 2554   1.968   1.825   0.970
   82X2IT    C6 2555   1.827   1.640   1.019
   82X2IT   C12 2556   1.781   1.699   1.151
   82X2IT    C7 2557   1.785   1.516   0.977
   82X2IT    C8 2558   1.828   1.452   0.845
   82X2IT    O2 2559   1.780   1.342   0.815
   82X2IT    N3 2560   1.700   1.439   1.046
   82X2IT   H15 2561   1.660   1.466   1.134
   82X2IT   H16 2562   1.674   1.349   1.004
   82X2IT    N2 2563   2.053   1.706   0.723
   82X2IT    C3 2564   2.073   1.848   0.691
   82X2IT    C2 2565   2.047   1.852   0.541
   82X2IT    H2 2566   2.086   1.935   0.482
   82X2IT    N1 2567   1.918   1.790   0.505
   82X2IT   H14 2568   1.888   1.824   0.413
   82X2IT    C1 2569   2.043   1.714   0.488
   82X2IT    H1 2570   2.079   1.687   0.390
   82X2IT   C11 2571   2.072   1.619   0.604
   82X2IT    O3 2572   2.208   1.583   0.586
   82X2IT   C15 2573   2.275   1.526   0.699
   83X2IT   H18 2574   4.243   1.466   2.480
   83X2IT    N4 2575   4.184   1.418   2.546
   83X2IT   H17 2576   4.134   1.337   2.513
   83X2IT   C14 2577   4.223   1.424   2.677
   83X2IT    O5 2578   4.304   1.503   2.722
   83X2IT    O4 2579   4.154   1.332   2.750
   83X2IT   C13 2580   4.180   1.331   2.892
   83X2IT   C10 2581   4.096   1.438   2.965
   83X2IT    C9 2582   4.115   1.435   3.115
   83X2IT    C4 2583   3.994   1.415   3.178
   83X2IT    C5 2584   3.978   1.407   3.327
   83X2IT    O1 2585   3.865   1.392   3.375
   83X2IT    C6 2586   4.098   1.418   3.406
   83X2IT   C12 2587   4.089   1.410   3.557
   83X2IT    C7 2588   4.219   1.440   3.343
   83X2IT    C8 2589   4.234   1.449   3.191
   83X2IT    O2 2590   4.349   1.464   3.144
   83X2IT    N3 2591   4.336   1.453   3.407
   83X2IT   H15 2592   4.344   1.448   3.507
   83X2IT   H16 2593   4.420   1.467   3.350
   83X2IT    N2 2594   3.891   1.411   3.090
   83X2IT    C3 2595   3.767   1.332   3.100
   83X2IT    C2 2596   3.774   1.246   2.974
   83X2IT    H2 2597   3.683   1.201   2.934
   83X2IT    N1 2598   3.903   1.174   2.962
   83X2IT   H14 2599   3.892   1.095   2.899
   83X2IT    C1 2600   3.881   1.298   2.884
   83X2IT    H1 2601   3.874   1.296   2.777
   83X2IT   C11 2602   3.940   1.422   2.950
   83X2IT    O3 2603   3.880   1.530   2.881
   83X2IT   C15 2604   3.886   1.659   2.944
   84X2IT   H18 2605   2.452   3.605   1.704
   84X2IT    N4 2606   2.395   3.640   1.780
   84X2IT   H17 2607   2.295   3.633   1.769
   84X2IT   C14 2608   2.449   3.632   1.905
   84X2IT    O5 2609   2.567   3.614   1.930
   84X2IT    O4 2610   2.352   3.653   1.999
   84X2IT   C13 2611   2.396   3.655   2.136
   84X2IT   C10 2612   2.451   3.793   2.176
   84X2IT    C9 2613   2.491   3.800   2.322
   84X2IT    C4 2614   2.421   3.901   2.386
   84X2IT    C5 2615   2.437   3.935   2.531
   84X2IT    O1 2616   2.373   4.029   2.579
   84X2IT    C6 2617   2.529   3.854   2.606
   84X2IT   C12 2618   2.550   3.882   2.754
   84X2IT    C7 2619   2.600   3.754   2.542
   84X2IT    C8 2620   2.584   3.721   2.394
   84X2IT    O2 2621   2.649   3.626   2.348
   84X2IT    N3 2622   2.689   3.674   2.604
   84X2IT   H15 2623   2.711   3.681   2.702
   84X2IT   H16 2624   2.735   3.602   2.547
   84X2IT    N2 2625   2.343   3.971   2.300
   84X2IT    C3 2626   2.212   4.034   2.327
   84X2IT    C2 2627   2.121   3.962   2.229
   84X2IT    H2 2628   2.026   4.007   2.201
   84X2IT    N1 2629   2.131   3.815   2.239
   84X2IT   H14 2630   2.047   3.772   2.200
   84X2IT    C1 2631   2.203   3.886   2.131
   84X2IT    H1 2632   2.174   3.872   2.028
   84X2IT   C11 2633   2.349   3.912   2.163
   84X2IT    O3 2634   2.389   4.008   2.066
   84X2IT   C15 2635   2.509   4.081   2.092
   85X2IT   H18 2636   2.932   2.595   4.508
   85X2IT    N4 2637   2.860   2.619   4.574
   85X2IT   H17 2638   2.765   2.617   4.541
   85X2IT   C14 2639   2.886   2.589   4.705
   85X2IT    O5 2640   2.996   2.563   4.751
   85X2IT    O4 2641   2.771   2.598   4.778
   85X2IT   C13 2642   2.783   2.576   4.920
   85X2IT   C10 2643   2.828   2.704   4.993
   85X2IT    C9 2644   2.836   2.687   5.143
   85X2IT    C4 2645   2.754   2.778   5.206
   85X2IT    C5 2646   2.737   2.788   5.355
   85X2IT    O1 2647   2.664   2.876   5.402
   85X2IT    C6 2648   2.811   2.693   5.434
   85X2IT   C12 2649   2.799   2.696   5.585
   85X2IT    C7 2650   2.895   2.602   5.371
   85X2IT    C8 2651   2.911   2.594   5.219
   85X2IT    O2 2652   2.985   2.505   5.173
   85X2IT    N3 2653   2.968   2.511   5.436
   85X2IT   H15 2654   2.968   2.501   5.536
   85X2IT   H16 2655   3.025   2.447   5.379
   85X2IT    N2 2656   2.695   2.863   5.118
   85X2IT    C3 2657   2.562   2.925   5.126
   85X2IT    C2 2658   2.494   2.873   5.000
   85X2IT    H2 2659   2.407   2.926   4.960
   85X2IT    N1 2660   2.503   2.726   4.988
   85X2IT   H14 2661   2.429   2.693   4.925
   85X2IT    C1 2662   2.595   2.811   4.911
   85X2IT    H1 2663   2.590   2.815   4.803
   85X2IT   C11 2664   2.731   2.827   4.978
   85X2IT    O3 2665   2.791   2.936   4.909
   85X2IT   C15 2666   2.902   3.000   4.972
   86X2IT   H18 2667  -0.029   3.024   4.414
   86X2IT    N4 2668   0.043   2.954   4.419
   86X2IT   H17 2669   0.022   2.870   4.471
   86X2IT   C14 2670   0.129   2.947   4.313
   86X2IT    O5 2671   0.144   3.034   4.229
   86X2IT    O4 2672   0.200   2.831   4.318
   86X2IT   C13 2673   0.300   2.813   4.216
   86X2IT   C10 2674   0.432   2.884   4.253
   86X2IT    C9 2675   0.541   2.862   4.151
   86X2IT    C4 2676   0.652   2.804   4.211
   86X2IT    C5 2677   0.778   2.768   4.138
   86X2IT    O1 2678   0.873   2.720   4.202
   86X2IT    C6 2679   0.780   2.794   3.997
   86X2IT   C12 2680   0.904   2.759   3.917
   86X2IT    C7 2681   0.670   2.852   3.936
   86X2IT    C8 2682   0.542   2.889   4.012
   86X2IT    O2 2683   0.448   2.938   3.947
   86X2IT    N3 2684   0.664   2.882   3.806
   86X2IT   H15 2685   0.738   2.862   3.741
   86X2IT   H16 2686   0.577   2.924   3.771
   86X2IT    N2 2687   0.635   2.791   4.345
   86X2IT    C3 2688   0.688   2.685   4.433
   86X2IT    C2 2689   0.560   2.625   4.491
   86X2IT    H2 2690   0.565   2.567   4.584
   86X2IT    N1 2691   0.463   2.588   4.386
   86X2IT   H14 2692   0.397   2.519   4.424
   86X2IT    C1 2693   0.445   2.714   4.461
   86X2IT    H1 2694   0.362   2.728   4.528
   86X2IT   C11 2695   0.499   2.836   4.386
   86X2IT    O3 2696   0.504   2.937   4.485
   86X2IT   C15 2697   0.586   3.051   4.457
   87X2IT   H18 2698   4.525  -0.066   2.264
   87X2IT    N4 2699   4.459  -0.091   2.335
   87X2IT   H17 2700   4.457  -0.187   2.364
   87X2IT   C14 2701   4.429   0.007   2.426
   87X2IT    O5 2702   4.452   0.126   2.412
   87X2IT    O4 2703   4.364  -0.048   2.533
   87X2IT   C13 2704   4.319   0.045   2.634
   87X2IT   C10 2705   4.184   0.109   2.597
   87X2IT    C9 2706   4.131   0.201   2.704
   87X2IT    C4 2707   4.006   0.159   2.745
   87X2IT    C5 2708   3.925   0.228   2.851
   87X2IT    O1 2709   3.812   0.185   2.879
   87X2IT    C6 2710   3.985   0.343   2.913
   87X2IT   C12 2711   3.909   0.418   3.021
   87X2IT    C7 2712   4.110   0.386   2.871
   87X2IT    C8 2713   4.191   0.315   2.762
   87X2IT    O2 2714   4.304   0.360   2.735
   87X2IT    N3 2715   4.173   0.493   2.921
   87X2IT   H15 2716   4.135   0.550   2.995
   87X2IT   H16 2717   4.266   0.515   2.884
   87X2IT    N2 2718   3.962   0.052   2.674
   87X2IT    C3 2719   3.877  -0.059   2.720
   87X2IT    C2 2720   3.966  -0.180   2.696
   87X2IT    H2 2721   3.922  -0.279   2.688
   87X2IT    N1 2722   4.101  -0.163   2.756
   87X2IT   H14 2723   4.144  -0.255   2.769
   87X2IT    C1 2724   4.082  -0.139   2.612
   87X2IT    H1 2725   4.127  -0.205   2.538
   87X2IT   C11 2726   4.065   0.008   2.577
   87X2IT    O3 2727   4.016   0.006   2.444
   87X2IT   C15 2728   3.954   0.126   2.395
   88X2IT   H18 2729   4.938   3.883   4.913
   88X2IT    N4 2730   4.885   3.798   4.905
   88X2IT   H17 2731   4.902   3.727   4.975
   88X2IT   C14 2732   4.761   3.808   4.848
   88X2IT    O5 2733   4.721   3.903   4.783
   88X2IT    O4 2734   4.690   3.693   4.872
   88X2IT   C13 2735   4.559   3.687   4.812
   88X2IT   C10 2736   4.566   3.641   4.665
   88X2IT    C9 2737   4.430   3.626   4.601
   88X2IT    C4 2738   4.413   3.497   4.555
   88X2IT    C5 2739   4.289   3.449   4.486
   88X2IT    O1 2740   4.284   3.332   4.444
   88X2IT    C6 2741   4.181   3.544   4.473
   88X2IT   C12 2742   4.052   3.501   4.405
   88X2IT    C7 2743   4.198   3.673   4.519
   88X2IT    C8 2744   4.326   3.722   4.587
   88X2IT    O2 2745   4.329   3.839   4.628
   88X2IT    N3 2746   4.105   3.769   4.509
   88X2IT   H15 2747   4.014   3.754   4.468
   88X2IT   H16 2748   4.128   3.861   4.548
   88X2IT    N2 2749   4.525   3.422   4.571
   88X2IT    C3 2750   4.534   3.278   4.598
   88X2IT    C2 2751   4.608   3.275   4.731
   88X2IT    H2 2752   4.659   3.184   4.763
   88X2IT    N1 2753   4.544   3.362   4.833
   88X2IT   H14 2754   4.573   3.332   4.926
   88X2IT    C1 2755   4.664   3.409   4.760
   88X2IT    H1 2756   4.758   3.424   4.811
   88X2IT   C11 2757   4.630   3.499   4.642
   88X2IT    O3 2758   4.751   3.505   4.568
   88X2IT   C15 2759   4.742   3.550   4.432
   89X2IT   H18 2760   0.919   1.976   4.693
   89X2IT    N4 2761   1.005   2.010   4.732
   89X2IT   H17 2762   1.005   2.035   4.830
   89X2IT   C14 2763   1.121   1.963   4.676
   89X2IT    O5 2764   1.128   1.907   4.568
   89X2IT    O4 2765   1.227   1.993   4.756
   89X2IT   C13 2766   1.357   1.956   4.705
   89X2IT   C10 2767   1.412   2.061   4.608
   89X2IT    C9 2768   1.551   2.029   4.558
   89X2IT    C4 2769   1.639   2.131   4.590
   89X2IT    C5 2770   1.785   2.131   4.556
   89X2IT    O1 2771   1.855   2.229   4.584
   89X2IT    C6 2772   1.835   2.013   4.489
   89X2IT   C12 2773   1.981   2.006   4.452
   89X2IT    C7 2774   1.747   1.911   4.456
   89X2IT    C8 2775   1.598   1.913   4.491
   89X2IT    O2 2776   1.530   1.814   4.461
   89X2IT    N3 2777   1.784   1.798   4.393
   89X2IT   H15 2778   1.879   1.780   4.364
   89X2IT   H16 2779   1.711   1.729   4.375
   89X2IT    N2 2780   1.575   2.236   4.648
   89X2IT    C3 2781   1.627   2.328   4.751
   89X2IT    C2 2782   1.530   2.307   4.866
   89X2IT    H2 2783   1.521   2.382   4.943
   89X2IT    N1 2784   1.515   2.164   4.901
   89X2IT   H14 2785   1.479   2.155   4.996
   89X2IT    C1 2786   1.412   2.230   4.817
   89X2IT    H1 2787   1.312   2.245   4.855
   89X2IT   C11 2788   1.431   2.205   4.668
   89X2IT    O3 2789   1.347   2.302   4.607
   89X2IT   C15 2790   1.371   2.330   4.469
   90X2IT   H18 2791   4.746   0.684   4.218
   90X2IT    N4 2792   4.723   0.762   4.277
   90X2IT   H17 2793   4.713   0.852   4.233
   90X2IT   C14 2794   4.648   0.733   4.388
   90X2IT    O5 2795   4.631   0.621   4.434
   90X2IT    O4 2796   4.598   0.848   4.441
   90X2IT   C13 2797   4.521   0.834   4.563
   90X2IT   C10 2798   4.613   0.827   4.686
   90X2IT    C9 2799   4.537   0.819   4.817
   90X2IT    C4 2800   4.571   0.924   4.899
   90X2IT    C5 2801   4.513   0.947   5.036
   90X2IT    O1 2802   4.553   1.042   5.104
   90X2IT    C6 2803   4.413   0.852   5.079
   90X2IT   C12 2804   4.350   0.869   5.216
   90X2IT    C7 2805   4.380   0.746   4.997
   90X2IT    C8 2806   4.440   0.724   4.859
   90X2IT    O2 2807   4.399   0.628   4.792
   90X2IT    N3 2808   4.289   0.652   5.030
   90X2IT   H15 2809   4.238   0.653   5.117
   90X2IT   H16 2810   4.271   0.579   4.961
   90X2IT    N2 2811   4.670   1.001   4.845
   90X2IT    C3 2812   4.690   1.146   4.860
   90X2IT    C2 2813   4.682   1.194   4.715
   90X2IT    H2 2814   4.725   1.291   4.688
   90X2IT    N1 2815   4.560   1.146   4.647
   90X2IT   H14 2816   4.540   1.206   4.566
   90X2IT    C1 2817   4.688   1.077   4.624
   90X2IT    H1 2818   4.736   1.081   4.527
   90X2IT   C11 2819   4.706   0.952   4.709
   90X2IT    O3 2820   4.843   0.922   4.698
   90X2IT   C15 2821   4.899   0.834   4.796
   91X2IT   H18 2822   4.418   2.609   3.760
   91X2IT    N4 2823   4.446   2.521   3.799
   91X2IT   H17 2824   4.544   2.508   3.818
   91X2IT   C14 2825   4.354   2.457   3.877
   91X2IT    O5 2826   4.235   2.483   3.880
   91X2IT    O4 2827   4.414   2.356   3.947
   91X2IT   C13 2828   4.327   2.275   4.029
   91X2IT   C10 2829   4.259   2.165   3.946
   91X2IT    C9 2830   4.172   2.073   4.030
   91X2IT    C4 2831   4.215   1.942   4.017
   91X2IT    C5 2832   4.151   1.826   4.088
   91X2IT    O1 2833   4.194   1.712   4.068
   91X2IT    C6 2834   4.041   1.857   4.176
   91X2IT   C12 2835   3.972   1.744   4.250
   91X2IT    C7 2836   3.997   1.988   4.187
   91X2IT    C8 2837   4.063   2.105   4.114
   91X2IT    O2 2838   4.018   2.219   4.135
   91X2IT    N3 2839   3.894   2.026   4.265
   91X2IT   H15 2840   3.842   1.962   4.321
   91X2IT   H16 2841   3.872   2.125   4.267
   91X2IT    N2 2842   4.316   1.930   3.928
   91X2IT    C3 2843   4.428   1.835   3.931
   91X2IT    C2 2844   4.549   1.928   3.935
   91X2IT    H2 2845   4.647   1.891   3.905
   91X2IT    N1 2846   4.539   2.028   4.044
   91X2IT   H14 2847   4.632   2.064   4.066
   91X2IT    C1 2848   4.506   2.067   3.905
   91X2IT    H1 2849   4.567   2.137   3.851
   91X2IT   C11 2850   4.356   2.064   3.875
   91X2IT    O3 2851   4.349   2.070   3.734
   91X2IT   C15 2852   4.226   2.030   3.673
   92X2IT   H18 2853   2.908   1.616   4.006
   92X2IT    N4 2854   2.999   1.660   4.007
   92X2IT   H17 2855   3.075   1.607   4.049
   92X2IT   C14 2856   3.026   1.745   3.904
   92X2IT    O5 2857   2.943   1.794   3.829
   92X2IT    O4 2858   3.160   1.772   3.899
   92X2IT   C13 2859   3.202   1.867   3.799
   92X2IT   C10 2860   3.184   2.012   3.847
   92X2IT    C9 2861   3.234   2.114   3.748
   92X2IT    C4 2862   3.331   2.194   3.806
   92X2IT    C5 2863   3.402   2.305   3.734
   92X2IT    O1 2864   3.485   2.374   3.795
   92X2IT    C6 2865   3.367   2.325   3.596
   92X2IT   C12 2866   3.435   2.435   3.517
   92X2IT    C7 2867   3.269   2.246   3.538
   92X2IT    C8 2868   3.197   2.133   3.612
   92X2IT    O2 2869   3.114   2.066   3.549
   92X2IT    N3 2870   3.229   2.258   3.410
   92X2IT   H15 2871   3.267   2.326   3.347
   92X2IT   H16 2872   3.157   2.193   3.378
   92X2IT    N2 2873   3.349   2.165   3.937
   92X2IT    C3 2874   3.473   2.172   4.015
   92X2IT    C2 2875   3.490   2.029   4.063
   92X2IT    H2 2876   3.553   2.007   4.149
   92X2IT    N1 2877   3.483   1.932   3.951
   92X2IT   H14 2878   3.528   1.844   3.979
   92X2IT    C1 2879   3.365   1.953   4.038
   92X2IT    H1 2880   3.329   1.875   4.103
   92X2IT   C11 2881   3.264   2.050   3.978
   92X2IT    O3 2882   3.179   2.082   4.087
   92X2IT   C15 2883   3.097   2.199   4.073
   93X2IT   H18 2884   3.382  -0.198   1.099
   93X2IT    N4 2885   3.367  -0.171   1.194
   93X2IT   H17 2886   3.410  -0.228   1.265
   93X2IT   C14 2887   3.349  -0.037   1.217
   93X2IT    O5 2888   3.323   0.046   1.132
   93X2IT    O4 2889   3.361  -0.011   1.351
   93X2IT   C13 2890   3.338   0.125   1.391
   93X2IT   C10 2891   3.188   0.154   1.408
   93X2IT    C9 2892   3.160   0.295   1.457
   93X2IT    C4 2893   3.088   0.290   1.576
   93X2IT    C5 2894   3.045   0.412   1.652
   93X2IT    O1 2895   2.978   0.399   1.755
   93X2IT    C6 2896   3.084   0.540   1.597
   93X2IT   C12 2897   3.044   0.667   1.669
   93X2IT    C7 2898   3.155   0.544   1.478
   93X2IT    C8 2899   3.198   0.419   1.401
   93X2IT    O2 2900   3.265   0.434   1.297
   93X2IT    N3 2901   3.194   0.658   1.418
   93X2IT   H15 2902   3.176   0.749   1.456
   93X2IT   H16 2903   3.247   0.649   1.331
   93X2IT    N2 2904   3.056   0.163   1.611
   93X2IT    C3 2905   3.043   0.108   1.747
   93X2IT    C2 2906   3.147  -0.003   1.746
   93X2IT    H2 2907   3.140  -0.084   1.818
   93X2IT    N1 2908   3.280   0.044   1.701
   93X2IT   H14 2909   3.352  -0.021   1.734
   93X2IT    C1 2910   3.192  -0.027   1.606
   93X2IT    H1 2911   3.219  -0.125   1.569
   93X2IT   C11 2912   3.114   0.065   1.515
   93X2IT    O3 2913   3.014  -0.018   1.458
   93X2IT   C15 2914   2.901   0.046   1.398
   94X2IT   H18 2915   4.328   2.491   0.657
   94X2IT    N4 2916   4.247   2.538   0.692
   94X2IT   H17 2917   4.221   2.520   0.788
   94X2IT   C14 2918   4.219   2.660   0.638
   94X2IT    O5 2919   4.267   2.704   0.535
   94X2IT    O4 2920   4.127   2.725   0.715
   94X2IT   C13 2921   4.083   2.854   0.666
   94X2IT   C10 2922   3.971   2.839   0.561
   94X2IT    C9 2923   3.918   2.971   0.512
   94X2IT    C4 2924   3.782   2.979   0.535
   94X2IT    C5 2925   3.697   3.098   0.499
   94X2IT    O1 2926   3.575   3.095   0.521
   94X2IT    C6 2927   3.766   3.210   0.440
   94X2IT   C12 2928   3.687   3.334   0.402
   94X2IT    C7 2929   3.902   3.202   0.416
   94X2IT    C8 2930   3.986   3.080   0.452
   94X2IT    O2 2931   4.108   3.085   0.430
   94X2IT    N3 2932   3.974   3.301   0.360
   94X2IT   H15 2933   3.934   3.389   0.332
   94X2IT   H16 2934   4.074   3.284   0.349
   94X2IT    N2 2935   3.732   2.864   0.587
   94X2IT    C3 2936   3.621   2.848   0.682
   94X2IT    C2 2937   3.689   2.778   0.799
   94X2IT    H2 2938   3.629   2.723   0.871
   94X2IT    N1 2939   3.810   2.850   0.844
   94X2IT   H14 2940   3.832   2.823   0.940
   94X2IT    C1 2941   3.823   2.731   0.758
   94X2IT    H1 2942   3.868   2.640   0.795
   94X2IT   C11 2943   3.841   2.765   0.610
   94X2IT    O3 2944   3.818   2.643   0.543
   94X2IT   C15 2945   3.789   2.650   0.403
   95X2IT   H18 2946   1.556   1.661   2.271
   95X2IT    N4 2947   1.638   1.685   2.218
   95X2IT   H17 2948   1.720   1.712   2.270
   95X2IT   C14 2949   1.652   1.624   2.097
   95X2IT    O5 2950   1.564   1.564   2.037
   95X2IT    O4 2951   1.780   1.642   2.051
   95X2IT   C13 2952   1.808   1.587   1.920
   95X2IT   C10 2953   1.763   1.683   1.808
   95X2IT    C9 2954   1.797   1.632   1.670
   95X2IT    C4 2955   1.877   1.724   1.604
   95X2IT    C5 2956   1.930   1.705   1.465
   95X2IT    O1 2957   1.997   1.794   1.412
   95X2IT    C6 2958   1.896   1.580   1.400
   95X2IT   C12 2959   1.946   1.554   1.259
   95X2IT    C7 2960   1.815   1.489   1.465
   95X2IT    C8 2961   1.761   1.511   1.607
   95X2IT    O2 2962   1.694   1.420   1.658
   95X2IT    N3 2963   1.777   1.372   1.412
   95X2IT   H15 2964   1.805   1.341   1.321
   95X2IT   H16 2965   1.718   1.311   1.471
   95X2IT    N2 2966   1.896   1.837   1.677
   95X2IT    C3 2967   2.015   1.924   1.680
   95X2IT    C2 2968   2.055   1.917   1.827
   95X2IT    H2 2969   2.119   1.995   1.869
   95X2IT    N1 2970   2.068   1.778   1.875
   95X2IT   H14 2971   2.127   1.776   1.959
   95X2IT    C1 2972   1.946   1.855   1.905
   95X2IT    H1 2973   1.922   1.883   2.007
   95X2IT   C11 2974   1.831   1.825   1.810
   95X2IT    O3 2975   1.739   1.930   1.834
   95X2IT   C15 2976   1.638   1.953   1.734
   96X2IT   H18 2977   0.448   1.537   0.279
   96X2IT    N4 2978   0.531   1.593   0.281
   96X2IT   H17 2979   0.561   1.633   0.193
   96X2IT   C14 2980   0.556   1.660   0.397
   96X2IT    O5 2981   0.504   1.637   0.505
   96X2IT    O4 2982   0.652   1.755   0.376
   96X2IT   C13 2983   0.694   1.830   0.492
   96X2IT   C10 2984   0.801   1.753   0.573
   96X2IT    C9 2985   0.853   1.831   0.691
   96X2IT    C4 2986   0.990   1.847   0.681
   96X2IT    C5 2987   1.073   1.921   0.783
   96X2IT    O1 2988   1.196   1.927   0.768
   96X2IT    C6 2989   1.002   1.980   0.894
   96X2IT   C12 2990   1.080   2.056   0.999
   96X2IT    C7 2991   0.865   1.963   0.904
   96X2IT    C8 2992   0.782   1.887   0.800
   96X2IT    O2 2993   0.659   1.882   0.817
   96X2IT    N3 2994   0.791   2.013   1.004
   96X2IT   H15 2995   0.829   2.067   1.079
   96X2IT   H16 2996   0.690   1.996   1.000
   96X2IT    N2 2997   1.041   1.782   0.574
   96X2IT    C3 2998   1.157   1.821   0.491
   96X2IT    C2 2999   1.094   1.835   0.353
   96X2IT    H2 3000   1.157   1.830   0.265
   96X2IT    N1 3001   0.975   1.923   0.354
   96X2IT   H14 3002   0.957   1.957   0.260
   96X2IT    C1 3003   0.957   1.776   0.355
   96X2IT    H1 3004   0.914   1.725   0.270
   96X2IT   C11 3005   0.933   1.719   0.494
   96X2IT    O3 3006   0.953   1.580   0.478
   96X2IT   C15 3007   0.975   1.503   0.597
   97X2IT   H18 3008   2.254   4.487   4.365
   97X2IT    N4 3009   2.331   4.505   4.303
   97X2IT   H17 3010   2.386   4.588   4.321
   97X2IT   C14 3011   2.392   4.396   4.249
   97X2IT    O5 3012   2.345   4.283   4.245
   97X2IT    O4 3013   2.512   4.432   4.194
   97X2IT   C13 3014   2.585   4.327   4.127
   97X2IT   C10 3015   2.536   4.308   3.982
   97X2IT    C9 3016   2.614   4.204   3.906
   97X2IT    C4 3017   2.670   4.260   3.792
   97X2IT    C5 3018   2.754   4.184   3.694
   97X2IT    O1 3019   2.797   4.242   3.593
   97X2IT    C6 3020   2.780   4.046   3.725
   97X2IT   C12 3021   2.866   3.964   3.630
   97X2IT    C7 3022   2.724   3.990   3.838
   97X2IT    C8 3023   2.637   4.068   3.937
   97X2IT    O2 3024   2.595   4.008   4.037
   97X2IT    N3 3025   2.741   3.861   3.874
   97X2IT   H15 3026   2.797   3.796   3.821
   97X2IT   H16 3027   2.696   3.831   3.961
   97X2IT    N2 3028   2.632   4.390   3.775
   97X2IT    C3 3029   2.710   4.500   3.716
   97X2IT    C2 3030   2.717   4.599   3.831
   97X2IT    H2 3031   2.739   4.704   3.810
   97X2IT    N1 3032   2.767   4.537   3.956
   97X2IT   H14 3033   2.803   4.610   4.018
   97X2IT    C1 3034   2.622   4.559   3.937
   97X2IT    H1 3035   2.568   4.630   3.999
   97X2IT   C11 3036   2.548   4.435   3.889
   97X2IT    O3 3037   2.422   4.484   3.847
   97X2IT   C15 3038   2.344   4.400   3.761
   98X2IT   H18 3039   2.115   3.505   4.349
   98X2IT    N4 3040   2.168   3.431   4.391
   98X2IT   H17 3041   2.123   3.340   4.396
   98X2IT   C14 3042   2.303   3.437   4.377
   98X2IT    O5 3043   2.366   3.537   4.344
   98X2IT    O4 3044   2.360   3.317   4.409
   98X2IT   C13 3045   2.504   3.311   4.405
   98X2IT   C10 3046   2.566   3.365   4.535
   98X2IT    C9 3047   2.717   3.354   4.538
   98X2IT    C4 3048   2.757   3.278   4.646
   98X2IT    C5 3049   2.900   3.247   4.678
   98X2IT    O1 3050   2.928   3.182   4.779
   98X2IT    C6 3051   2.999   3.299   4.586
   98X2IT   C12 3052   3.146   3.271   4.612
   98X2IT    C7 3053   2.959   3.375   4.478
   98X2IT    C8 3054   2.812   3.407   4.448
   98X2IT    O2 3055   2.787   3.473   4.346
   98X2IT    N3 3056   3.043   3.429   4.389
   98X2IT   H15 3057   3.143   3.416   4.393
   98X2IT   H16 3058   3.002   3.482   4.312
   98X2IT    N2 3059   2.653   3.242   4.725
   98X2IT    C3 3060   2.637   3.118   4.803
   98X2IT    C2 3061   2.511   3.058   4.743
   98X2IT    H2 3062   2.454   2.984   4.799
   98X2IT    N1 3063   2.518   3.048   4.595
   98X2IT   H14 3064   2.451   2.978   4.563
   98X2IT    C1 3065   2.443   3.159   4.658
   98X2IT    H1 3066   2.336   3.166   4.648
   98X2IT   C11 3067   2.524   3.288   4.666
   98X2IT    O3 3068   2.450   3.368   4.756
   98X2IT   C15 3069   2.518   3.480   4.815
   99X2IT   H18 3070   0.807   3.659   3.794
   99X2IT    N4 3071   0.722   3.641   3.846
   99X2IT   H17 3072   0.720   3.558   3.903
   99X2IT   C14 3073   0.650   3.750   3.885
   99X2IT    O5 3074   0.664   3.863   3.841
   99X2IT    O4 3075   0.558   3.714   3.978
   99X2IT   C13 3076   0.469   3.818   4.025
   99X2IT   C10 3077   0.351   3.838   3.928
   99X2IT    C9 3078   0.252   3.942   3.977
   99X2IT    C4 3079   0.126   3.886   3.989
   99X2IT    C5 3080   0.005   3.961   4.036
   99X2IT    O1 3081  -0.105   3.904   4.040
   99X2IT    C6 3082   0.025   4.099   4.072
   99X2IT   C12 3083  -0.093   4.181   4.120
   99X2IT    C7 3084   0.151   4.156   4.058
   99X2IT    C8 3085   0.273   4.078   4.010
   99X2IT    O2 3086   0.382   4.137   4.006
   99X2IT    N3 3087   0.179   4.284   4.088
   99X2IT   H15 3088   0.111   4.348   4.123
   99X2IT   H16 3089   0.276   4.314   4.076
   99X2IT    N2 3090   0.123   3.757   3.947
   99X2IT    C3 3091   0.041   3.646   3.998
   99X2IT    C2 3092   0.146   3.546   4.044
   99X2IT    H2 3093   0.119   3.441   4.057
   99X2IT    N1 3094   0.246   3.607   4.134
   99X2IT   H14 3095   0.292   3.534   4.189
   99X2IT    C1 3096   0.279   3.587   3.992
   99X2IT    H1 3097   0.355   3.516   3.962
   99X2IT   C11 3098   0.259   3.711   3.907
   99X2IT    O3 3099   0.262   3.663   3.774
   99X2IT   C15 3100   0.209   3.749   3.672
  100SOL     OW 3101   0.230   0.628   0.113
  100SOL    HW1 3102   0.137   0.626   0.150
  100SOL    HW2 3103   0.231   0.589   0.021
  101SOL     OW 3104   0.019   0.368   0.647
  101SOL    HW1 3105  -0.063   0.411   0.686
  101SOL    HW2 3106  -0.009   0.295   0.584
  102SOL     OW 3107   0.569   1.275   1.165
  102SOL    HW1 3108   0.476   1.268   1.128
  102SOL    HW2 3109   0.580   1.364   1.209
  103SOL     OW 3110   1.555   1.511   0.703
  103SOL    HW1 3111   1.498   1.495   0.784
  103SOL    HW2 3112   1.496   1.521   0.623
  104SOL     OW 3113   1.135   0.703   0.717
  104SOL    HW1 3114   1.192   0.781   0.692
  104SOL    HW2 3115   1.075   0.729   0.793
  105SOL     OW 3116   0.768   1.144   1.023
  105SOL    HW1 3117   0.690   1.161   1.083
  105SOL    HW2 3118   0.802   1.231   0.987
  106SOL     OW 3119   0.850   0.798   1.823
  106SOL    HW1 3120   0.846   0.874   1.888
  106SOL    HW2 3121   0.872   0.834   1.732
  107SOL     OW 3122   0.685   1.012   0.665
  107SOL    HW1 3123   0.754   0.996   0.735
  107SOL    HW2 3124   0.612   1.069   0.703
  108SOL     OW 3125   0.335   1.435   1.061
  108SOL    HW1 3126   0.257   1.404   1.008
  108SOL    HW2 3127   0.393   1.493   1.004
  109SOL     OW 3128   0.438   0.392   1.499
  109SOL    HW1 3129   0.520   0.336   1.508
  109SOL    HW2 3130   0.357   0.334   1.503
  110SOL     OW 3131   1.603   0.447   0.737
  110SOL    HW1 3132   1.529   0.493   0.687
  110SOL    HW2 3133   1.654   0.515   0.790
  111SOL     OW 3134   1.127   1.341   1.690
  111SOL    HW1 3135   1.174   1.341   1.778
  111SOL    HW2 3136   1.079   1.254   1.679
  112SOL     OW 3137   0.230   1.434   0.538
  112SOL    HW1 3138   0.204   1.530   0.538
  112SOL    HW2 3139   0.159   1.380   0.583
  113SOL     OW 3140   0.240   1.091   0.886
  113SOL    HW1 3141   0.254   1.007   0.938
  113SOL    HW2 3142   0.185   1.155   0.941
  114SOL     OW 3143   0.620   1.786   1.439
  114SOL    HW1 3144   0.528   1.769   1.474
  114SOL    HW2 3145   0.648   1.878   1.465
  115SOL     OW 3146   1.594   0.114   1.480
  115SOL    HW1 3147   1.576   0.181   1.408
  115SOL    HW2 3148   1.591   0.160   1.569
  116SOL     OW 3149   1.689   0.922   0.612
  116SOL    HW1 3150   1.784   0.893   0.620
  116SOL    HW2 3151   1.681   0.987   0.537
  117SOL     OW 3152   1.641   1.108   0.432
  117SOL    HW1 3153   1.727   1.110   0.380
  117SOL    HW2 3154   1.655   1.155   0.520
  118SOL     OW 3155   0.613   1.365   0.726
  118SOL    HW1 3156   0.564   1.278   0.735
  118SOL    HW2 3157   0.590   1.408   0.639
  119SOL     OW 3158   0.809   0.004   0.502
  119SOL    HW1 3159   0.849   0.095   0.493
  119SOL    HW2 3160   0.709   0.012   0.508
  120SOL     OW 3161   0.197   0.976   1.264
  120SOL    HW1 3162   0.286   0.931   1.250
  120SOL    HW2 3163   0.124   0.911   1.245
  121SOL     OW 3164   1.525   0.999   0.190
  121SOL    HW1 3165   1.462   0.923   0.203
  121SOL    HW2 3166   1.573   1.017   0.276
  122SOL     OW 3167   0.317   0.251   1.801
  122SOL    HW1 3168   0.388   0.322   1.807
  122SOL    HW2 3169   0.229   0.290   1.829
  123SOL     OW 3170   1.667   1.714   0.572
  123SOL    HW1 3171   1.626   1.691   0.484
  123SOL    HW2 3172   1.649   1.640   0.637
  124SOL     OW 3173   1.281   0.345   0.944
  124SOL    HW1 3174   1.195   0.295   0.931
  124SOL    HW2 3175   1.343   0.291   1.000
  125SOL     OW 3176   1.576   1.662   0.307
  125SOL    HW1 3177   1.665   1.708   0.310
  125SOL    HW2 3178   1.555   1.638   0.212
  126SOL     OW 3179   0.807   0.605   1.465
  126SOL    HW1 3180   0.760   0.602   1.554
  126SOL    HW2 3181   0.756   0.550   1.399
  127SOL     OW 3182   1.394   0.469   1.674
  127SOL    HW1 3183   1.374   0.512   1.762
  127SOL    HW2 3184   1.472   0.407   1.683
  128SOL     OW 3185   0.973   0.890   1.572
  128SOL    HW1 3186   1.019   0.806   1.543
  128SOL    HW2 3187   0.917   0.924   1.497
  129SOL     OW 3188   0.991   0.410   1.242
  129SOL    HW1 3189   0.914   0.444   1.296
  129SOL    HW2 3190   0.957   0.359   1.163
  130SOL     OW 3191   1.041   0.701   0.429
  130SOL    HW1 3192   1.067   0.697   0.525
  130SOL    HW2 3193   0.956   0.650   0.415
  131SOL     OW 3194   0.130   1.821   1.571
  131SOL    HW1 3195   0.120   1.806   1.670
  131SOL    HW2 3196   0.044   1.857   1.535
  132SOL     OW 3197   1.719   0.585   1.831
  132SOL    HW1 3198   1.693   0.674   1.795
  132SOL    HW2 3199   1.717   0.517   1.758
  133SOL     OW 3200   1.362   1.144   0.545
  133SOL    HW1 3201   1.445   1.115   0.497
  133SOL    HW2 3202   1.313   1.211   0.489
  134SOL     OW 3203   1.458   0.735   0.728
  134SOL    HW1 3204   1.453   0.670   0.803
  134SOL    HW2 3205   1.538   0.794   0.741
  135SOL     OW 3206   0.461   1.266   1.727
  135SOL    HW1 3207   0.411   1.267   1.641
  135SOL    HW2 3208   0.398   1.248   1.803
  136SOL     OW 3209   0.202   0.285   1.498
  136SOL    HW1 3210   0.122   0.345   1.485
  136SOL    HW2 3211   0.192   0.236   1.584
  137SOL     OW 3212   1.632   1.377   0.081
  137SOL    HW1 3213   1.600   1.471   0.071
  137SOL    HW2 3214   1.556   1.314   0.069
  138SOL     OW 3215   1.400   0.107   0.426
  138SOL    HW1 3216   1.376   0.070   0.336
  138SOL    HW2 3217   1.499   0.123   0.430
  139SOL     OW 3218   0.249   1.785   1.241
  139SOL    HW1 3219   0.306   1.720   1.291
  139SOL    HW2 3220   0.233   1.752   1.148
  140SOL     OW 3221   0.940   1.698   0.904
  140SOL    HW1 3222   1.020   1.641   0.925
  140SOL    HW2 3223   0.891   1.658   0.827
  141SOL     OW 3224   1.547   0.222   1.729
  141SOL    HW1 3225   1.542   0.259   1.821
  141SOL    HW2 3226   1.475   0.153   1.717
  142SOL     OW 3227   0.614   0.122   0.117
  142SOL    HW1 3228   0.712   0.100   0.124
  142SOL    HW2 3229   0.583   0.105   0.024
  143SOL     OW 3230   0.781   0.264   1.749
  143SOL    HW1 3231   0.848   0.203   1.792
  143SOL    HW2 3232   0.708   0.283   1.814
  144SOL     OW 3233   0.888   1.514   1.195
  144SOL    HW1 3234   0.865   1.489   1.101
  144SOL    HW2 3235   0.949   1.445   1.234
  145SOL     OW 3236   1.351   0.590   1.433
  145SOL    HW1 3237   1.379   0.547   1.518
  145SOL    HW2 3238   1.376   0.686   1.434
  146SOL     OW 3239   0.803   1.402   0.924
  146SOL    HW1 3240   0.893   1.416   0.882
  146SOL    HW2 3241   0.732   1.404   0.853
  147SOL     OW 3242   0.922   0.503   0.899
  147SOL    HW1 3243   0.897   0.494   0.803
  147SOL    HW2 3244   0.970   0.421   0.930
  148SOL     OW 3245   0.539   0.064   0.512
  148SOL    HW1 3246   0.458   0.065   0.570
  148SOL    HW2 3247   0.542   0.147   0.457
  149SOL     OW 3248   1.434   1.188   0.041
  149SOL    HW1 3249   1.466   1.112   0.098
  149SOL    HW2 3250   1.342   1.215   0.071
  150SOL     OW 3251   1.076   0.683   1.464
  150SOL    HW1 3252   0.996   0.622   1.467
  150SOL    HW2 3253   1.157   0.630   1.440
  151SOL     OW 3254   1.227   1.570   0.793
  151SOL    HW1 3255   1.248   1.644   0.728
  151SOL    HW2 3256   1.295   1.570   0.866
  152SOL     OW 3257   0.459   1.152   0.741
  152SOL    HW1 3258   0.388   1.125   0.806
  152SOL    HW2 3259   0.433   1.124   0.648
  153SOL     OW 3260   1.032   0.549   0.016
  153SOL    HW1 3261   0.991   0.631  -0.023
  153SOL    HW2 3262   1.096   0.575   0.089
  154SOL     OW 3263   0.078   0.556   1.386
  154SOL    HW1 3264   0.170   0.555   1.345
  154SOL    HW2 3265   0.072   0.630   1.453
  155SOL     OW 3266   0.561   0.222   1.147
  155SOL    HW1 3267   0.599   0.138   1.184
  155SOL    HW2 3268   0.473   0.241   1.191
  156SOL     OW 3269   1.017   0.039   0.753
  156SOL    HW1 3270   0.945   0.044   0.684
  156SOL    HW2 3271   0.993  -0.030   0.822
  157SOL     OW 3272   1.429   1.173   0.867
  157SOL    HW1 3273   1.374   1.089   0.860
  157SOL    HW2 3274   1.455   1.202   0.775
  158SOL     OW 3275   1.466   0.590   0.992
  158SOL    HW1 3276   1.436   0.495   0.999
  158SOL    HW2 3277   1.539   0.606   1.058
  159SOL     OW 3278   0.488   1.385   0.174
  159SOL    HW1 3279   0.401   1.370   0.221
  159SOL    HW2 3280   0.471   1.411   0.079
  160SOL     OW 3281   0.527   0.256   0.328
  160SOL    HW1 3282   0.554   0.197   0.253
  160SOL    HW2 3283   0.527   0.351   0.297
  161SOL     OW 3284   1.064   1.347   1.340
  161SOL    HW1 3285   0.984   1.324   1.395
  161SOL    HW2 3286   1.147   1.321   1.389
  162SOL     OW 3287   1.638   1.099   1.079
  162SOL    HW1 3288   1.643   1.180   1.138
  162SOL    HW2 3289   1.552   1.101   1.028
  163SOL     OW 3290   0.915   0.089   1.402
  163SOL    HW1 3291   0.940   0.069   1.307
  163SOL    HW2 3292   0.987   0.145   1.444
  164SOL     OW 3293   0.980   1.116   1.719
  164SOL    HW1 3294   0.881   1.122   1.729
  164SOL    HW2 3295   1.003   1.036   1.663
  165SOL     OW 3296   0.410   0.813   1.251
  165SOL    HW1 3297   0.496   0.825   1.301
  165SOL    HW2 3298   0.368   0.726   1.278
  166SOL     OW 3299   1.274   0.386   1.262
  166SOL    HW1 3300   1.295   0.460   1.326
  166SOL    HW2 3301   1.185   0.403   1.219
  167SOL     OW 3302   0.064   1.564   1.331
  167SOL    HW1 3303   0.018   1.646   1.297
  167SOL    HW2 3304   0.162   1.583   1.340
  168SOL     OW 3305   0.367   1.100   0.501
  168SOL    HW1 3306   0.360   1.183   0.445
  168SOL    HW2 3307   0.371   1.020   0.441
  169SOL     OW 3308   1.252   1.348   0.388
  169SOL    HW1 3309   1.302   1.425   0.428
  169SOL    HW2 3310   1.157   1.350   0.420
  170SOL     OW 3311   1.013   0.105   1.770
  170SOL    HW1 3312   1.019   0.190   1.718
  170SOL    HW2 3313   1.045   0.029   1.713
  171SOL     OW 3314   0.504   0.050   1.740
  171SOL    HW1 3315   0.462  -0.007   1.670
  171SOL    HW2 3316   0.438   0.119   1.772
  172SOL     OW 3317   0.573   0.870   1.029
  172SOL    HW1 3318   0.617   0.959   1.020
  172SOL    HW2 3319   0.510   0.870   1.106
  173SOL     OW 3320   1.360   0.862   1.045
  173SOL    HW1 3321   1.285   0.862   0.979
  173SOL    HW2 3322   1.397   0.770   1.054
  174SOL     OW 3323   1.209   0.525   0.275
  174SOL    HW1 3324   1.222   0.441   0.329
  174SOL    HW2 3325   1.180   0.599   0.335
  175SOL     OW 3326   0.732   0.634   1.064
  175SOL    HW1 3327   0.791   0.608   0.988
  175SOL    HW2 3328   0.704   0.730   1.053
  176SOL     OW 3329   1.622   0.367   0.374
  176SOL    HW1 3330   1.624   0.291   0.438
  176SOL    HW2 3331   1.574   0.444   0.414
  177SOL     OW 3332   1.023   0.766   0.966
  177SOL    HW1 3333   1.038   0.787   1.062
  177SOL    HW2 3334   0.993   0.671   0.957
  178SOL     OW 3335   0.980   1.573   1.700
  178SOL    HW1 3336   0.960   1.617   1.612
  178SOL    HW2 3337   1.019   1.482   1.684
  179SOL     OW 3338   1.540   0.274   0.125
  179SOL    HW1 3339   1.479   0.199   0.148
  179SOL    HW2 3340   1.562   0.326   0.208
  180SOL     OW 3341   1.068   1.333   0.849
  180SOL    HW1 3342   1.075   1.249   0.794
  180SOL    HW2 3343   1.130   1.402   0.813
  181SOL     OW 3344   0.319   0.810   0.949
  181SOL    HW1 3345   0.412   0.846   0.954
  181SOL    HW2 3346   0.313   0.725   1.001
  182SOL     OW 3347   1.138   0.380   1.678
  182SOL    HW1 3348   1.093   0.443   1.742
  182SOL    HW2 3349   1.231   0.411   1.661
  183SOL     OW 3350   1.160   0.207   1.477
  183SOL    HW1 3351   1.160   0.271   1.554
  183SOL    HW2 3352   1.188   0.255   1.394
  184SOL     OW 3353   0.088   1.801   0.927
  184SOL    HW1 3354   0.046   1.715   0.900
  184SOL    HW2 3355   0.182   1.804   0.893
  185SOL     OW 3356   0.504   1.568   0.910
  185SOL    HW1 3357   0.570   1.642   0.919
  185SOL    HW2 3358   0.548   1.489   0.868
  186SOL     OW 3359   1.002   0.796   1.238
  186SOL    HW1 3360   1.043   0.764   1.324
  186SOL    HW2 3361   0.906   0.769   1.235
  187SOL     OW 3362   1.369   0.950   1.660
  187SOL    HW1 3363   1.408   1.039   1.680
  187SOL    HW2 3364   1.379   0.930   1.563
  188SOL     OW 3365   0.671   0.464   1.269
  188SOL    HW1 3366   0.637   0.375   1.239
  188SOL    HW2 3367   0.697   0.518   1.189
  189SOL     OW 3368   0.930   1.678   1.465
  189SOL    HW1 3369   0.906   1.660   1.370
  189SOL    HW2 3370   0.960   1.772   1.475
  190SOL     OW 3371   0.473   0.500   0.191
  190SOL    HW1 3372   0.534   0.580   0.195
  190SOL    HW2 3373   0.378   0.531   0.198
  191SOL     OW 3374   1.302   0.855   0.309
  191SOL    HW1 3375   1.216   0.824   0.351
  191SOL    HW2 3376   1.298   0.841   0.210
  192SOL     OW 3377   0.083   1.258   1.022
  192SOL    HW1 3378   0.078   1.257   1.122
  192SOL    HW2 3379   0.000   1.217   0.984
  193SOL     OW 3380   0.688   1.662   1.716
  193SOL    HW1 3381   0.632   1.743   1.725
  193SOL    HW2 3382   0.740   1.666   1.630
  194SOL     OW 3383   1.726   0.135   0.523
  194SOL    HW1 3384   1.799   0.118   0.456
  194SOL    HW2 3385   1.695   0.048   0.561
  195SOL     OW 3386   1.388   1.573   0.477
  195SOL    HW1 3387   1.455   1.585   0.403
  195SOL    HW2 3388   1.348   1.662   0.500
  196SOL     OW 3389   0.130   1.794   1.851
  196SOL    HW1 3390   0.089   1.720   1.904
  196SOL    HW2 3391   0.194   1.845   1.909
  197SOL     OW 3392   1.280   0.927   0.672
  197SOL    HW1 3393   1.340   0.846   0.674
  197SOL    HW2 3394   1.320   0.996   0.612
  198SOL     OW 3395   0.830   1.273   1.422
  198SOL    HW1 3396   0.825   1.306   1.517
  198SOL    HW2 3397   0.744   1.292   1.376
  199SOL     OW 3398   1.841   0.175   0.963
  199SOL    HW1 3399   1.880   0.090   0.927
  199SOL    HW2 3400   1.743   0.177   0.944
  200SOL     OW 3401   1.194   1.612   0.031
  200SOL    HW1 3402   1.200   1.519   0.068
  200SOL    HW2 3403   1.135   1.612  -0.049
  201SOL     OW 3404   0.822   1.002   1.372
  201SOL    HW1 3405   0.862   1.001   1.280
  201SOL    HW2 3406   0.832   1.094   1.412
  202SOL     OW 3407   0.916   0.910   0.291
  202SOL    HW1 3408   0.979   0.948   0.223
  202SOL    HW2 3409   0.956   0.827   0.330
  203SOL     OW 3410   1.039   1.098   0.696
  203SOL    HW1 3411   0.969   1.051   0.750
  203SOL    HW2 3412   1.098   1.030   0.653
  204SOL     OW 3413   1.014   0.236   0.971
  204SOL    HW1 3414   1.006   0.200   0.878
  204SOL    HW2 3415   1.012   0.160   1.036
  205SOL     OW 3416   1.709   0.385   1.381
  205SOL    HW1 3417   1.782   0.454   1.385
  205SOL    HW2 3418   1.737   0.310   1.322
  206SOL     OW 3419   0.255   1.348   0.290
  206SOL    HW1 3420   0.159   1.349   0.263
  206SOL    HW2 3421   0.267   1.401   0.374
  207SOL     OW 3422   0.672   0.203   1.489
  207SOL    HW1 3423   0.762   0.187   1.449
  207SOL    HW2 3424   0.680   0.208   1.588
  208SOL     OW 3425   0.075   0.345   0.033
  208SOL    HW1 3426  -0.017   0.317   0.004
  208SOL    HW2 3427   0.106   0.422  -0.023
  209SOL     OW 3428   1.440   0.856   1.398
  209SOL    HW1 3429   1.383   0.908   1.335
  209SOL    HW2 3430   1.536   0.868   1.374
  210SOL     OW 3431   0.072   0.166   0.318
  210SOL    HW1 3432   0.055   0.249   0.264
  210SOL    HW2 3433   0.162   0.129   0.296
  211SOL     OW 3434   1.183   1.335   0.119
  211SOL    HW1 3435   1.084   1.324   0.121
  211SOL    HW2 3436   1.217   1.350   0.212
  212SOL     OW 3437   0.613   0.842   1.431
  212SOL    HW1 3438   0.669   0.923   1.414
  212SOL    HW2 3439   0.672   0.762   1.434
  213SOL     OW 3440   1.493   1.767   0.959
  213SOL    HW1 3441   1.526   1.831   0.890
  213SOL    HW2 3442   1.559   1.761   1.034
  214SOL     OW 3443   0.390   1.741   1.560
  214SOL    HW1 3444   0.299   1.782   1.558
  214SOL    HW2 3445   0.383   1.647   1.592
  215SOL     OW 3446   1.225   0.325   0.449
  215SOL    HW1 3447   1.290   0.251   0.438
  215SOL    HW2 3448   1.245   0.375   0.533
  216SOL     OW 3449   0.594   0.745   0.652
  216SOL    HW1 3450   0.644   0.830   0.633
  216SOL    HW2 3451   0.506   0.747   0.604
  217SOL     OW 3452   1.777   0.342   1.642
  217SOL    HW1 3453   1.760   0.373   1.548
  217SOL    HW2 3454   1.693   0.305   1.680
  218SOL     OW 3455   0.859   0.956   0.861
  218SOL    HW1 3456   0.913   0.887   0.909
  218SOL    HW2 3457   0.827   1.025   0.927
  219SOL     OW 3458   1.083   0.984   0.087
  219SOL    HW1 3459   1.060   1.037   0.005
  219SOL    HW2 3460   1.164   0.928   0.068
  220SOL     OW 3461   0.079   1.240   0.653
  220SOL    HW1 3462   0.078   1.193   0.741
  220SOL    HW2 3463   0.161   1.212   0.602
  221SOL     OW 3464   0.672   1.391   1.624
  221SOL    HW1 3465   0.594   1.341   1.662
  221SOL    HW2 3466   0.669   1.486   1.655
  222SOL     OW 3467   1.824   0.192   1.227
  222SOL    HW1 3468   1.820   0.102   1.271
  222SOL    HW2 3469   1.827   0.181   1.128
  223SOL     OW 3470   0.317   0.547   1.280
  223SOL    HW1 3471   0.355   0.488   1.352
  223SOL    HW2 3472   0.357   0.521   1.192
  224SOL     OW 3473   1.424   0.214   1.112
  224SOL    HW1 3474   1.476   0.149   1.167
  224SOL    HW2 3475   1.375   0.277   1.173
  225SOL     OW 3476   1.001   0.034   1.154
  225SOL    HW1 3477   0.938  -0.038   1.123
  225SOL    HW2 3478   1.094  -0.002   1.154
  226SOL     OW 3479   0.770   1.330   0.301
  226SOL    HW1 3480   0.724   1.243   0.318
  226SOL    HW2 3481   0.861   1.327   0.342
  227SOL     OW 3482   0.618   1.567   1.284
  227SOL    HW1 3483   0.613   1.649   1.341
  227SOL    HW2 3484   0.707   1.564   1.239
  228SOL     OW 3485   1.352   0.052   0.168
  228SOL    HW1 3486   1.387   0.011   0.084
  228SOL    HW2 3487   1.262   0.014   0.188
  229SOL     OW 3488   1.300   0.453   0.691
  229SOL    HW1 3489   1.241   0.533   0.695
  229SOL    HW2 3490   1.315   0.418   0.784
  230SOL     OW 3491   1.593   0.221   0.882
  230SOL    HW1 3492   1.509   0.220   0.936
  230SOL    HW2 3493   1.595   0.304   0.826
  231SOL     OW 3494   0.039   1.077   0.300
  231SOL    HW1 3495   0.138   1.066   0.291
  231SOL    HW2 3496  -0.001   0.991   0.332
  232SOL     OW 3497   0.225   0.275   2.858
  232SOL    HW1 3498   0.260   0.258   2.950
  232SOL    HW2 3499   0.137   0.230   2.846
  233SOL     OW 3500   0.019   0.368   2.509
  233SOL    HW1 3501  -0.063   0.411   2.548
  233SOL    HW2 3502  -0.009   0.295   2.446
  234SOL     OW 3503   1.135   0.703   2.579
  234SOL    HW1 3504   1.192   0.781   2.554
  234SOL    HW2 3505   1.075   0.729   2.655
  235SOL     OW 3506   1.755   0.607   2.093
  235SOL    HW1 3507   1.743   0.594   1.994
  235SOL    HW2 3508   1.725   0.526   2.142
  236SOL     OW 3509   0.768   1.144   2.885
  236SOL    HW1 3510   0.690   1.161   2.945
  236SOL    HW2 3511   0.802   1.231   2.849
  237SOL     OW 3512   0.850   0.798   3.685
  237SOL    HW1 3513   0.846   0.874   3.750
  237SOL    HW2 3514   0.872   0.834   3.594
  238SOL     OW 3515   0.685   1.012   2.527
  238SOL    HW1 3516   0.754   0.996   2.597
  238SOL    HW2 3517   0.612   1.069   2.565
  239SOL     OW 3518   0.686   1.161   3.665
  239SOL    HW1 3519   0.746   1.240   3.679
  239SOL    HW2 3520   0.600   1.192   3.624
  240SOL     OW 3521   1.460   1.505   3.201
  240SOL    HW1 3522   1.484   1.599   3.227
  240SOL    HW2 3523   1.444   1.451   3.283
  241SOL     OW 3524   1.603   0.447   2.599
  241SOL    HW1 3525   1.529   0.493   2.549
  241SOL    HW2 3526   1.654   0.515   2.652
  242SOL     OW 3527   0.231   1.713   2.345
  242SOL    HW1 3528   0.265   1.790   2.399
  242SOL    HW2 3529   0.275   1.713   2.255
  243SOL     OW 3530   1.127   1.341   3.552
  243SOL    HW1 3531   1.174   1.341   3.640
  243SOL    HW2 3532   1.079   1.254   3.541
  244SOL     OW 3533   0.230   1.434   2.400
  244SOL    HW1 3534   0.204   1.530   2.400
  244SOL    HW2 3535   0.159   1.380   2.445
  245SOL     OW 3536   0.240   1.091   2.748
  245SOL    HW1 3537   0.254   1.007   2.800
  245SOL    HW2 3538   0.185   1.155   2.803
  246SOL     OW 3539   0.606   0.964   1.985
  246SOL    HW1 3540   0.613   1.048   1.931
  246SOL    HW2 3541   0.652   0.977   2.073
  247SOL     OW 3542   1.594   0.114   3.342
  247SOL    HW1 3543   1.576   0.181   3.270
  247SOL    HW2 3544   1.591   0.160   3.431
  248SOL     OW 3545   0.122   0.643   2.425
  248SOL    HW1 3546   0.077   0.555   2.442
  248SOL    HW2 3547   0.121   0.697   2.509
  249SOL     OW 3548   1.641   1.108   2.294
  249SOL    HW1 3549   1.727   1.110   2.242
  249SOL    HW2 3550   1.655   1.155   2.382
  250SOL     OW 3551   0.113   0.737   3.459
  250SOL    HW1 3552   0.201   0.724   3.504
  250SOL    HW2 3553   0.100   0.834   3.437
  251SOL     OW 3554   0.613   1.365   2.588
  251SOL    HW1 3555   0.564   1.278   2.597
  251SOL    HW2 3556   0.590   1.408   2.501
  252SOL     OW 3557   1.293   1.228   3.285
  252SOL    HW1 3558   1.330   1.155   3.227
  252SOL    HW2 3559   1.345   1.233   3.370
  253SOL     OW 3560   0.809   0.004   2.364
  253SOL    HW1 3561   0.849   0.095   2.355
  253SOL    HW2 3562   0.709   0.012   2.370
  254SOL     OW 3563   1.525   0.999   2.052
  254SOL    HW1 3564   1.462   0.923   2.065
  254SOL    HW2 3565   1.573   1.017   2.138
  255SOL     OW 3566   0.317   0.251   3.663
  255SOL    HW1 3567   0.388   0.322   3.669
  255SOL    HW2 3568   0.229   0.290   3.691
  256SOL     OW 3569   1.281   0.345   2.806
  256SOL    HW1 3570   1.195   0.295   2.793
  256SOL    HW2 3571   1.343   0.291   2.862
  257SOL     OW 3572   0.807   0.605   3.327
  257SOL    HW1 3573   0.760   0.602   3.416
  257SOL    HW2 3574   0.756   0.550   3.261
  258SOL     OW 3575   1.394   0.469   3.536
  258SOL    HW1 3576   1.374   0.512   3.624
  258SOL    HW2 3577   1.472   0.407   3.545
  259SOL     OW 3578   0.973   0.890   3.434
  259SOL    HW1 3579   1.019   0.806   3.405
  259SOL    HW2 3580   0.917   0.924   3.359
  260SOL     OW 3581   0.991   0.410   3.104
  260SOL    HW1 3582   0.914   0.444   3.158
  260SOL    HW2 3583   0.957   0.359   3.025
  261SOL     OW 3584   1.041   0.701   2.291
  261SOL    HW1 3585   1.067   0.697   2.387
  261SOL    HW2 3586   0.956   0.650   2.277
  262SOL     OW 3587   0.076   0.811   2.651
  262SOL    HW1 3588   0.175   0.799   2.660
  262SOL    HW2 3589   0.052   0.906   2.672
  263SOL     OW 3590   0.865   0.348   2.057
  263SOL    HW1 3591   0.924   0.411   2.008
  263SOL    HW2 3592   0.884   0.254   2.028
  264SOL     OW 3593   1.362   1.144   2.407
  264SOL    HW1 3594   1.445   1.115   2.359
  264SOL    HW2 3595   1.313   1.211   2.351
  265SOL     OW 3596   0.550   0.196   2.747
  265SOL    HW1 3597   0.545   0.191   2.847
  265SOL    HW2 3598   0.552   0.292   2.718
  266SOL     OW 3599   1.008   1.456   2.339
  266SOL    HW1 3600   0.962   1.528   2.287
  266SOL    HW2 3601   1.004   1.476   2.437
  267SOL     OW 3602   1.795   1.066   2.735
  267SOL    HW1 3603   1.733   1.051   2.659
  267SOL    HW2 3604   1.743   1.077   2.820
  268SOL     OW 3605   1.227   1.550   3.368
  268SOL    HW1 3606   1.233   1.473   3.432
  268SOL    HW2 3607   1.175   1.524   3.288
  269SOL     OW 3608   1.111   1.776   2.099
  269SOL    HW1 3609   1.051   1.714   2.149
  269SOL    HW2 3610   1.142   1.732   2.014
  270SOL     OW 3611   0.202   0.285   3.360
  270SOL    HW1 3612   0.122   0.345   3.347
  270SOL    HW2 3613   0.192   0.236   3.446
  271SOL     OW 3614   0.464   1.743   2.185
  271SOL    HW1 3615   0.497   1.782   2.271
  271SOL    HW2 3616   0.540   1.736   2.120
  272SOL     OW 3617   1.400   0.107   2.288
  272SOL    HW1 3618   1.376   0.070   2.198
  272SOL    HW2 3619   1.499   0.123   2.292
  273SOL     OW 3620   0.940   1.698   2.766
  273SOL    HW1 3621   1.020   1.641   2.787
  273SOL    HW2 3622   0.891   1.658   2.689
  274SOL     OW 3623   0.382   0.700   2.342
  274SOL    HW1 3624   0.427   0.610   2.339
  274SOL    HW2 3625   0.288   0.689   2.375
  275SOL     OW 3626   0.614   0.122   1.979
  275SOL    HW1 3627   0.712   0.100   1.986
  275SOL    HW2 3628   0.583   0.105   1.886
  276SOL     OW 3629   0.781   0.264   3.611
  276SOL    HW1 3630   0.848   0.203   3.654
  276SOL    HW2 3631   0.708   0.283   3.676
  277SOL     OW 3632   0.888   1.514   3.057
  277SOL    HW1 3633   0.865   1.489   2.963
  277SOL    HW2 3634   0.949   1.445   3.096
  278SOL     OW 3635   1.351   0.590   3.295
  278SOL    HW1 3636   1.379   0.547   3.380
  278SOL    HW2 3637   1.376   0.686   3.296
  279SOL     OW 3638   0.803   1.402   2.786
  279SOL    HW1 3639   0.893   1.416   2.744
  279SOL    HW2 3640   0.732   1.404   2.715
  280SOL     OW 3641   0.922   0.503   2.761
  280SOL    HW1 3642   0.897   0.494   2.665
  280SOL    HW2 3643   0.970   0.421   2.792
  281SOL     OW 3644   0.539   0.064   2.374
  281SOL    HW1 3645   0.458   0.065   2.432
  281SOL    HW2 3646   0.542   0.147   2.319
  282SOL     OW 3647   1.434   1.188   1.903
  282SOL    HW1 3648   1.466   1.112   1.960
  282SOL    HW2 3649   1.342   1.215   1.933
  283SOL     OW 3650   0.297   0.035   2.033
  283SOL    HW1 3651   0.346   0.119   2.012
  283SOL    HW2 3652   0.359  -0.030   2.078
  284SOL     OW 3653   0.935   0.236   2.342
  284SOL    HW1 3654   0.887   0.277   2.264
  284SOL    HW2 3655   1.034   0.234   2.323
  285SOL     OW 3656   1.076   0.683   3.326
  285SOL    HW1 3657   0.996   0.622   3.329
  285SOL    HW2 3658   1.157   0.630   3.302
  286SOL     OW 3659   0.459   1.152   2.603
  286SOL    HW1 3660   0.388   1.125   2.668
  286SOL    HW2 3661   0.433   1.124   2.510
  287SOL     OW 3662   1.271   1.797   2.453
  287SOL    HW1 3663   1.315   1.861   2.389
  287SOL    HW2 3664   1.221   1.849   2.523
  288SOL     OW 3665   1.032   0.549   1.878
  288SOL    HW1 3666   0.991   0.631   1.839
  288SOL    HW2 3667   1.096   0.575   1.951
  289SOL     OW 3668   0.078   0.556   3.248
  289SOL    HW1 3669   0.170   0.555   3.207
  289SOL    HW2 3670   0.072   0.630   3.315
  290SOL     OW 3671   0.866   0.454   2.504
  290SOL    HW1 3672   0.834   0.526   2.442
  290SOL    HW2 3673   0.890   0.373   2.451
  291SOL     OW 3674   1.017   0.039   2.615
  291SOL    HW1 3675   0.945   0.044   2.546
  291SOL    HW2 3676   0.993  -0.030   2.684
  292SOL     OW 3677   1.466   0.590   2.854
  292SOL    HW1 3678   1.436   0.495   2.861
  292SOL    HW2 3679   1.539   0.606   2.920
  293SOL     OW 3680   0.488   1.385   2.036
  293SOL    HW1 3681   0.401   1.370   2.083
  293SOL    HW2 3682   0.471   1.411   1.941
  294SOL     OW 3683   1.390   0.575   1.940
  294SOL    HW1 3684   1.336   0.554   2.021
  294SOL    HW2 3685   1.481   0.534   1.949
  295SOL     OW 3686   0.527   0.256   2.190
  295SOL    HW1 3687   0.554   0.197   2.115
  295SOL    HW2 3688   0.527   0.351   2.159
  296SOL     OW 3689   1.754   1.223   3.450
  296SOL    HW1 3690   1.845   1.184   3.437
  296SOL    HW2 3691   1.762   1.319   3.474
  297SOL     OW 3692   1.592   1.629   3.487
  297SOL    HW1 3693   1.619   1.663   3.397
  297SOL    HW2 3694   1.671   1.591   3.533
  298SOL     OW 3695   1.111   1.195   2.962
  298SOL    HW1 3696   1.071   1.239   3.043
  298SOL    HW2 3697   1.070   1.232   2.879
  299SOL     OW 3698   1.638   1.099   2.941
  299SOL    HW1 3699   1.643   1.180   3.000
  299SOL    HW2 3700   1.552   1.101   2.890
  300SOL     OW 3701   0.980   1.116   3.581
  300SOL    HW1 3702   0.881   1.122   3.591
  300SOL    HW2 3703   1.003   1.036   3.525
  301SOL     OW 3704   0.705   1.050   2.230
  301SOL    HW1 3705   0.691   1.057   2.329
  301SOL    HW2 3706   0.789   0.999   2.212
  302SOL     OW 3707   1.274   0.386   3.124
  302SOL    HW1 3708   1.295   0.460   3.188
  302SOL    HW2 3709   1.185   0.403   3.081
  303SOL     OW 3710   0.367   1.100   2.363
  303SOL    HW1 3711   0.360   1.183   2.307
  303SOL    HW2 3712   0.371   1.020   2.303
  304SOL     OW 3713   0.566   0.537   2.727
  304SOL    HW1 3714   0.578   0.603   2.653
  304SOL    HW2 3715   0.612   0.571   2.810
  305SOL     OW 3716   1.252   1.348   2.250
  305SOL    HW1 3717   1.302   1.425   2.290
  305SOL    HW2 3718   1.157   1.350   2.282
  306SOL     OW 3719   1.272   1.445   3.004
  306SOL    HW1 3720   1.319   1.458   3.091
  306SOL    HW2 3721   1.206   1.371   3.013
  307SOL     OW 3722   1.582   0.639   2.334
  307SOL    HW1 3723   1.551   0.700   2.407
  307SOL    HW2 3724   1.632   0.691   2.265
  308SOL     OW 3725   0.402   0.751   3.460
  308SOL    HW1 3726   0.470   0.806   3.413
  308SOL    HW2 3727   0.442   0.663   3.487
  309SOL     OW 3728   1.587   0.779   3.532
  309SOL    HW1 3729   1.495   0.817   3.527
  309SOL    HW2 3730   1.647   0.826   3.467
  310SOL     OW 3731   0.573   0.870   2.891
  310SOL    HW1 3732   0.617   0.959   2.882
  310SOL    HW2 3733   0.510   0.870   2.968
  311SOL     OW 3734   1.360   0.862   2.907
  311SOL    HW1 3735   1.285   0.862   2.841
  311SOL    HW2 3736   1.397   0.770   2.916
  312SOL     OW 3737   1.209   0.525   2.137
  312SOL    HW1 3738   1.222   0.441   2.191
  312SOL    HW2 3739   1.180   0.599   2.197
  313SOL     OW 3740   0.307   0.213   3.093
  313SOL    HW1 3741   0.284   0.250   3.183
  313SOL    HW2 3742   0.277   0.118   3.087
  314SOL     OW 3743   0.732   0.634   2.926
  314SOL    HW1 3744   0.791   0.608   2.850
  314SOL    HW2 3745   0.704   0.730   2.915
  315SOL     OW 3746   1.728   0.935   3.716
  315SOL    HW1 3747   1.682   0.928   3.627
  315SOL    HW2 3748   1.666   0.979   3.782
  316SOL     OW 3749   0.307   0.063   2.480
  316SOL    HW1 3750   0.296   0.157   2.513
  316SOL    HW2 3751   0.302   0.000   2.557
  317SOL     OW 3752   1.622   0.367   2.236
  317SOL    HW1 3753   1.624   0.291   2.300
  317SOL    HW2 3754   1.574   0.444   2.276
  318SOL     OW 3755   1.023   0.766   2.828
  318SOL    HW1 3756   1.038   0.787   2.924
  318SOL    HW2 3757   0.993   0.671   2.819
  319SOL     OW 3758   0.980   1.573   3.562
  319SOL    HW1 3759   0.960   1.617   3.474
  319SOL    HW2 3760   1.019   1.482   3.546
  320SOL     OW 3761   1.859   1.518   3.467
  320SOL    HW1 3762   1.873   1.545   3.372
  320SOL    HW2 3763   1.942   1.540   3.520
  321SOL     OW 3764   0.350   0.898   3.666
  321SOL    HW1 3765   0.426   0.942   3.714
  321SOL    HW2 3766   0.385   0.851   3.584
  322SOL     OW 3767   1.540   0.274   1.987
  322SOL    HW1 3768   1.479   0.199   2.010
  322SOL    HW2 3769   1.562   0.326   2.070
  323SOL     OW 3770   1.303   0.838   1.904
  323SOL    HW1 3771   1.337   0.745   1.919
  323SOL    HW2 3772   1.321   0.865   1.809
  324SOL     OW 3773   1.068   1.333   2.711
  324SOL    HW1 3774   1.075   1.249   2.656
  324SOL    HW2 3775   1.130   1.402   2.675
  325SOL     OW 3776   0.319   0.810   2.811
  325SOL    HW1 3777   0.412   0.846   2.816
  325SOL    HW2 3778   0.313   0.725   2.863
  326SOL     OW 3779   0.339   0.509   2.868
  326SOL    HW1 3780   0.287   0.426   2.851
  326SOL    HW2 3781   0.416   0.514   2.804
  327SOL     OW 3782   1.138   0.380   3.540
  327SOL    HW1 3783   1.093   0.443   3.604
  327SOL    HW2 3784   1.231   0.411   3.523
  328SOL     OW 3785   1.160   0.207   3.339
  328SOL    HW1 3786   1.160   0.271   3.416
  328SOL    HW2 3787   1.188   0.255   3.256
  329SOL     OW 3788   0.088   1.801   2.789
  329SOL    HW1 3789   0.046   1.715   2.762
  329SOL    HW2 3790   0.182   1.804   2.755
  330SOL     OW 3791   0.504   1.568   2.772
  330SOL    HW1 3792   0.570   1.642   2.781
  330SOL    HW2 3793   0.548   1.489   2.730
  331SOL     OW 3794   1.002   0.796   3.100
  331SOL    HW1 3795   1.043   0.764   3.186
  331SOL    HW2 3796   0.906   0.769   3.097
  332SOL     OW 3797   0.040   0.544   2.976
  332SOL    HW1 3798   0.125   0.511   2.935
  332SOL    HW2 3799   0.053   0.559   3.074
  333SOL     OW 3800   0.189   0.520   3.584
  333SOL    HW1 3801   0.248   0.480   3.514
  333SOL    HW2 3802   0.131   0.591   3.543
  334SOL     OW 3803   1.369   0.950   3.522
  334SOL    HW1 3804   1.408   1.039   3.542
  334SOL    HW2 3805   1.379   0.930   3.425
  335SOL     OW 3806   0.815   0.572   2.187
  335SOL    HW1 3807   0.822   0.483   2.141
  335SOL    HW2 3808   0.721   0.606   2.179
  336SOL     OW 3809   1.657   0.604   3.068
  336SOL    HW1 3810   1.619   0.535   3.130
  336SOL    HW2 3811   1.739   0.568   3.024
  337SOL     OW 3812   0.252   1.564   3.606
  337SOL    HW1 3813   0.222   1.621   3.682
  337SOL    HW2 3814   0.245   1.467   3.632
  338SOL     OW 3815   1.347   1.059   3.096
  338SOL    HW1 3816   1.371   0.996   3.022
  338SOL    HW2 3817   1.257   1.099   3.078
  339SOL     OW 3818   1.302   0.855   2.171
  339SOL    HW1 3819   1.216   0.824   2.213
  339SOL    HW2 3820   1.298   0.841   2.072
  340SOL     OW 3821   1.759   1.747   3.016
  340SOL    HW1 3822   1.820   1.777   2.943
  340SOL    HW2 3823   1.721   1.658   2.994
  341SOL     OW 3824   1.252   1.731   2.990
  341SOL    HW1 3825   1.336   1.736   2.936
  341SOL    HW2 3826   1.229   1.635   3.008
  342SOL     OW 3827   0.083   1.258   2.884
  342SOL    HW1 3828   0.078   1.257   2.984
  342SOL    HW2 3829   0.000   1.217   2.846
  343SOL     OW 3830   0.688   1.662   3.578
  343SOL    HW1 3831   0.632   1.743   3.587
  343SOL    HW2 3832   0.740   1.666   3.492
  344SOL     OW 3833   1.726   0.135   2.385
  344SOL    HW1 3834   1.799   0.118   2.318
  344SOL    HW2 3835   1.695   0.048   2.423
  345SOL     OW 3836   0.130   1.794   3.713
  345SOL    HW1 3837   0.089   1.720   3.766
  345SOL    HW2 3838   0.194   1.845   3.771
  346SOL     OW 3839   0.672   1.616   2.016
  346SOL    HW1 3840   0.681   1.626   1.917
  346SOL    HW2 3841   0.632   1.527   2.037
  347SOL     OW 3842   1.650   1.720   3.256
  347SOL    HW1 3843   1.703   1.730   3.172
  347SOL    HW2 3844   1.623   1.810   3.290
  348SOL     OW 3845   1.841   0.175   2.825
  348SOL    HW1 3846   1.880   0.090   2.789
  348SOL    HW2 3847   1.743   0.177   2.806
  349SOL     OW 3848   0.263   0.326   2.582
  349SOL    HW1 3849   0.184   0.377   2.548
  349SOL    HW2 3850   0.254   0.311   2.680
  350SOL     OW 3851   1.194   1.612   1.893
  350SOL    HW1 3852   1.200   1.519   1.930
  350SOL    HW2 3853   1.135   1.612   1.813
  351SOL     OW 3854   0.916   0.910   2.153
  351SOL    HW1 3855   0.979   0.948   2.085
  351SOL    HW2 3856   0.956   0.827   2.192
  352SOL     OW 3857   1.614   1.292   3.151
  352SOL    HW1 3858   1.674   1.295   3.231
  352SOL    HW2 3859   1.539   1.356   3.164
  353SOL     OW 3860   1.039   1.098   2.558
  353SOL    HW1 3861   0.969   1.051   2.612
  353SOL    HW2 3862   1.098   1.030   2.515
  354SOL     OW 3863   1.014   0.236   2.833
  354SOL    HW1 3864   1.006   0.200   2.740
  354SOL    HW2 3865   1.012   0.160   2.898
  355SOL     OW 3866   0.590   1.487   2.353
  355SOL    HW1 3867   0.632   1.429   2.283
  355SOL    HW2 3868   0.546   1.566   2.309
  356SOL     OW 3869   1.709   0.385   3.243
  356SOL    HW1 3870   1.782   0.454   3.247
  356SOL    HW2 3871   1.737   0.310   3.184
  357SOL     OW 3872   0.255   1.348   2.152
  357SOL    HW1 3873   0.159   1.349   2.125
  357SOL    HW2 3874   0.267   1.401   2.236
  358SOL     OW 3875   0.105   1.013   3.588
  358SOL    HW1 3876   0.028   0.980   3.642
  358SOL    HW2 3877   0.190   0.983   3.630
  359SOL     OW 3878   1.440   0.856   3.260
  359SOL    HW1 3879   1.383   0.908   3.197
  359SOL    HW2 3880   1.536   0.868   3.236
  360SOL     OW 3881   0.072   0.166   2.180
  360SOL    HW1 3882   0.055   0.249   2.126
  360SOL    HW2 3883   0.162   0.129   2.158
  361SOL     OW 3884   1.183   1.335   1.981
  361SOL    HW1 3885   1.084   1.324   1.983
  361SOL    HW2 3886   1.217   1.350   2.074
  362SOL     OW 3887   0.613   0.842   3.293
  362SOL    HW1 3888   0.669   0.923   3.276
  362SOL    HW2 3889   0.672   0.762   3.296
  363SOL     OW 3890   1.493   1.767   2.821
  363SOL    HW1 3891   1.526   1.831   2.752
  363SOL    HW2 3892   1.559   1.761   2.896
  364SOL     OW 3893   0.716   0.565   3.570
  364SOL    HW1 3894   0.735   0.630   3.644
  364SOL    HW2 3895   0.776   0.485   3.579
  365SOL     OW 3896   1.450   1.220   3.495
  365SOL    HW1 3897   1.441   1.210   3.594
  365SOL    HW2 3898   1.546   1.213   3.469
  366SOL     OW 3899   0.390   1.741   3.422
  366SOL    HW1 3900   0.299   1.782   3.420
  366SOL    HW2 3901   0.383   1.647   3.454
  367SOL     OW 3902   1.225   0.325   2.311
  367SOL    HW1 3903   1.290   0.251   2.300
  367SOL    HW2 3904   1.245   0.375   2.395
  368SOL     OW 3905   0.594   0.745   2.514
  368SOL    HW1 3906   0.644   0.830   2.495
  368SOL    HW2 3907   0.506   0.747   2.466
  369SOL     OW 3908   1.730   0.934   3.379
  369SOL    HW1 3909   1.768   1.025   3.394
  369SOL    HW2 3910   1.722   0.917   3.280
  370SOL     OW 3911   0.859   1.374   1.878
  370SOL    HW1 3912   0.813   1.389   1.966
  370SOL    HW2 3913   0.903   1.459   1.848
  371SOL     OW 3914   0.661   1.790   2.815
  371SOL    HW1 3915   0.615   1.878   2.802
  371SOL    HW2 3916   0.760   1.802   2.808
  372SOL     OW 3917   0.859   0.956   2.723
  372SOL    HW1 3918   0.913   0.887   2.771
  372SOL    HW2 3919   0.827   1.025   2.789
  373SOL     OW 3920   1.083   0.984   1.949
  373SOL    HW1 3921   1.060   1.037   1.867
  373SOL    HW2 3922   1.164   0.928   1.930
  374SOL     OW 3923   0.221   1.314   3.706
  374SOL    HW1 3924   0.156   1.241   3.685
  374SOL    HW2 3925   0.225   1.328   3.804
  375SOL     OW 3926   0.079   1.240   2.515
  375SOL    HW1 3927   0.078   1.193   2.603
  375SOL    HW2 3928   0.161   1.212   2.464
  376SOL     OW 3929   0.672   1.391   3.486
  376SOL    HW1 3930   0.594   1.341   3.524
  376SOL    HW2 3931   0.669   1.486   3.517
  377SOL     OW 3932   1.824   0.192   3.089
  377SOL    HW1 3933   1.820   0.102   3.133
  377SOL    HW2 3934   1.827   0.181   2.990
  378SOL     OW 3935   0.428   0.424   2.382
  378SOL    HW1 3936   0.458   0.352   2.320
  378SOL    HW2 3937   0.389   0.384   2.465
  379SOL     OW 3938   1.705   1.487   2.966
  379SOL    HW1 3939   1.612   1.462   2.939
  379SOL    HW2 3940   1.731   1.437   3.048
  380SOL     OW 3941   0.812   1.586   2.549
  380SOL    HW1 3942   0.844   1.596   2.455
  380SOL    HW2 3943   0.733   1.524   2.551
  381SOL     OW 3944   1.424   0.214   2.974
  381SOL    HW1 3945   1.476   0.149   3.029
  381SOL    HW2 3946   1.375   0.277   3.035
  382SOL     OW 3947   1.001   0.034   3.016
  382SOL    HW1 3948   0.938  -0.038   2.985
  382SOL    HW2 3949   1.094  -0.002   3.016
  383SOL     OW 3950   0.770   1.330   2.163
  383SOL    HW1 3951   0.724   1.243   2.180
  383SOL    HW2 3952   0.861   1.327   2.204
  384SOL     OW 3953   1.352   0.052   2.030
  384SOL    HW1 3954   1.387   0.011   1.946
  384SOL    HW2 3955   1.262   0.014   2.050
  385SOL     OW 3956   1.300   0.453   2.553
  385SOL    HW1 3957   1.241   0.533   2.557
  385SOL    HW2 3958   1.315   0.418   2.646
  386SOL     OW 3959   1.593   0.221   2.744
  386SOL    HW1 3960   1.509   0.220   2.798
  386SOL    HW2 3961   1.595   0.304   2.688
  387SOL     OW 3962   0.039   1.077   2.162
  387SOL    HW1 3963   0.138   1.066   2.153
  387SOL    HW2 3964  -0.001   0.991   2.194
  388SOL     OW 3965   0.875   1.646   2.199
  388SOL    HW1 3966   0.798   1.611   2.145
  388SOL    HW2 3967   0.843   1.717   2.261
  389SOL     OW 3968   0.230   0.628   3.837
  389SOL    HW1 3969   0.137   0.626   3.874
  389SOL    HW2 3970   0.231   0.589   3.745
  390SOL     OW 3971   0.225   0.275   4.720
  390SOL    HW1 3972   0.260   0.258   4.812
  390SOL    HW2 3973   0.137   0.230   4.708
  391SOL     OW 3974   0.019   0.368   4.371
  391SOL    HW1 3975  -0.063   0.411   4.410
  391SOL    HW2 3976  -0.009   0.295   4.308
  392SOL     OW 3977   1.135   0.703   4.441
  392SOL    HW1 3978   1.192   0.781   4.416
  392SOL    HW2 3979   1.075   0.729   4.517
  393SOL     OW 3980   1.755   0.607   3.955
  393SOL    HW1 3981   1.743   0.594   3.856
  393SOL    HW2 3982   1.725   0.526   4.004
  394SOL     OW 3983   0.685   1.012   4.389
  394SOL    HW1 3984   0.754   0.996   4.459
  394SOL    HW2 3985   0.612   1.069   4.427
  395SOL     OW 3986   0.240   1.091   4.610
  395SOL    HW1 3987   0.254   1.007   4.662
  395SOL    HW2 3988   0.185   1.155   4.665
  396SOL     OW 3989   0.606   0.964   3.847
  396SOL    HW1 3990   0.613   1.048   3.793
  396SOL    HW2 3991   0.652   0.977   3.935
  397SOL     OW 3992   0.122   0.643   4.287
  397SOL    HW1 3993   0.077   0.555   4.304
  397SOL    HW2 3994   0.121   0.697   4.371
  398SOL     OW 3995   1.842   1.767   4.083
  398SOL    HW1 3996   1.896   1.738   4.163
  398SOL    HW2 3997   1.872   1.857   4.054
  399SOL     OW 3998   1.689   0.922   4.336
  399SOL    HW1 3999   1.784   0.893   4.344
  399SOL    HW2 4000   1.681   0.987   4.261
  400SOL     OW 4001   1.641   1.108   4.156
  400SOL    HW1 4002   1.727   1.110   4.104
  400SOL    HW2 4003   1.655   1.155   4.244
  401SOL     OW 4004   0.809   0.004   4.226
  401SOL    HW1 4005   0.849   0.095   4.217
  401SOL    HW2 4006   0.709   0.012   4.232
  402SOL     OW 4007   0.197   0.976   4.988
  402SOL    HW1 4008   0.286   0.931   4.974
  402SOL    HW2 4009   0.124   0.911   4.969
  403SOL     OW 4010   1.525   0.999   3.914
  403SOL    HW1 4011   1.462   0.923   3.927
  403SOL    HW2 4012   1.573   1.017   4.000
  404SOL     OW 4013   0.598   0.729   3.994
  404SOL    HW1 4014   0.622   0.798   3.926
  404SOL    HW2 4015   0.520   0.762   4.048
  405SOL     OW 4016   1.281   0.345   4.668
  405SOL    HW1 4017   1.195   0.295   4.655
  405SOL    HW2 4018   1.343   0.291   4.724
  406SOL     OW 4019   1.576   1.662   4.031
  406SOL    HW1 4020   1.665   1.708   4.034
  406SOL    HW2 4021   1.555   1.638   3.936
  407SOL     OW 4022   1.041   0.701   4.153
  407SOL    HW1 4023   1.067   0.697   4.249
  407SOL    HW2 4024   0.956   0.650   4.139
  408SOL     OW 4025   0.076   0.811   4.513
  408SOL    HW1 4026   0.175   0.799   4.522
  408SOL    HW2 4027   0.052   0.906   4.534
  409SOL     OW 4028   0.130   1.821   5.295
  409SOL    HW1 4029   0.120   1.806   5.394
  409SOL    HW2 4030   0.044   1.857   5.259
  410SOL     OW 4031   0.865   0.348   3.919
  410SOL    HW1 4032   0.924   0.411   3.870
  410SOL    HW2 4033   0.884   0.254   3.890
  411SOL     OW 4034   0.351   1.801   4.577
  411SOL    HW1 4035   0.401   1.715   4.583
  411SOL    HW2 4036   0.416   1.878   4.574
  412SOL     OW 4037   1.795   1.066   4.597
  412SOL    HW1 4038   1.733   1.051   4.521
  412SOL    HW2 4039   1.743   1.077   4.682
  413SOL     OW 4040   0.321   0.943   3.966
  413SOL    HW1 4041   0.403   0.982   3.924
  413SOL    HW2 4042   0.294   0.861   3.917
  414SOL     OW 4043   1.458   0.735   4.452
  414SOL    HW1 4044   1.453   0.670   4.527
  414SOL    HW2 4045   1.538   0.794   4.465
  415SOL     OW 4046   1.632   1.377   3.805
  415SOL    HW1 4047   1.600   1.471   3.795
  415SOL    HW2 4048   1.556   1.314   3.793
  416SOL     OW 4049   0.464   1.743   4.047
  416SOL    HW1 4050   0.497   1.782   4.133
  416SOL    HW2 4051   0.540   1.736   3.982
  417SOL     OW 4052   1.400   0.107   4.150
  417SOL    HW1 4053   1.376   0.070   4.060
  417SOL    HW2 4054   1.499   0.123   4.154
  418SOL     OW 4055   0.249   1.785   4.965
  418SOL    HW1 4056   0.306   1.720   5.015
  418SOL    HW2 4057   0.233   1.752   4.872
  419SOL     OW 4058   0.382   0.700   4.204
  419SOL    HW1 4059   0.427   0.610   4.201
  419SOL    HW2 4060   0.288   0.689   4.237
  420SOL     OW 4061   0.614   0.122   3.841
  420SOL    HW1 4062   0.712   0.100   3.848
  420SOL    HW2 4063   0.583   0.105   3.748
  421SOL     OW 4064   0.922   0.503   4.623
  421SOL    HW1 4065   0.897   0.494   4.527
  421SOL    HW2 4066   0.970   0.421   4.654
  422SOL     OW 4067   0.539   0.064   4.236
  422SOL    HW1 4068   0.458   0.065   4.294
  422SOL    HW2 4069   0.542   0.147   4.181
  423SOL     OW 4070   1.434   1.188   3.765
  423SOL    HW1 4071   1.466   1.112   3.822
  423SOL    HW2 4072   1.342   1.215   3.795
  424SOL     OW 4073   0.297   0.035   3.895
  424SOL    HW1 4074   0.346   0.119   3.874
  424SOL    HW2 4075   0.359  -0.030   3.940
  425SOL     OW 4076   0.935   0.236   4.204
  425SOL    HW1 4077   0.887   0.277   4.126
  425SOL    HW2 4078   1.034   0.234   4.185
  426SOL     OW 4079   0.459   1.152   4.465
  426SOL    HW1 4080   0.388   1.125   4.530
  426SOL    HW2 4081   0.433   1.124   4.372
  427SOL     OW 4082   1.271   1.797   4.315
  427SOL    HW1 4083   1.315   1.861   4.251
  427SOL    HW2 4084   1.221   1.849   4.385
  428SOL     OW 4085   1.032   0.549   3.740
  428SOL    HW1 4086   0.991   0.631   3.701
  428SOL    HW2 4087   1.096   0.575   3.813
  429SOL     OW 4088   0.866   0.454   4.366
  429SOL    HW1 4089   0.834   0.526   4.304
  429SOL    HW2 4090   0.890   0.373   4.313
  430SOL     OW 4091   1.017   0.039   4.477
  430SOL    HW1 4092   0.945   0.044   4.408
  430SOL    HW2 4093   0.993  -0.030   4.546
  431SOL     OW 4094   1.857   0.833   4.101
  431SOL    HW1 4095   1.899   0.769   4.165
  431SOL    HW2 4096   1.819   0.782   4.023
  432SOL     OW 4097   0.488   1.385   3.898
  432SOL    HW1 4098   0.401   1.370   3.945
  432SOL    HW2 4099   0.471   1.411   3.803
  433SOL     OW 4100   1.664   1.280   4.381
  433SOL    HW1 4101   1.763   1.288   4.395
  433SOL    HW2 4102   1.619   1.364   4.412
  434SOL     OW 4103   1.390   0.575   3.802
  434SOL    HW1 4104   1.336   0.554   3.883
  434SOL    HW2 4105   1.481   0.534   3.811
  435SOL     OW 4106   0.527   0.256   4.052
  435SOL    HW1 4107   0.554   0.197   3.977
  435SOL    HW2 4108   0.527   0.351   4.021
  436SOL     OW 4109   1.111   1.195   4.824
  436SOL    HW1 4110   1.071   1.239   4.905
  436SOL    HW2 4111   1.070   1.232   4.741
  437SOL     OW 4112   1.638   1.099   4.803
  437SOL    HW1 4113   1.643   1.180   4.862
  437SOL    HW2 4114   1.552   1.101   4.752
  438SOL     OW 4115   0.705   1.050   4.092
  438SOL    HW1 4116   0.691   1.057   4.191
  438SOL    HW2 4117   0.789   0.999   4.074
  439SOL     OW 4118   0.410   0.813   4.975
  439SOL    HW1 4119   0.496   0.825   5.025
  439SOL    HW2 4120   0.368   0.726   5.002
  440SOL     OW 4121   1.274   0.386   4.986
  440SOL    HW1 4122   1.295   0.460   5.050
  440SOL    HW2 4123   1.185   0.403   4.943
  441SOL     OW 4124   0.367   1.100   4.225
  441SOL    HW1 4125   0.360   1.183   4.169
  441SOL    HW2 4126   0.371   1.020   4.165
  442SOL     OW 4127   0.566   0.537   4.589
  442SOL    HW1 4128   0.578   0.603   4.515
  442SOL    HW2 4129   0.612   0.571   4.672
  443SOL     OW 4130   1.582   0.639   4.196
  443SOL    HW1 4131   1.551   0.700   4.269
  443SOL    HW2 4132   1.632   0.691   4.127
  444SOL     OW 4133   0.354   1.510   5.053
  444SOL    HW1 4134   0.333   1.466   4.966
  444SOL    HW2 4135   0.451   1.536   5.056
  445SOL     OW 4136   1.209   0.525   3.999
  445SOL    HW1 4137   1.222   0.441   4.053
  445SOL    HW2 4138   1.180   0.599   4.059
  446SOL     OW 4139   0.307   0.213   4.955
  446SOL    HW1 4140   0.284   0.250   5.045
  446SOL    HW2 4141   0.277   0.118   4.949
  447SOL     OW 4142   0.732   0.634   4.788
  447SOL    HW1 4143   0.791   0.608   4.712
  447SOL    HW2 4144   0.704   0.730   4.777
  448SOL     OW 4145   0.307   0.063   4.342
  448SOL    HW1 4146   0.296   0.157   4.375
  448SOL    HW2 4147   0.302   0.000   4.419
  449SOL     OW 4148   1.622   0.367   4.098
  449SOL    HW1 4149   1.624   0.291   4.162
  449SOL    HW2 4150   1.574   0.444   4.138
  450SOL     OW 4151   1.303   0.838   3.766
  450SOL    HW1 4152   1.337   0.745   3.781
  450SOL    HW2 4153   1.321   0.865   3.671
  451SOL     OW 4154   0.319   0.810   4.673
  451SOL    HW1 4155   0.412   0.846   4.678
  451SOL    HW2 4156   0.313   0.725   4.725
  452SOL     OW 4157   0.339   0.509   4.730
  452SOL    HW1 4158   0.287   0.426   4.713
  452SOL    HW2 4159   0.416   0.514   4.666
  453SOL     OW 4160   0.088   1.801   4.651
  453SOL    HW1 4161   0.046   1.715   4.624
  453SOL    HW2 4162   0.182   1.804   4.617
  454SOL     OW 4163   0.504   1.568   4.634
  454SOL    HW1 4164   0.570   1.642   4.643
  454SOL    HW2 4165   0.548   1.489   4.592
  455SOL     OW 4166   1.002   0.796   4.962
  455SOL    HW1 4167   1.043   0.764   5.048
  455SOL    HW2 4168   0.906   0.769   4.959
  456SOL     OW 4169   0.040   0.544   4.838
  456SOL    HW1 4170   0.125   0.511   4.797
  456SOL    HW2 4171   0.053   0.559   4.936
  457SOL     OW 4172   0.815   0.572   4.049
  457SOL    HW1 4173   0.822   0.483   4.003
  457SOL    HW2 4174   0.721   0.606   4.041
  458SOL     OW 4175   0.930   1.678   5.189
  458SOL    HW1 4176   0.906   1.660   5.094
  458SOL    HW2 4177   0.960   1.772   5.199
  459SOL     OW 4178   0.473   0.500   3.915
  459SOL    HW1 4179   0.534   0.580   3.919
  459SOL    HW2 4180   0.378   0.531   3.922
  460SOL     OW 4181   1.347   1.059   4.958
  460SOL    HW1 4182   1.371   0.996   4.884
  460SOL    HW2 4183   1.257   1.099   4.940
  461SOL     OW 4184   1.302   0.855   4.033
  461SOL    HW1 4185   1.216   0.824   4.075
  461SOL    HW2 4186   1.298   0.841   3.934
  462SOL     OW 4187   1.759   1.747   4.878
  462SOL    HW1 4188   1.820   1.777   4.805
  462SOL    HW2 4189   1.721   1.658   4.856
  463SOL     OW 4190   1.388   1.573   4.201
  463SOL    HW1 4191   1.455   1.585   4.127
  463SOL    HW2 4192   1.348   1.662   4.224
  464SOL     OW 4193   1.280   0.927   4.396
  464SOL    HW1 4194   1.340   0.846   4.398
  464SOL    HW2 4195   1.320   0.996   4.336
  465SOL     OW 4196   1.650   1.720   5.118
  465SOL    HW1 4197   1.703   1.730   5.034
  465SOL    HW2 4198   1.623   1.810   5.152
  466SOL     OW 4199   0.263   0.326   4.444
  466SOL    HW1 4200   0.184   0.377   4.410
  466SOL    HW2 4201   0.254   0.311   4.542
  467SOL     OW 4202   0.916   0.910   4.015
  467SOL    HW1 4203   0.979   0.948   3.947
  467SOL    HW2 4204   0.956   0.827   4.054
  468SOL     OW 4205   1.504   1.607   3.768
  468SOL    HW1 4206   1.412   1.644   3.775
  468SOL    HW2 4207   1.542   1.627   3.678
  469SOL     OW 4208   1.039   1.098   4.420
  469SOL    HW1 4209   0.969   1.051   4.474
  469SOL    HW2 4210   1.098   1.030   4.377
  470SOL     OW 4211   0.590   1.487   4.215
  470SOL    HW1 4212   0.632   1.429   4.145
  470SOL    HW2 4213   0.546   1.566   4.171
  471SOL     OW 4214   0.255   1.348   4.014
  471SOL    HW1 4215   0.159   1.349   3.987
  471SOL    HW2 4216   0.267   1.401   4.098
  472SOL     OW 4217   0.072   0.166   4.042
  472SOL    HW1 4218   0.055   0.249   3.988
  472SOL    HW2 4219   0.162   0.129   4.020
  473SOL     OW 4220   1.183   1.335   3.843
  473SOL    HW1 4221   1.084   1.324   3.845
  473SOL    HW2 4222   1.217   1.350   3.936
  474SOL     OW 4223   1.450   1.220   5.357
  474SOL    HW1 4224   1.441   1.210   5.456
  474SOL    HW2 4225   1.546   1.213   5.331
  475SOL     OW 4226   1.674   0.883   4.978
  475SOL    HW1 4227   1.647   0.794   4.941
  475SOL    HW2 4228   1.675   0.951   4.905
  476SOL     OW 4229   1.225   0.325   4.173
  476SOL    HW1 4230   1.290   0.251   4.162
  476SOL    HW2 4231   1.245   0.375   4.257
  477SOL     OW 4232   0.594   0.745   4.376
  477SOL    HW1 4233   0.644   0.830   4.357
  477SOL    HW2 4234   0.506   0.747   4.328
  478SOL     OW 4235   1.730   0.934   5.241
  478SOL    HW1 4236   1.768   1.025   5.256
  478SOL    HW2 4237   1.722   0.917   5.142
  479SOL     OW 4238   0.859   1.374   3.740
  479SOL    HW1 4239   0.813   1.389   3.828
  479SOL    HW2 4240   0.903   1.459   3.710
  480SOL     OW 4241   0.859   0.956   4.585
  480SOL    HW1 4242   0.913   0.887   4.633
  480SOL    HW2 4243   0.827   1.025   4.651
  481SOL     OW 4244   1.083   0.984   3.811
  481SOL    HW1 4245   1.060   1.037   3.729
  481SOL    HW2 4246   1.164   0.928   3.792
  482SOL     OW 4247   1.861   1.569   4.575
  482SOL    HW1 4248   1.790   1.557   4.505
  482SOL    HW2 4249   1.862   1.490   4.635
  483SOL     OW 4250   0.079   1.240   4.377
  483SOL    HW1 4251   0.078   1.193   4.465
  483SOL    HW2 4252   0.161   1.212   4.326
  484SOL     OW 4253   0.428   0.424   4.244
  484SOL    HW1 4254   0.458   0.352   4.182
  484SOL    HW2 4255   0.389   0.384   4.327
  485SOL     OW 4256   1.705   1.487   4.828
  485SOL    HW1 4257   1.612   1.462   4.801
  485SOL    HW2 4258   1.731   1.437   4.910
  486SOL     OW 4259   1.424   0.214   4.836
  486SOL    HW1 4260   1.476   0.149   4.891
  486SOL    HW2 4261   1.375   0.277   4.897
  487SOL     OW 4262   0.770   1.330   4.025
  487SOL    HW1 4263   0.724   1.243   4.042
  487SOL    HW2 4264   0.861   1.327   4.066
  488SOL     OW 4265   1.352   0.052   3.892
  488SOL    HW1 4266   1.387   0.011   3.808
  488SOL    HW2 4267   1.262   0.014   3.912
  489SOL     OW 4268   1.300   0.453   4.415
  489SOL    HW1 4269   1.241   0.533   4.419
  489SOL    HW2 4270   1.315   0.418   4.508
  490SOL     OW 4271   1.593   0.221   4.606
  490SOL    HW1 4272   1.509   0.220   4.660
  490SOL    HW2 4273   1.595   0.304   4.550
  491SOL     OW 4274   0.039   1.077   4.024
  491SOL    HW1 4275   0.138   1.066   4.015
  491SOL    HW2 4276  -0.001   0.991   4.056
  492SOL     OW 4277   0.875   1.646   4.061
  492SOL    HW1 4278   0.798   1.611   4.007
  492SOL    HW2 4279   0.843   1.717   4.123
  493SOL     OW 4280   0.230   2.490   0.113
  493SOL    HW1 4281   0.137   2.488   0.150
  493SOL    HW2 4282   0.231   2.451   0.021
  494SOL     OW 4283   0.019   2.230   0.647
  494SOL    HW1 4284  -0.063   2.273   0.686
  494SOL    HW2 4285  -0.009   2.157   0.584
  495SOL     OW 4286   0.569   3.137   1.165
  495SOL    HW1 4287   0.476   3.130   1.128
  495SOL    HW2 4288   0.580   3.226   1.209
  496SOL     OW 4289   1.555   3.373   0.703
  496SOL    HW1 4290   1.498   3.357   0.784
  496SOL    HW2 4291   1.496   3.383   0.623
  497SOL     OW 4292   1.135   2.565   0.717
  497SOL    HW1 4293   1.192   2.643   0.692
  497SOL    HW2 4294   1.075   2.591   0.793
  498SOL     OW 4295   1.755   2.469   0.231
  498SOL    HW1 4296   1.743   2.456   0.132
  498SOL    HW2 4297   1.725   2.388   0.280
  499SOL     OW 4298   0.850   2.660   1.823
  499SOL    HW1 4299   0.846   2.736   1.888
  499SOL    HW2 4300   0.872   2.696   1.732
  500SOL     OW 4301   0.686   3.023   1.803
  500SOL    HW1 4302   0.746   3.102   1.817
  500SOL    HW2 4303   0.600   3.054   1.762
  501SOL     OW 4304   0.335   3.297   1.061
  501SOL    HW1 4305   0.257   3.266   1.008
  501SOL    HW2 4306   0.393   3.355   1.004
  502SOL     OW 4307   1.460   3.367   1.339
  502SOL    HW1 4308   1.484   3.461   1.365
  502SOL    HW2 4309   1.444   3.313   1.421
  503SOL     OW 4310   0.438   2.254   1.499
  503SOL    HW1 4311   0.520   2.198   1.508
  503SOL    HW2 4312   0.357   2.196   1.503
  504SOL     OW 4313   1.603   2.309   0.737
  504SOL    HW1 4314   1.529   2.355   0.687
  504SOL    HW2 4315   1.654   2.377   0.790
  505SOL     OW 4316   0.620   3.648   1.439
  505SOL    HW1 4317   0.528   3.631   1.474
  505SOL    HW2 4318   0.648   3.740   1.465
  506SOL     OW 4319   0.606   2.826   0.123
  506SOL    HW1 4320   0.613   2.910   0.069
  506SOL    HW2 4321   0.652   2.839   0.211
  507SOL     OW 4322   0.122   2.505   0.563
  507SOL    HW1 4323   0.077   2.417   0.580
  507SOL    HW2 4324   0.121   2.559   0.647
  508SOL     OW 4325   1.842   3.629   0.359
  508SOL    HW1 4326   1.896   3.600   0.439
  508SOL    HW2 4327   1.872   3.719   0.330
  509SOL     OW 4328   1.689   2.784   0.612
  509SOL    HW1 4329   1.784   2.755   0.620
  509SOL    HW2 4330   1.681   2.849   0.537
  510SOL     OW 4331   1.641   2.970   0.432
  510SOL    HW1 4332   1.727   2.972   0.380
  510SOL    HW2 4333   1.655   3.017   0.520
  511SOL     OW 4334   0.613   3.227   0.726
  511SOL    HW1 4335   0.564   3.140   0.735
  511SOL    HW2 4336   0.590   3.270   0.639
  512SOL     OW 4337   1.293   3.090   1.423
  512SOL    HW1 4338   1.330   3.017   1.365
  512SOL    HW2 4339   1.345   3.095   1.508
  513SOL     OW 4340   0.197   2.838   1.264
  513SOL    HW1 4341   0.286   2.793   1.250
  513SOL    HW2 4342   0.124   2.773   1.245
  514SOL     OW 4343   1.525   2.861   0.190
  514SOL    HW1 4344   1.462   2.785   0.203
  514SOL    HW2 4345   1.573   2.879   0.276
  515SOL     OW 4346   0.317   2.113   1.801
  515SOL    HW1 4347   0.388   2.184   1.807
  515SOL    HW2 4348   0.229   2.152   1.829
  516SOL     OW 4349   1.667   3.576   0.572
  516SOL    HW1 4350   1.626   3.553   0.484
  516SOL    HW2 4351   1.649   3.502   0.637
  517SOL     OW 4352   0.598   2.591   0.270
  517SOL    HW1 4353   0.622   2.660   0.202
  517SOL    HW2 4354   0.520   2.624   0.324
  518SOL     OW 4355   1.281   2.207   0.944
  518SOL    HW1 4356   1.195   2.157   0.931
  518SOL    HW2 4357   1.343   2.153   1.000
  519SOL     OW 4358   1.576   3.524   0.307
  519SOL    HW1 4359   1.665   3.570   0.310
  519SOL    HW2 4360   1.555   3.500   0.212
  520SOL     OW 4361   0.807   2.467   1.465
  520SOL    HW1 4362   0.760   2.464   1.554
  520SOL    HW2 4363   0.756   2.412   1.399
  521SOL     OW 4364   1.394   2.331   1.674
  521SOL    HW1 4365   1.374   2.374   1.762
  521SOL    HW2 4366   1.472   2.269   1.683
  522SOL     OW 4367   0.973   2.752   1.572
  522SOL    HW1 4368   1.019   2.668   1.543
  522SOL    HW2 4369   0.917   2.786   1.497
  523SOL     OW 4370   0.991   2.272   1.242
  523SOL    HW1 4371   0.914   2.306   1.296
  523SOL    HW2 4372   0.957   2.221   1.163
  524SOL     OW 4373   1.041   2.563   0.429
  524SOL    HW1 4374   1.067   2.559   0.525
  524SOL    HW2 4375   0.956   2.512   0.415
  525SOL     OW 4376   1.719   2.447   1.831
  525SOL    HW1 4377   1.693   2.536   1.795
  525SOL    HW2 4378   1.717   2.379   1.758
  526SOL     OW 4379   1.362   3.006   0.545
  526SOL    HW1 4380   1.445   2.977   0.497
  526SOL    HW2 4381   1.313   3.073   0.489
  527SOL     OW 4382   0.550   2.058   0.885
  527SOL    HW1 4383   0.545   2.053   0.985
  527SOL    HW2 4384   0.552   2.154   0.856
  528SOL     OW 4385   1.008   3.318   0.477
  528SOL    HW1 4386   0.962   3.390   0.425
  528SOL    HW2 4387   1.004   3.338   0.575
  529SOL     OW 4388   0.351   3.663   0.853
  529SOL    HW1 4389   0.401   3.577   0.859
  529SOL    HW2 4390   0.416   3.740   0.850
  530SOL     OW 4391   1.795   2.928   0.873
  530SOL    HW1 4392   1.733   2.913   0.797
  530SOL    HW2 4393   1.743   2.939   0.958
  531SOL     OW 4394   1.227   3.412   1.506
  531SOL    HW1 4395   1.233   3.335   1.570
  531SOL    HW2 4396   1.175   3.386   1.426
  532SOL     OW 4397   0.321   2.805   0.242
  532SOL    HW1 4398   0.403   2.844   0.200
  532SOL    HW2 4399   0.294   2.723   0.193
  533SOL     OW 4400   1.458   2.597   0.728
  533SOL    HW1 4401   1.453   2.532   0.803
  533SOL    HW2 4402   1.538   2.656   0.741
  534SOL     OW 4403   0.461   3.128   1.727
  534SOL    HW1 4404   0.411   3.129   1.641
  534SOL    HW2 4405   0.398   3.110   1.803
  535SOL     OW 4406   1.111   3.638   0.237
  535SOL    HW1 4407   1.051   3.576   0.287
  535SOL    HW2 4408   1.142   3.594   0.152
  536SOL     OW 4409   0.202   2.147   1.498
  536SOL    HW1 4410   0.122   2.207   1.485
  536SOL    HW2 4411   0.192   2.098   1.584
  537SOL     OW 4412   1.632   3.239   0.081
  537SOL    HW1 4413   1.600   3.333   0.071
  537SOL    HW2 4414   1.556   3.176   0.069
  538SOL     OW 4415   0.464   3.605   0.323
  538SOL    HW1 4416   0.497   3.644   0.409
  538SOL    HW2 4417   0.540   3.598   0.258
  539SOL     OW 4418   1.400   1.969   0.426
  539SOL    HW1 4419   1.376   1.932   0.336
  539SOL    HW2 4420   1.499   1.985   0.430
  540SOL     OW 4421   0.249   3.647   1.241
  540SOL    HW1 4422   0.306   3.582   1.291
  540SOL    HW2 4423   0.233   3.614   1.148
  541SOL     OW 4424   0.940   3.560   0.904
  541SOL    HW1 4425   1.020   3.503   0.925
  541SOL    HW2 4426   0.891   3.520   0.827
  542SOL     OW 4427   0.781   2.126   1.749
  542SOL    HW1 4428   0.848   2.065   1.792
  542SOL    HW2 4429   0.708   2.145   1.814
  543SOL     OW 4430   0.888   3.376   1.195
  543SOL    HW1 4431   0.865   3.351   1.101
  543SOL    HW2 4432   0.949   3.307   1.234
  544SOL     OW 4433   1.351   2.452   1.433
  544SOL    HW1 4434   1.379   2.409   1.518
  544SOL    HW2 4435   1.376   2.548   1.434
  545SOL     OW 4436   0.803   3.264   0.924
  545SOL    HW1 4437   0.893   3.278   0.882
  545SOL    HW2 4438   0.732   3.266   0.853
  546SOL     OW 4439   0.922   2.365   0.899
  546SOL    HW1 4440   0.897   2.356   0.803
  546SOL    HW2 4441   0.970   2.283   0.930
  547SOL     OW 4442   1.434   3.050   0.041
  547SOL    HW1 4443   1.466   2.974   0.098
  547SOL    HW2 4444   1.342   3.077   0.071
  548SOL     OW 4445   0.935   2.098   0.480
  548SOL    HW1 4446   0.887   2.139   0.402
  548SOL    HW2 4447   1.034   2.096   0.461
  549SOL     OW 4448   1.076   2.545   1.464
  549SOL    HW1 4449   0.996   2.484   1.467
  549SOL    HW2 4450   1.157   2.492   1.440
  550SOL     OW 4451   1.227   3.432   0.793
  550SOL    HW1 4452   1.248   3.506   0.728
  550SOL    HW2 4453   1.295   3.432   0.866
  551SOL     OW 4454   0.459   3.014   0.741
  551SOL    HW1 4455   0.388   2.987   0.806
  551SOL    HW2 4456   0.433   2.986   0.648
  552SOL     OW 4457   1.271   3.659   0.591
  552SOL    HW1 4458   1.315   3.723   0.527
  552SOL    HW2 4459   1.221   3.711   0.661
  553SOL     OW 4460   1.032   2.411   0.016
  553SOL    HW1 4461   0.991   2.493  -0.023
  553SOL    HW2 4462   1.096   2.437   0.089
  554SOL     OW 4463   0.078   2.418   1.386
  554SOL    HW1 4464   0.170   2.417   1.345
  554SOL    HW2 4465   0.072   2.492   1.453
  555SOL     OW 4466   0.561   2.084   1.147
  555SOL    HW1 4467   0.599   2.000   1.184
  555SOL    HW2 4468   0.473   2.103   1.191
  556SOL     OW 4469   1.466   2.452   0.992
  556SOL    HW1 4470   1.436   2.357   0.999
  556SOL    HW2 4471   1.539   2.468   1.058
  557SOL     OW 4472   0.488   3.247   0.174
  557SOL    HW1 4473   0.401   3.232   0.221
  557SOL    HW2 4474   0.471   3.273   0.079
  558SOL     OW 4475   1.664   3.142   0.657
  558SOL    HW1 4476   1.763   3.150   0.671
  558SOL    HW2 4477   1.619   3.226   0.688
  559SOL     OW 4478   1.390   2.437   0.078
  559SOL    HW1 4479   1.336   2.416   0.159
  559SOL    HW2 4480   1.481   2.396   0.087
  560SOL     OW 4481   1.754   3.085   1.588
  560SOL    HW1 4482   1.845   3.046   1.575
  560SOL    HW2 4483   1.762   3.181   1.612
  561SOL     OW 4484   1.064   3.209   1.340
  561SOL    HW1 4485   0.984   3.186   1.395
  561SOL    HW2 4486   1.147   3.183   1.389
  562SOL     OW 4487   1.592   3.491   1.625
  562SOL    HW1 4488   1.619   3.525   1.535
  562SOL    HW2 4489   1.671   3.453   1.671
  563SOL     OW 4490   1.111   3.057   1.100
  563SOL    HW1 4491   1.071   3.101   1.181
  563SOL    HW2 4492   1.070   3.094   1.017
  564SOL     OW 4493   1.638   2.961   1.079
  564SOL    HW1 4494   1.643   3.042   1.138
  564SOL    HW2 4495   1.552   2.963   1.028
  565SOL     OW 4496   0.915   1.951   1.402
  565SOL    HW1 4497   0.940   1.931   1.307
  565SOL    HW2 4498   0.987   2.007   1.444
  566SOL     OW 4499   0.980   2.978   1.719
  566SOL    HW1 4500   0.881   2.984   1.729
  566SOL    HW2 4501   1.003   2.898   1.663
  567SOL     OW 4502   0.705   2.912   0.368
  567SOL    HW1 4503   0.691   2.919   0.467
  567SOL    HW2 4504   0.789   2.861   0.350
  568SOL     OW 4505   0.410   2.675   1.251
  568SOL    HW1 4506   0.496   2.687   1.301
  568SOL    HW2 4507   0.368   2.588   1.278
  569SOL     OW 4508   1.274   2.248   1.262
  569SOL    HW1 4509   1.295   2.322   1.326
  569SOL    HW2 4510   1.185   2.265   1.219
  570SOL     OW 4511   0.064   3.426   1.331
  570SOL    HW1 4512   0.018   3.508   1.297
  570SOL    HW2 4513   0.162   3.445   1.340
  571SOL     OW 4514   0.367   2.962   0.501
  571SOL    HW1 4515   0.360   3.045   0.445
  571SOL    HW2 4516   0.371   2.882   0.441
  572SOL     OW 4517   0.566   2.399   0.865
  572SOL    HW1 4518   0.578   2.465   0.791
  572SOL    HW2 4519   0.612   2.433   0.948
  573SOL     OW 4520   1.252   3.210   0.388
  573SOL    HW1 4521   1.302   3.287   0.428
  573SOL    HW2 4522   1.157   3.212   0.420
  574SOL     OW 4523   1.272   3.307   1.142
  574SOL    HW1 4524   1.319   3.320   1.229
  574SOL    HW2 4525   1.206   3.233   1.151
  575SOL     OW 4526   1.582   2.501   0.472
  575SOL    HW1 4527   1.551   2.562   0.545
  575SOL    HW2 4528   1.632   2.553   0.403
  576SOL     OW 4529   0.354   3.372   1.329
  576SOL    HW1 4530   0.333   3.328   1.242
  576SOL    HW2 4531   0.451   3.398   1.332
  577SOL     OW 4532   0.402   2.613   1.598
  577SOL    HW1 4533   0.470   2.668   1.551
  577SOL    HW2 4534   0.442   2.525   1.625
  578SOL     OW 4535   1.587   2.641   1.670
  578SOL    HW1 4536   1.495   2.679   1.665
  578SOL    HW2 4537   1.647   2.688   1.605
  579SOL     OW 4538   1.013   1.967   1.770
  579SOL    HW1 4539   1.019   2.052   1.718
  579SOL    HW2 4540   1.045   1.891   1.713
  580SOL     OW 4541   0.504   1.912   1.740
  580SOL    HW1 4542   0.462   1.855   1.670
  580SOL    HW2 4543   0.438   1.981   1.772
  581SOL     OW 4544   0.573   2.732   1.029
  581SOL    HW1 4545   0.617   2.821   1.020
  581SOL    HW2 4546   0.510   2.732   1.106
  582SOL     OW 4547   1.209   2.387   0.275
  582SOL    HW1 4548   1.222   2.303   0.329
  582SOL    HW2 4549   1.180   2.461   0.335
  583SOL     OW 4550   0.307   2.075   1.231
  583SOL    HW1 4551   0.284   2.112   1.321
  583SOL    HW2 4552   0.277   1.980   1.225
  584SOL     OW 4553   0.732   2.496   1.064
  584SOL    HW1 4554   0.791   2.470   0.988
  584SOL    HW2 4555   0.704   2.592   1.053
  585SOL     OW 4556   1.728   2.797   1.854
  585SOL    HW1 4557   1.682   2.790   1.765
  585SOL    HW2 4558   1.666   2.841   1.920
  586SOL     OW 4559   1.622   2.229   0.374
  586SOL    HW1 4560   1.624   2.153   0.438
  586SOL    HW2 4561   1.574   2.306   0.414
  587SOL     OW 4562   1.859   3.380   1.605
  587SOL    HW1 4563   1.873   3.407   1.510
  587SOL    HW2 4564   1.942   3.402   1.658
  588SOL     OW 4565   0.350   2.760   1.804
  588SOL    HW1 4566   0.426   2.804   1.852
  588SOL    HW2 4567   0.385   2.713   1.722
  589SOL     OW 4568   1.540   2.136   0.125
  589SOL    HW1 4569   1.479   2.061   0.148
  589SOL    HW2 4570   1.562   2.188   0.208
  590SOL     OW 4571   1.303   2.700   0.042
  590SOL    HW1 4572   1.337   2.607   0.057
  590SOL    HW2 4573   1.321   2.727  -0.053
  591SOL     OW 4574   1.068   3.195   0.849
  591SOL    HW1 4575   1.075   3.111   0.794
  591SOL    HW2 4576   1.130   3.264   0.813
  592SOL     OW 4577   0.319   2.672   0.949
  592SOL    HW1 4578   0.412   2.708   0.954
  592SOL    HW2 4579   0.313   2.587   1.001
  593SOL     OW 4580   0.339   2.371   1.006
  593SOL    HW1 4581   0.287   2.288   0.989
  593SOL    HW2 4582   0.416   2.376   0.942
  594SOL     OW 4583   1.138   2.242   1.678
  594SOL    HW1 4584   1.093   2.305   1.742
  594SOL    HW2 4585   1.231   2.273   1.661
  595SOL     OW 4586   1.160   2.069   1.477
  595SOL    HW1 4587   1.160   2.133   1.554
  595SOL    HW2 4588   1.188   2.117   1.394
  596SOL     OW 4589   0.504   3.430   0.910
  596SOL    HW1 4590   0.570   3.504   0.919
  596SOL    HW2 4591   0.548   3.351   0.868
  597SOL     OW 4592   0.040   2.406   1.114
  597SOL    HW1 4593   0.125   2.373   1.073
  597SOL    HW2 4594   0.053   2.421   1.212
  598SOL     OW 4595   0.189   2.382   1.722
  598SOL    HW1 4596   0.248   2.342   1.652
  598SOL    HW2 4597   0.131   2.453   1.681
  599SOL     OW 4598   1.369   2.812   1.660
  599SOL    HW1 4599   1.408   2.901   1.680
  599SOL    HW2 4600   1.379   2.792   1.563
  600SOL     OW 4601   1.657   2.466   1.206
  600SOL    HW1 4602   1.619   2.397   1.268
  600SOL    HW2 4603   1.739   2.430   1.162
  601SOL     OW 4604   0.252   3.426   1.744
  601SOL    HW1 4605   0.222   3.483   1.820
  601SOL    HW2 4606   0.245   3.329   1.770
  602SOL     OW 4607   0.671   2.326   1.269
  602SOL    HW1 4608   0.637   2.237   1.239
  602SOL    HW2 4609   0.697   2.380   1.189
  603SOL     OW 4610   0.930   3.540   1.465
  603SOL    HW1 4611   0.906   3.522   1.370
  603SOL    HW2 4612   0.960   3.634   1.475
  604SOL     OW 4613   0.159   2.999   1.466
  604SOL    HW1 4614   0.181   2.938   1.542
  604SOL    HW2 4615   0.169   2.950   1.380
  605SOL     OW 4616   1.302   2.717   0.309
  605SOL    HW1 4617   1.216   2.686   0.351
  605SOL    HW2 4618   1.298   2.703   0.210
  606SOL     OW 4619   1.759   3.609   1.154
  606SOL    HW1 4620   1.820   3.639   1.081
  606SOL    HW2 4621   1.721   3.520   1.132
  607SOL     OW 4622   1.252   3.593   1.128
  607SOL    HW1 4623   1.336   3.598   1.074
  607SOL    HW2 4624   1.229   3.497   1.146
  608SOL     OW 4625   0.688   3.524   1.716
  608SOL    HW1 4626   0.632   3.605   1.725
  608SOL    HW2 4627   0.740   3.528   1.630
  609SOL     OW 4628   1.726   1.997   0.523
  609SOL    HW1 4629   1.799   1.980   0.456
  609SOL    HW2 4630   1.695   1.910   0.561
  610SOL     OW 4631   1.388   3.435   0.477
  610SOL    HW1 4632   1.455   3.447   0.403
  610SOL    HW2 4633   1.348   3.524   0.500
  611SOL     OW 4634   1.280   2.789   0.672
  611SOL    HW1 4635   1.340   2.708   0.674
  611SOL    HW2 4636   1.320   2.858   0.612
  612SOL     OW 4637   0.830   3.135   1.422
  612SOL    HW1 4638   0.825   3.168   1.517
  612SOL    HW2 4639   0.744   3.154   1.376
  613SOL     OW 4640   0.672   3.478   0.154
  613SOL    HW1 4641   0.681   3.488   0.055
  613SOL    HW2 4642   0.632   3.389   0.175
  614SOL     OW 4643   1.650   3.582   1.394
  614SOL    HW1 4644   1.703   3.592   1.310
  614SOL    HW2 4645   1.623   3.672   1.428
  615SOL     OW 4646   1.841   2.037   0.963
  615SOL    HW1 4647   1.880   1.952   0.927
  615SOL    HW2 4648   1.743   2.039   0.944
  616SOL     OW 4649   0.263   2.188   0.720
  616SOL    HW1 4650   0.184   2.239   0.686
  616SOL    HW2 4651   0.254   2.173   0.818
  617SOL     OW 4652   1.194   3.474   0.031
  617SOL    HW1 4653   1.200   3.381   0.068
  617SOL    HW2 4654   1.135   3.474  -0.049
  618SOL     OW 4655   0.822   2.864   1.372
  618SOL    HW1 4656   0.862   2.863   1.280
  618SOL    HW2 4657   0.832   2.956   1.412
  619SOL     OW 4658   0.916   2.772   0.291
  619SOL    HW1 4659   0.979   2.810   0.223
  619SOL    HW2 4660   0.956   2.689   0.330
  620SOL     OW 4661   1.504   3.469   0.044
  620SOL    HW1 4662   1.412   3.506   0.051
  620SOL    HW2 4663   1.542   3.489  -0.046
  621SOL     OW 4664   0.372   3.150   1.490
  621SOL    HW1 4665   0.359   3.243   1.456
  621SOL    HW2 4666   0.288   3.098   1.477
  622SOL     OW 4667   1.614   3.154   1.289
  622SOL    HW1 4668   1.674   3.157   1.369
  622SOL    HW2 4669   1.539   3.218   1.302
  623SOL     OW 4670   1.709   2.247   1.381
  623SOL    HW1 4671   1.782   2.316   1.385
  623SOL    HW2 4672   1.737   2.172   1.322
  624SOL     OW 4673   0.672   2.065   1.489
  624SOL    HW1 4674   0.762   2.049   1.449
  624SOL    HW2 4675   0.680   2.070   1.588
  625SOL     OW 4676   0.075   2.207   0.033
  625SOL    HW1 4677  -0.017   2.179   0.004
  625SOL    HW2 4678   0.106   2.284  -0.023
  626SOL     OW 4679   0.072   2.028   0.318
  626SOL    HW1 4680   0.055   2.111   0.264
  626SOL    HW2 4681   0.162   1.991   0.296
  627SOL     OW 4682   1.183   3.197   0.119
  627SOL    HW1 4683   1.084   3.186   0.121
  627SOL    HW2 4684   1.217   3.212   0.212
  628SOL     OW 4685   0.613   2.704   1.431
  628SOL    HW1 4686   0.669   2.785   1.414
  628SOL    HW2 4687   0.672   2.624   1.434
  629SOL     OW 4688   1.493   3.629   0.959
  629SOL    HW1 4689   1.526   3.693   0.890
  629SOL    HW2 4690   1.559   3.623   1.034
  630SOL     OW 4691   0.716   2.427   1.708
  630SOL    HW1 4692   0.735   2.492   1.782
  630SOL    HW2 4693   0.776   2.347   1.717
  631SOL     OW 4694   0.390   3.603   1.560
  631SOL    HW1 4695   0.299   3.644   1.558
  631SOL    HW2 4696   0.383   3.509   1.592
  632SOL     OW 4697   1.674   2.745   1.254
  632SOL    HW1 4698   1.647   2.656   1.217
  632SOL    HW2 4699   1.675   2.813   1.181
  633SOL     OW 4700   1.225   2.187   0.449
  633SOL    HW1 4701   1.290   2.113   0.438
  633SOL    HW2 4702   1.245   2.237   0.533
  634SOL     OW 4703   0.594   2.607   0.652
  634SOL    HW1 4704   0.644   2.692   0.633
  634SOL    HW2 4705   0.506   2.609   0.604
  635SOL     OW 4706   1.777   2.204   1.642
  635SOL    HW1 4707   1.760   2.235   1.548
  635SOL    HW2 4708   1.693   2.167   1.680
  636SOL     OW 4709   1.730   2.796   1.517
  636SOL    HW1 4710   1.768   2.887   1.532
  636SOL    HW2 4711   1.722   2.779   1.418
  637SOL     OW 4712   0.859   3.236   0.016
  637SOL    HW1 4713   0.813   3.251   0.104
  637SOL    HW2 4714   0.903   3.321  -0.014
  638SOL     OW 4715   0.661   3.652   0.953
  638SOL    HW1 4716   0.615   3.740   0.940
  638SOL    HW2 4717   0.760   3.664   0.946
  639SOL     OW 4718   1.083   2.846   0.087
  639SOL    HW1 4719   1.060   2.899   0.005
  639SOL    HW2 4720   1.164   2.790   0.068
  640SOL     OW 4721   1.861   3.431   0.851
  640SOL    HW1 4722   1.790   3.419   0.781
  640SOL    HW2 4723   1.862   3.352   0.911
  641SOL     OW 4724   0.221   3.176   1.844
  641SOL    HW1 4725   0.156   3.103   1.823
  641SOL    HW2 4726   0.225   3.190   1.942
  642SOL     OW 4727   1.824   2.054   1.227
  642SOL    HW1 4728   1.820   1.964   1.271
  642SOL    HW2 4729   1.827   2.043   1.128
  643SOL     OW 4730   0.428   2.286   0.520
  643SOL    HW1 4731   0.458   2.214   0.458
  643SOL    HW2 4732   0.389   2.246   0.603
  644SOL     OW 4733   1.705   3.349   1.104
  644SOL    HW1 4734   1.612   3.324   1.077
  644SOL    HW2 4735   1.731   3.299   1.186
  645SOL     OW 4736   0.317   2.409   1.280
  645SOL    HW1 4737   0.355   2.350   1.352
  645SOL    HW2 4738   0.357   2.383   1.192
  646SOL     OW 4739   0.812   3.448   0.687
  646SOL    HW1 4740   0.844   3.458   0.593
  646SOL    HW2 4741   0.733   3.386   0.689
  647SOL     OW 4742   1.424   2.076   1.112
  647SOL    HW1 4743   1.476   2.011   1.167
  647SOL    HW2 4744   1.375   2.139   1.173
  648SOL     OW 4745   1.001   1.896   1.154
  648SOL    HW1 4746   0.938   1.824   1.123
  648SOL    HW2 4747   1.094   1.860   1.154
  649SOL     OW 4748   0.770   3.192   0.301
  649SOL    HW1 4749   0.724   3.105   0.318
  649SOL    HW2 4750   0.861   3.189   0.342
  650SOL     OW 4751   0.618   3.429   1.284
  650SOL    HW1 4752   0.613   3.511   1.341
  650SOL    HW2 4753   0.707   3.426   1.239
  651SOL     OW 4754   1.352   1.914   0.168
  651SOL    HW1 4755   1.387   1.873   0.084
  651SOL    HW2 4756   1.262   1.876   0.188
  652SOL     OW 4757   1.300   2.315   0.691
  652SOL    HW1 4758   1.241   2.395   0.695
  652SOL    HW2 4759   1.315   2.280   0.784
  653SOL     OW 4760   1.593   2.083   0.882
  653SOL    HW1 4761   1.509   2.082   0.936
  653SOL    HW2 4762   1.595   2.166   0.826
  654SOL     OW 4763   0.875   3.508   0.337
  654SOL    HW1 4764   0.798   3.473   0.283
  654SOL    HW2 4765   0.843   3.579   0.399
  655SOL     OW 4766   0.230   2.490   1.975
  655SOL    HW1 4767   0.137   2.488   2.012
  655SOL    HW2 4768   0.231   2.451   1.883
  656SOL     OW 4769   0.225   2.137   2.858
  656SOL    HW1 4770   0.260   2.120   2.950
  656SOL    HW2 4771   0.137   2.092   2.846
  657SOL     OW 4772   0.569   3.137   3.027
  657SOL    HW1 4773   0.476   3.130   2.990
  657SOL    HW2 4774   0.580   3.226   3.071
  658SOL     OW 4775   1.555   3.373   2.565
  658SOL    HW1 4776   1.498   3.357   2.646
  658SOL    HW2 4777   1.496   3.383   2.485
  659SOL     OW 4778   1.755   2.469   2.093
  659SOL    HW1 4779   1.743   2.456   1.994
  659SOL    HW2 4780   1.725   2.388   2.142
  660SOL     OW 4781   0.768   3.006   2.885
  660SOL    HW1 4782   0.690   3.023   2.945
  660SOL    HW2 4783   0.802   3.093   2.849
  661SOL     OW 4784   0.850   2.660   3.685
  661SOL    HW1 4785   0.846   2.736   3.750
  661SOL    HW2 4786   0.872   2.696   3.594
  662SOL     OW 4787   0.685   2.874   2.527
  662SOL    HW1 4788   0.754   2.858   2.597
  662SOL    HW2 4789   0.612   2.931   2.565
  663SOL     OW 4790   0.686   3.023   3.665
  663SOL    HW1 4791   0.746   3.102   3.679
  663SOL    HW2 4792   0.600   3.054   3.624
  664SOL     OW 4793   0.335   3.297   2.923
  664SOL    HW1 4794   0.257   3.266   2.870
  664SOL    HW2 4795   0.393   3.355   2.866
  665SOL     OW 4796   1.603   2.309   2.599
  665SOL    HW1 4797   1.529   2.355   2.549
  665SOL    HW2 4798   1.654   2.377   2.652
  666SOL     OW 4799   0.231   3.575   2.345
  666SOL    HW1 4800   0.265   3.652   2.399
  666SOL    HW2 4801   0.275   3.575   2.255
  667SOL     OW 4802   1.127   3.203   3.552
  667SOL    HW1 4803   1.174   3.203   3.640
  667SOL    HW2 4804   1.079   3.116   3.541
  668SOL     OW 4805   0.230   3.296   2.400
  668SOL    HW1 4806   0.204   3.392   2.400
  668SOL    HW2 4807   0.159   3.242   2.445
  669SOL     OW 4808   0.240   2.953   2.748
  669SOL    HW1 4809   0.254   2.869   2.800
  669SOL    HW2 4810   0.185   3.017   2.803
  670SOL     OW 4811   0.620   3.648   3.301
  670SOL    HW1 4812   0.528   3.631   3.336
  670SOL    HW2 4813   0.648   3.740   3.327
  671SOL     OW 4814   0.606   2.826   1.985
  671SOL    HW1 4815   0.613   2.910   1.931
  671SOL    HW2 4816   0.652   2.839   2.073
  672SOL     OW 4817   1.594   1.976   3.342
  672SOL    HW1 4818   1.576   2.043   3.270
  672SOL    HW2 4819   1.591   2.022   3.431
  673SOL     OW 4820   0.122   2.505   2.425
  673SOL    HW1 4821   0.077   2.417   2.442
  673SOL    HW2 4822   0.121   2.559   2.509
  674SOL     OW 4823   1.689   2.784   2.474
  674SOL    HW1 4824   1.784   2.755   2.482
  674SOL    HW2 4825   1.681   2.849   2.399
  675SOL     OW 4826   1.641   2.970   2.294
  675SOL    HW1 4827   1.727   2.972   2.242
  675SOL    HW2 4828   1.655   3.017   2.382
  676SOL     OW 4829   0.113   2.599   3.459
  676SOL    HW1 4830   0.201   2.586   3.504
  676SOL    HW2 4831   0.100   2.696   3.437
  677SOL     OW 4832   0.613   3.227   2.588
  677SOL    HW1 4833   0.564   3.140   2.597
  677SOL    HW2 4834   0.590   3.270   2.501
  678SOL     OW 4835   1.293   3.090   3.285
  678SOL    HW1 4836   1.330   3.017   3.227
  678SOL    HW2 4837   1.345   3.095   3.370
  679SOL     OW 4838   0.809   1.866   2.364
  679SOL    HW1 4839   0.849   1.957   2.355
  679SOL    HW2 4840   0.709   1.874   2.370
  680SOL     OW 4841   0.317   2.113   3.663
  680SOL    HW1 4842   0.388   2.184   3.669
  680SOL    HW2 4843   0.229   2.152   3.691
  681SOL     OW 4844   1.466   3.279   2.815
  681SOL    HW1 4845   1.407   3.285   2.895
  681SOL    HW2 4846   1.451   3.191   2.769
  682SOL     OW 4847   1.667   3.576   2.434
  682SOL    HW1 4848   1.626   3.553   2.346
  682SOL    HW2 4849   1.649   3.502   2.499
  683SOL     OW 4850   0.598   2.591   2.132
  683SOL    HW1 4851   0.622   2.660   2.064
  683SOL    HW2 4852   0.520   2.624   2.186
  684SOL     OW 4853   1.281   2.207   2.806
  684SOL    HW1 4854   1.195   2.157   2.793
  684SOL    HW2 4855   1.343   2.153   2.862
  685SOL     OW 4856   0.807   2.467   3.327
  685SOL    HW1 4857   0.760   2.464   3.416
  685SOL    HW2 4858   0.756   2.412   3.261
  686SOL     OW 4859   0.973   2.752   3.434
  686SOL    HW1 4860   1.019   2.668   3.405
  686SOL    HW2 4861   0.917   2.786   3.359
  687SOL     OW 4862   0.991   2.272   3.104
  687SOL    HW1 4863   0.914   2.306   3.158
  687SOL    HW2 4864   0.957   2.221   3.025
  688SOL     OW 4865   1.041   2.563   2.291
  688SOL    HW1 4866   1.067   2.559   2.387
  688SOL    HW2 4867   0.956   2.512   2.277
  689SOL     OW 4868   0.076   2.673   2.651
  689SOL    HW1 4869   0.175   2.661   2.660
  689SOL    HW2 4870   0.052   2.768   2.672
  690SOL     OW 4871   0.130   3.683   3.433
  690SOL    HW1 4872   0.120   3.668   3.532
  690SOL    HW2 4873   0.044   3.719   3.397
  691SOL     OW 4874   0.865   2.210   2.057
  691SOL    HW1 4875   0.924   2.273   2.008
  691SOL    HW2 4876   0.884   2.116   2.028
  692SOL     OW 4877   1.719   2.447   3.693
  692SOL    HW1 4878   1.693   2.536   3.657
  692SOL    HW2 4879   1.717   2.379   3.620
  693SOL     OW 4880   1.362   3.006   2.407
  693SOL    HW1 4881   1.445   2.977   2.359
  693SOL    HW2 4882   1.313   3.073   2.351
  694SOL     OW 4883   1.008   3.318   2.339
  694SOL    HW1 4884   0.962   3.390   2.287
  694SOL    HW2 4885   1.004   3.338   2.437
  695SOL     OW 4886   0.351   3.663   2.715
  695SOL    HW1 4887   0.401   3.577   2.721
  695SOL    HW2 4888   0.416   3.740   2.712
  696SOL     OW 4889   1.795   2.928   2.735
  696SOL    HW1 4890   1.733   2.913   2.659
  696SOL    HW2 4891   1.743   2.939   2.820
  697SOL     OW 4892   0.321   2.805   2.104
  697SOL    HW1 4893   0.403   2.844   2.062
  697SOL    HW2 4894   0.294   2.723   2.055
  698SOL     OW 4895   0.461   3.128   3.589
  698SOL    HW1 4896   0.411   3.129   3.503
  698SOL    HW2 4897   0.398   3.110   3.665
  699SOL     OW 4898   1.111   3.638   2.099
  699SOL    HW1 4899   1.051   3.576   2.149
  699SOL    HW2 4900   1.142   3.594   2.014
  700SOL     OW 4901   1.632   3.239   1.943
  700SOL    HW1 4902   1.600   3.333   1.933
  700SOL    HW2 4903   1.556   3.176   1.931
  701SOL     OW 4904   0.464   3.605   2.185
  701SOL    HW1 4905   0.497   3.644   2.271
  701SOL    HW2 4906   0.540   3.598   2.120
  702SOL     OW 4907   1.400   1.969   2.288
  702SOL    HW1 4908   1.376   1.932   2.198
  702SOL    HW2 4909   1.499   1.985   2.292
  703SOL     OW 4910   0.249   3.647   3.103
  703SOL    HW1 4911   0.306   3.582   3.153
  703SOL    HW2 4912   0.233   3.614   3.010
  704SOL     OW 4913   0.940   3.560   2.766
  704SOL    HW1 4914   1.020   3.503   2.787
  704SOL    HW2 4915   0.891   3.520   2.689
  705SOL     OW 4916   0.382   2.562   2.342
  705SOL    HW1 4917   0.427   2.472   2.339
  705SOL    HW2 4918   0.288   2.551   2.375
  706SOL     OW 4919   1.547   2.084   3.591
  706SOL    HW1 4920   1.542   2.121   3.683
  706SOL    HW2 4921   1.475   2.015   3.579
  707SOL     OW 4922   0.614   1.984   1.979
  707SOL    HW1 4923   0.712   1.962   1.986
  707SOL    HW2 4924   0.583   1.967   1.886
  708SOL     OW 4925   0.888   3.376   3.057
  708SOL    HW1 4926   0.865   3.351   2.963
  708SOL    HW2 4927   0.949   3.307   3.096
  709SOL     OW 4928   1.351   2.452   3.295
  709SOL    HW1 4929   1.379   2.409   3.380
  709SOL    HW2 4930   1.376   2.548   3.296
  710SOL     OW 4931   0.803   3.264   2.786
  710SOL    HW1 4932   0.893   3.278   2.744
  710SOL    HW2 4933   0.732   3.266   2.715
  711SOL     OW 4934   0.922   2.365   2.761
  711SOL    HW1 4935   0.897   2.356   2.665
  711SOL    HW2 4936   0.970   2.283   2.792
  712SOL     OW 4937   0.297   1.897   2.033
  712SOL    HW1 4938   0.346   1.981   2.012
  712SOL    HW2 4939   0.359   1.832   2.078
  713SOL     OW 4940   0.935   2.098   2.342
  713SOL    HW1 4941   0.887   2.139   2.264
  713SOL    HW2 4942   1.034   2.096   2.323
  714SOL     OW 4943   1.076   2.545   3.326
  714SOL    HW1 4944   0.996   2.484   3.329
  714SOL    HW2 4945   1.157   2.492   3.302
  715SOL     OW 4946   1.227   3.432   2.655
  715SOL    HW1 4947   1.248   3.506   2.590
  715SOL    HW2 4948   1.295   3.432   2.728
  716SOL     OW 4949   0.459   3.014   2.603
  716SOL    HW1 4950   0.388   2.987   2.668
  716SOL    HW2 4951   0.433   2.986   2.510
  717SOL     OW 4952   1.271   3.659   2.453
  717SOL    HW1 4953   1.315   3.723   2.389
  717SOL    HW2 4954   1.221   3.711   2.523
  718SOL     OW 4955   0.078   2.418   3.248
  718SOL    HW1 4956   0.170   2.417   3.207
  718SOL    HW2 4957   0.072   2.492   3.315
  719SOL     OW 4958   0.866   2.316   2.504
  719SOL    HW1 4959   0.834   2.388   2.442
  719SOL    HW2 4960   0.890   2.235   2.451
  720SOL     OW 4961   1.017   1.901   2.615
  720SOL    HW1 4962   0.945   1.906   2.546
  720SOL    HW2 4963   0.993   1.832   2.684
  721SOL     OW 4964   1.429   3.035   2.729
  721SOL    HW1 4965   1.374   2.951   2.722
  721SOL    HW2 4966   1.455   3.064   2.637
  722SOL     OW 4967   1.857   2.695   2.239
  722SOL    HW1 4968   1.899   2.631   2.303
  722SOL    HW2 4969   1.819   2.644   2.161
  723SOL     OW 4970   0.488   3.247   2.036
  723SOL    HW1 4971   0.401   3.232   2.083
  723SOL    HW2 4972   0.471   3.273   1.941
  724SOL     OW 4973   1.664   3.142   2.519
  724SOL    HW1 4974   1.763   3.150   2.533
  724SOL    HW2 4975   1.619   3.226   2.550
  725SOL     OW 4976   0.527   2.118   2.190
  725SOL    HW1 4977   0.554   2.059   2.115
  725SOL    HW2 4978   0.527   2.213   2.159
  726SOL     OW 4979   1.064   3.209   3.202
  726SOL    HW1 4980   0.984   3.186   3.257
  726SOL    HW2 4981   1.147   3.183   3.251
  727SOL     OW 4982   1.592   3.491   3.487
  727SOL    HW1 4983   1.619   3.525   3.397
  727SOL    HW2 4984   1.671   3.453   3.533
  728SOL     OW 4985   1.111   3.057   2.962
  728SOL    HW1 4986   1.071   3.101   3.043
  728SOL    HW2 4987   1.070   3.094   2.879
  729SOL     OW 4988   1.638   2.961   2.941
  729SOL    HW1 4989   1.643   3.042   3.000
  729SOL    HW2 4990   1.552   2.963   2.890
  730SOL     OW 4991   0.980   2.978   3.581
  730SOL    HW1 4992   0.881   2.984   3.591
  730SOL    HW2 4993   1.003   2.898   3.525
  731SOL     OW 4994   0.705   2.912   2.230
  731SOL    HW1 4995   0.691   2.919   2.329
  731SOL    HW2 4996   0.789   2.861   2.212
  732SOL     OW 4997   0.410   2.675   3.113
  732SOL    HW1 4998   0.496   2.687   3.163
  732SOL    HW2 4999   0.368   2.588   3.140
  733SOL     OW 5000   0.064   3.426   3.193
  733SOL    HW1 5001   0.018   3.508   3.159
  733SOL    HW2 5002   0.162   3.445   3.202
  734SOL     OW 5003   0.367   2.962   2.363
  734SOL    HW1 5004   0.360   3.045   2.307
  734SOL    HW2 5005   0.371   2.882   2.303
  735SOL     OW 5006   0.354   3.372   3.191
  735SOL    HW1 5007   0.333   3.328   3.104
  735SOL    HW2 5008   0.451   3.398   3.194
  736SOL     OW 5009   0.402   2.613   3.460
  736SOL    HW1 5010   0.470   2.668   3.413
  736SOL    HW2 5011   0.442   2.525   3.487
  737SOL     OW 5012   1.587   2.641   3.532
  737SOL    HW1 5013   1.495   2.679   3.527
  737SOL    HW2 5014   1.647   2.688   3.467
  738SOL     OW 5015   0.504   1.912   3.602
  738SOL    HW1 5016   0.462   1.855   3.532
  738SOL    HW2 5017   0.438   1.981   3.634
  739SOL     OW 5018   0.573   2.732   2.891
  739SOL    HW1 5019   0.617   2.821   2.882
  739SOL    HW2 5020   0.510   2.732   2.968
  740SOL     OW 5021   1.209   2.387   2.137
  740SOL    HW1 5022   1.222   2.303   2.191
  740SOL    HW2 5023   1.180   2.461   2.197
  741SOL     OW 5024   0.732   2.496   2.926
  741SOL    HW1 5025   0.791   2.470   2.850
  741SOL    HW2 5026   0.704   2.592   2.915
  742SOL     OW 5027   0.307   1.925   2.480
  742SOL    HW1 5028   0.296   2.019   2.513
  742SOL    HW2 5029   0.302   1.862   2.557
  743SOL     OW 5030   1.622   2.229   2.236
  743SOL    HW1 5031   1.624   2.153   2.300
  743SOL    HW2 5032   1.574   2.306   2.276
  744SOL     OW 5033   0.980   3.435   3.562
  744SOL    HW1 5034   0.960   3.479   3.474
  744SOL    HW2 5035   1.019   3.344   3.546
  745SOL     OW 5036   1.859   3.380   3.467
  745SOL    HW1 5037   1.873   3.407   3.372
  745SOL    HW2 5038   1.942   3.402   3.520
  746SOL     OW 5039   0.350   2.760   3.666
  746SOL    HW1 5040   0.426   2.804   3.714
  746SOL    HW2 5041   0.385   2.713   3.584
  747SOL     OW 5042   1.540   2.136   1.987
  747SOL    HW1 5043   1.479   2.061   2.010
  747SOL    HW2 5044   1.562   2.188   2.070
  748SOL     OW 5045   1.068   3.195   2.711
  748SOL    HW1 5046   1.075   3.111   2.656
  748SOL    HW2 5047   1.130   3.264   2.675
  749SOL     OW 5048   0.319   2.672   2.811
  749SOL    HW1 5049   0.412   2.708   2.816
  749SOL    HW2 5050   0.313   2.587   2.863
  750SOL     OW 5051   1.138   2.242   3.540
  750SOL    HW1 5052   1.093   2.305   3.604
  750SOL    HW2 5053   1.231   2.273   3.523
  751SOL     OW 5054   1.160   2.069   3.339
  751SOL    HW1 5055   1.160   2.133   3.416
  751SOL    HW2 5056   1.188   2.117   3.256
  752SOL     OW 5057   0.008   3.188   2.062
  752SOL    HW1 5058  -0.085   3.209   2.031
  752SOL    HW2 5059   0.018   3.089   2.075
  753SOL     OW 5060   0.088   3.663   2.789
  753SOL    HW1 5061   0.046   3.577   2.762
  753SOL    HW2 5062   0.182   3.666   2.755
  754SOL     OW 5063   0.504   3.430   2.772
  754SOL    HW1 5064   0.570   3.504   2.781
  754SOL    HW2 5065   0.548   3.351   2.730
  755SOL     OW 5066   1.002   2.658   3.100
  755SOL    HW1 5067   1.043   2.626   3.186
  755SOL    HW2 5068   0.906   2.631   3.097
  756SOL     OW 5069   0.040   2.406   2.976
  756SOL    HW1 5070   0.125   2.373   2.935
  756SOL    HW2 5071   0.053   2.421   3.074
  757SOL     OW 5072   1.369   2.812   3.522
  757SOL    HW1 5073   1.408   2.901   3.542
  757SOL    HW2 5074   1.379   2.792   3.425
  758SOL     OW 5075   0.815   2.434   2.187
  758SOL    HW1 5076   0.822   2.345   2.141
  758SOL    HW2 5077   0.721   2.468   2.179
  759SOL     OW 5078   0.252   3.426   3.606
  759SOL    HW1 5079   0.222   3.483   3.682
  759SOL    HW2 5080   0.245   3.329   3.632
  760SOL     OW 5081   0.671   2.326   3.131
  760SOL    HW1 5082   0.637   2.237   3.101
  760SOL    HW2 5083   0.697   2.380   3.051
  761SOL     OW 5084   0.473   2.362   2.053
  761SOL    HW1 5085   0.534   2.442   2.057
  761SOL    HW2 5086   0.378   2.393   2.060
  762SOL     OW 5087   0.159   2.999   3.328
  762SOL    HW1 5088   0.181   2.938   3.404
  762SOL    HW2 5089   0.169   2.950   3.242
  763SOL     OW 5090   1.347   2.921   3.096
  763SOL    HW1 5091   1.371   2.858   3.022
  763SOL    HW2 5092   1.257   2.961   3.078
  764SOL     OW 5093   1.759   3.609   3.016
  764SOL    HW1 5094   1.820   3.639   2.943
  764SOL    HW2 5095   1.721   3.520   2.994
  765SOL     OW 5096   0.083   3.120   2.884
  765SOL    HW1 5097   0.078   3.119   2.984
  765SOL    HW2 5098   0.000   3.079   2.846
  766SOL     OW 5099   0.688   3.524   3.578
  766SOL    HW1 5100   0.632   3.605   3.587
  766SOL    HW2 5101   0.740   3.528   3.492
  767SOL     OW 5102   1.388   3.435   2.339
  767SOL    HW1 5103   1.455   3.447   2.265
  767SOL    HW2 5104   1.348   3.524   2.362
  768SOL     OW 5105   0.830   3.135   3.284
  768SOL    HW1 5106   0.825   3.168   3.379
  768SOL    HW2 5107   0.744   3.154   3.238
  769SOL     OW 5108   0.672   3.478   2.016
  769SOL    HW1 5109   0.681   3.488   1.917
  769SOL    HW2 5110   0.632   3.389   2.037
  770SOL     OW 5111   1.650   3.582   3.256
  770SOL    HW1 5112   1.703   3.592   3.172
  770SOL    HW2 5113   1.623   3.672   3.290
  771SOL     OW 5114   1.841   2.037   2.825
  771SOL    HW1 5115   1.880   1.952   2.789
  771SOL    HW2 5116   1.743   2.039   2.806
  772SOL     OW 5117   0.263   2.188   2.582
  772SOL    HW1 5118   0.184   2.239   2.548
  772SOL    HW2 5119   0.254   2.173   2.680
  773SOL     OW 5120   0.822   2.864   3.234
  773SOL    HW1 5121   0.862   2.863   3.142
  773SOL    HW2 5122   0.832   2.956   3.274
  774SOL     OW 5123   0.916   2.772   2.153
  774SOL    HW1 5124   0.979   2.810   2.085
  774SOL    HW2 5125   0.956   2.689   2.192
  775SOL     OW 5126   1.504   3.469   1.906
  775SOL    HW1 5127   1.412   3.506   1.913
  775SOL    HW2 5128   1.542   3.489   1.816
  776SOL     OW 5129   0.372   3.150   3.352
  776SOL    HW1 5130   0.359   3.243   3.318
  776SOL    HW2 5131   0.288   3.098   3.339
  777SOL     OW 5132   1.614   3.154   3.151
  777SOL    HW1 5133   1.674   3.157   3.231
  777SOL    HW2 5134   1.539   3.218   3.164
  778SOL     OW 5135   1.039   2.960   2.558
  778SOL    HW1 5136   0.969   2.913   2.612
  778SOL    HW2 5137   1.098   2.892   2.515
  779SOL     OW 5138   1.014   2.098   2.833
  779SOL    HW1 5139   1.006   2.062   2.740
  779SOL    HW2 5140   1.012   2.022   2.898
  780SOL     OW 5141   0.590   3.349   2.353
  780SOL    HW1 5142   0.632   3.291   2.283
  780SOL    HW2 5143   0.546   3.428   2.309
  781SOL     OW 5144   0.255   3.210   2.152
  781SOL    HW1 5145   0.159   3.211   2.125
  781SOL    HW2 5146   0.267   3.263   2.236
  782SOL     OW 5147   0.105   2.875   3.588
  782SOL    HW1 5148   0.028   2.842   3.642
  782SOL    HW2 5149   0.190   2.845   3.630
  783SOL     OW 5150   0.672   2.065   3.351
  783SOL    HW1 5151   0.762   2.049   3.311
  783SOL    HW2 5152   0.680   2.070   3.450
  784SOL     OW 5153   0.075   2.207   1.895
  784SOL    HW1 5154  -0.017   2.179   1.866
  784SOL    HW2 5155   0.106   2.284   1.839
  785SOL     OW 5156   1.440   2.718   3.260
  785SOL    HW1 5157   1.383   2.770   3.197
  785SOL    HW2 5158   1.536   2.730   3.236
  786SOL     OW 5159   0.072   2.028   2.180
  786SOL    HW1 5160   0.055   2.111   2.126
  786SOL    HW2 5161   0.162   1.991   2.158
  787SOL     OW 5162   0.613   2.704   3.293
  787SOL    HW1 5163   0.669   2.785   3.276
  787SOL    HW2 5164   0.672   2.624   3.296
  788SOL     OW 5165   0.716   2.427   3.570
  788SOL    HW1 5166   0.735   2.492   3.644
  788SOL    HW2 5167   0.776   2.347   3.579
  789SOL     OW 5168   0.390   3.603   3.422
  789SOL    HW1 5169   0.299   3.644   3.420
  789SOL    HW2 5170   0.383   3.509   3.454
  790SOL     OW 5171   1.674   2.745   3.116
  790SOL    HW1 5172   1.647   2.656   3.079
  790SOL    HW2 5173   1.675   2.813   3.043
  791SOL     OW 5174   1.225   2.187   2.311
  791SOL    HW1 5175   1.290   2.113   2.300
  791SOL    HW2 5176   1.245   2.237   2.395
  792SOL     OW 5177   0.594   2.607   2.514
  792SOL    HW1 5178   0.644   2.692   2.495
  792SOL    HW2 5179   0.506   2.609   2.466
  793SOL     OW 5180   1.730   2.796   3.379
  793SOL    HW1 5181   1.768   2.887   3.394
  793SOL    HW2 5182   1.722   2.779   3.280
  794SOL     OW 5183   0.661   3.652   2.815
  794SOL    HW1 5184   0.615   3.740   2.802
  794SOL    HW2 5185   0.760   3.664   2.808
  795SOL     OW 5186   1.861   3.431   2.713
  795SOL    HW1 5187   1.790   3.419   2.643
  795SOL    HW2 5188   1.862   3.352   2.773
  796SOL     OW 5189   0.079   3.102   2.515
  796SOL    HW1 5190   0.078   3.055   2.603
  796SOL    HW2 5191   0.161   3.074   2.464
  797SOL     OW 5192   0.672   3.253   3.486
  797SOL    HW1 5193   0.594   3.203   3.524
  797SOL    HW2 5194   0.669   3.348   3.517
  798SOL     OW 5195   1.824   2.054   3.089
  798SOL    HW1 5196   1.820   1.964   3.133
  798SOL    HW2 5197   1.827   2.043   2.990
  799SOL     OW 5198   0.428   2.286   2.382
  799SOL    HW1 5199   0.458   2.214   2.320
  799SOL    HW2 5200   0.389   2.246   2.465
  800SOL     OW 5201   1.705   3.349   2.966
  800SOL    HW1 5202   1.612   3.324   2.939
  800SOL    HW2 5203   1.731   3.299   3.048
  801SOL     OW 5204   0.812   3.448   2.549
  801SOL    HW1 5205   0.844   3.458   2.455
  801SOL    HW2 5206   0.733   3.386   2.551
  802SOL     OW 5207   1.424   2.076   2.974
  802SOL    HW1 5208   1.476   2.011   3.029
  802SOL    HW2 5209   1.375   2.139   3.035
  803SOL     OW 5210   1.001   1.896   3.016
  803SOL    HW1 5211   0.938   1.824   2.985
  803SOL    HW2 5212   1.094   1.860   3.016
  804SOL     OW 5213   0.770   3.192   2.163
  804SOL    HW1 5214   0.724   3.105   2.180
  804SOL    HW2 5215   0.861   3.189   2.204
  805SOL     OW 5216   0.618   3.429   3.146
  805SOL    HW1 5217   0.613   3.511   3.203
  805SOL    HW2 5218   0.707   3.426   3.101
  806SOL     OW 5219   1.352   1.914   2.030
  806SOL    HW1 5220   1.387   1.873   1.946
  806SOL    HW2 5221   1.262   1.876   2.050
  807SOL     OW 5222   1.593   2.083   2.744
  807SOL    HW1 5223   1.509   2.082   2.798
  807SOL    HW2 5224   1.595   2.166   2.688
  808SOL     OW 5225   0.039   2.939   2.162
  808SOL    HW1 5226   0.138   2.928   2.153
  808SOL    HW2 5227  -0.001   2.853   2.194
  809SOL     OW 5228   0.875   3.508   2.199
  809SOL    HW1 5229   0.798   3.473   2.145
  809SOL    HW2 5230   0.843   3.579   2.261
  810SOL     OW 5231   0.230   2.490   3.837
  810SOL    HW1 5232   0.137   2.488   3.874
  810SOL    HW2 5233   0.231   2.451   3.745
  811SOL     OW 5234   0.019   2.230   4.371
  811SOL    HW1 5235  -0.063   2.273   4.410
  811SOL    HW2 5236  -0.009   2.157   4.308
  812SOL     OW 5237   0.569   3.137   4.889
  812SOL    HW1 5238   0.476   3.130   4.852
  812SOL    HW2 5239   0.580   3.226   4.933
  813SOL     OW 5240   1.555   3.373   4.427
  813SOL    HW1 5241   1.498   3.357   4.508
  813SOL    HW2 5242   1.496   3.383   4.347
  814SOL     OW 5243   0.768   3.006   4.747
  814SOL    HW1 5244   0.690   3.023   4.807
  814SOL    HW2 5245   0.802   3.093   4.711
  815SOL     OW 5246   0.335   3.297   4.785
  815SOL    HW1 5247   0.257   3.266   4.732
  815SOL    HW2 5248   0.393   3.355   4.728
  816SOL     OW 5249   1.603   2.309   4.461
  816SOL    HW1 5250   1.529   2.355   4.411
  816SOL    HW2 5251   1.654   2.377   4.514
  817SOL     OW 5252   0.230   3.296   4.262
  817SOL    HW1 5253   0.204   3.392   4.262
  817SOL    HW2 5254   0.159   3.242   4.307
  818SOL     OW 5255   0.240   2.953   4.610
  818SOL    HW1 5256   0.254   2.869   4.662
  818SOL    HW2 5257   0.185   3.017   4.665
  819SOL     OW 5258   0.620   3.648   5.163
  819SOL    HW1 5259   0.528   3.631   5.198
  819SOL    HW2 5260   0.648   3.740   5.189
  820SOL     OW 5261   0.122   2.505   4.287
  820SOL    HW1 5262   0.077   2.417   4.304
  820SOL    HW2 5263   0.121   2.559   4.371
  821SOL     OW 5264   1.842   3.629   4.083
  821SOL    HW1 5265   1.896   3.600   4.163
  821SOL    HW2 5266   1.872   3.719   4.054
  822SOL     OW 5267   1.689   2.784   4.336
  822SOL    HW1 5268   1.784   2.755   4.344
  822SOL    HW2 5269   1.681   2.849   4.261
  823SOL     OW 5270   0.809   1.866   4.226
  823SOL    HW1 5271   0.849   1.957   4.217
  823SOL    HW2 5272   0.709   1.874   4.232
  824SOL     OW 5273   0.197   2.838   4.988
  824SOL    HW1 5274   0.286   2.793   4.974
  824SOL    HW2 5275   0.124   2.773   4.969
  825SOL     OW 5276   1.466   3.279   4.677
  825SOL    HW1 5277   1.407   3.285   4.757
  825SOL    HW2 5278   1.451   3.191   4.631
  826SOL     OW 5279   1.667   3.576   4.296
  826SOL    HW1 5280   1.626   3.553   4.208
  826SOL    HW2 5281   1.649   3.502   4.361
  827SOL     OW 5282   0.598   2.591   3.994
  827SOL    HW1 5283   0.622   2.660   3.926
  827SOL    HW2 5284   0.520   2.624   4.048
  828SOL     OW 5285   1.576   3.524   4.031
  828SOL    HW1 5286   1.665   3.570   4.034
  828SOL    HW2 5287   1.555   3.500   3.936
  829SOL     OW 5288   0.991   2.272   4.966
  829SOL    HW1 5289   0.914   2.306   5.020
  829SOL    HW2 5290   0.957   2.221   4.887
  830SOL     OW 5291   1.362   3.006   4.269
  830SOL    HW1 5292   1.445   2.977   4.221
  830SOL    HW2 5293   1.313   3.073   4.213
  831SOL     OW 5294   0.550   2.058   4.609
  831SOL    HW1 5295   0.545   2.053   4.709
  831SOL    HW2 5296   0.552   2.154   4.580
  832SOL     OW 5297   1.008   3.318   4.201
  832SOL    HW1 5298   0.962   3.390   4.149
  832SOL    HW2 5299   1.004   3.338   4.299
  833SOL     OW 5300   0.351   3.663   4.577
  833SOL    HW1 5301   0.401   3.577   4.583
  833SOL    HW2 5302   0.416   3.740   4.574
  834SOL     OW 5303   1.795   2.928   4.597
  834SOL    HW1 5304   1.733   2.913   4.521
  834SOL    HW2 5305   1.743   2.939   4.682
  835SOL     OW 5306   1.458   2.597   4.452
  835SOL    HW1 5307   1.453   2.532   4.527
  835SOL    HW2 5308   1.538   2.656   4.465
  836SOL     OW 5309   1.632   3.239   3.805
  836SOL    HW1 5310   1.600   3.333   3.795
  836SOL    HW2 5311   1.556   3.176   3.793
  837SOL     OW 5312   1.400   1.969   4.150
  837SOL    HW1 5313   1.376   1.932   4.060
  837SOL    HW2 5314   1.499   1.985   4.154
  838SOL     OW 5315   0.940   3.560   4.628
  838SOL    HW1 5316   1.020   3.503   4.649
  838SOL    HW2 5317   0.891   3.520   4.551
  839SOL     OW 5318   0.382   2.562   4.204
  839SOL    HW1 5319   0.427   2.472   4.201
  839SOL    HW2 5320   0.288   2.551   4.237
  840SOL     OW 5321   0.803   3.264   4.648
  840SOL    HW1 5322   0.893   3.278   4.606
  840SOL    HW2 5323   0.732   3.266   4.577
  841SOL     OW 5324   0.922   2.365   4.623
  841SOL    HW1 5325   0.897   2.356   4.527
  841SOL    HW2 5326   0.970   2.283   4.654
  842SOL     OW 5327   0.539   1.926   4.236
  842SOL    HW1 5328   0.458   1.927   4.294
  842SOL    HW2 5329   0.542   2.009   4.181
  843SOL     OW 5330   1.434   3.050   3.765
  843SOL    HW1 5331   1.466   2.974   3.822
  843SOL    HW2 5332   1.342   3.077   3.795
  844SOL     OW 5333   0.297   1.897   3.895
  844SOL    HW1 5334   0.346   1.981   3.874
  844SOL    HW2 5335   0.359   1.832   3.940
  845SOL     OW 5336   0.935   2.098   4.204
  845SOL    HW1 5337   0.887   2.139   4.126
  845SOL    HW2 5338   1.034   2.096   4.185
  846SOL     OW 5339   1.227   3.432   4.517
  846SOL    HW1 5340   1.248   3.506   4.452
  846SOL    HW2 5341   1.295   3.432   4.590
  847SOL     OW 5342   1.271   3.659   4.315
  847SOL    HW1 5343   1.315   3.723   4.251
  847SOL    HW2 5344   1.221   3.711   4.385
  848SOL     OW 5345   1.032   2.411   3.740
  848SOL    HW1 5346   0.991   2.493   3.701
  848SOL    HW2 5347   1.096   2.437   3.813
  849SOL     OW 5348   1.429   3.035   4.591
  849SOL    HW1 5349   1.374   2.951   4.584
  849SOL    HW2 5350   1.455   3.064   4.499
  850SOL     OW 5351   1.857   2.695   4.101
  850SOL    HW1 5352   1.899   2.631   4.165
  850SOL    HW2 5353   1.819   2.644   4.023
  851SOL     OW 5354   0.488   3.247   3.898
  851SOL    HW1 5355   0.401   3.232   3.945
  851SOL    HW2 5356   0.471   3.273   3.803
  852SOL     OW 5357   1.664   3.142   4.381
  852SOL    HW1 5358   1.763   3.150   4.395
  852SOL    HW2 5359   1.619   3.226   4.412
  853SOL     OW 5360   0.527   2.118   4.052
  853SOL    HW1 5361   0.554   2.059   3.977
  853SOL    HW2 5362   0.527   2.213   4.021
  854SOL     OW 5363   1.111   3.057   4.824
  854SOL    HW1 5364   1.071   3.101   4.905
  854SOL    HW2 5365   1.070   3.094   4.741
  855SOL     OW 5366   1.638   2.961   4.803
  855SOL    HW1 5367   1.643   3.042   4.862
  855SOL    HW2 5368   1.552   2.963   4.752
  856SOL     OW 5369   0.410   2.675   4.975
  856SOL    HW1 5370   0.496   2.687   5.025
  856SOL    HW2 5371   0.368   2.588   5.002
  857SOL     OW 5372   1.252   3.210   4.112
  857SOL    HW1 5373   1.302   3.287   4.152
  857SOL    HW2 5374   1.157   3.212   4.144
  858SOL     OW 5375   1.272   3.307   4.866
  858SOL    HW1 5376   1.319   3.320   4.953
  858SOL    HW2 5377   1.206   3.233   4.875
  859SOL     OW 5378   1.582   2.501   4.196
  859SOL    HW1 5379   1.551   2.562   4.269
  859SOL    HW2 5380   1.632   2.553   4.127
  860SOL     OW 5381   0.354   3.372   5.053
  860SOL    HW1 5382   0.333   3.328   4.966
  860SOL    HW2 5383   0.451   3.398   5.056
  861SOL     OW 5384   0.573   2.732   4.753
  861SOL    HW1 5385   0.617   2.821   4.744
  861SOL    HW2 5386   0.510   2.732   4.830
  862SOL     OW 5387   1.360   2.724   4.769
  862SOL    HW1 5388   1.285   2.724   4.703
  862SOL    HW2 5389   1.397   2.632   4.778
  863SOL     OW 5390   0.732   2.496   4.788
  863SOL    HW1 5391   0.791   2.470   4.712
  863SOL    HW2 5392   0.704   2.592   4.777
  864SOL     OW 5393   0.307   1.925   4.342
  864SOL    HW1 5394   0.296   2.019   4.375
  864SOL    HW2 5395   0.302   1.862   4.419
  865SOL     OW 5396   1.023   2.628   4.690
  865SOL    HW1 5397   1.038   2.649   4.786
  865SOL    HW2 5398   0.993   2.533   4.681
  866SOL     OW 5399   1.540   2.136   3.849
  866SOL    HW1 5400   1.479   2.061   3.872
  866SOL    HW2 5401   1.562   2.188   3.932
  867SOL     OW 5402   1.068   3.195   4.573
  867SOL    HW1 5403   1.075   3.111   4.518
  867SOL    HW2 5404   1.130   3.264   4.537
  868SOL     OW 5405   0.319   2.672   4.673
  868SOL    HW1 5406   0.412   2.708   4.678
  868SOL    HW2 5407   0.313   2.587   4.725
  869SOL     OW 5408   0.339   2.371   4.730
  869SOL    HW1 5409   0.287   2.288   4.713
  869SOL    HW2 5410   0.416   2.376   4.666
  870SOL     OW 5411   1.160   2.069   5.201
  870SOL    HW1 5412   1.160   2.133   5.278
  870SOL    HW2 5413   1.188   2.117   5.118
  871SOL     OW 5414   0.088   3.663   4.651
  871SOL    HW1 5415   0.046   3.577   4.624
  871SOL    HW2 5416   0.182   3.666   4.617
  872SOL     OW 5417   0.504   3.430   4.634
  872SOL    HW1 5418   0.570   3.504   4.643
  872SOL    HW2 5419   0.548   3.351   4.592
  873SOL     OW 5420   1.002   2.658   4.962
  873SOL    HW1 5421   1.043   2.626   5.048
  873SOL    HW2 5422   0.906   2.631   4.959
  874SOL     OW 5423   0.930   3.540   5.189
  874SOL    HW1 5424   0.906   3.522   5.094
  874SOL    HW2 5425   0.960   3.634   5.199
  875SOL     OW 5426   0.473   2.362   3.915
  875SOL    HW1 5427   0.534   2.442   3.919
  875SOL    HW2 5428   0.378   2.393   3.922
  876SOL     OW 5429   1.347   2.921   4.958
  876SOL    HW1 5430   1.371   2.858   4.884
  876SOL    HW2 5431   1.257   2.961   4.940
  877SOL     OW 5432   1.759   3.609   4.878
  877SOL    HW1 5433   1.820   3.639   4.805
  877SOL    HW2 5434   1.721   3.520   4.856
  878SOL     OW 5435   1.252   3.593   4.852
  878SOL    HW1 5436   1.336   3.598   4.798
  878SOL    HW2 5437   1.229   3.497   4.870
  879SOL     OW 5438   0.083   3.120   4.746
  879SOL    HW1 5439   0.078   3.119   4.846
  879SOL    HW2 5440   0.000   3.079   4.708
  880SOL     OW 5441   1.726   1.997   4.247
  880SOL    HW1 5442   1.799   1.980   4.180
  880SOL    HW2 5443   1.695   1.910   4.285
  881SOL     OW 5444   1.388   3.435   4.201
  881SOL    HW1 5445   1.455   3.447   4.127
  881SOL    HW2 5446   1.348   3.524   4.224
  882SOL     OW 5447   1.280   2.789   4.396
  882SOL    HW1 5448   1.340   2.708   4.398
  882SOL    HW2 5449   1.320   2.858   4.336
  883SOL     OW 5450   1.650   3.582   5.118
  883SOL    HW1 5451   1.703   3.592   5.034
  883SOL    HW2 5452   1.623   3.672   5.152
  884SOL     OW 5453   0.263   2.188   4.444
  884SOL    HW1 5454   0.184   2.239   4.410
  884SOL    HW2 5455   0.254   2.173   4.542
  885SOL     OW 5456   1.194   3.474   3.755
  885SOL    HW1 5457   1.200   3.381   3.792
  885SOL    HW2 5458   1.135   3.474   3.675
  886SOL     OW 5459   0.822   2.864   5.096
  886SOL    HW1 5460   0.862   2.863   5.004
  886SOL    HW2 5461   0.832   2.956   5.136
  887SOL     OW 5462   1.504   3.469   3.768
  887SOL    HW1 5463   1.412   3.506   3.775
  887SOL    HW2 5464   1.542   3.489   3.678
  888SOL     OW 5465   1.039   2.960   4.420
  888SOL    HW1 5466   0.969   2.913   4.474
  888SOL    HW2 5467   1.098   2.892   4.377
  889SOL     OW 5468   0.590   3.349   4.215
  889SOL    HW1 5469   0.632   3.291   4.145
  889SOL    HW2 5470   0.546   3.428   4.171
  890SOL     OW 5471   1.709   2.247   5.105
  890SOL    HW1 5472   1.782   2.316   5.109
  890SOL    HW2 5473   1.737   2.172   5.046
  891SOL     OW 5474   0.075   2.207   3.757
  891SOL    HW1 5475  -0.017   2.179   3.728
  891SOL    HW2 5476   0.106   2.284   3.701
  892SOL     OW 5477   0.072   2.028   4.042
  892SOL    HW1 5478   0.055   2.111   3.988
  892SOL    HW2 5479   0.162   1.991   4.020
  893SOL     OW 5480   1.183   3.197   3.843
  893SOL    HW1 5481   1.084   3.186   3.845
  893SOL    HW2 5482   1.217   3.212   3.936
  894SOL     OW 5483   1.493   3.629   4.683
  894SOL    HW1 5484   1.526   3.693   4.614
  894SOL    HW2 5485   1.559   3.623   4.758
  895SOL     OW 5486   1.450   3.082   5.357
  895SOL    HW1 5487   1.441   3.072   5.456
  895SOL    HW2 5488   1.546   3.075   5.331
  896SOL     OW 5489   1.674   2.745   4.978
  896SOL    HW1 5490   1.647   2.656   4.941
  896SOL    HW2 5491   1.675   2.813   4.905
  897SOL     OW 5492   1.225   2.187   4.173
  897SOL    HW1 5493   1.290   2.113   4.162
  897SOL    HW2 5494   1.245   2.237   4.257
  898SOL     OW 5495   0.859   3.236   3.740
  898SOL    HW1 5496   0.813   3.251   3.828
  898SOL    HW2 5497   0.903   3.321   3.710
  899SOL     OW 5498   0.661   3.652   4.677
  899SOL    HW1 5499   0.615   3.740   4.664
  899SOL    HW2 5500   0.760   3.664   4.670
  900SOL     OW 5501   0.859   2.818   4.585
  900SOL    HW1 5502   0.913   2.749   4.633
  900SOL    HW2 5503   0.827   2.887   4.651
  901SOL     OW 5504   1.083   2.846   3.811
  901SOL    HW1 5505   1.060   2.899   3.729
  901SOL    HW2 5506   1.164   2.790   3.792
  902SOL     OW 5507   1.861   3.431   4.575
  902SOL    HW1 5508   1.790   3.419   4.505
  902SOL    HW2 5509   1.862   3.352   4.635
  903SOL     OW 5510   1.824   2.054   4.951
  903SOL    HW1 5511   1.820   1.964   4.995
  903SOL    HW2 5512   1.827   2.043   4.852
  904SOL     OW 5513   0.428   2.286   4.244
  904SOL    HW1 5514   0.458   2.214   4.182
  904SOL    HW2 5515   0.389   2.246   4.327
  905SOL     OW 5516   1.705   3.349   4.828
  905SOL    HW1 5517   1.612   3.324   4.801
  905SOL    HW2 5518   1.731   3.299   4.910
  906SOL     OW 5519   0.812   3.448   4.411
  906SOL    HW1 5520   0.844   3.458   4.317
  906SOL    HW2 5521   0.733   3.386   4.413
  907SOL     OW 5522   0.770   3.192   4.025
  907SOL    HW1 5523   0.724   3.105   4.042
  907SOL    HW2 5524   0.861   3.189   4.066
  908SOL     OW 5525   0.039   2.939   4.024
  908SOL    HW1 5526   0.138   2.928   4.015
  908SOL    HW2 5527  -0.001   2.853   4.056
  909SOL     OW 5528   0.875   3.508   4.061
  909SOL    HW1 5529   0.798   3.473   4.007
  909SOL    HW2 5530   0.843   3.579   4.123
  910SOL     OW 5531   0.230   4.352   0.113
  910SOL    HW1 5532   0.137   4.350   0.150
  910SOL    HW2 5533   0.231   4.313   0.021
  911SOL     OW 5534   0.225   3.999   0.996
  911SOL    HW1 5535   0.260   3.982   1.088
  911SOL    HW2 5536   0.137   3.954   0.984
  912SOL     OW 5537   0.019   4.092   0.647
  912SOL    HW1 5538  -0.063   4.135   0.686
  912SOL    HW2 5539  -0.009   4.019   0.584
  913SOL     OW 5540   1.555   5.235   0.703
  913SOL    HW1 5541   1.498   5.219   0.784
  913SOL    HW2 5542   1.496   5.245   0.623
  914SOL     OW 5543   1.135   4.427   0.717
  914SOL    HW1 5544   1.192   4.505   0.692
  914SOL    HW2 5545   1.075   4.453   0.793
  915SOL     OW 5546   0.850   4.522   1.823
  915SOL    HW1 5547   0.846   4.598   1.888
  915SOL    HW2 5548   0.872   4.558   1.732
  916SOL     OW 5549   0.685   4.736   0.665
  916SOL    HW1 5550   0.754   4.720   0.735
  916SOL    HW2 5551   0.612   4.793   0.703
  917SOL     OW 5552   0.686   4.885   1.803
  917SOL    HW1 5553   0.746   4.964   1.817
  917SOL    HW2 5554   0.600   4.916   1.762
  918SOL     OW 5555   0.438   4.116   1.499
  918SOL    HW1 5556   0.520   4.060   1.508
  918SOL    HW2 5557   0.357   4.058   1.503
  919SOL     OW 5558   1.603   4.171   0.737
  919SOL    HW1 5559   1.529   4.217   0.687
  919SOL    HW2 5560   1.654   4.239   0.790
  920SOL     OW 5561   0.606   4.688   0.123
  920SOL    HW1 5562   0.613   4.772   0.069
  920SOL    HW2 5563   0.652   4.701   0.211
  921SOL     OW 5564   1.594   3.838   1.480
  921SOL    HW1 5565   1.576   3.905   1.408
  921SOL    HW2 5566   1.591   3.884   1.569
  922SOL     OW 5567   0.122   4.367   0.563
  922SOL    HW1 5568   0.077   4.279   0.580
  922SOL    HW2 5569   0.121   4.421   0.647
  923SOL     OW 5570   1.689   4.646   0.612
  923SOL    HW1 5571   1.784   4.617   0.620
  923SOL    HW2 5572   1.681   4.711   0.537
  924SOL     OW 5573   1.641   4.832   0.432
  924SOL    HW1 5574   1.727   4.834   0.380
  924SOL    HW2 5575   1.655   4.879   0.520
  925SOL     OW 5576   0.113   4.461   1.597
  925SOL    HW1 5577   0.201   4.448   1.642
  925SOL    HW2 5578   0.100   4.558   1.575
  926SOL     OW 5579   1.293   4.952   1.423
  926SOL    HW1 5580   1.330   4.879   1.365
  926SOL    HW2 5581   1.345   4.957   1.508
  927SOL     OW 5582   0.809   3.728   0.502
  927SOL    HW1 5583   0.849   3.819   0.493
  927SOL    HW2 5584   0.709   3.736   0.508
  928SOL     OW 5585   0.317   3.975   1.801
  928SOL    HW1 5586   0.388   4.046   1.807
  928SOL    HW2 5587   0.229   4.014   1.829
  929SOL     OW 5588   1.466   5.141   0.953
  929SOL    HW1 5589   1.407   5.147   1.033
  929SOL    HW2 5590   1.451   5.053   0.907
  930SOL     OW 5591   0.598   4.453   0.270
  930SOL    HW1 5592   0.622   4.522   0.202
  930SOL    HW2 5593   0.520   4.486   0.324
  931SOL     OW 5594   0.807   4.329   1.465
  931SOL    HW1 5595   0.760   4.326   1.554
  931SOL    HW2 5596   0.756   4.274   1.399
  932SOL     OW 5597   0.973   4.614   1.572
  932SOL    HW1 5598   1.019   4.530   1.543
  932SOL    HW2 5599   0.917   4.648   1.497
  933SOL     OW 5600   0.991   4.134   1.242
  933SOL    HW1 5601   0.914   4.168   1.296
  933SOL    HW2 5602   0.957   4.083   1.163
  934SOL     OW 5603   1.041   4.425   0.429
  934SOL    HW1 5604   1.067   4.421   0.525
  934SOL    HW2 5605   0.956   4.374   0.415
  935SOL     OW 5606   0.076   4.535   0.789
  935SOL    HW1 5607   0.175   4.523   0.798
  935SOL    HW2 5608   0.052   4.630   0.810
  936SOL     OW 5609   0.865   4.072   0.195
  936SOL    HW1 5610   0.924   4.135   0.146
  936SOL    HW2 5611   0.884   3.978   0.166
  937SOL     OW 5612   1.719   4.309   1.831
  937SOL    HW1 5613   1.693   4.398   1.795
  937SOL    HW2 5614   1.717   4.241   1.758
  938SOL     OW 5615   1.362   4.868   0.545
  938SOL    HW1 5616   1.445   4.839   0.497
  938SOL    HW2 5617   1.313   4.935   0.489
  939SOL     OW 5618   0.550   3.920   0.885
  939SOL    HW1 5619   0.545   3.915   0.985
  939SOL    HW2 5620   0.552   4.016   0.856
  940SOL     OW 5621   1.795   4.790   0.873
  940SOL    HW1 5622   1.733   4.775   0.797
  940SOL    HW2 5623   1.743   4.801   0.958
  941SOL     OW 5624   1.458   4.459   0.728
  941SOL    HW1 5625   1.453   4.394   0.803
  941SOL    HW2 5626   1.538   4.518   0.741
  942SOL     OW 5627   1.632   5.101   0.081
  942SOL    HW1 5628   1.600   5.195   0.071
  942SOL    HW2 5629   1.556   5.038   0.069
  943SOL     OW 5630   1.400   3.831   0.426
  943SOL    HW1 5631   1.376   3.794   0.336
  943SOL    HW2 5632   1.499   3.847   0.430
  944SOL     OW 5633   0.781   3.988   1.749
  944SOL    HW1 5634   0.848   3.927   1.792
  944SOL    HW2 5635   0.708   4.007   1.814
  945SOL     OW 5636   0.803   5.126   0.924
  945SOL    HW1 5637   0.893   5.140   0.882
  945SOL    HW2 5638   0.732   5.128   0.853
  946SOL     OW 5639   0.922   4.227   0.899
  946SOL    HW1 5640   0.897   4.218   0.803
  946SOL    HW2 5641   0.970   4.145   0.930
  947SOL     OW 5642   1.434   4.912   0.041
  947SOL    HW1 5643   1.466   4.836   0.098
  947SOL    HW2 5644   1.342   4.939   0.071
  948SOL     OW 5645   0.297   3.759   0.171
  948SOL    HW1 5646   0.346   3.843   0.150
  948SOL    HW2 5647   0.359   3.694   0.216
  949SOL     OW 5648   0.935   3.960   0.480
  949SOL    HW1 5649   0.887   4.001   0.402
  949SOL    HW2 5650   1.034   3.958   0.461
  950SOL     OW 5651   1.076   4.407   1.464
  950SOL    HW1 5652   0.996   4.346   1.467
  950SOL    HW2 5653   1.157   4.354   1.440
  951SOL     OW 5654   1.227   5.294   0.793
  951SOL    HW1 5655   1.248   5.368   0.728
  951SOL    HW2 5656   1.295   5.294   0.866
  952SOL     OW 5657   1.032   4.273   0.016
  952SOL    HW1 5658   0.991   4.355  -0.023
  952SOL    HW2 5659   1.096   4.299   0.089
  953SOL     OW 5660   0.078   4.280   1.386
  953SOL    HW1 5661   0.170   4.279   1.345
  953SOL    HW2 5662   0.072   4.354   1.453
  954SOL     OW 5663   0.561   3.946   1.147
  954SOL    HW1 5664   0.599   3.862   1.184
  954SOL    HW2 5665   0.473   3.965   1.191
  955SOL     OW 5666   0.866   4.178   0.642
  955SOL    HW1 5667   0.834   4.250   0.580
  955SOL    HW2 5668   0.890   4.097   0.589
  956SOL     OW 5669   1.017   3.763   0.753
  956SOL    HW1 5670   0.945   3.768   0.684
  956SOL    HW2 5671   0.993   3.694   0.822
  957SOL     OW 5672   1.429   4.897   0.867
  957SOL    HW1 5673   1.374   4.813   0.860
  957SOL    HW2 5674   1.455   4.926   0.775
  958SOL     OW 5675   1.857   4.557   0.377
  958SOL    HW1 5676   1.899   4.493   0.441
  958SOL    HW2 5677   1.819   4.506   0.299
  959SOL     OW 5678   1.664   5.004   0.657
  959SOL    HW1 5679   1.763   5.012   0.671
  959SOL    HW2 5680   1.619   5.088   0.688
  960SOL     OW 5681   0.527   3.980   0.328
  960SOL    HW1 5682   0.554   3.921   0.253
  960SOL    HW2 5683   0.527   4.075   0.297
  961SOL     OW 5684   1.754   4.947   1.588
  961SOL    HW1 5685   1.845   4.908   1.575
  961SOL    HW2 5686   1.762   5.043   1.612
  962SOL     OW 5687   1.638   4.823   1.079
  962SOL    HW1 5688   1.643   4.904   1.138
  962SOL    HW2 5689   1.552   4.825   1.028
  963SOL     OW 5690   0.915   3.813   1.402
  963SOL    HW1 5691   0.940   3.793   1.307
  963SOL    HW2 5692   0.987   3.869   1.444
  964SOL     OW 5693   0.980   4.840   1.719
  964SOL    HW1 5694   0.881   4.846   1.729
  964SOL    HW2 5695   1.003   4.760   1.663
  965SOL     OW 5696   0.705   4.774   0.368
  965SOL    HW1 5697   0.691   4.781   0.467
  965SOL    HW2 5698   0.789   4.723   0.350
  966SOL     OW 5699   0.410   4.537   1.251
  966SOL    HW1 5700   0.496   4.549   1.301
  966SOL    HW2 5701   0.368   4.450   1.278
  967SOL     OW 5702   1.274   4.110   1.262
  967SOL    HW1 5703   1.295   4.184   1.326
  967SOL    HW2 5704   1.185   4.127   1.219
  968SOL     OW 5705   0.402   4.475   1.598
  968SOL    HW1 5706   0.470   4.530   1.551
  968SOL    HW2 5707   0.442   4.387   1.625
  969SOL     OW 5708   1.587   4.503   1.670
  969SOL    HW1 5709   1.495   4.541   1.665
  969SOL    HW2 5710   1.647   4.550   1.605
  970SOL     OW 5711   1.013   3.829   1.770
  970SOL    HW1 5712   1.019   3.914   1.718
  970SOL    HW2 5713   1.045   3.753   1.713
  971SOL     OW 5714   0.504   3.774   1.740
  971SOL    HW1 5715   0.462   3.717   1.670
  971SOL    HW2 5716   0.438   3.843   1.772
  972SOL     OW 5717   1.360   4.586   1.045
  972SOL    HW1 5718   1.285   4.586   0.979
  972SOL    HW2 5719   1.397   4.494   1.054
  973SOL     OW 5720   0.307   3.937   1.231
  973SOL    HW1 5721   0.284   3.974   1.321
  973SOL    HW2 5722   0.277   3.842   1.225
  974SOL     OW 5723   0.037   5.034   1.282
  974SOL    HW1 5724   0.090   4.985   1.350
  974SOL    HW2 5725   0.059   5.132   1.287
  975SOL     OW 5726   1.728   4.659   1.854
  975SOL    HW1 5727   1.682   4.652   1.765
  975SOL    HW2 5728   1.666   4.703   1.920
  976SOL     OW 5729   1.023   4.490   0.966
  976SOL    HW1 5730   1.038   4.511   1.062
  976SOL    HW2 5731   0.993   4.395   0.957
  977SOL     OW 5732   1.859   5.242   1.605
  977SOL    HW1 5733   1.873   5.269   1.510
  977SOL    HW2 5734   1.942   5.264   1.658
  978SOL     OW 5735   0.350   4.622   1.804
  978SOL    HW1 5736   0.426   4.666   1.852
  978SOL    HW2 5737   0.385   4.575   1.722
  979SOL     OW 5738   0.339   4.233   1.006
  979SOL    HW1 5739   0.287   4.150   0.989
  979SOL    HW2 5740   0.416   4.238   0.942
  980SOL     OW 5741   1.002   4.520   1.238
  980SOL    HW1 5742   1.043   4.488   1.324
  980SOL    HW2 5743   0.906   4.493   1.235
  981SOL     OW 5744   0.040   4.268   1.114
  981SOL    HW1 5745   0.125   4.235   1.073
  981SOL    HW2 5746   0.053   4.283   1.212
  982SOL     OW 5747   0.189   4.244   1.722
  982SOL    HW1 5748   0.248   4.204   1.652
  982SOL    HW2 5749   0.131   4.315   1.681
  983SOL     OW 5750   1.369   4.674   1.660
  983SOL    HW1 5751   1.408   4.763   1.680
  983SOL    HW2 5752   1.379   4.654   1.563
  984SOL     OW 5753   0.815   4.296   0.325
  984SOL    HW1 5754   0.822   4.207   0.279
  984SOL    HW2 5755   0.721   4.330   0.317
  985SOL     OW 5756   1.657   4.328   1.206
  985SOL    HW1 5757   1.619   4.259   1.268
  985SOL    HW2 5758   1.739   4.292   1.162
  986SOL     OW 5759   0.473   4.224   0.191
  986SOL    HW1 5760   0.534   4.304   0.195
  986SOL    HW2 5761   0.378   4.255   0.198
  987SOL     OW 5762   0.159   4.861   1.466
  987SOL    HW1 5763   0.181   4.800   1.542
  987SOL    HW2 5764   0.169   4.812   1.380
  988SOL     OW 5765   1.347   4.783   1.234
  988SOL    HW1 5766   1.371   4.720   1.160
  988SOL    HW2 5767   1.257   4.823   1.216
  989SOL     OW 5768   1.302   4.579   0.309
  989SOL    HW1 5769   1.216   4.548   0.351
  989SOL    HW2 5770   1.298   4.565   0.210
  990SOL     OW 5771   0.083   4.982   1.022
  990SOL    HW1 5772   0.078   4.981   1.122
  990SOL    HW2 5773   0.000   4.941   0.984
  991SOL     OW 5774   0.903   3.810   0.133
  991SOL    HW1 5775   0.954   3.811   0.047
  991SOL    HW2 5776   0.959   3.768   0.204
  992SOL     OW 5777   1.280   4.651   0.672
  992SOL    HW1 5778   1.340   4.570   0.674
  992SOL    HW2 5779   1.320   4.720   0.612
  993SOL     OW 5780   0.830   4.997   1.422
  993SOL    HW1 5781   0.825   5.030   1.517
  993SOL    HW2 5782   0.744   5.016   1.376
  994SOL     OW 5783   1.841   3.899   0.963
  994SOL    HW1 5784   1.880   3.814   0.927
  994SOL    HW2 5785   1.743   3.901   0.944
  995SOL     OW 5786   0.263   4.050   0.720
  995SOL    HW1 5787   0.184   4.101   0.686
  995SOL    HW2 5788   0.254   4.035   0.818
  996SOL     OW 5789   0.822   4.726   1.372
  996SOL    HW1 5790   0.862   4.725   1.280
  996SOL    HW2 5791   0.832   4.818   1.412
  997SOL     OW 5792   0.916   4.634   0.291
  997SOL    HW1 5793   0.979   4.672   0.223
  997SOL    HW2 5794   0.956   4.551   0.330
  998SOL     OW 5795   0.372   5.012   1.490
  998SOL    HW1 5796   0.359   5.105   1.456
  998SOL    HW2 5797   0.288   4.960   1.477
  999SOL     OW 5798   1.614   5.016   1.289
  999SOL    HW1 5799   1.674   5.019   1.369
  999SOL    HW2 5800   1.539   5.080   1.302
 1000SOL     OW 5801   1.039   4.822   0.696
 1000SOL    HW1 5802   0.969   4.775   0.750
 1000SOL    HW2 5803   1.098   4.754   0.653
 1001SOL     OW 5804   1.014   3.960   0.971
 1001SOL    HW1 5805   1.006   3.924   0.878
 1001SOL    HW2 5806   1.012   3.884   1.036
 1002SOL     OW 5807   1.709   4.109   1.381
 1002SOL    HW1 5808   1.782   4.178   1.385
 1002SOL    HW2 5809   1.737   4.034   1.322
 1003SOL     OW 5810   0.105   4.737   1.726
 1003SOL    HW1 5811   0.028   4.704   1.780
 1003SOL    HW2 5812   0.190   4.707   1.768
 1004SOL     OW 5813   0.672   3.927   1.489
 1004SOL    HW1 5814   0.762   3.911   1.449
 1004SOL    HW2 5815   0.680   3.932   1.588
 1005SOL     OW 5816   0.075   4.069   0.033
 1005SOL    HW1 5817  -0.017   4.041   0.004
 1005SOL    HW2 5818   0.106   4.146  -0.023
 1006SOL     OW 5819   1.440   4.580   1.398
 1006SOL    HW1 5820   1.383   4.632   1.335
 1006SOL    HW2 5821   1.536   4.592   1.374
 1007SOL     OW 5822   0.072   3.890   0.318
 1007SOL    HW1 5823   0.055   3.973   0.264
 1007SOL    HW2 5824   0.162   3.853   0.296
 1008SOL     OW 5825   0.613   4.566   1.431
 1008SOL    HW1 5826   0.669   4.647   1.414
 1008SOL    HW2 5827   0.672   4.486   1.434
 1009SOL     OW 5828   0.716   4.289   1.708
 1009SOL    HW1 5829   0.735   4.354   1.782
 1009SOL    HW2 5830   0.776   4.209   1.717
 1010SOL     OW 5831   1.450   4.944   1.633
 1010SOL    HW1 5832   1.441   4.934   1.732
 1010SOL    HW2 5833   1.546   4.937   1.607
 1011SOL     OW 5834   1.674   4.607   1.254
 1011SOL    HW1 5835   1.647   4.518   1.217
 1011SOL    HW2 5836   1.675   4.675   1.181
 1012SOL     OW 5837   1.225   4.049   0.449
 1012SOL    HW1 5838   1.290   3.975   0.438
 1012SOL    HW2 5839   1.245   4.099   0.533
 1013SOL     OW 5840   0.594   4.469   0.652
 1013SOL    HW1 5841   0.644   4.554   0.633
 1013SOL    HW2 5842   0.506   4.471   0.604
 1014SOL     OW 5843   1.777   4.066   1.642
 1014SOL    HW1 5844   1.760   4.097   1.548
 1014SOL    HW2 5845   1.693   4.029   1.680
 1015SOL     OW 5846   1.730   4.658   1.517
 1015SOL    HW1 5847   1.768   4.749   1.532
 1015SOL    HW2 5848   1.722   4.641   1.418
 1016SOL     OW 5849   0.859   4.680   0.861
 1016SOL    HW1 5850   0.913   4.611   0.909
 1016SOL    HW2 5851   0.827   4.749   0.927
 1017SOL     OW 5852   1.083   4.708   0.087
 1017SOL    HW1 5853   1.060   4.761   0.005
 1017SOL    HW2 5854   1.164   4.652   0.068
 1018SOL     OW 5855   1.824   3.916   1.227
 1018SOL    HW1 5856   1.820   3.826   1.271
 1018SOL    HW2 5857   1.827   3.905   1.128
 1019SOL     OW 5858   0.428   4.148   0.520
 1019SOL    HW1 5859   0.458   4.076   0.458
 1019SOL    HW2 5860   0.389   4.108   0.603
 1020SOL     OW 5861   0.317   4.271   1.280
 1020SOL    HW1 5862   0.355   4.212   1.352
 1020SOL    HW2 5863   0.357   4.245   1.192
 1021SOL     OW 5864   1.424   3.938   1.112
 1021SOL    HW1 5865   1.476   3.873   1.167
 1021SOL    HW2 5866   1.375   4.001   1.173
 1022SOL     OW 5867   1.001   3.758   1.154
 1022SOL    HW1 5868   0.938   3.686   1.123
 1022SOL    HW2 5869   1.094   3.722   1.154
 1023SOL     OW 5870   0.770   5.054   0.301
 1023SOL    HW1 5871   0.724   4.967   0.318
 1023SOL    HW2 5872   0.861   5.051   0.342
 1024SOL     OW 5873   1.352   3.776   0.168
 1024SOL    HW1 5874   1.387   3.735   0.084
 1024SOL    HW2 5875   1.262   3.738   0.188
 1025SOL     OW 5876   1.593   3.945   0.882
 1025SOL    HW1 5877   1.509   3.944   0.936
 1025SOL    HW2 5878   1.595   4.028   0.826
 1026SOL     OW 5879   0.039   4.801   0.300
 1026SOL    HW1 5880   0.138   4.790   0.291
 1026SOL    HW2 5881  -0.001   4.715   0.332
 1027SOL     OW 5882   0.225   3.999   2.858
 1027SOL    HW1 5883   0.260   3.982   2.950
 1027SOL    HW2 5884   0.137   3.954   2.846
 1028SOL     OW 5885   0.019   4.092   2.509
 1028SOL    HW1 5886  -0.063   4.135   2.548
 1028SOL    HW2 5887  -0.009   4.019   2.446
 1029SOL     OW 5888   1.555   5.235   2.565
 1029SOL    HW1 5889   1.498   5.219   2.646
 1029SOL    HW2 5890   1.496   5.245   2.485
 1030SOL     OW 5891   1.135   4.427   2.579
 1030SOL    HW1 5892   1.192   4.505   2.554
 1030SOL    HW2 5893   1.075   4.453   2.655
 1031SOL     OW 5894   0.850   4.522   3.685
 1031SOL    HW1 5895   0.846   4.598   3.750
 1031SOL    HW2 5896   0.872   4.558   3.594
 1032SOL     OW 5897   0.685   4.736   2.527
 1032SOL    HW1 5898   0.754   4.720   2.597
 1032SOL    HW2 5899   0.612   4.793   2.565
 1033SOL     OW 5900   0.686   4.885   3.665
 1033SOL    HW1 5901   0.746   4.964   3.679
 1033SOL    HW2 5902   0.600   4.916   3.624
 1034SOL     OW 5903   0.438   4.116   3.361
 1034SOL    HW1 5904   0.520   4.060   3.370
 1034SOL    HW2 5905   0.357   4.058   3.365
 1035SOL     OW 5906   1.603   4.171   2.599
 1035SOL    HW1 5907   1.529   4.217   2.549
 1035SOL    HW2 5908   1.654   4.239   2.652
 1036SOL     OW 5909   0.240   4.815   2.748
 1036SOL    HW1 5910   0.254   4.731   2.800
 1036SOL    HW2 5911   0.185   4.879   2.803
 1037SOL     OW 5912   0.606   4.688   1.985
 1037SOL    HW1 5913   0.613   4.772   1.931
 1037SOL    HW2 5914   0.652   4.701   2.073
 1038SOL     OW 5915   0.122   4.367   2.425
 1038SOL    HW1 5916   0.077   4.279   2.442
 1038SOL    HW2 5917   0.121   4.421   2.509
 1039SOL     OW 5918   1.641   4.832   2.294
 1039SOL    HW1 5919   1.727   4.834   2.242
 1039SOL    HW2 5920   1.655   4.879   2.382
 1040SOL     OW 5921   0.809   3.728   2.364
 1040SOL    HW1 5922   0.849   3.819   2.355
 1040SOL    HW2 5923   0.709   3.736   2.370
 1041SOL     OW 5924   1.525   4.723   2.052
 1041SOL    HW1 5925   1.462   4.647   2.065
 1041SOL    HW2 5926   1.573   4.741   2.138
 1042SOL     OW 5927   0.317   3.975   3.663
 1042SOL    HW1 5928   0.388   4.046   3.669
 1042SOL    HW2 5929   0.229   4.014   3.691
 1043SOL     OW 5930   0.598   4.453   2.132
 1043SOL    HW1 5931   0.622   4.522   2.064
 1043SOL    HW2 5932   0.520   4.486   2.186
 1044SOL     OW 5933   1.281   4.069   2.806
 1044SOL    HW1 5934   1.195   4.019   2.793
 1044SOL    HW2 5935   1.343   4.015   2.862
 1045SOL     OW 5936   0.807   4.329   3.327
 1045SOL    HW1 5937   0.760   4.326   3.416
 1045SOL    HW2 5938   0.756   4.274   3.261
 1046SOL     OW 5939   1.394   4.193   3.536
 1046SOL    HW1 5940   1.374   4.236   3.624
 1046SOL    HW2 5941   1.472   4.131   3.545
 1047SOL     OW 5942   0.973   4.614   3.434
 1047SOL    HW1 5943   1.019   4.530   3.405
 1047SOL    HW2 5944   0.917   4.648   3.359
 1048SOL     OW 5945   0.991   4.134   3.104
 1048SOL    HW1 5946   0.914   4.168   3.158
 1048SOL    HW2 5947   0.957   4.083   3.025
 1049SOL     OW 5948   1.041   4.425   2.291
 1049SOL    HW1 5949   1.067   4.421   2.387
 1049SOL    HW2 5950   0.956   4.374   2.277
 1050SOL     OW 5951   0.076   4.535   2.651
 1050SOL    HW1 5952   0.175   4.523   2.660
 1050SOL    HW2 5953   0.052   4.630   2.672
 1051SOL     OW 5954   0.865   4.072   2.057
 1051SOL    HW1 5955   0.924   4.135   2.008
 1051SOL    HW2 5956   0.884   3.978   2.028
 1052SOL     OW 5957   1.719   4.309   3.693
 1052SOL    HW1 5958   1.693   4.398   3.657
 1052SOL    HW2 5959   1.717   4.241   3.620
 1053SOL     OW 5960   1.362   4.868   2.407
 1053SOL    HW1 5961   1.445   4.839   2.359
 1053SOL    HW2 5962   1.313   4.935   2.351
 1054SOL     OW 5963   0.550   3.920   2.747
 1054SOL    HW1 5964   0.545   3.915   2.847
 1054SOL    HW2 5965   0.552   4.016   2.718
 1055SOL     OW 5966   0.321   4.667   2.104
 1055SOL    HW1 5967   0.403   4.706   2.062
 1055SOL    HW2 5968   0.294   4.585   2.055
 1056SOL     OW 5969   1.458   4.459   2.590
 1056SOL    HW1 5970   1.453   4.394   2.665
 1056SOL    HW2 5971   1.538   4.518   2.603
 1057SOL     OW 5972   0.202   4.009   3.360
 1057SOL    HW1 5973   0.122   4.069   3.347
 1057SOL    HW2 5974   0.192   3.960   3.446
 1058SOL     OW 5975   1.632   5.101   1.943
 1058SOL    HW1 5976   1.600   5.195   1.933
 1058SOL    HW2 5977   1.556   5.038   1.931
 1059SOL     OW 5978   1.400   3.831   2.288
 1059SOL    HW1 5979   1.376   3.794   2.198
 1059SOL    HW2 5980   1.499   3.847   2.292
 1060SOL     OW 5981   0.382   4.424   2.342
 1060SOL    HW1 5982   0.427   4.334   2.339
 1060SOL    HW2 5983   0.288   4.413   2.375
 1061SOL     OW 5984   0.614   3.846   1.979
 1061SOL    HW1 5985   0.712   3.824   1.986
 1061SOL    HW2 5986   0.583   3.829   1.886
 1062SOL     OW 5987   0.781   3.988   3.611
 1062SOL    HW1 5988   0.848   3.927   3.654
 1062SOL    HW2 5989   0.708   4.007   3.676
 1063SOL     OW 5990   1.351   4.314   3.295
 1063SOL    HW1 5991   1.379   4.271   3.380
 1063SOL    HW2 5992   1.376   4.410   3.296
 1064SOL     OW 5993   0.803   5.126   2.786
 1064SOL    HW1 5994   0.893   5.140   2.744
 1064SOL    HW2 5995   0.732   5.128   2.715
 1065SOL     OW 5996   0.922   4.227   2.761
 1065SOL    HW1 5997   0.897   4.218   2.665
 1065SOL    HW2 5998   0.970   4.145   2.792
 1066SOL     OW 5999   0.539   3.788   2.374
 1066SOL    HW1 6000   0.458   3.789   2.432
 1066SOL    HW2 6001   0.542   3.871   2.319
 1067SOL     OW 6002   1.434   4.912   1.903
 1067SOL    HW1 6003   1.466   4.836   1.960
 1067SOL    HW2 6004   1.342   4.939   1.933
 1068SOL     OW 6005   0.297   3.759   2.033
 1068SOL    HW1 6006   0.346   3.843   2.012
 1068SOL    HW2 6007   0.359   3.694   2.078
 1069SOL     OW 6008   0.935   3.960   2.342
 1069SOL    HW1 6009   0.887   4.001   2.264
 1069SOL    HW2 6010   1.034   3.958   2.323
 1070SOL     OW 6011   1.076   4.407   3.326
 1070SOL    HW1 6012   0.996   4.346   3.329
 1070SOL    HW2 6013   1.157   4.354   3.302
 1071SOL     OW 6014   1.227   5.294   2.655
 1071SOL    HW1 6015   1.248   5.368   2.590
 1071SOL    HW2 6016   1.295   5.294   2.728
 1072SOL     OW 6017   0.459   4.876   2.603
 1072SOL    HW1 6018   0.388   4.849   2.668
 1072SOL    HW2 6019   0.433   4.848   2.510
 1073SOL     OW 6020   1.032   4.273   1.878
 1073SOL    HW1 6021   0.991   4.355   1.839
 1073SOL    HW2 6022   1.096   4.299   1.951
 1074SOL     OW 6023   0.078   4.280   3.248
 1074SOL    HW1 6024   0.170   4.279   3.207
 1074SOL    HW2 6025   0.072   4.354   3.315
 1075SOL     OW 6026   0.561   3.946   3.009
 1075SOL    HW1 6027   0.599   3.862   3.046
 1075SOL    HW2 6028   0.473   3.965   3.053
 1076SOL     OW 6029   0.866   4.178   2.504
 1076SOL    HW1 6030   0.834   4.250   2.442
 1076SOL    HW2 6031   0.890   4.097   2.451
 1077SOL     OW 6032   1.017   3.763   2.615
 1077SOL    HW1 6033   0.945   3.768   2.546
 1077SOL    HW2 6034   0.993   3.694   2.684
 1078SOL     OW 6035   1.466   4.314   2.854
 1078SOL    HW1 6036   1.436   4.219   2.861
 1078SOL    HW2 6037   1.539   4.330   2.920
 1079SOL     OW 6038   0.527   3.980   2.190
 1079SOL    HW1 6039   0.554   3.921   2.115
 1079SOL    HW2 6040   0.527   4.075   2.159
 1080SOL     OW 6041   0.980   4.840   3.581
 1080SOL    HW1 6042   0.881   4.846   3.591
 1080SOL    HW2 6043   1.003   4.760   3.525
 1081SOL     OW 6044   0.705   4.774   2.230
 1081SOL    HW1 6045   0.691   4.781   2.329
 1081SOL    HW2 6046   0.789   4.723   2.212
 1082SOL     OW 6047   0.410   4.537   3.113
 1082SOL    HW1 6048   0.496   4.549   3.163
 1082SOL    HW2 6049   0.368   4.450   3.140
 1083SOL     OW 6050   1.274   4.110   3.124
 1083SOL    HW1 6051   1.295   4.184   3.188
 1083SOL    HW2 6052   1.185   4.127   3.081
 1084SOL     OW 6053   0.367   4.824   2.363
 1084SOL    HW1 6054   0.360   4.907   2.307
 1084SOL    HW2 6055   0.371   4.744   2.303
 1085SOL     OW 6056   0.566   4.261   2.727
 1085SOL    HW1 6057   0.578   4.327   2.653
 1085SOL    HW2 6058   0.612   4.295   2.810
 1086SOL     OW 6059   1.582   4.363   2.334
 1086SOL    HW1 6060   1.551   4.424   2.407
 1086SOL    HW2 6061   1.632   4.415   2.265
 1087SOL     OW 6062   0.402   4.475   3.460
 1087SOL    HW1 6063   0.470   4.530   3.413
 1087SOL    HW2 6064   0.442   4.387   3.487
 1088SOL     OW 6065   1.587   4.503   3.532
 1088SOL    HW1 6066   1.495   4.541   3.527
 1088SOL    HW2 6067   1.647   4.550   3.467
 1089SOL     OW 6068   1.013   3.829   3.632
 1089SOL    HW1 6069   1.019   3.914   3.580
 1089SOL    HW2 6070   1.045   3.753   3.575
 1090SOL     OW 6071   0.504   3.774   3.602
 1090SOL    HW1 6072   0.462   3.717   3.532
 1090SOL    HW2 6073   0.438   3.843   3.634
 1091SOL     OW 6074   0.573   4.594   2.891
 1091SOL    HW1 6075   0.617   4.683   2.882
 1091SOL    HW2 6076   0.510   4.594   2.968
 1092SOL     OW 6077   1.360   4.586   2.907
 1092SOL    HW1 6078   1.285   4.586   2.841
 1092SOL    HW2 6079   1.397   4.494   2.916
 1093SOL     OW 6080   1.209   4.249   2.137
 1093SOL    HW1 6081   1.222   4.165   2.191
 1093SOL    HW2 6082   1.180   4.323   2.197
 1094SOL     OW 6083   0.307   3.937   3.093
 1094SOL    HW1 6084   0.284   3.974   3.183
 1094SOL    HW2 6085   0.277   3.842   3.087
 1095SOL     OW 6086   0.732   4.358   2.926
 1095SOL    HW1 6087   0.791   4.332   2.850
 1095SOL    HW2 6088   0.704   4.454   2.915
 1096SOL     OW 6089   1.728   4.659   3.716
 1096SOL    HW1 6090   1.682   4.652   3.627
 1096SOL    HW2 6091   1.666   4.703   3.782
 1097SOL     OW 6092   0.307   3.787   2.480
 1097SOL    HW1 6093   0.296   3.881   2.513
 1097SOL    HW2 6094   0.302   3.724   2.557
 1098SOL     OW 6095   1.023   4.490   2.828
 1098SOL    HW1 6096   1.038   4.511   2.924
 1098SOL    HW2 6097   0.993   4.395   2.819
 1099SOL     OW 6098   1.859   5.242   3.467
 1099SOL    HW1 6099   1.873   5.269   3.372
 1099SOL    HW2 6100   1.942   5.264   3.520
 1100SOL     OW 6101   0.350   4.622   3.666
 1100SOL    HW1 6102   0.426   4.666   3.714
 1100SOL    HW2 6103   0.385   4.575   3.584
 1101SOL     OW 6104   1.303   4.562   1.904
 1101SOL    HW1 6105   1.337   4.469   1.919
 1101SOL    HW2 6106   1.321   4.589   1.809
 1102SOL     OW 6107   0.319   4.534   2.811
 1102SOL    HW1 6108   0.412   4.570   2.816
 1102SOL    HW2 6109   0.313   4.449   2.863
 1103SOL     OW 6110   0.339   4.233   2.868
 1103SOL    HW1 6111   0.287   4.150   2.851
 1103SOL    HW2 6112   0.416   4.238   2.804
 1104SOL     OW 6113   1.138   4.104   3.540
 1104SOL    HW1 6114   1.093   4.167   3.604
 1104SOL    HW2 6115   1.231   4.135   3.523
 1105SOL     OW 6116   0.008   5.050   2.062
 1105SOL    HW1 6117  -0.085   5.071   2.031
 1105SOL    HW2 6118   0.018   4.951   2.075
 1106SOL     OW 6119   1.002   4.520   3.100
 1106SOL    HW1 6120   1.043   4.488   3.186
 1106SOL    HW2 6121   0.906   4.493   3.097
 1107SOL     OW 6122   0.040   4.268   2.976
 1107SOL    HW1 6123   0.125   4.235   2.935
 1107SOL    HW2 6124   0.053   4.283   3.074
 1108SOL     OW 6125   0.189   4.244   3.584
 1108SOL    HW1 6126   0.248   4.204   3.514
 1108SOL    HW2 6127   0.131   4.315   3.543
 1109SOL     OW 6128   1.369   4.674   3.522
 1109SOL    HW1 6129   1.408   4.763   3.542
 1109SOL    HW2 6130   1.379   4.654   3.425
 1110SOL     OW 6131   0.815   4.296   2.187
 1110SOL    HW1 6132   0.822   4.207   2.141
 1110SOL    HW2 6133   0.721   4.330   2.179
 1111SOL     OW 6134   0.671   4.188   3.131
 1111SOL    HW1 6135   0.637   4.099   3.101
 1111SOL    HW2 6136   0.697   4.242   3.051
 1112SOL     OW 6137   0.473   4.224   2.053
 1112SOL    HW1 6138   0.534   4.304   2.057
 1112SOL    HW2 6139   0.378   4.255   2.060
 1113SOL     OW 6140   1.347   4.783   3.096
 1113SOL    HW1 6141   1.371   4.720   3.022
 1113SOL    HW2 6142   1.257   4.823   3.078
 1114SOL     OW 6143   1.302   4.579   2.171
 1114SOL    HW1 6144   1.216   4.548   2.213
 1114SOL    HW2 6145   1.298   4.565   2.072
 1115SOL     OW 6146   1.726   3.859   2.385
 1115SOL    HW1 6147   1.799   3.842   2.318
 1115SOL    HW2 6148   1.695   3.772   2.423
 1116SOL     OW 6149   1.280   4.651   2.534
 1116SOL    HW1 6150   1.340   4.570   2.536
 1116SOL    HW2 6151   1.320   4.720   2.474
 1117SOL     OW 6152   1.841   3.899   2.825
 1117SOL    HW1 6153   1.880   3.814   2.789
 1117SOL    HW2 6154   1.743   3.901   2.806
 1118SOL     OW 6155   0.263   4.050   2.582
 1118SOL    HW1 6156   0.184   4.101   2.548
 1118SOL    HW2 6157   0.254   4.035   2.680
 1119SOL     OW 6158   1.194   5.336   1.893
 1119SOL    HW1 6159   1.200   5.243   1.930
 1119SOL    HW2 6160   1.135   5.336   1.813
 1120SOL     OW 6161   0.822   4.726   3.234
 1120SOL    HW1 6162   0.862   4.725   3.142
 1120SOL    HW2 6163   0.832   4.818   3.274
 1121SOL     OW 6164   0.916   4.634   2.153
 1121SOL    HW1 6165   0.979   4.672   2.085
 1121SOL    HW2 6166   0.956   4.551   2.192
 1122SOL     OW 6167   0.372   5.012   3.352
 1122SOL    HW1 6168   0.359   5.105   3.318
 1122SOL    HW2 6169   0.288   4.960   3.339
 1123SOL     OW 6170   1.614   5.016   3.151
 1123SOL    HW1 6171   1.674   5.019   3.231
 1123SOL    HW2 6172   1.539   5.080   3.164
 1124SOL     OW 6173   1.039   4.822   2.558
 1124SOL    HW1 6174   0.969   4.775   2.612
 1124SOL    HW2 6175   1.098   4.754   2.515
 1125SOL     OW 6176   1.014   3.960   2.833
 1125SOL    HW1 6177   1.006   3.924   2.740
 1125SOL    HW2 6178   1.012   3.884   2.898
 1126SOL     OW 6179   1.709   4.109   3.243
 1126SOL    HW1 6180   1.782   4.178   3.247
 1126SOL    HW2 6181   1.737   4.034   3.184
 1127SOL     OW 6182   1.440   4.580   3.260
 1127SOL    HW1 6183   1.383   4.632   3.197
 1127SOL    HW2 6184   1.536   4.592   3.236
 1128SOL     OW 6185   0.613   4.566   3.293
 1128SOL    HW1 6186   0.669   4.647   3.276
 1128SOL    HW2 6187   0.672   4.486   3.296
 1129SOL     OW 6188   0.716   4.289   3.570
 1129SOL    HW1 6189   0.735   4.354   3.644
 1129SOL    HW2 6190   0.776   4.209   3.579
 1130SOL     OW 6191   1.674   4.607   3.116
 1130SOL    HW1 6192   1.647   4.518   3.079
 1130SOL    HW2 6193   1.675   4.675   3.043
 1131SOL     OW 6194   0.594   4.469   2.514
 1131SOL    HW1 6195   0.644   4.554   2.495
 1131SOL    HW2 6196   0.506   4.471   2.466
 1132SOL     OW 6197   1.730   4.658   3.379
 1132SOL    HW1 6198   1.768   4.749   3.394
 1132SOL    HW2 6199   1.722   4.641   3.280
 1133SOL     OW 6200   0.859   4.680   2.723
 1133SOL    HW1 6201   0.913   4.611   2.771
 1133SOL    HW2 6202   0.827   4.749   2.789
 1134SOL     OW 6203   1.083   4.708   1.949
 1134SOL    HW1 6204   1.060   4.761   1.867
 1134SOL    HW2 6205   1.164   4.652   1.930
 1135SOL     OW 6206   0.079   4.964   2.515
 1135SOL    HW1 6207   0.078   4.917   2.603
 1135SOL    HW2 6208   0.161   4.936   2.464
 1136SOL     OW 6209   1.824   3.916   3.089
 1136SOL    HW1 6210   1.820   3.826   3.133
 1136SOL    HW2 6211   1.827   3.905   2.990
 1137SOL     OW 6212   0.428   4.148   2.382
 1137SOL    HW1 6213   0.458   4.076   2.320
 1137SOL    HW2 6214   0.389   4.108   2.465
 1138SOL     OW 6215   0.317   4.271   3.142
 1138SOL    HW1 6216   0.355   4.212   3.214
 1138SOL    HW2 6217   0.357   4.245   3.054
 1139SOL     OW 6218   1.001   3.758   3.016
 1139SOL    HW1 6219   0.938   3.686   2.985
 1139SOL    HW2 6220   1.094   3.722   3.016
 1140SOL     OW 6221   0.770   5.054   2.163
 1140SOL    HW1 6222   0.724   4.967   2.180
 1140SOL    HW2 6223   0.861   5.051   2.204
 1141SOL     OW 6224   1.352   3.776   2.030
 1141SOL    HW1 6225   1.387   3.735   1.946
 1141SOL    HW2 6226   1.262   3.738   2.050
 1142SOL     OW 6227   1.300   4.177   2.553
 1142SOL    HW1 6228   1.241   4.257   2.557
 1142SOL    HW2 6229   1.315   4.142   2.646
 1143SOL     OW 6230   1.593   3.945   2.744
 1143SOL    HW1 6231   1.509   3.944   2.798
 1143SOL    HW2 6232   1.595   4.028   2.688
 1144SOL     OW 6233   0.039   4.801   2.162
 1144SOL    HW1 6234   0.138   4.790   2.153
 1144SOL    HW2 6235  -0.001   4.715   2.194
 1145SOL     OW 6236   0.230   4.352   3.837
 1145SOL    HW1 6237   0.137   4.350   3.874
 1145SOL    HW2 6238   0.231   4.313   3.745
 1146SOL     OW 6239   0.225   3.999   4.720
 1146SOL    HW1 6240   0.260   3.982   4.812
 1146SOL    HW2 6241   0.137   3.954   4.708
 1147SOL     OW 6242   0.019   4.092   4.371
 1147SOL    HW1 6243  -0.063   4.135   4.410
 1147SOL    HW2 6244  -0.009   4.019   4.308
 1148SOL     OW 6245   0.569   4.999   4.889
 1148SOL    HW1 6246   0.476   4.992   4.852
 1148SOL    HW2 6247   0.580   5.088   4.933
 1149SOL     OW 6248   1.555   5.235   4.427
 1149SOL    HW1 6249   1.498   5.219   4.508
 1149SOL    HW2 6250   1.496   5.245   4.347
 1150SOL     OW 6251   0.768   4.868   4.747
 1150SOL    HW1 6252   0.690   4.885   4.807
 1150SOL    HW2 6253   0.802   4.955   4.711
 1151SOL     OW 6254   0.685   4.736   4.389
 1151SOL    HW1 6255   0.754   4.720   4.459
 1151SOL    HW2 6256   0.612   4.793   4.427
 1152SOL     OW 6257   0.335   5.159   4.785
 1152SOL    HW1 6258   0.257   5.128   4.732
 1152SOL    HW2 6259   0.393   5.217   4.728
 1153SOL     OW 6260   1.603   4.171   4.461
 1153SOL    HW1 6261   1.529   4.217   4.411
 1153SOL    HW2 6262   1.654   4.239   4.514
 1154SOL     OW 6263   0.606   4.688   3.847
 1154SOL    HW1 6264   0.613   4.772   3.793
 1154SOL    HW2 6265   0.652   4.701   3.935
 1155SOL     OW 6266   0.122   4.367   4.287
 1155SOL    HW1 6267   0.077   4.279   4.304
 1155SOL    HW2 6268   0.121   4.421   4.371
 1156SOL     OW 6269   0.809   3.728   4.226
 1156SOL    HW1 6270   0.849   3.819   4.217
 1156SOL    HW2 6271   0.709   3.736   4.232
 1157SOL     OW 6272   1.525   4.723   3.914
 1157SOL    HW1 6273   1.462   4.647   3.927
 1157SOL    HW2 6274   1.573   4.741   4.000
 1158SOL     OW 6275   1.466   5.141   4.677
 1158SOL    HW1 6276   1.407   5.147   4.757
 1158SOL    HW2 6277   1.451   5.053   4.631
 1159SOL     OW 6278   0.598   4.453   3.994
 1159SOL    HW1 6279   0.622   4.522   3.926
 1159SOL    HW2 6280   0.520   4.486   4.048
 1160SOL     OW 6281   1.281   4.069   4.668
 1160SOL    HW1 6282   1.195   4.019   4.655
 1160SOL    HW2 6283   1.343   4.015   4.724
 1161SOL     OW 6284   0.991   4.134   4.966
 1161SOL    HW1 6285   0.914   4.168   5.020
 1161SOL    HW2 6286   0.957   4.083   4.887
 1162SOL     OW 6287   1.041   4.425   4.153
 1162SOL    HW1 6288   1.067   4.421   4.249
 1162SOL    HW2 6289   0.956   4.374   4.139
 1163SOL     OW 6290   0.076   4.535   4.513
 1163SOL    HW1 6291   0.175   4.523   4.522
 1163SOL    HW2 6292   0.052   4.630   4.534
 1164SOL     OW 6293   0.865   4.072   3.919
 1164SOL    HW1 6294   0.924   4.135   3.870
 1164SOL    HW2 6295   0.884   3.978   3.890
 1165SOL     OW 6296   1.362   4.868   4.269
 1165SOL    HW1 6297   1.445   4.839   4.221
 1165SOL    HW2 6298   1.313   4.935   4.213
 1166SOL     OW 6299   0.550   3.920   4.609
 1166SOL    HW1 6300   0.545   3.915   4.709
 1166SOL    HW2 6301   0.552   4.016   4.580
 1167SOL     OW 6302   0.321   4.667   3.966
 1167SOL    HW1 6303   0.403   4.706   3.924
 1167SOL    HW2 6304   0.294   4.585   3.917
 1168SOL     OW 6305   0.382   4.424   4.204
 1168SOL    HW1 6306   0.427   4.334   4.201
 1168SOL    HW2 6307   0.288   4.413   4.237
 1169SOL     OW 6308   0.803   5.126   4.648
 1169SOL    HW1 6309   0.893   5.140   4.606
 1169SOL    HW2 6310   0.732   5.128   4.577
 1170SOL     OW 6311   0.922   4.227   4.623
 1170SOL    HW1 6312   0.897   4.218   4.527
 1170SOL    HW2 6313   0.970   4.145   4.654
 1171SOL     OW 6314   0.539   3.788   4.236
 1171SOL    HW1 6315   0.458   3.789   4.294
 1171SOL    HW2 6316   0.542   3.871   4.181
 1172SOL     OW 6317   1.434   4.912   3.765
 1172SOL    HW1 6318   1.466   4.836   3.822
 1172SOL    HW2 6319   1.342   4.939   3.795
 1173SOL     OW 6320   0.935   3.960   4.204
 1173SOL    HW1 6321   0.887   4.001   4.126
 1173SOL    HW2 6322   1.034   3.958   4.185
 1174SOL     OW 6323   1.227   5.294   4.517
 1174SOL    HW1 6324   1.248   5.368   4.452
 1174SOL    HW2 6325   1.295   5.294   4.590
 1175SOL     OW 6326   1.032   4.273   3.740
 1175SOL    HW1 6327   0.991   4.355   3.701
 1175SOL    HW2 6328   1.096   4.299   3.813
 1176SOL     OW 6329   0.561   3.946   4.871
 1176SOL    HW1 6330   0.599   3.862   4.908
 1176SOL    HW2 6331   0.473   3.965   4.915
 1177SOL     OW 6332   0.866   4.178   4.366
 1177SOL    HW1 6333   0.834   4.250   4.304
 1177SOL    HW2 6334   0.890   4.097   4.313
 1178SOL     OW 6335   1.017   3.763   4.477
 1178SOL    HW1 6336   0.945   3.768   4.408
 1178SOL    HW2 6337   0.993   3.694   4.546
 1179SOL     OW 6338   1.429   4.897   4.591
 1179SOL    HW1 6339   1.374   4.813   4.584
 1179SOL    HW2 6340   1.455   4.926   4.499
 1180SOL     OW 6341   1.857   4.557   4.101
 1180SOL    HW1 6342   1.899   4.493   4.165
 1180SOL    HW2 6343   1.819   4.506   4.023
 1181SOL     OW 6344   1.390   4.299   3.802
 1181SOL    HW1 6345   1.336   4.278   3.883
 1181SOL    HW2 6346   1.481   4.258   3.811
 1182SOL     OW 6347   0.705   4.774   4.092
 1182SOL    HW1 6348   0.691   4.781   4.191
 1182SOL    HW2 6349   0.789   4.723   4.074
 1183SOL     OW 6350   0.410   4.537   4.975
 1183SOL    HW1 6351   0.496   4.549   5.025
 1183SOL    HW2 6352   0.368   4.450   5.002
 1184SOL     OW 6353   0.367   4.824   4.225
 1184SOL    HW1 6354   0.360   4.907   4.169
 1184SOL    HW2 6355   0.371   4.744   4.165
 1185SOL     OW 6356   0.566   4.261   4.589
 1185SOL    HW1 6357   0.578   4.327   4.515
 1185SOL    HW2 6358   0.612   4.295   4.672
 1186SOL     OW 6359   1.582   4.363   4.196
 1186SOL    HW1 6360   1.551   4.424   4.269
 1186SOL    HW2 6361   1.632   4.415   4.127
 1187SOL     OW 6362   1.209   4.249   3.999
 1187SOL    HW1 6363   1.222   4.165   4.053
 1187SOL    HW2 6364   1.180   4.323   4.059
 1188SOL     OW 6365   0.307   3.937   4.955
 1188SOL    HW1 6366   0.284   3.974   5.045
 1188SOL    HW2 6367   0.277   3.842   4.949
 1189SOL     OW 6368   0.732   4.358   4.788
 1189SOL    HW1 6369   0.791   4.332   4.712
 1189SOL    HW2 6370   0.704   4.454   4.777
 1190SOL     OW 6371   0.307   3.787   4.342
 1190SOL    HW1 6372   0.296   3.881   4.375
 1190SOL    HW2 6373   0.302   3.724   4.419
 1191SOL     OW 6374   1.023   4.490   4.690
 1191SOL    HW1 6375   1.038   4.511   4.786
 1191SOL    HW2 6376   0.993   4.395   4.681
 1192SOL     OW 6377   1.303   4.562   3.766
 1192SOL    HW1 6378   1.337   4.469   3.781
 1192SOL    HW2 6379   1.321   4.589   3.671
 1193SOL     OW 6380   0.319   4.534   4.673
 1193SOL    HW1 6381   0.412   4.570   4.678
 1193SOL    HW2 6382   0.313   4.449   4.725
 1194SOL     OW 6383   0.339   4.233   4.730
 1194SOL    HW1 6384   0.287   4.150   4.713
 1194SOL    HW2 6385   0.416   4.238   4.666
 1195SOL     OW 6386   1.160   3.931   5.201
 1195SOL    HW1 6387   1.160   3.995   5.278
 1195SOL    HW2 6388   1.188   3.979   5.118
 1196SOL     OW 6389   0.008   5.050   3.924
 1196SOL    HW1 6390  -0.085   5.071   3.893
 1196SOL    HW2 6391   0.018   4.951   3.937
 1197SOL     OW 6392   1.002   4.520   4.962
 1197SOL    HW1 6393   1.043   4.488   5.048
 1197SOL    HW2 6394   0.906   4.493   4.959
 1198SOL     OW 6395   0.040   4.268   4.838
 1198SOL    HW1 6396   0.125   4.235   4.797
 1198SOL    HW2 6397   0.053   4.283   4.936
 1199SOL     OW 6398   0.815   4.296   4.049
 1199SOL    HW1 6399   0.822   4.207   4.003
 1199SOL    HW2 6400   0.721   4.330   4.041
 1200SOL     OW 6401   0.671   4.188   4.993
 1200SOL    HW1 6402   0.637   4.099   4.963
 1200SOL    HW2 6403   0.697   4.242   4.913
 1201SOL     OW 6404   1.302   4.579   4.033
 1201SOL    HW1 6405   1.216   4.548   4.075
 1201SOL    HW2 6406   1.298   4.565   3.934
 1202SOL     OW 6407   1.841   3.899   4.687
 1202SOL    HW1 6408   1.880   3.814   4.651
 1202SOL    HW2 6409   1.743   3.901   4.668
 1203SOL     OW 6410   0.263   4.050   4.444
 1203SOL    HW1 6411   0.184   4.101   4.410
 1203SOL    HW2 6412   0.254   4.035   4.542
 1204SOL     OW 6413   1.194   5.336   3.755
 1204SOL    HW1 6414   1.200   5.243   3.792
 1204SOL    HW2 6415   1.135   5.336   3.675
 1205SOL     OW 6416   0.822   4.726   5.096
 1205SOL    HW1 6417   0.862   4.725   5.004
 1205SOL    HW2 6418   0.832   4.818   5.136
 1206SOL     OW 6419   0.916   4.634   4.015
 1206SOL    HW1 6420   0.979   4.672   3.947
 1206SOL    HW2 6421   0.956   4.551   4.054
 1207SOL     OW 6422   1.039   4.822   4.420
 1207SOL    HW1 6423   0.969   4.775   4.474
 1207SOL    HW2 6424   1.098   4.754   4.377
 1208SOL     OW 6425   1.014   3.960   4.695
 1208SOL    HW1 6426   1.006   3.924   4.602
 1208SOL    HW2 6427   1.012   3.884   4.760
 1209SOL     OW 6428   0.075   4.069   3.757
 1209SOL    HW1 6429  -0.017   4.041   3.728
 1209SOL    HW2 6430   0.106   4.146   3.701
 1210SOL     OW 6431   1.450   4.944   5.357
 1210SOL    HW1 6432   1.441   4.934   5.456
 1210SOL    HW2 6433   1.546   4.937   5.331
 1211SOL     OW 6434   1.225   4.049   4.173
 1211SOL    HW1 6435   1.290   3.975   4.162
 1211SOL    HW2 6436   1.245   4.099   4.257
 1212SOL     OW 6437   0.594   4.469   4.376
 1212SOL    HW1 6438   0.644   4.554   4.357
 1212SOL    HW2 6439   0.506   4.471   4.328
 1213SOL     OW 6440   0.859   4.680   4.585
 1213SOL    HW1 6441   0.913   4.611   4.633
 1213SOL    HW2 6442   0.827   4.749   4.651
 1214SOL     OW 6443   1.083   4.708   3.811
 1214SOL    HW1 6444   1.060   4.761   3.729
 1214SOL    HW2 6445   1.164   4.652   3.792
 1215SOL     OW 6446   1.824   3.916   4.951
 1215SOL    HW1 6447   1.820   3.826   4.995
 1215SOL    HW2 6448   1.827   3.905   4.852
 1216SOL     OW 6449   0.428   4.148   4.244
 1216SOL    HW1 6450   0.458   4.076   4.182
 1216SOL    HW2 6451   0.389   4.108   4.327
 1217SOL     OW 6452   1.424   3.938   4.836
 1217SOL    HW1 6453   1.476   3.873   4.891
 1217SOL    HW2 6454   1.375   4.001   4.897
 1218SOL     OW 6455   1.001   3.758   4.878
 1218SOL    HW1 6456   0.938   3.686   4.847
 1218SOL    HW2 6457   1.094   3.722   4.878
 1219SOL     OW 6458   0.770   5.054   4.025
 1219SOL    HW1 6459   0.724   4.967   4.042
 1219SOL    HW2 6460   0.861   5.051   4.066
 1220SOL     OW 6461   1.300   4.177   4.415
 1220SOL    HW1 6462   1.241   4.257   4.419
 1220SOL    HW2 6463   1.315   4.142   4.508
 1221SOL     OW 6464   1.593   3.945   4.606
 1221SOL    HW1 6465   1.509   3.944   4.660
 1221SOL    HW2 6466   1.595   4.028   4.550
 1222SOL     OW 6467   2.092   0.628   0.113
 1222SOL    HW1 6468   1.999   0.626   0.150
 1222SOL    HW2 6469   2.093   0.589   0.021
 1223SOL     OW 6470   2.087   0.275   0.996
 1223SOL    HW1 6471   2.122   0.258   1.088
 1223SOL    HW2 6472   1.999   0.230   0.984
 1224SOL     OW 6473   1.881   0.368   0.647
 1224SOL    HW1 6474   1.799   0.411   0.686
 1224SOL    HW2 6475   1.853   0.295   0.584
 1225SOL     OW 6476   2.431   1.275   1.165
 1225SOL    HW1 6477   2.338   1.268   1.128
 1225SOL    HW2 6478   2.442   1.364   1.209
 1226SOL     OW 6479   3.417   1.511   0.703
 1226SOL    HW1 6480   3.360   1.495   0.784
 1226SOL    HW2 6481   3.358   1.521   0.623
 1227SOL     OW 6482   3.617   0.607   0.231
 1227SOL    HW1 6483   3.605   0.594   0.132
 1227SOL    HW2 6484   3.587   0.526   0.280
 1228SOL     OW 6485   2.630   1.144   1.023
 1228SOL    HW1 6486   2.552   1.161   1.083
 1228SOL    HW2 6487   2.664   1.231   0.987
 1229SOL     OW 6488   2.547   1.012   0.665
 1229SOL    HW1 6489   2.616   0.996   0.735
 1229SOL    HW2 6490   2.474   1.069   0.703
 1230SOL     OW 6491   2.548   1.161   1.803
 1230SOL    HW1 6492   2.608   1.240   1.817
 1230SOL    HW2 6493   2.462   1.192   1.762
 1231SOL     OW 6494   2.197   1.435   1.061
 1231SOL    HW1 6495   2.119   1.404   1.008
 1231SOL    HW2 6496   2.255   1.493   1.004
 1232SOL     OW 6497   3.322   1.505   1.339
 1232SOL    HW1 6498   3.346   1.599   1.365
 1232SOL    HW2 6499   3.306   1.451   1.421
 1233SOL     OW 6500   2.300   0.392   1.499
 1233SOL    HW1 6501   2.382   0.336   1.508
 1233SOL    HW2 6502   2.219   0.334   1.503
 1234SOL     OW 6503   2.989   1.341   1.690
 1234SOL    HW1 6504   3.036   1.341   1.778
 1234SOL    HW2 6505   2.941   1.254   1.679
 1235SOL     OW 6506   2.482   1.786   1.439
 1235SOL    HW1 6507   2.390   1.769   1.474
 1235SOL    HW2 6508   2.510   1.878   1.465
 1236SOL     OW 6509   2.468   0.964   0.123
 1236SOL    HW1 6510   2.475   1.048   0.069
 1236SOL    HW2 6511   2.514   0.977   0.211
 1237SOL     OW 6512   1.984   0.643   0.563
 1237SOL    HW1 6513   1.939   0.555   0.580
 1237SOL    HW2 6514   1.983   0.697   0.647
 1238SOL     OW 6515   3.704   1.767   0.359
 1238SOL    HW1 6516   3.758   1.738   0.439
 1238SOL    HW2 6517   3.734   1.857   0.330
 1239SOL     OW 6518   1.889   1.596   0.117
 1239SOL    HW1 6519   1.870   1.500   0.138
 1239SOL    HW2 6520   1.856   1.654   0.192
 1240SOL     OW 6521   3.503   1.108   0.432
 1240SOL    HW1 6522   3.589   1.110   0.380
 1240SOL    HW2 6523   3.517   1.155   0.520
 1241SOL     OW 6524   2.475   1.365   0.726
 1241SOL    HW1 6525   2.426   1.278   0.735
 1241SOL    HW2 6526   2.452   1.408   0.639
 1242SOL     OW 6527   3.155   1.228   1.423
 1242SOL    HW1 6528   3.192   1.155   1.365
 1242SOL    HW2 6529   3.207   1.233   1.508
 1243SOL     OW 6530   3.049   1.792   1.616
 1243SOL    HW1 6531   3.073   1.852   1.540
 1243SOL    HW2 6532   3.056   1.697   1.586
 1244SOL     OW 6533   2.179   0.251   1.801
 1244SOL    HW1 6534   2.250   0.322   1.807
 1244SOL    HW2 6535   2.091   0.290   1.829
 1245SOL     OW 6536   3.328   1.417   0.953
 1245SOL    HW1 6537   3.269   1.423   1.033
 1245SOL    HW2 6538   3.313   1.329   0.907
 1246SOL     OW 6539   3.529   1.714   0.572
 1246SOL    HW1 6540   3.488   1.691   0.484
 1246SOL    HW2 6541   3.511   1.640   0.637
 1247SOL     OW 6542   2.460   0.729   0.270
 1247SOL    HW1 6543   2.484   0.798   0.202
 1247SOL    HW2 6544   2.382   0.762   0.324
 1248SOL     OW 6545   3.143   0.345   0.944
 1248SOL    HW1 6546   3.057   0.295   0.931
 1248SOL    HW2 6547   3.205   0.291   1.000
 1249SOL     OW 6548   3.256   0.469   1.674
 1249SOL    HW1 6549   3.236   0.512   1.762
 1249SOL    HW2 6550   3.334   0.407   1.683
 1250SOL     OW 6551   2.835   0.890   1.572
 1250SOL    HW1 6552   2.881   0.806   1.543
 1250SOL    HW2 6553   2.779   0.924   1.497
 1251SOL     OW 6554   2.727   0.348   0.195
 1251SOL    HW1 6555   2.786   0.411   0.146
 1251SOL    HW2 6556   2.746   0.254   0.166
 1252SOL     OW 6557   3.581   0.585   1.831
 1252SOL    HW1 6558   3.555   0.674   1.795
 1252SOL    HW2 6559   3.579   0.517   1.758
 1253SOL     OW 6560   2.412   0.196   0.885
 1253SOL    HW1 6561   2.407   0.191   0.985
 1253SOL    HW2 6562   2.414   0.292   0.856
 1254SOL     OW 6563   2.870   1.456   0.477
 1254SOL    HW1 6564   2.824   1.528   0.425
 1254SOL    HW2 6565   2.866   1.476   0.575
 1255SOL     OW 6566   2.213   1.801   0.853
 1255SOL    HW1 6567   2.263   1.715   0.859
 1255SOL    HW2 6568   2.278   1.878   0.850
 1256SOL     OW 6569   3.089   1.550   1.506
 1256SOL    HW1 6570   3.095   1.473   1.570
 1256SOL    HW2 6571   3.037   1.524   1.426
 1257SOL     OW 6572   2.183   0.943   0.242
 1257SOL    HW1 6573   2.265   0.982   0.200
 1257SOL    HW2 6574   2.156   0.861   0.193
 1258SOL     OW 6575   2.323   1.266   1.727
 1258SOL    HW1 6576   2.273   1.267   1.641
 1258SOL    HW2 6577   2.260   1.248   1.803
 1259SOL     OW 6578   2.973   1.776   0.237
 1259SOL    HW1 6579   2.913   1.714   0.287
 1259SOL    HW2 6580   3.004   1.732   0.152
 1260SOL     OW 6581   2.064   0.285   1.498
 1260SOL    HW1 6582   1.984   0.345   1.485
 1260SOL    HW2 6583   2.054   0.236   1.584
 1261SOL     OW 6584   2.326   1.743   0.323
 1261SOL    HW1 6585   2.359   1.782   0.409
 1261SOL    HW2 6586   2.402   1.736   0.258
 1262SOL     OW 6587   3.262   0.107   0.426
 1262SOL    HW1 6588   3.238   0.070   0.336
 1262SOL    HW2 6589   3.361   0.123   0.430
 1263SOL     OW 6590   2.111   1.785   1.241
 1263SOL    HW1 6591   2.168   1.720   1.291
 1263SOL    HW2 6592   2.095   1.752   1.148
 1264SOL     OW 6593   2.802   1.698   0.904
 1264SOL    HW1 6594   2.882   1.641   0.925
 1264SOL    HW2 6595   2.753   1.658   0.827
 1265SOL     OW 6596   2.244   0.700   0.480
 1265SOL    HW1 6597   2.289   0.610   0.477
 1265SOL    HW2 6598   2.150   0.689   0.513
 1266SOL     OW 6599   2.643   0.264   1.749
 1266SOL    HW1 6600   2.710   0.203   1.792
 1266SOL    HW2 6601   2.570   0.283   1.814
 1267SOL     OW 6602   2.750   1.514   1.195
 1267SOL    HW1 6603   2.727   1.489   1.101
 1267SOL    HW2 6604   2.811   1.445   1.234
 1268SOL     OW 6605   2.665   1.402   0.924
 1268SOL    HW1 6606   2.755   1.416   0.882
 1268SOL    HW2 6607   2.594   1.404   0.853
 1269SOL     OW 6608   2.784   0.503   0.899
 1269SOL    HW1 6609   2.759   0.494   0.803
 1269SOL    HW2 6610   2.832   0.421   0.930
 1270SOL     OW 6611   2.401   0.064   0.512
 1270SOL    HW1 6612   2.320   0.065   0.570
 1270SOL    HW2 6613   2.404   0.147   0.457
 1271SOL     OW 6614   2.797   0.236   0.480
 1271SOL    HW1 6615   2.749   0.277   0.402
 1271SOL    HW2 6616   2.896   0.234   0.461
 1272SOL     OW 6617   3.089   1.570   0.793
 1272SOL    HW1 6618   3.110   1.644   0.728
 1272SOL    HW2 6619   3.157   1.570   0.866
 1273SOL     OW 6620   2.321   1.152   0.741
 1273SOL    HW1 6621   2.250   1.125   0.806
 1273SOL    HW2 6622   2.295   1.124   0.648
 1274SOL     OW 6623   3.133   1.797   0.591
 1274SOL    HW1 6624   3.177   1.861   0.527
 1274SOL    HW2 6625   3.083   1.849   0.661
 1275SOL     OW 6626   2.894   0.549   0.016
 1275SOL    HW1 6627   2.853   0.631  -0.023
 1275SOL    HW2 6628   2.958   0.575   0.089
 1276SOL     OW 6629   1.940   0.556   1.386
 1276SOL    HW1 6630   2.032   0.555   1.345
 1276SOL    HW2 6631   1.934   0.630   1.453
 1277SOL     OW 6632   2.423   0.222   1.147
 1277SOL    HW1 6633   2.461   0.138   1.184
 1277SOL    HW2 6634   2.335   0.241   1.191
 1278SOL     OW 6635   2.728   0.454   0.642
 1278SOL    HW1 6636   2.696   0.526   0.580
 1278SOL    HW2 6637   2.752   0.373   0.589
 1279SOL     OW 6638   3.328   0.590   0.992
 1279SOL    HW1 6639   3.298   0.495   0.999
 1279SOL    HW2 6640   3.401   0.606   1.058
 1280SOL     OW 6641   2.350   1.385   0.174
 1280SOL    HW1 6642   2.263   1.370   0.221
 1280SOL    HW2 6643   2.333   1.411   0.079
 1281SOL     OW 6644   3.526   1.280   0.657
 1281SOL    HW1 6645   3.625   1.288   0.671
 1281SOL    HW2 6646   3.481   1.364   0.688
 1282SOL     OW 6647   3.252   0.575   0.078
 1282SOL    HW1 6648   3.198   0.554   0.159
 1282SOL    HW2 6649   3.343   0.534   0.087
 1283SOL     OW 6650   2.389   0.256   0.328
 1283SOL    HW1 6651   2.416   0.197   0.253
 1283SOL    HW2 6652   2.389   0.351   0.297
 1284SOL     OW 6653   2.926   1.347   1.340
 1284SOL    HW1 6654   2.846   1.324   1.395
 1284SOL    HW2 6655   3.009   1.321   1.389
 1285SOL     OW 6656   3.454   1.629   1.625
 1285SOL    HW1 6657   3.481   1.663   1.535
 1285SOL    HW2 6658   3.533   1.591   1.671
 1286SOL     OW 6659   2.973   1.195   1.100
 1286SOL    HW1 6660   2.933   1.239   1.181
 1286SOL    HW2 6661   2.932   1.232   1.017
 1287SOL     OW 6662   2.842   1.116   1.719
 1287SOL    HW1 6663   2.743   1.122   1.729
 1287SOL    HW2 6664   2.865   1.036   1.663
 1288SOL     OW 6665   2.567   1.050   0.368
 1288SOL    HW1 6666   2.553   1.057   0.467
 1288SOL    HW2 6667   2.651   0.999   0.350
 1289SOL     OW 6668   2.229   1.100   0.501
 1289SOL    HW1 6669   2.222   1.183   0.445
 1289SOL    HW2 6670   2.233   1.020   0.441
 1290SOL     OW 6671   3.134   1.445   1.142
 1290SOL    HW1 6672   3.181   1.458   1.229
 1290SOL    HW2 6673   3.068   1.371   1.151
 1291SOL     OW 6674   2.216   1.510   1.329
 1291SOL    HW1 6675   2.195   1.466   1.242
 1291SOL    HW2 6676   2.313   1.536   1.332
 1292SOL     OW 6677   2.169   0.213   1.231
 1292SOL    HW1 6678   2.146   0.250   1.321
 1292SOL    HW2 6679   2.139   0.118   1.225
 1293SOL     OW 6680   2.169   0.063   0.618
 1293SOL    HW1 6681   2.158   0.157   0.651
 1293SOL    HW2 6682   2.164   0.000   0.695
 1294SOL     OW 6683   3.484   0.367   0.374
 1294SOL    HW1 6684   3.486   0.291   0.438
 1294SOL    HW2 6685   3.436   0.444   0.414
 1295SOL     OW 6686   2.842   1.573   1.700
 1295SOL    HW1 6687   2.822   1.617   1.612
 1295SOL    HW2 6688   2.881   1.482   1.684
 1296SOL     OW 6689   3.721   1.518   1.605
 1296SOL    HW1 6690   3.735   1.545   1.510
 1296SOL    HW2 6691   3.804   1.540   1.658
 1297SOL     OW 6692   2.212   0.898   1.804
 1297SOL    HW1 6693   2.288   0.942   1.852
 1297SOL    HW2 6694   2.247   0.851   1.722
 1298SOL     OW 6695   3.402   0.274   0.125
 1298SOL    HW1 6696   3.341   0.199   0.148
 1298SOL    HW2 6697   3.424   0.326   0.208
 1299SOL     OW 6698   2.201   0.509   1.006
 1299SOL    HW1 6699   2.149   0.426   0.989
 1299SOL    HW2 6700   2.278   0.514   0.942
 1300SOL     OW 6701   2.366   1.568   0.910
 1300SOL    HW1 6702   2.432   1.642   0.919
 1300SOL    HW2 6703   2.410   1.489   0.868
 1301SOL     OW 6704   2.051   0.520   1.722
 1301SOL    HW1 6705   2.110   0.480   1.652
 1301SOL    HW2 6706   1.993   0.591   1.681
 1302SOL     OW 6707   2.677   0.572   0.325
 1302SOL    HW1 6708   2.684   0.483   0.279
 1302SOL    HW2 6709   2.583   0.606   0.317
 1303SOL     OW 6710   3.519   0.604   1.206
 1303SOL    HW1 6711   3.481   0.535   1.268
 1303SOL    HW2 6712   3.601   0.568   1.162
 1304SOL     OW 6713   2.114   1.564   1.744
 1304SOL    HW1 6714   2.084   1.621   1.820
 1304SOL    HW2 6715   2.107   1.467   1.770
 1305SOL     OW 6716   2.792   1.678   1.465
 1305SOL    HW1 6717   2.768   1.660   1.370
 1305SOL    HW2 6718   2.822   1.772   1.475
 1306SOL     OW 6719   2.335   0.500   0.191
 1306SOL    HW1 6720   2.396   0.580   0.195
 1306SOL    HW2 6721   2.240   0.531   0.198
 1307SOL     OW 6722   3.209   1.059   1.234
 1307SOL    HW1 6723   3.233   0.996   1.160
 1307SOL    HW2 6724   3.119   1.099   1.216
 1308SOL     OW 6725   3.621   1.747   1.154
 1308SOL    HW1 6726   3.682   1.777   1.081
 1308SOL    HW2 6727   3.583   1.658   1.132
 1309SOL     OW 6728   3.114   1.731   1.128
 1309SOL    HW1 6729   3.198   1.736   1.074
 1309SOL    HW2 6730   3.091   1.635   1.146
 1310SOL     OW 6731   1.945   1.258   1.022
 1310SOL    HW1 6732   1.940   1.257   1.122
 1310SOL    HW2 6733   1.862   1.217   0.984
 1311SOL     OW 6734   2.550   1.662   1.716
 1311SOL    HW1 6735   2.494   1.743   1.725
 1311SOL    HW2 6736   2.602   1.666   1.630
 1312SOL     OW 6737   2.765   0.086   0.133
 1312SOL    HW1 6738   2.816   0.087   0.047
 1312SOL    HW2 6739   2.821   0.044   0.204
 1313SOL     OW 6740   3.250   1.573   0.477
 1313SOL    HW1 6741   3.317   1.585   0.403
 1313SOL    HW2 6742   3.210   1.662   0.500
 1314SOL     OW 6743   2.692   1.273   1.422
 1314SOL    HW1 6744   2.687   1.306   1.517
 1314SOL    HW2 6745   2.606   1.292   1.376
 1315SOL     OW 6746   3.512   1.720   1.394
 1315SOL    HW1 6747   3.565   1.730   1.310
 1315SOL    HW2 6748   3.485   1.810   1.428
 1316SOL     OW 6749   3.703   0.175   0.963
 1316SOL    HW1 6750   3.742   0.090   0.927
 1316SOL    HW2 6751   3.605   0.177   0.944
 1317SOL     OW 6752   2.125   0.326   0.720
 1317SOL    HW1 6753   2.046   0.377   0.686
 1317SOL    HW2 6754   2.116   0.311   0.818
 1318SOL     OW 6755   2.684   1.002   1.372
 1318SOL    HW1 6756   2.724   1.001   1.280
 1318SOL    HW2 6757   2.694   1.094   1.412
 1319SOL     OW 6758   2.778   0.910   0.291
 1319SOL    HW1 6759   2.841   0.948   0.223
 1319SOL    HW2 6760   2.818   0.827   0.330
 1320SOL     OW 6761   2.234   1.288   1.490
 1320SOL    HW1 6762   2.221   1.381   1.456
 1320SOL    HW2 6763   2.150   1.236   1.477
 1321SOL     OW 6764   2.876   0.236   0.971
 1321SOL    HW1 6765   2.868   0.200   0.878
 1321SOL    HW2 6766   2.874   0.160   1.036
 1322SOL     OW 6767   2.452   1.487   0.491
 1322SOL    HW1 6768   2.494   1.429   0.421
 1322SOL    HW2 6769   2.408   1.566   0.447
 1323SOL     OW 6770   3.571   0.385   1.381
 1323SOL    HW1 6771   3.644   0.454   1.385
 1323SOL    HW2 6772   3.599   0.310   1.322
 1324SOL     OW 6773   2.534   0.203   1.489
 1324SOL    HW1 6774   2.624   0.187   1.449
 1324SOL    HW2 6775   2.542   0.208   1.588
 1325SOL     OW 6776   3.302   0.856   1.398
 1325SOL    HW1 6777   3.245   0.908   1.335
 1325SOL    HW2 6778   3.398   0.868   1.374
 1326SOL     OW 6779   1.934   0.166   0.318
 1326SOL    HW1 6780   1.917   0.249   0.264
 1326SOL    HW2 6781   2.024   0.129   0.296
 1327SOL     OW 6782   3.355   1.767   0.959
 1327SOL    HW1 6783   3.388   1.831   0.890
 1327SOL    HW2 6784   3.421   1.761   1.034
 1328SOL     OW 6785   3.312   1.220   1.633
 1328SOL    HW1 6786   3.303   1.210   1.732
 1328SOL    HW2 6787   3.408   1.213   1.607
 1329SOL     OW 6788   2.252   1.741   1.560
 1329SOL    HW1 6789   2.161   1.782   1.558
 1329SOL    HW2 6790   2.245   1.647   1.592
 1330SOL     OW 6791   3.536   0.883   1.254
 1330SOL    HW1 6792   3.509   0.794   1.217
 1330SOL    HW2 6793   3.537   0.951   1.181
 1331SOL     OW 6794   3.087   0.325   0.449
 1331SOL    HW1 6795   3.152   0.251   0.438
 1331SOL    HW2 6796   3.107   0.375   0.533
 1332SOL     OW 6797   2.456   0.745   0.652
 1332SOL    HW1 6798   2.506   0.830   0.633
 1332SOL    HW2 6799   2.368   0.747   0.604
 1333SOL     OW 6800   3.639   0.342   1.642
 1333SOL    HW1 6801   3.622   0.373   1.548
 1333SOL    HW2 6802   3.555   0.305   1.680
 1334SOL     OW 6803   2.721   1.374   0.016
 1334SOL    HW1 6804   2.675   1.389   0.104
 1334SOL    HW2 6805   2.765   1.459  -0.014
 1335SOL     OW 6806   2.523   1.790   0.953
 1335SOL    HW1 6807   2.477   1.878   0.940
 1335SOL    HW2 6808   2.622   1.802   0.946
 1336SOL     OW 6809   2.721   0.956   0.861
 1336SOL    HW1 6810   2.775   0.887   0.909
 1336SOL    HW2 6811   2.689   1.025   0.927
 1337SOL     OW 6812   2.945   0.984   0.087
 1337SOL    HW1 6813   2.922   1.037   0.005
 1337SOL    HW2 6814   3.026   0.928   0.068
 1338SOL     OW 6815   3.723   1.569   0.851
 1338SOL    HW1 6816   3.652   1.557   0.781
 1338SOL    HW2 6817   3.724   1.490   0.911
 1339SOL     OW 6818   2.083   1.314   1.844
 1339SOL    HW1 6819   2.018   1.241   1.823
 1339SOL    HW2 6820   2.087   1.328   1.942
 1340SOL     OW 6821   1.941   1.240   0.653
 1340SOL    HW1 6822   1.940   1.193   0.741
 1340SOL    HW2 6823   2.023   1.212   0.602
 1341SOL     OW 6824   2.534   1.391   1.624
 1341SOL    HW1 6825   2.456   1.341   1.662
 1341SOL    HW2 6826   2.531   1.486   1.655
 1342SOL     OW 6827   3.686   0.192   1.227
 1342SOL    HW1 6828   3.682   0.102   1.271
 1342SOL    HW2 6829   3.689   0.181   1.128
 1343SOL     OW 6830   2.290   0.424   0.520
 1343SOL    HW1 6831   2.320   0.352   0.458
 1343SOL    HW2 6832   2.251   0.384   0.603
 1344SOL     OW 6833   3.567   1.487   1.104
 1344SOL    HW1 6834   3.474   1.462   1.077
 1344SOL    HW2 6835   3.593   1.437   1.186
 1345SOL     OW 6836   2.674   1.586   0.687
 1345SOL    HW1 6837   2.706   1.596   0.593
 1345SOL    HW2 6838   2.595   1.524   0.689
 1346SOL     OW 6839   2.863   0.034   1.154
 1346SOL    HW1 6840   2.800  -0.038   1.123
 1346SOL    HW2 6841   2.956  -0.002   1.154
 1347SOL     OW 6842   2.632   1.330   0.301
 1347SOL    HW1 6843   2.586   1.243   0.318
 1347SOL    HW2 6844   2.723   1.327   0.342
 1348SOL     OW 6845   2.480   1.567   1.284
 1348SOL    HW1 6846   2.475   1.649   1.341
 1348SOL    HW2 6847   2.569   1.564   1.239
 1349SOL     OW 6848   3.214   0.052   0.168
 1349SOL    HW1 6849   3.249   0.011   0.084
 1349SOL    HW2 6850   3.124   0.014   0.188
 1350SOL     OW 6851   3.162   0.453   0.691
 1350SOL    HW1 6852   3.103   0.533   0.695
 1350SOL    HW2 6853   3.177   0.418   0.784
 1351SOL     OW 6854   3.455   0.221   0.882
 1351SOL    HW1 6855   3.371   0.220   0.936
 1351SOL    HW2 6856   3.457   0.304   0.826
 1352SOL     OW 6857   1.901   1.077   0.300
 1352SOL    HW1 6858   2.000   1.066   0.291
 1352SOL    HW2 6859   1.861   0.991   0.332
 1353SOL     OW 6860   2.092   0.628   1.975
 1353SOL    HW1 6861   1.999   0.626   2.012
 1353SOL    HW2 6862   2.093   0.589   1.883
 1354SOL     OW 6863   2.087   0.275   2.858
 1354SOL    HW1 6864   2.122   0.258   2.950
 1354SOL    HW2 6865   1.999   0.230   2.846
 1355SOL     OW 6866   1.881   0.368   2.509
 1355SOL    HW1 6867   1.799   0.411   2.548
 1355SOL    HW2 6868   1.853   0.295   2.446
 1356SOL     OW 6869   2.431   1.275   3.027
 1356SOL    HW1 6870   2.338   1.268   2.990
 1356SOL    HW2 6871   2.442   1.364   3.071
 1357SOL     OW 6872   3.417   1.511   2.565
 1357SOL    HW1 6873   3.360   1.495   2.646
 1357SOL    HW2 6874   3.358   1.521   2.485
 1358SOL     OW 6875   2.997   0.703   2.579
 1358SOL    HW1 6876   3.054   0.781   2.554
 1358SOL    HW2 6877   2.937   0.729   2.655
 1359SOL     OW 6878   2.712   0.798   3.685
 1359SOL    HW1 6879   2.708   0.874   3.750
 1359SOL    HW2 6880   2.734   0.834   3.594
 1360SOL     OW 6881   2.547   1.012   2.527
 1360SOL    HW1 6882   2.616   0.996   2.597
 1360SOL    HW2 6883   2.474   1.069   2.565
 1361SOL     OW 6884   2.548   1.161   3.665
 1361SOL    HW1 6885   2.608   1.240   3.679
 1361SOL    HW2 6886   2.462   1.192   3.624
 1362SOL     OW 6887   2.197   1.435   2.923
 1362SOL    HW1 6888   2.119   1.404   2.870
 1362SOL    HW2 6889   2.255   1.493   2.866
 1363SOL     OW 6890   3.322   1.505   3.201
 1363SOL    HW1 6891   3.346   1.599   3.227
 1363SOL    HW2 6892   3.306   1.451   3.283
 1364SOL     OW 6893   2.300   0.392   3.361
 1364SOL    HW1 6894   2.382   0.336   3.370
 1364SOL    HW2 6895   2.219   0.334   3.365
 1365SOL     OW 6896   3.465   0.447   2.599
 1365SOL    HW1 6897   3.391   0.493   2.549
 1365SOL    HW2 6898   3.516   0.515   2.652
 1366SOL     OW 6899   2.989   1.341   3.552
 1366SOL    HW1 6900   3.036   1.341   3.640
 1366SOL    HW2 6901   2.941   1.254   3.541
 1367SOL     OW 6902   2.482   1.786   3.301
 1367SOL    HW1 6903   2.390   1.769   3.336
 1367SOL    HW2 6904   2.510   1.878   3.327
 1368SOL     OW 6905   2.468   0.964   1.985
 1368SOL    HW1 6906   2.475   1.048   1.931
 1368SOL    HW2 6907   2.514   0.977   2.073
 1369SOL     OW 6908   3.456   0.114   3.342
 1369SOL    HW1 6909   3.438   0.181   3.270
 1369SOL    HW2 6910   3.453   0.160   3.431
 1370SOL     OW 6911   1.975   0.737   3.459
 1370SOL    HW1 6912   2.063   0.724   3.504
 1370SOL    HW2 6913   1.962   0.834   3.437
 1371SOL     OW 6914   2.475   1.365   2.588
 1371SOL    HW1 6915   2.426   1.278   2.597
 1371SOL    HW2 6916   2.452   1.408   2.501
 1372SOL     OW 6917   2.671   0.004   2.364
 1372SOL    HW1 6918   2.711   0.095   2.355
 1372SOL    HW2 6919   2.571   0.012   2.370
 1373SOL     OW 6920   2.059   0.976   3.126
 1373SOL    HW1 6921   2.148   0.931   3.112
 1373SOL    HW2 6922   1.986   0.911   3.107
 1374SOL     OW 6923   3.049   1.792   3.478
 1374SOL    HW1 6924   3.073   1.852   3.402
 1374SOL    HW2 6925   3.056   1.697   3.448
 1375SOL     OW 6926   2.179   0.251   3.663
 1375SOL    HW1 6927   2.250   0.322   3.669
 1375SOL    HW2 6928   2.091   0.290   3.691
 1376SOL     OW 6929   3.328   1.417   2.815
 1376SOL    HW1 6930   3.269   1.423   2.895
 1376SOL    HW2 6931   3.313   1.329   2.769
 1377SOL     OW 6932   2.460   0.729   2.132
 1377SOL    HW1 6933   2.484   0.798   2.064
 1377SOL    HW2 6934   2.382   0.762   2.186
 1378SOL     OW 6935   3.143   0.345   2.806
 1378SOL    HW1 6936   3.057   0.295   2.793
 1378SOL    HW2 6937   3.205   0.291   2.862
 1379SOL     OW 6938   3.438   1.662   2.169
 1379SOL    HW1 6939   3.527   1.708   2.172
 1379SOL    HW2 6940   3.417   1.638   2.074
 1380SOL     OW 6941   2.669   0.605   3.327
 1380SOL    HW1 6942   2.622   0.602   3.416
 1380SOL    HW2 6943   2.618   0.550   3.261
 1381SOL     OW 6944   3.256   0.469   3.536
 1381SOL    HW1 6945   3.236   0.512   3.624
 1381SOL    HW2 6946   3.334   0.407   3.545
 1382SOL     OW 6947   2.835   0.890   3.434
 1382SOL    HW1 6948   2.881   0.806   3.405
 1382SOL    HW2 6949   2.779   0.924   3.359
 1383SOL     OW 6950   2.853   0.410   3.104
 1383SOL    HW1 6951   2.776   0.444   3.158
 1383SOL    HW2 6952   2.819   0.359   3.025
 1384SOL     OW 6953   2.903   0.701   2.291
 1384SOL    HW1 6954   2.929   0.697   2.387
 1384SOL    HW2 6955   2.818   0.650   2.277
 1385SOL     OW 6956   1.992   1.821   3.433
 1385SOL    HW1 6957   1.982   1.806   3.532
 1385SOL    HW2 6958   1.906   1.857   3.397
 1386SOL     OW 6959   2.727   0.348   2.057
 1386SOL    HW1 6960   2.786   0.411   2.008
 1386SOL    HW2 6961   2.746   0.254   2.028
 1387SOL     OW 6962   3.581   0.585   3.693
 1387SOL    HW1 6963   3.555   0.674   3.657
 1387SOL    HW2 6964   3.579   0.517   3.620
 1388SOL     OW 6965   3.224   1.144   2.407
 1388SOL    HW1 6966   3.307   1.115   2.359
 1388SOL    HW2 6967   3.175   1.211   2.351
 1389SOL     OW 6968   2.412   0.196   2.747
 1389SOL    HW1 6969   2.407   0.191   2.847
 1389SOL    HW2 6970   2.414   0.292   2.718
 1390SOL     OW 6971   2.870   1.456   2.339
 1390SOL    HW1 6972   2.824   1.528   2.287
 1390SOL    HW2 6973   2.866   1.476   2.437
 1391SOL     OW 6974   2.213   1.801   2.715
 1391SOL    HW1 6975   2.263   1.715   2.721
 1391SOL    HW2 6976   2.278   1.878   2.712
 1392SOL     OW 6977   3.657   1.066   2.735
 1392SOL    HW1 6978   3.595   1.051   2.659
 1392SOL    HW2 6979   3.605   1.077   2.820
 1393SOL     OW 6980   3.089   1.550   3.368
 1393SOL    HW1 6981   3.095   1.473   3.432
 1393SOL    HW2 6982   3.037   1.524   3.288
 1394SOL     OW 6983   2.183   0.943   2.104
 1394SOL    HW1 6984   2.265   0.982   2.062
 1394SOL    HW2 6985   2.156   0.861   2.055
 1395SOL     OW 6986   3.320   0.735   2.590
 1395SOL    HW1 6987   3.315   0.670   2.665
 1395SOL    HW2 6988   3.400   0.794   2.603
 1396SOL     OW 6989   2.323   1.266   3.589
 1396SOL    HW1 6990   2.273   1.267   3.503
 1396SOL    HW2 6991   2.260   1.248   3.665
 1397SOL     OW 6992   2.064   0.285   3.360
 1397SOL    HW1 6993   1.984   0.345   3.347
 1397SOL    HW2 6994   2.054   0.236   3.446
 1398SOL     OW 6995   2.326   1.743   2.185
 1398SOL    HW1 6996   2.359   1.782   2.271
 1398SOL    HW2 6997   2.402   1.736   2.120
 1399SOL     OW 6998   3.262   0.107   2.288
 1399SOL    HW1 6999   3.238   0.070   2.198
 1399SOL    HW2 7000   3.361   0.123   2.292
 1400SOL     OW 7001   2.111   1.785   3.103
 1400SOL    HW1 7002   2.168   1.720   3.153
 1400SOL    HW2 7003   2.095   1.752   3.010
 1401SOL     OW 7004   2.802   1.698   2.766
 1401SOL    HW1 7005   2.882   1.641   2.787
 1401SOL    HW2 7006   2.753   1.658   2.689
 1402SOL     OW 7007   3.409   0.222   3.591
 1402SOL    HW1 7008   3.404   0.259   3.683
 1402SOL    HW2 7009   3.337   0.153   3.579
 1403SOL     OW 7010   2.643   0.264   3.611
 1403SOL    HW1 7011   2.710   0.203   3.654
 1403SOL    HW2 7012   2.570   0.283   3.676
 1404SOL     OW 7013   2.750   1.514   3.057
 1404SOL    HW1 7014   2.727   1.489   2.963
 1404SOL    HW2 7015   2.811   1.445   3.096
 1405SOL     OW 7016   3.213   0.590   3.295
 1405SOL    HW1 7017   3.241   0.547   3.380
 1405SOL    HW2 7018   3.238   0.686   3.296
 1406SOL     OW 7019   2.665   1.402   2.786
 1406SOL    HW1 7020   2.755   1.416   2.744
 1406SOL    HW2 7021   2.594   1.404   2.715
 1407SOL     OW 7022   2.784   0.503   2.761
 1407SOL    HW1 7023   2.759   0.494   2.665
 1407SOL    HW2 7024   2.832   0.421   2.792
 1408SOL     OW 7025   2.797   0.236   2.342
 1408SOL    HW1 7026   2.749   0.277   2.264
 1408SOL    HW2 7027   2.896   0.234   2.323
 1409SOL     OW 7028   2.938   0.683   3.326
 1409SOL    HW1 7029   2.858   0.622   3.329
 1409SOL    HW2 7030   3.019   0.630   3.302
 1410SOL     OW 7031   3.089   1.570   2.655
 1410SOL    HW1 7032   3.110   1.644   2.590
 1410SOL    HW2 7033   3.157   1.570   2.728
 1411SOL     OW 7034   2.321   1.152   2.603
 1411SOL    HW1 7035   2.250   1.125   2.668
 1411SOL    HW2 7036   2.295   1.124   2.510
 1412SOL     OW 7037   2.728   0.454   2.504
 1412SOL    HW1 7038   2.696   0.526   2.442
 1412SOL    HW2 7039   2.752   0.373   2.451
 1413SOL     OW 7040   3.328   0.590   2.854
 1413SOL    HW1 7041   3.298   0.495   2.861
 1413SOL    HW2 7042   3.401   0.606   2.920
 1414SOL     OW 7043   2.350   1.385   2.036
 1414SOL    HW1 7044   2.263   1.370   2.083
 1414SOL    HW2 7045   2.333   1.411   1.941
 1415SOL     OW 7046   3.526   1.280   2.519
 1415SOL    HW1 7047   3.625   1.288   2.533
 1415SOL    HW2 7048   3.481   1.364   2.550
 1416SOL     OW 7049   3.252   0.575   1.940
 1416SOL    HW1 7050   3.198   0.554   2.021
 1416SOL    HW2 7051   3.343   0.534   1.949
 1417SOL     OW 7052   3.616   1.223   3.450
 1417SOL    HW1 7053   3.707   1.184   3.437
 1417SOL    HW2 7054   3.624   1.319   3.474
 1418SOL     OW 7055   3.454   1.629   3.487
 1418SOL    HW1 7056   3.481   1.663   3.397
 1418SOL    HW2 7057   3.533   1.591   3.533
 1419SOL     OW 7058   2.567   1.050   2.230
 1419SOL    HW1 7059   2.553   1.057   2.329
 1419SOL    HW2 7060   2.651   0.999   2.212
 1420SOL     OW 7061   2.272   0.813   3.113
 1420SOL    HW1 7062   2.358   0.825   3.163
 1420SOL    HW2 7063   2.230   0.726   3.140
 1421SOL     OW 7064   3.136   0.386   3.124
 1421SOL    HW1 7065   3.157   0.460   3.188
 1421SOL    HW2 7066   3.047   0.403   3.081
 1422SOL     OW 7067   1.926   1.564   3.193
 1422SOL    HW1 7068   1.880   1.646   3.159
 1422SOL    HW2 7069   2.024   1.583   3.202
 1423SOL     OW 7070   2.229   1.100   2.363
 1423SOL    HW1 7071   2.222   1.183   2.307
 1423SOL    HW2 7072   2.233   1.020   2.303
 1424SOL     OW 7073   2.428   0.537   2.727
 1424SOL    HW1 7074   2.440   0.603   2.653
 1424SOL    HW2 7075   2.474   0.571   2.810
 1425SOL     OW 7076   3.114   1.348   2.250
 1425SOL    HW1 7077   3.164   1.425   2.290
 1425SOL    HW2 7078   3.019   1.350   2.282
 1426SOL     OW 7079   3.134   1.445   3.004
 1426SOL    HW1 7080   3.181   1.458   3.091
 1426SOL    HW2 7081   3.068   1.371   3.013
 1427SOL     OW 7082   2.216   1.510   3.191
 1427SOL    HW1 7083   2.195   1.466   3.104
 1427SOL    HW2 7084   2.313   1.536   3.194
 1428SOL     OW 7085   2.264   0.751   3.460
 1428SOL    HW1 7086   2.332   0.806   3.413
 1428SOL    HW2 7087   2.304   0.663   3.487
 1429SOL     OW 7088   3.449   0.779   3.532
 1429SOL    HW1 7089   3.357   0.817   3.527
 1429SOL    HW2 7090   3.509   0.826   3.467
 1430SOL     OW 7091   2.875   0.105   3.632
 1430SOL    HW1 7092   2.881   0.190   3.580
 1430SOL    HW2 7093   2.907   0.029   3.575
 1431SOL     OW 7094   2.366   0.050   3.602
 1431SOL    HW1 7095   2.324  -0.007   3.532
 1431SOL    HW2 7096   2.300   0.119   3.634
 1432SOL     OW 7097   2.435   0.870   2.891
 1432SOL    HW1 7098   2.479   0.959   2.882
 1432SOL    HW2 7099   2.372   0.870   2.968
 1433SOL     OW 7100   3.222   0.862   2.907
 1433SOL    HW1 7101   3.147   0.862   2.841
 1433SOL    HW2 7102   3.259   0.770   2.916
 1434SOL     OW 7103   3.071   0.525   2.137
 1434SOL    HW1 7104   3.084   0.441   2.191
 1434SOL    HW2 7105   3.042   0.599   2.197
 1435SOL     OW 7106   1.899   1.310   3.144
 1435SOL    HW1 7107   1.952   1.261   3.212
 1435SOL    HW2 7108   1.921   1.408   3.149
 1436SOL     OW 7109   2.594   0.634   2.926
 1436SOL    HW1 7110   2.653   0.608   2.850
 1436SOL    HW2 7111   2.566   0.730   2.915
 1437SOL     OW 7112   3.590   0.935   3.716
 1437SOL    HW1 7113   3.544   0.928   3.627
 1437SOL    HW2 7114   3.528   0.979   3.782
 1438SOL     OW 7115   2.169   0.063   2.480
 1438SOL    HW1 7116   2.158   0.157   2.513
 1438SOL    HW2 7117   2.164   0.000   2.557
 1439SOL     OW 7118   3.484   0.367   2.236
 1439SOL    HW1 7119   3.486   0.291   2.300
 1439SOL    HW2 7120   3.436   0.444   2.276
 1440SOL     OW 7121   2.885   0.766   2.828
 1440SOL    HW1 7122   2.900   0.787   2.924
 1440SOL    HW2 7123   2.855   0.671   2.819
 1441SOL     OW 7124   2.842   1.573   3.562
 1441SOL    HW1 7125   2.822   1.617   3.474
 1441SOL    HW2 7126   2.881   1.482   3.546
 1442SOL     OW 7127   3.721   1.518   3.467
 1442SOL    HW1 7128   3.735   1.545   3.372
 1442SOL    HW2 7129   3.804   1.540   3.520
 1443SOL     OW 7130   2.212   0.898   3.666
 1443SOL    HW1 7131   2.288   0.942   3.714
 1443SOL    HW2 7132   2.247   0.851   3.584
 1444SOL     OW 7133   3.402   0.274   1.987
 1444SOL    HW1 7134   3.341   0.199   2.010
 1444SOL    HW2 7135   3.424   0.326   2.070
 1445SOL     OW 7136   3.165   0.838   1.904
 1445SOL    HW1 7137   3.199   0.745   1.919
 1445SOL    HW2 7138   3.183   0.865   1.809
 1446SOL     OW 7139   2.930   1.333   2.711
 1446SOL    HW1 7140   2.937   1.249   2.656
 1446SOL    HW2 7141   2.992   1.402   2.675
 1447SOL     OW 7142   2.201   0.509   2.868
 1447SOL    HW1 7143   2.149   0.426   2.851
 1447SOL    HW2 7144   2.278   0.514   2.804
 1448SOL     OW 7145   3.000   0.380   3.540
 1448SOL    HW1 7146   2.955   0.443   3.604
 1448SOL    HW2 7147   3.093   0.411   3.523
 1449SOL     OW 7148   3.022   0.207   3.339
 1449SOL    HW1 7149   3.022   0.271   3.416
 1449SOL    HW2 7150   3.050   0.255   3.256
 1450SOL     OW 7151   1.870   1.326   2.062
 1450SOL    HW1 7152   1.777   1.347   2.031
 1450SOL    HW2 7153   1.880   1.227   2.075
 1451SOL     OW 7154   1.950   1.801   2.789
 1451SOL    HW1 7155   1.908   1.715   2.762
 1451SOL    HW2 7156   2.044   1.804   2.755
 1452SOL     OW 7157   2.366   1.568   2.772
 1452SOL    HW1 7158   2.432   1.642   2.781
 1452SOL    HW2 7159   2.410   1.489   2.730
 1453SOL     OW 7160   2.051   0.520   3.584
 1453SOL    HW1 7161   2.110   0.480   3.514
 1453SOL    HW2 7162   1.993   0.591   3.543
 1454SOL     OW 7163   3.231   0.950   3.522
 1454SOL    HW1 7164   3.270   1.039   3.542
 1454SOL    HW2 7165   3.241   0.930   3.425
 1455SOL     OW 7166   2.677   0.572   2.187
 1455SOL    HW1 7167   2.684   0.483   2.141
 1455SOL    HW2 7168   2.583   0.606   2.179
 1456SOL     OW 7169   3.519   0.604   3.068
 1456SOL    HW1 7170   3.481   0.535   3.130
 1456SOL    HW2 7171   3.601   0.568   3.024
 1457SOL     OW 7172   2.114   1.564   3.606
 1457SOL    HW1 7173   2.084   1.621   3.682
 1457SOL    HW2 7174   2.107   1.467   3.632
 1458SOL     OW 7175   2.533   0.464   3.131
 1458SOL    HW1 7176   2.499   0.375   3.101
 1458SOL    HW2 7177   2.559   0.518   3.051
 1459SOL     OW 7178   2.792   1.678   3.327
 1459SOL    HW1 7179   2.768   1.660   3.232
 1459SOL    HW2 7180   2.822   1.772   3.337
 1460SOL     OW 7181   2.335   0.500   2.053
 1460SOL    HW1 7182   2.396   0.580   2.057
 1460SOL    HW2 7183   2.240   0.531   2.060
 1461SOL     OW 7184   2.021   1.137   3.328
 1461SOL    HW1 7185   2.043   1.076   3.404
 1461SOL    HW2 7186   2.031   1.088   3.242
 1462SOL     OW 7187   3.164   0.855   2.171
 1462SOL    HW1 7188   3.078   0.824   2.213
 1462SOL    HW2 7189   3.160   0.841   2.072
 1463SOL     OW 7190   1.945   1.258   2.884
 1463SOL    HW1 7191   1.940   1.257   2.984
 1463SOL    HW2 7192   1.862   1.217   2.846
 1464SOL     OW 7193   2.550   1.662   3.578
 1464SOL    HW1 7194   2.494   1.743   3.587
 1464SOL    HW2 7195   2.602   1.666   3.492
 1465SOL     OW 7196   3.588   0.135   2.385
 1465SOL    HW1 7197   3.661   0.118   2.318
 1465SOL    HW2 7198   3.557   0.048   2.423
 1466SOL     OW 7199   1.992   1.794   3.713
 1466SOL    HW1 7200   1.951   1.720   3.766
 1466SOL    HW2 7201   2.056   1.845   3.771
 1467SOL     OW 7202   3.142   0.927   2.534
 1467SOL    HW1 7203   3.202   0.846   2.536
 1467SOL    HW2 7204   3.182   0.996   2.474
 1468SOL     OW 7205   2.534   1.616   2.016
 1468SOL    HW1 7206   2.543   1.626   1.917
 1468SOL    HW2 7207   2.494   1.527   2.037
 1469SOL     OW 7208   2.125   0.326   2.582
 1469SOL    HW1 7209   2.046   0.377   2.548
 1469SOL    HW2 7210   2.116   0.311   2.680
 1470SOL     OW 7211   2.778   0.910   2.153
 1470SOL    HW1 7212   2.841   0.948   2.085
 1470SOL    HW2 7213   2.818   0.827   2.192
 1471SOL     OW 7214   3.366   1.607   1.906
 1471SOL    HW1 7215   3.274   1.644   1.913
 1471SOL    HW2 7216   3.404   1.627   1.816
 1472SOL     OW 7217   2.234   1.288   3.352
 1472SOL    HW1 7218   2.221   1.381   3.318
 1472SOL    HW2 7219   2.150   1.236   3.339
 1473SOL     OW 7220   3.476   1.292   3.151
 1473SOL    HW1 7221   3.536   1.295   3.231
 1473SOL    HW2 7222   3.401   1.356   3.164
 1474SOL     OW 7223   2.901   1.098   2.558
 1474SOL    HW1 7224   2.831   1.051   2.612
 1474SOL    HW2 7225   2.960   1.030   2.515
 1475SOL     OW 7226   2.452   1.487   2.353
 1475SOL    HW1 7227   2.494   1.429   2.283
 1475SOL    HW2 7228   2.408   1.566   2.309
 1476SOL     OW 7229   3.571   0.385   3.243
 1476SOL    HW1 7230   3.644   0.454   3.247
 1476SOL    HW2 7231   3.599   0.310   3.184
 1477SOL     OW 7232   2.117   1.348   2.152
 1477SOL    HW1 7233   2.021   1.349   2.125
 1477SOL    HW2 7234   2.129   1.401   2.236
 1478SOL     OW 7235   1.967   1.013   3.588
 1478SOL    HW1 7236   1.890   0.980   3.642
 1478SOL    HW2 7237   2.052   0.983   3.630
 1479SOL     OW 7238   3.302   0.856   3.260
 1479SOL    HW1 7239   3.245   0.908   3.197
 1479SOL    HW2 7240   3.398   0.868   3.236
 1480SOL     OW 7241   2.475   0.842   3.293
 1480SOL    HW1 7242   2.531   0.923   3.276
 1480SOL    HW2 7243   2.534   0.762   3.296
 1481SOL     OW 7244   3.355   1.767   2.821
 1481SOL    HW1 7245   3.388   1.831   2.752
 1481SOL    HW2 7246   3.421   1.761   2.896
 1482SOL     OW 7247   2.578   0.565   3.570
 1482SOL    HW1 7248   2.597   0.630   3.644
 1482SOL    HW2 7249   2.638   0.485   3.579
 1483SOL     OW 7250   3.312   1.220   3.495
 1483SOL    HW1 7251   3.303   1.210   3.594
 1483SOL    HW2 7252   3.408   1.213   3.469
 1484SOL     OW 7253   2.252   1.741   3.422
 1484SOL    HW1 7254   2.161   1.782   3.420
 1484SOL    HW2 7255   2.245   1.647   3.454
 1485SOL     OW 7256   3.536   0.883   3.116
 1485SOL    HW1 7257   3.509   0.794   3.079
 1485SOL    HW2 7258   3.537   0.951   3.043
 1486SOL     OW 7259   3.087   0.325   2.311
 1486SOL    HW1 7260   3.152   0.251   2.300
 1486SOL    HW2 7261   3.107   0.375   2.395
 1487SOL     OW 7262   2.456   0.745   2.514
 1487SOL    HW1 7263   2.506   0.830   2.495
 1487SOL    HW2 7264   2.368   0.747   2.466
 1488SOL     OW 7265   3.639   0.342   3.504
 1488SOL    HW1 7266   3.622   0.373   3.410
 1488SOL    HW2 7267   3.555   0.305   3.542
 1489SOL     OW 7268   3.592   0.934   3.379
 1489SOL    HW1 7269   3.630   1.025   3.394
 1489SOL    HW2 7270   3.584   0.917   3.280
 1490SOL     OW 7271   2.721   1.374   1.878
 1490SOL    HW1 7272   2.675   1.389   1.966
 1490SOL    HW2 7273   2.765   1.459   1.848
 1491SOL     OW 7274   2.523   1.790   2.815
 1491SOL    HW1 7275   2.477   1.878   2.802
 1491SOL    HW2 7276   2.622   1.802   2.808
 1492SOL     OW 7277   2.945   0.984   1.949
 1492SOL    HW1 7278   2.922   1.037   1.867
 1492SOL    HW2 7279   3.026   0.928   1.930
 1493SOL     OW 7280   3.723   1.569   2.713
 1493SOL    HW1 7281   3.652   1.557   2.643
 1493SOL    HW2 7282   3.724   1.490   2.773
 1494SOL     OW 7283   2.083   1.314   3.706
 1494SOL    HW1 7284   2.018   1.241   3.685
 1494SOL    HW2 7285   2.087   1.328   3.804
 1495SOL     OW 7286   2.534   1.391   3.486
 1495SOL    HW1 7287   2.456   1.341   3.524
 1495SOL    HW2 7288   2.531   1.486   3.517
 1496SOL     OW 7289   3.686   0.192   3.089
 1496SOL    HW1 7290   3.682   0.102   3.133
 1496SOL    HW2 7291   3.689   0.181   2.990
 1497SOL     OW 7292   3.567   1.487   2.966
 1497SOL    HW1 7293   3.474   1.462   2.939
 1497SOL    HW2 7294   3.593   1.437   3.048
 1498SOL     OW 7295   2.179   0.547   3.142
 1498SOL    HW1 7296   2.217   0.488   3.214
 1498SOL    HW2 7297   2.219   0.521   3.054
 1499SOL     OW 7298   2.674   1.586   2.549
 1499SOL    HW1 7299   2.706   1.596   2.455
 1499SOL    HW2 7300   2.595   1.524   2.551
 1500SOL     OW 7301   3.286   0.214   2.974
 1500SOL    HW1 7302   3.338   0.149   3.029
 1500SOL    HW2 7303   3.237   0.277   3.035
 1501SOL     OW 7304   2.632   1.330   2.163
 1501SOL    HW1 7305   2.586   1.243   2.180
 1501SOL    HW2 7306   2.723   1.327   2.204
 1502SOL     OW 7307   2.480   1.567   3.146
 1502SOL    HW1 7308   2.475   1.649   3.203
 1502SOL    HW2 7309   2.569   1.564   3.101
 1503SOL     OW 7310   3.214   0.052   2.030
 1503SOL    HW1 7311   3.249   0.011   1.946
 1503SOL    HW2 7312   3.124   0.014   2.050
 1504SOL     OW 7313   3.162   0.453   2.553
 1504SOL    HW1 7314   3.103   0.533   2.557
 1504SOL    HW2 7315   3.177   0.418   2.646
 1505SOL     OW 7316   3.455   0.221   2.744
 1505SOL    HW1 7317   3.371   0.220   2.798
 1505SOL    HW2 7318   3.457   0.304   2.688
 1506SOL     OW 7319   1.901   1.077   2.162
 1506SOL    HW1 7320   2.000   1.066   2.153
 1506SOL    HW2 7321   1.861   0.991   2.194
 1507SOL     OW 7322   2.737   1.646   2.199
 1507SOL    HW1 7323   2.660   1.611   2.145
 1507SOL    HW2 7324   2.705   1.717   2.261
 1508SOL     OW 7325   2.092   0.628   3.837
 1508SOL    HW1 7326   1.999   0.626   3.874
 1508SOL    HW2 7327   2.093   0.589   3.745
 1509SOL     OW 7328   2.087   0.275   4.720
 1509SOL    HW1 7329   2.122   0.258   4.812
 1509SOL    HW2 7330   1.999   0.230   4.708
 1510SOL     OW 7331   2.431   1.275   4.889
 1510SOL    HW1 7332   2.338   1.268   4.852
 1510SOL    HW2 7333   2.442   1.364   4.933
 1511SOL     OW 7334   3.417   1.511   4.427
 1511SOL    HW1 7335   3.360   1.495   4.508
 1511SOL    HW2 7336   3.358   1.521   4.347
 1512SOL     OW 7337   2.997   0.703   4.441
 1512SOL    HW1 7338   3.054   0.781   4.416
 1512SOL    HW2 7339   2.937   0.729   4.517
 1513SOL     OW 7340   3.617   0.607   3.955
 1513SOL    HW1 7341   3.605   0.594   3.856
 1513SOL    HW2 7342   3.587   0.526   4.004
 1514SOL     OW 7343   2.630   1.144   4.747
 1514SOL    HW1 7344   2.552   1.161   4.807
 1514SOL    HW2 7345   2.664   1.231   4.711
 1515SOL     OW 7346   2.197   1.435   4.785
 1515SOL    HW1 7347   2.119   1.404   4.732
 1515SOL    HW2 7348   2.255   1.493   4.728
 1516SOL     OW 7349   3.465   0.447   4.461
 1516SOL    HW1 7350   3.391   0.493   4.411
 1516SOL    HW2 7351   3.516   0.515   4.514
 1517SOL     OW 7352   2.093   1.713   4.207
 1517SOL    HW1 7353   2.127   1.790   4.261
 1517SOL    HW2 7354   2.137   1.713   4.117
 1518SOL     OW 7355   2.092   1.434   4.262
 1518SOL    HW1 7356   2.066   1.530   4.262
 1518SOL    HW2 7357   2.021   1.380   4.307
 1519SOL     OW 7358   2.102   1.091   4.610
 1519SOL    HW1 7359   2.116   1.007   4.662
 1519SOL    HW2 7360   2.047   1.155   4.665
 1520SOL     OW 7361   2.468   0.964   3.847
 1520SOL    HW1 7362   2.475   1.048   3.793
 1520SOL    HW2 7363   2.514   0.977   3.935
 1521SOL     OW 7364   1.984   0.643   4.287
 1521SOL    HW1 7365   1.939   0.555   4.304
 1521SOL    HW2 7366   1.983   0.697   4.371
 1522SOL     OW 7367   3.704   1.767   4.083
 1522SOL    HW1 7368   3.758   1.738   4.163
 1522SOL    HW2 7369   3.734   1.857   4.054
 1523SOL     OW 7370   1.889   1.596   3.841
 1523SOL    HW1 7371   1.870   1.500   3.862
 1523SOL    HW2 7372   1.856   1.654   3.916
 1524SOL     OW 7373   3.551   0.922   4.336
 1524SOL    HW1 7374   3.646   0.893   4.344
 1524SOL    HW2 7375   3.543   0.987   4.261
 1525SOL     OW 7376   3.503   1.108   4.156
 1525SOL    HW1 7377   3.589   1.110   4.104
 1525SOL    HW2 7378   3.517   1.155   4.244
 1526SOL     OW 7379   2.475   1.365   4.450
 1526SOL    HW1 7380   2.426   1.278   4.459
 1526SOL    HW2 7381   2.452   1.408   4.363
 1527SOL     OW 7382   2.671   0.004   4.226
 1527SOL    HW1 7383   2.711   0.095   4.217
 1527SOL    HW2 7384   2.571   0.012   4.232
 1528SOL     OW 7385   2.059   0.976   4.988
 1528SOL    HW1 7386   2.148   0.931   4.974
 1528SOL    HW2 7387   1.986   0.911   4.969
 1529SOL     OW 7388   3.387   0.999   3.914
 1529SOL    HW1 7389   3.324   0.923   3.927
 1529SOL    HW2 7390   3.435   1.017   4.000
 1530SOL     OW 7391   3.328   1.417   4.677
 1530SOL    HW1 7392   3.269   1.423   4.757
 1530SOL    HW2 7393   3.313   1.329   4.631
 1531SOL     OW 7394   3.529   1.714   4.296
 1531SOL    HW1 7395   3.488   1.691   4.208
 1531SOL    HW2 7396   3.511   1.640   4.361
 1532SOL     OW 7397   3.143   0.345   4.668
 1532SOL    HW1 7398   3.057   0.295   4.655
 1532SOL    HW2 7399   3.205   0.291   4.724
 1533SOL     OW 7400   3.438   1.662   4.031
 1533SOL    HW1 7401   3.527   1.708   4.034
 1533SOL    HW2 7402   3.417   1.638   3.936
 1534SOL     OW 7403   2.853   0.410   4.966
 1534SOL    HW1 7404   2.776   0.444   5.020
 1534SOL    HW2 7405   2.819   0.359   4.887
 1535SOL     OW 7406   1.938   0.811   4.513
 1535SOL    HW1 7407   2.037   0.799   4.522
 1535SOL    HW2 7408   1.914   0.906   4.534
 1536SOL     OW 7409   3.224   1.144   4.269
 1536SOL    HW1 7410   3.307   1.115   4.221
 1536SOL    HW2 7411   3.175   1.211   4.213
 1537SOL     OW 7412   2.412   0.196   4.609
 1537SOL    HW1 7413   2.407   0.191   4.709
 1537SOL    HW2 7414   2.414   0.292   4.580
 1538SOL     OW 7415   2.870   1.456   4.201
 1538SOL    HW1 7416   2.824   1.528   4.149
 1538SOL    HW2 7417   2.866   1.476   4.299
 1539SOL     OW 7418   2.213   1.801   4.577
 1539SOL    HW1 7419   2.263   1.715   4.583
 1539SOL    HW2 7420   2.278   1.878   4.574
 1540SOL     OW 7421   3.657   1.066   4.597
 1540SOL    HW1 7422   3.595   1.051   4.521
 1540SOL    HW2 7423   3.605   1.077   4.682
 1541SOL     OW 7424   2.183   0.943   3.966
 1541SOL    HW1 7425   2.265   0.982   3.924
 1541SOL    HW2 7426   2.156   0.861   3.917
 1542SOL     OW 7427   3.320   0.735   4.452
 1542SOL    HW1 7428   3.315   0.670   4.527
 1542SOL    HW2 7429   3.400   0.794   4.465
 1543SOL     OW 7430   3.494   1.377   3.805
 1543SOL    HW1 7431   3.462   1.471   3.795
 1543SOL    HW2 7432   3.418   1.314   3.793
 1544SOL     OW 7433   2.326   1.743   4.047
 1544SOL    HW1 7434   2.359   1.782   4.133
 1544SOL    HW2 7435   2.402   1.736   3.982
 1545SOL     OW 7436   3.262   0.107   4.150
 1545SOL    HW1 7437   3.238   0.070   4.060
 1545SOL    HW2 7438   3.361   0.123   4.154
 1546SOL     OW 7439   2.111   1.785   4.965
 1546SOL    HW1 7440   2.168   1.720   5.015
 1546SOL    HW2 7441   2.095   1.752   4.872
 1547SOL     OW 7442   2.665   1.402   4.648
 1547SOL    HW1 7443   2.755   1.416   4.606
 1547SOL    HW2 7444   2.594   1.404   4.577
 1548SOL     OW 7445   2.784   0.503   4.623
 1548SOL    HW1 7446   2.759   0.494   4.527
 1548SOL    HW2 7447   2.832   0.421   4.654
 1549SOL     OW 7448   2.401   0.064   4.236
 1549SOL    HW1 7449   2.320   0.065   4.294
 1549SOL    HW2 7450   2.404   0.147   4.181
 1550SOL     OW 7451   3.296   1.188   3.765
 1550SOL    HW1 7452   3.328   1.112   3.822
 1550SOL    HW2 7453   3.204   1.215   3.795
 1551SOL     OW 7454   2.159   0.035   3.895
 1551SOL    HW1 7455   2.208   0.119   3.874
 1551SOL    HW2 7456   2.221  -0.030   3.940
 1552SOL     OW 7457   2.797   0.236   4.204
 1552SOL    HW1 7458   2.749   0.277   4.126
 1552SOL    HW2 7459   2.896   0.234   4.185
 1553SOL     OW 7460   3.089   1.570   4.517
 1553SOL    HW1 7461   3.110   1.644   4.452
 1553SOL    HW2 7462   3.157   1.570   4.590
 1554SOL     OW 7463   2.321   1.152   4.465
 1554SOL    HW1 7464   2.250   1.125   4.530
 1554SOL    HW2 7465   2.295   1.124   4.372
 1555SOL     OW 7466   3.133   1.797   4.315
 1555SOL    HW1 7467   3.177   1.861   4.251
 1555SOL    HW2 7468   3.083   1.849   4.385
 1556SOL     OW 7469   2.894   0.549   3.740
 1556SOL    HW1 7470   2.853   0.631   3.701
 1556SOL    HW2 7471   2.958   0.575   3.813
 1557SOL     OW 7472   2.423   0.222   4.871
 1557SOL    HW1 7473   2.461   0.138   4.908
 1557SOL    HW2 7474   2.335   0.241   4.915
 1558SOL     OW 7475   2.728   0.454   4.366
 1558SOL    HW1 7476   2.696   0.526   4.304
 1558SOL    HW2 7477   2.752   0.373   4.313
 1559SOL     OW 7478   2.879   0.039   4.477
 1559SOL    HW1 7479   2.807   0.044   4.408
 1559SOL    HW2 7480   2.855  -0.030   4.546
 1560SOL     OW 7481   3.291   1.173   4.591
 1560SOL    HW1 7482   3.236   1.089   4.584
 1560SOL    HW2 7483   3.317   1.202   4.499
 1561SOL     OW 7484   3.328   0.590   4.716
 1561SOL    HW1 7485   3.298   0.495   4.723
 1561SOL    HW2 7486   3.401   0.606   4.782
 1562SOL     OW 7487   3.719   0.833   4.101
 1562SOL    HW1 7488   3.761   0.769   4.165
 1562SOL    HW2 7489   3.681   0.782   4.023
 1563SOL     OW 7490   2.350   1.385   3.898
 1563SOL    HW1 7491   2.263   1.370   3.945
 1563SOL    HW2 7492   2.333   1.411   3.803
 1564SOL     OW 7493   3.526   1.280   4.381
 1564SOL    HW1 7494   3.625   1.288   4.395
 1564SOL    HW2 7495   3.481   1.364   4.412
 1565SOL     OW 7496   3.252   0.575   3.802
 1565SOL    HW1 7497   3.198   0.554   3.883
 1565SOL    HW2 7498   3.343   0.534   3.811
 1566SOL     OW 7499   3.500   1.099   4.803
 1566SOL    HW1 7500   3.505   1.180   4.862
 1566SOL    HW2 7501   3.414   1.101   4.752
 1567SOL     OW 7502   2.272   0.813   4.975
 1567SOL    HW1 7503   2.358   0.825   5.025
 1567SOL    HW2 7504   2.230   0.726   5.002
 1568SOL     OW 7505   3.136   0.386   4.986
 1568SOL    HW1 7506   3.157   0.460   5.050
 1568SOL    HW2 7507   3.047   0.403   4.943
 1569SOL     OW 7508   2.229   1.100   4.225
 1569SOL    HW1 7509   2.222   1.183   4.169
 1569SOL    HW2 7510   2.233   1.020   4.165
 1570SOL     OW 7511   2.428   0.537   4.589
 1570SOL    HW1 7512   2.440   0.603   4.515
 1570SOL    HW2 7513   2.474   0.571   4.672
 1571SOL     OW 7514   3.114   1.348   4.112
 1571SOL    HW1 7515   3.164   1.425   4.152
 1571SOL    HW2 7516   3.019   1.350   4.144
 1572SOL     OW 7517   3.444   0.639   4.196
 1572SOL    HW1 7518   3.413   0.700   4.269
 1572SOL    HW2 7519   3.494   0.691   4.127
 1573SOL     OW 7520   2.216   1.510   5.053
 1573SOL    HW1 7521   2.195   1.466   4.966
 1573SOL    HW2 7522   2.313   1.536   5.056
 1574SOL     OW 7523   2.435   0.870   4.753
 1574SOL    HW1 7524   2.479   0.959   4.744
 1574SOL    HW2 7525   2.372   0.870   4.830
 1575SOL     OW 7526   3.222   0.862   4.769
 1575SOL    HW1 7527   3.147   0.862   4.703
 1575SOL    HW2 7528   3.259   0.770   4.778
 1576SOL     OW 7529   3.071   0.525   3.999
 1576SOL    HW1 7530   3.084   0.441   4.053
 1576SOL    HW2 7531   3.042   0.599   4.059
 1577SOL     OW 7532   1.899   1.310   5.006
 1577SOL    HW1 7533   1.952   1.261   5.074
 1577SOL    HW2 7534   1.921   1.408   5.011
 1578SOL     OW 7535   2.594   0.634   4.788
 1578SOL    HW1 7536   2.653   0.608   4.712
 1578SOL    HW2 7537   2.566   0.730   4.777
 1579SOL     OW 7538   2.169   0.063   4.342
 1579SOL    HW1 7539   2.158   0.157   4.375
 1579SOL    HW2 7540   2.164   0.000   4.419
 1580SOL     OW 7541   3.484   0.367   4.098
 1580SOL    HW1 7542   3.486   0.291   4.162
 1580SOL    HW2 7543   3.436   0.444   4.138
 1581SOL     OW 7544   2.885   0.766   4.690
 1581SOL    HW1 7545   2.900   0.787   4.786
 1581SOL    HW2 7546   2.855   0.671   4.681
 1582SOL     OW 7547   3.402   0.274   3.849
 1582SOL    HW1 7548   3.341   0.199   3.872
 1582SOL    HW2 7549   3.424   0.326   3.932
 1583SOL     OW 7550   3.165   0.838   3.766
 1583SOL    HW1 7551   3.199   0.745   3.781
 1583SOL    HW2 7552   3.183   0.865   3.671
 1584SOL     OW 7553   2.930   1.333   4.573
 1584SOL    HW1 7554   2.937   1.249   4.518
 1584SOL    HW2 7555   2.992   1.402   4.537
 1585SOL     OW 7556   2.181   0.810   4.673
 1585SOL    HW1 7557   2.274   0.846   4.678
 1585SOL    HW2 7558   2.175   0.725   4.725
 1586SOL     OW 7559   2.201   0.509   4.730
 1586SOL    HW1 7560   2.149   0.426   4.713
 1586SOL    HW2 7561   2.278   0.514   4.666
 1587SOL     OW 7562   3.022   0.207   5.201
 1587SOL    HW1 7563   3.022   0.271   5.278
 1587SOL    HW2 7564   3.050   0.255   5.118
 1588SOL     OW 7565   1.870   1.326   3.924
 1588SOL    HW1 7566   1.777   1.347   3.893
 1588SOL    HW2 7567   1.880   1.227   3.937
 1589SOL     OW 7568   1.950   1.801   4.651
 1589SOL    HW1 7569   1.908   1.715   4.624
 1589SOL    HW2 7570   2.044   1.804   4.617
 1590SOL     OW 7571   2.366   1.568   4.634
 1590SOL    HW1 7572   2.432   1.642   4.643
 1590SOL    HW2 7573   2.410   1.489   4.592
 1591SOL     OW 7574   2.864   0.796   4.962
 1591SOL    HW1 7575   2.905   0.764   5.048
 1591SOL    HW2 7576   2.768   0.769   4.959
 1592SOL     OW 7577   3.519   0.604   4.930
 1592SOL    HW1 7578   3.481   0.535   4.992
 1592SOL    HW2 7579   3.601   0.568   4.886
 1593SOL     OW 7580   2.533   0.464   4.993
 1593SOL    HW1 7581   2.499   0.375   4.963
 1593SOL    HW2 7582   2.559   0.518   4.913
 1594SOL     OW 7583   2.792   1.678   5.189
 1594SOL    HW1 7584   2.768   1.660   5.094
 1594SOL    HW2 7585   2.822   1.772   5.199
 1595SOL     OW 7586   3.209   1.059   4.958
 1595SOL    HW1 7587   3.233   0.996   4.884
 1595SOL    HW2 7588   3.119   1.099   4.940
 1596SOL     OW 7589   3.164   0.855   4.033
 1596SOL    HW1 7590   3.078   0.824   4.075
 1596SOL    HW2 7591   3.160   0.841   3.934
 1597SOL     OW 7592   3.621   1.747   4.878
 1597SOL    HW1 7593   3.682   1.777   4.805
 1597SOL    HW2 7594   3.583   1.658   4.856
 1598SOL     OW 7595   3.114   1.731   4.852
 1598SOL    HW1 7596   3.198   1.736   4.798
 1598SOL    HW2 7597   3.091   1.635   4.870
 1599SOL     OW 7598   1.945   1.258   4.746
 1599SOL    HW1 7599   1.940   1.257   4.846
 1599SOL    HW2 7600   1.862   1.217   4.708
 1600SOL     OW 7601   3.588   0.135   4.247
 1600SOL    HW1 7602   3.661   0.118   4.180
 1600SOL    HW2 7603   3.557   0.048   4.285
 1601SOL     OW 7604   3.250   1.573   4.201
 1601SOL    HW1 7605   3.317   1.585   4.127
 1601SOL    HW2 7606   3.210   1.662   4.224
 1602SOL     OW 7607   3.142   0.927   4.396
 1602SOL    HW1 7608   3.202   0.846   4.398
 1602SOL    HW2 7609   3.182   0.996   4.336
 1603SOL     OW 7610   2.534   1.616   3.878
 1603SOL    HW1 7611   2.543   1.626   3.779
 1603SOL    HW2 7612   2.494   1.527   3.899
 1604SOL     OW 7613   3.512   1.720   5.118
 1604SOL    HW1 7614   3.565   1.730   5.034
 1604SOL    HW2 7615   3.485   1.810   5.152
 1605SOL     OW 7616   3.703   0.175   4.687
 1605SOL    HW1 7617   3.742   0.090   4.651
 1605SOL    HW2 7618   3.605   0.177   4.668
 1606SOL     OW 7619   2.125   0.326   4.444
 1606SOL    HW1 7620   2.046   0.377   4.410
 1606SOL    HW2 7621   2.116   0.311   4.542
 1607SOL     OW 7622   3.056   1.612   3.755
 1607SOL    HW1 7623   3.062   1.519   3.792
 1607SOL    HW2 7624   2.997   1.612   3.675
 1608SOL     OW 7625   2.684   1.002   5.096
 1608SOL    HW1 7626   2.724   1.001   5.004
 1608SOL    HW2 7627   2.694   1.094   5.136
 1609SOL     OW 7628   3.366   1.607   3.768
 1609SOL    HW1 7629   3.274   1.644   3.775
 1609SOL    HW2 7630   3.404   1.627   3.678
 1610SOL     OW 7631   2.876   0.236   4.695
 1610SOL    HW1 7632   2.868   0.200   4.602
 1610SOL    HW2 7633   2.874   0.160   4.760
 1611SOL     OW 7634   2.452   1.487   4.215
 1611SOL    HW1 7635   2.494   1.429   4.145
 1611SOL    HW2 7636   2.408   1.566   4.171
 1612SOL     OW 7637   3.571   0.385   5.105
 1612SOL    HW1 7638   3.644   0.454   5.109
 1612SOL    HW2 7639   3.599   0.310   5.046
 1613SOL     OW 7640   2.117   1.348   4.014
 1613SOL    HW1 7641   2.021   1.349   3.987
 1613SOL    HW2 7642   2.129   1.401   4.098
 1614SOL     OW 7643   3.045   1.335   3.843
 1614SOL    HW1 7644   2.946   1.324   3.845
 1614SOL    HW2 7645   3.079   1.350   3.936
 1615SOL     OW 7646   3.355   1.767   4.683
 1615SOL    HW1 7647   3.388   1.831   4.614
 1615SOL    HW2 7648   3.421   1.761   4.758
 1616SOL     OW 7649   3.536   0.883   4.978
 1616SOL    HW1 7650   3.509   0.794   4.941
 1616SOL    HW2 7651   3.537   0.951   4.905
 1617SOL     OW 7652   3.087   0.325   4.173
 1617SOL    HW1 7653   3.152   0.251   4.162
 1617SOL    HW2 7654   3.107   0.375   4.257
 1618SOL     OW 7655   2.456   0.745   4.376
 1618SOL    HW1 7656   2.506   0.830   4.357
 1618SOL    HW2 7657   2.368   0.747   4.328
 1619SOL     OW 7658   2.721   1.374   3.740
 1619SOL    HW1 7659   2.675   1.389   3.828
 1619SOL    HW2 7660   2.765   1.459   3.710
 1620SOL     OW 7661   2.721   0.956   4.585
 1620SOL    HW1 7662   2.775   0.887   4.633
 1620SOL    HW2 7663   2.689   1.025   4.651
 1621SOL     OW 7664   2.945   0.984   3.811
 1621SOL    HW1 7665   2.922   1.037   3.729
 1621SOL    HW2 7666   3.026   0.928   3.792
 1622SOL     OW 7667   3.723   1.569   4.575
 1622SOL    HW1 7668   3.652   1.557   4.505
 1622SOL    HW2 7669   3.724   1.490   4.635
 1623SOL     OW 7670   1.941   1.240   4.377
 1623SOL    HW1 7671   1.940   1.193   4.465
 1623SOL    HW2 7672   2.023   1.212   4.326
 1624SOL     OW 7673   3.686   0.192   4.951
 1624SOL    HW1 7674   3.682   0.102   4.995
 1624SOL    HW2 7675   3.689   0.181   4.852
 1625SOL     OW 7676   3.567   1.487   4.828
 1625SOL    HW1 7677   3.474   1.462   4.801
 1625SOL    HW2 7678   3.593   1.437   4.910
 1626SOL     OW 7679   2.674   1.586   4.411
 1626SOL    HW1 7680   2.706   1.596   4.317
 1626SOL    HW2 7681   2.595   1.524   4.413
 1627SOL     OW 7682   3.286   0.214   4.836
 1627SOL    HW1 7683   3.338   0.149   4.891
 1627SOL    HW2 7684   3.237   0.277   4.897
 1628SOL     OW 7685   2.863   0.034   4.878
 1628SOL    HW1 7686   2.800  -0.038   4.847
 1628SOL    HW2 7687   2.956  -0.002   4.878
 1629SOL     OW 7688   2.632   1.330   4.025
 1629SOL    HW1 7689   2.586   1.243   4.042
 1629SOL    HW2 7690   2.723   1.327   4.066
 1630SOL     OW 7691   3.214   0.052   3.892
 1630SOL    HW1 7692   3.249   0.011   3.808
 1630SOL    HW2 7693   3.124   0.014   3.912
 1631SOL     OW 7694   3.162   0.453   4.415
 1631SOL    HW1 7695   3.103   0.533   4.419
 1631SOL    HW2 7696   3.177   0.418   4.508
 1632SOL     OW 7697   3.455   0.221   4.606
 1632SOL    HW1 7698   3.371   0.220   4.660
 1632SOL    HW2 7699   3.457   0.304   4.550
 1633SOL     OW 7700   1.901   1.077   4.024
 1633SOL    HW1 7701   2.000   1.066   4.015
 1633SOL    HW2 7702   1.861   0.991   4.056
 1634SOL     OW 7703   2.737   1.646   4.061
 1634SOL    HW1 7704   2.660   1.611   4.007
 1634SOL    HW2 7705   2.705   1.717   4.123
 1635SOL     OW 7706   2.087   2.137   0.996
 1635SOL    HW1 7707   2.122   2.120   1.088
 1635SOL    HW2 7708   1.999   2.092   0.984
 1636SOL     OW 7709   1.881   2.230   0.647
 1636SOL    HW1 7710   1.799   2.273   0.686
 1636SOL    HW2 7711   1.853   2.157   0.584
 1637SOL     OW 7712   2.431   3.137   1.165
 1637SOL    HW1 7713   2.338   3.130   1.128
 1637SOL    HW2 7714   2.442   3.226   1.209
 1638SOL     OW 7715   3.417   3.373   0.703
 1638SOL    HW1 7716   3.360   3.357   0.784
 1638SOL    HW2 7717   3.358   3.383   0.623
 1639SOL     OW 7718   3.617   2.469   0.231
 1639SOL    HW1 7719   3.605   2.456   0.132
 1639SOL    HW2 7720   3.587   2.388   0.280
 1640SOL     OW 7721   2.630   3.006   1.023
 1640SOL    HW1 7722   2.552   3.023   1.083
 1640SOL    HW2 7723   2.664   3.093   0.987
 1641SOL     OW 7724   2.712   2.660   1.823
 1641SOL    HW1 7725   2.708   2.736   1.888
 1641SOL    HW2 7726   2.734   2.696   1.732
 1642SOL     OW 7727   2.548   3.023   1.803
 1642SOL    HW1 7728   2.608   3.102   1.817
 1642SOL    HW2 7729   2.462   3.054   1.762
 1643SOL     OW 7730   2.197   3.297   1.061
 1643SOL    HW1 7731   2.119   3.266   1.008
 1643SOL    HW2 7732   2.255   3.355   1.004
 1644SOL     OW 7733   3.322   3.367   1.339
 1644SOL    HW1 7734   3.346   3.461   1.365
 1644SOL    HW2 7735   3.306   3.313   1.421
 1645SOL     OW 7736   2.300   2.254   1.499
 1645SOL    HW1 7737   2.382   2.198   1.508
 1645SOL    HW2 7738   2.219   2.196   1.503
 1646SOL     OW 7739   3.465   2.309   0.737
 1646SOL    HW1 7740   3.391   2.355   0.687
 1646SOL    HW2 7741   3.516   2.377   0.790
 1647SOL     OW 7742   2.093   3.575   0.483
 1647SOL    HW1 7743   2.127   3.652   0.537
 1647SOL    HW2 7744   2.137   3.575   0.393
 1648SOL     OW 7745   2.092   3.296   0.538
 1648SOL    HW1 7746   2.066   3.392   0.538
 1648SOL    HW2 7747   2.021   3.242   0.583
 1649SOL     OW 7748   2.102   2.953   0.886
 1649SOL    HW1 7749   2.116   2.869   0.938
 1649SOL    HW2 7750   2.047   3.017   0.941
 1650SOL     OW 7751   2.482   3.648   1.439
 1650SOL    HW1 7752   2.390   3.631   1.474
 1650SOL    HW2 7753   2.510   3.740   1.465
 1651SOL     OW 7754   3.456   1.976   1.480
 1651SOL    HW1 7755   3.438   2.043   1.408
 1651SOL    HW2 7756   3.453   2.022   1.569
 1652SOL     OW 7757   1.984   2.505   0.563
 1652SOL    HW1 7758   1.939   2.417   0.580
 1652SOL    HW2 7759   1.983   2.559   0.647
 1653SOL     OW 7760   1.889   3.458   0.117
 1653SOL    HW1 7761   1.870   3.362   0.138
 1653SOL    HW2 7762   1.856   3.516   0.192
 1654SOL     OW 7763   1.975   2.599   1.597
 1654SOL    HW1 7764   2.063   2.586   1.642
 1654SOL    HW2 7765   1.962   2.696   1.575
 1655SOL     OW 7766   2.475   3.227   0.726
 1655SOL    HW1 7767   2.426   3.140   0.735
 1655SOL    HW2 7768   2.452   3.270   0.639
 1656SOL     OW 7769   3.155   3.090   1.423
 1656SOL    HW1 7770   3.192   3.017   1.365
 1656SOL    HW2 7771   3.207   3.095   1.508
 1657SOL     OW 7772   2.059   2.838   1.264
 1657SOL    HW1 7773   2.148   2.793   1.250
 1657SOL    HW2 7774   1.986   2.773   1.245
 1658SOL     OW 7775   3.387   2.861   0.190
 1658SOL    HW1 7776   3.324   2.785   0.203
 1658SOL    HW2 7777   3.435   2.879   0.276
 1659SOL     OW 7778   3.328   3.279   0.953
 1659SOL    HW1 7779   3.269   3.285   1.033
 1659SOL    HW2 7780   3.313   3.191   0.907
 1660SOL     OW 7781   3.529   3.576   0.572
 1660SOL    HW1 7782   3.488   3.553   0.484
 1660SOL    HW2 7783   3.511   3.502   0.637
 1661SOL     OW 7784   2.460   2.591   0.270
 1661SOL    HW1 7785   2.484   2.660   0.202
 1661SOL    HW2 7786   2.382   2.624   0.324
 1662SOL     OW 7787   3.143   2.207   0.944
 1662SOL    HW1 7788   3.057   2.157   0.931
 1662SOL    HW2 7789   3.205   2.153   1.000
 1663SOL     OW 7790   3.256   2.331   1.674
 1663SOL    HW1 7791   3.236   2.374   1.762
 1663SOL    HW2 7792   3.334   2.269   1.683
 1664SOL     OW 7793   2.835   2.752   1.572
 1664SOL    HW1 7794   2.881   2.668   1.543
 1664SOL    HW2 7795   2.779   2.786   1.497
 1665SOL     OW 7796   1.938   2.673   0.789
 1665SOL    HW1 7797   2.037   2.661   0.798
 1665SOL    HW2 7798   1.914   2.768   0.810
 1666SOL     OW 7799   1.992   3.683   1.571
 1666SOL    HW1 7800   1.982   3.668   1.670
 1666SOL    HW2 7801   1.906   3.719   1.535
 1667SOL     OW 7802   2.727   2.210   0.195
 1667SOL    HW1 7803   2.786   2.273   0.146
 1667SOL    HW2 7804   2.746   2.116   0.166
 1668SOL     OW 7805   3.581   2.447   1.831
 1668SOL    HW1 7806   3.555   2.536   1.795
 1668SOL    HW2 7807   3.579   2.379   1.758
 1669SOL     OW 7808   2.412   2.058   0.885
 1669SOL    HW1 7809   2.407   2.053   0.985
 1669SOL    HW2 7810   2.414   2.154   0.856
 1670SOL     OW 7811   2.870   3.318   0.477
 1670SOL    HW1 7812   2.824   3.390   0.425
 1670SOL    HW2 7813   2.866   3.338   0.575
 1671SOL     OW 7814   2.213   3.663   0.853
 1671SOL    HW1 7815   2.263   3.577   0.859
 1671SOL    HW2 7816   2.278   3.740   0.850
 1672SOL     OW 7817   3.320   2.597   0.728
 1672SOL    HW1 7818   3.315   2.532   0.803
 1672SOL    HW2 7819   3.400   2.656   0.741
 1673SOL     OW 7820   2.323   3.128   1.727
 1673SOL    HW1 7821   2.273   3.129   1.641
 1673SOL    HW2 7822   2.260   3.110   1.803
 1674SOL     OW 7823   2.973   3.638   0.237
 1674SOL    HW1 7824   2.913   3.576   0.287
 1674SOL    HW2 7825   3.004   3.594   0.152
 1675SOL     OW 7826   2.064   2.147   1.498
 1675SOL    HW1 7827   1.984   2.207   1.485
 1675SOL    HW2 7828   2.054   2.098   1.584
 1676SOL     OW 7829   2.326   3.605   0.323
 1676SOL    HW1 7830   2.359   3.644   0.409
 1676SOL    HW2 7831   2.402   3.598   0.258
 1677SOL     OW 7832   3.262   1.969   0.426
 1677SOL    HW1 7833   3.238   1.932   0.336
 1677SOL    HW2 7834   3.361   1.985   0.430
 1678SOL     OW 7835   2.111   3.647   1.241
 1678SOL    HW1 7836   2.168   3.582   1.291
 1678SOL    HW2 7837   2.095   3.614   1.148
 1679SOL     OW 7838   2.802   3.560   0.904
 1679SOL    HW1 7839   2.882   3.503   0.925
 1679SOL    HW2 7840   2.753   3.520   0.827
 1680SOL     OW 7841   3.409   2.084   1.729
 1680SOL    HW1 7842   3.404   2.121   1.821
 1680SOL    HW2 7843   3.337   2.015   1.717
 1681SOL     OW 7844   2.643   2.126   1.749
 1681SOL    HW1 7845   2.710   2.065   1.792
 1681SOL    HW2 7846   2.570   2.145   1.814
 1682SOL     OW 7847   2.750   3.376   1.195
 1682SOL    HW1 7848   2.727   3.351   1.101
 1682SOL    HW2 7849   2.811   3.307   1.234
 1683SOL     OW 7850   3.213   2.452   1.433
 1683SOL    HW1 7851   3.241   2.409   1.518
 1683SOL    HW2 7852   3.238   2.548   1.434
 1684SOL     OW 7853   2.784   2.365   0.899
 1684SOL    HW1 7854   2.759   2.356   0.803
 1684SOL    HW2 7855   2.832   2.283   0.930
 1685SOL     OW 7856   3.296   3.050   0.041
 1685SOL    HW1 7857   3.328   2.974   0.098
 1685SOL    HW2 7858   3.204   3.077   0.071
 1686SOL     OW 7859   2.159   1.897   0.171
 1686SOL    HW1 7860   2.208   1.981   0.150
 1686SOL    HW2 7861   2.221   1.832   0.216
 1687SOL     OW 7862   2.797   2.098   0.480
 1687SOL    HW1 7863   2.749   2.139   0.402
 1687SOL    HW2 7864   2.896   2.096   0.461
 1688SOL     OW 7865   2.938   2.545   1.464
 1688SOL    HW1 7866   2.858   2.484   1.467
 1688SOL    HW2 7867   3.019   2.492   1.440
 1689SOL     OW 7868   2.423   2.084   1.147
 1689SOL    HW1 7869   2.461   2.000   1.184
 1689SOL    HW2 7870   2.335   2.103   1.191
 1690SOL     OW 7871   2.728   2.316   0.642
 1690SOL    HW1 7872   2.696   2.388   0.580
 1690SOL    HW2 7873   2.752   2.235   0.589
 1691SOL     OW 7874   2.879   1.901   0.753
 1691SOL    HW1 7875   2.807   1.906   0.684
 1691SOL    HW2 7876   2.855   1.832   0.822
 1692SOL     OW 7877   3.328   2.452   0.992
 1692SOL    HW1 7878   3.298   2.357   0.999
 1692SOL    HW2 7879   3.401   2.468   1.058
 1693SOL     OW 7880   2.350   3.247   0.174
 1693SOL    HW1 7881   2.263   3.232   0.221
 1693SOL    HW2 7882   2.333   3.273   0.079
 1694SOL     OW 7883   3.252   2.437   0.078
 1694SOL    HW1 7884   3.198   2.416   0.159
 1694SOL    HW2 7885   3.343   2.396   0.087
 1695SOL     OW 7886   3.454   3.491   1.625
 1695SOL    HW1 7887   3.481   3.525   1.535
 1695SOL    HW2 7888   3.533   3.453   1.671
 1696SOL     OW 7889   2.973   3.057   1.100
 1696SOL    HW1 7890   2.933   3.101   1.181
 1696SOL    HW2 7891   2.932   3.094   1.017
 1697SOL     OW 7892   2.777   1.951   1.402
 1697SOL    HW1 7893   2.802   1.931   1.307
 1697SOL    HW2 7894   2.849   2.007   1.444
 1698SOL     OW 7895   2.842   2.978   1.719
 1698SOL    HW1 7896   2.743   2.984   1.729
 1698SOL    HW2 7897   2.865   2.898   1.663
 1699SOL     OW 7898   2.272   2.675   1.251
 1699SOL    HW1 7899   2.358   2.687   1.301
 1699SOL    HW2 7900   2.230   2.588   1.278
 1700SOL     OW 7901   3.136   2.248   1.262
 1700SOL    HW1 7902   3.157   2.322   1.326
 1700SOL    HW2 7903   3.047   2.265   1.219
 1701SOL     OW 7904   1.926   3.426   1.331
 1701SOL    HW1 7905   1.880   3.508   1.297
 1701SOL    HW2 7906   2.024   3.445   1.340
 1702SOL     OW 7907   3.134   3.307   1.142
 1702SOL    HW1 7908   3.181   3.320   1.229
 1702SOL    HW2 7909   3.068   3.233   1.151
 1703SOL     OW 7910   3.444   2.501   0.472
 1703SOL    HW1 7911   3.413   2.562   0.545
 1703SOL    HW2 7912   3.494   2.553   0.403
 1704SOL     OW 7913   2.216   3.372   1.329
 1704SOL    HW1 7914   2.195   3.328   1.242
 1704SOL    HW2 7915   2.313   3.398   1.332
 1705SOL     OW 7916   2.264   2.613   1.598
 1705SOL    HW1 7917   2.332   2.668   1.551
 1705SOL    HW2 7918   2.304   2.525   1.625
 1706SOL     OW 7919   3.449   2.641   1.670
 1706SOL    HW1 7920   3.357   2.679   1.665
 1706SOL    HW2 7921   3.509   2.688   1.605
 1707SOL     OW 7922   2.875   1.967   1.770
 1707SOL    HW1 7923   2.881   2.052   1.718
 1707SOL    HW2 7924   2.907   1.891   1.713
 1708SOL     OW 7925   2.366   1.912   1.740
 1708SOL    HW1 7926   2.324   1.855   1.670
 1708SOL    HW2 7927   2.300   1.981   1.772
 1709SOL     OW 7928   2.169   2.075   1.231
 1709SOL    HW1 7929   2.146   2.112   1.321
 1709SOL    HW2 7930   2.139   1.980   1.225
 1710SOL     OW 7931   1.899   3.172   1.282
 1710SOL    HW1 7932   1.952   3.123   1.350
 1710SOL    HW2 7933   1.921   3.270   1.287
 1711SOL     OW 7934   3.484   2.229   0.374
 1711SOL    HW1 7935   3.486   2.153   0.438
 1711SOL    HW2 7936   3.436   2.306   0.414
 1712SOL     OW 7937   3.721   3.380   1.605
 1712SOL    HW1 7938   3.735   3.407   1.510
 1712SOL    HW2 7939   3.804   3.402   1.658
 1713SOL     OW 7940   2.212   2.760   1.804
 1713SOL    HW1 7941   2.288   2.804   1.852
 1713SOL    HW2 7942   2.247   2.713   1.722
 1714SOL     OW 7943   3.402   2.136   0.125
 1714SOL    HW1 7944   3.341   2.061   0.148
 1714SOL    HW2 7945   3.424   2.188   0.208
 1715SOL     OW 7946   3.165   2.700   0.042
 1715SOL    HW1 7947   3.199   2.607   0.057
 1715SOL    HW2 7948   3.183   2.727  -0.053
 1716SOL     OW 7949   2.201   2.371   1.006
 1716SOL    HW1 7950   2.149   2.288   0.989
 1716SOL    HW2 7951   2.278   2.376   0.942
 1717SOL     OW 7952   3.000   2.242   1.678
 1717SOL    HW1 7953   2.955   2.305   1.742
 1717SOL    HW2 7954   3.093   2.273   1.661
 1718SOL     OW 7955   3.022   2.069   1.477
 1718SOL    HW1 7956   3.022   2.133   1.554
 1718SOL    HW2 7957   3.050   2.117   1.394
 1719SOL     OW 7958   1.950   3.663   0.927
 1719SOL    HW1 7959   1.908   3.577   0.900
 1719SOL    HW2 7960   2.044   3.666   0.893
 1720SOL     OW 7961   2.366   3.430   0.910
 1720SOL    HW1 7962   2.432   3.504   0.919
 1720SOL    HW2 7963   2.410   3.351   0.868
 1721SOL     OW 7964   2.051   2.382   1.722
 1721SOL    HW1 7965   2.110   2.342   1.652
 1721SOL    HW2 7966   1.993   2.453   1.681
 1722SOL     OW 7967   3.231   2.812   1.660
 1722SOL    HW1 7968   3.270   2.901   1.680
 1722SOL    HW2 7969   3.241   2.792   1.563
 1723SOL     OW 7970   2.677   2.434   0.325
 1723SOL    HW1 7971   2.684   2.345   0.279
 1723SOL    HW2 7972   2.583   2.468   0.317
 1724SOL     OW 7973   3.519   2.466   1.206
 1724SOL    HW1 7974   3.481   2.397   1.268
 1724SOL    HW2 7975   3.601   2.430   1.162
 1725SOL     OW 7976   2.114   3.426   1.744
 1725SOL    HW1 7977   2.084   3.483   1.820
 1725SOL    HW2 7978   2.107   3.329   1.770
 1726SOL     OW 7979   2.335   2.362   0.191
 1726SOL    HW1 7980   2.396   2.442   0.195
 1726SOL    HW2 7981   2.240   2.393   0.198
 1727SOL     OW 7982   2.021   2.999   1.466
 1727SOL    HW1 7983   2.043   2.938   1.542
 1727SOL    HW2 7984   2.031   2.950   1.380
 1728SOL     OW 7985   3.164   2.717   0.309
 1728SOL    HW1 7986   3.078   2.686   0.351
 1728SOL    HW2 7987   3.160   2.703   0.210
 1729SOL     OW 7988   3.621   3.609   1.154
 1729SOL    HW1 7989   3.682   3.639   1.081
 1729SOL    HW2 7990   3.583   3.520   1.132
 1730SOL     OW 7991   3.114   3.593   1.128
 1730SOL    HW1 7992   3.198   3.598   1.074
 1730SOL    HW2 7993   3.091   3.497   1.146
 1731SOL     OW 7994   1.945   3.120   1.022
 1731SOL    HW1 7995   1.940   3.119   1.122
 1731SOL    HW2 7996   1.862   3.079   0.984
 1732SOL     OW 7997   3.588   1.997   0.523
 1732SOL    HW1 7998   3.661   1.980   0.456
 1732SOL    HW2 7999   3.557   1.910   0.561
 1733SOL     OW 8000   1.992   3.656   1.851
 1733SOL    HW1 8001   1.951   3.582   1.904
 1733SOL    HW2 8002   2.056   3.707   1.909
 1734SOL     OW 8003   3.142   2.789   0.672
 1734SOL    HW1 8004   3.202   2.708   0.674
 1734SOL    HW2 8005   3.182   2.858   0.612
 1735SOL     OW 8006   2.534   3.478   0.154
 1735SOL    HW1 8007   2.543   3.488   0.055
 1735SOL    HW2 8008   2.494   3.389   0.175
 1736SOL     OW 8009   3.512   3.582   1.394
 1736SOL    HW1 8010   3.565   3.592   1.310
 1736SOL    HW2 8011   3.485   3.672   1.428
 1737SOL     OW 8012   3.703   2.037   0.963
 1737SOL    HW1 8013   3.742   1.952   0.927
 1737SOL    HW2 8014   3.605   2.039   0.944
 1738SOL     OW 8015   2.125   2.188   0.720
 1738SOL    HW1 8016   2.046   2.239   0.686
 1738SOL    HW2 8017   2.116   2.173   0.818
 1739SOL     OW 8018   3.056   3.474   0.031
 1739SOL    HW1 8019   3.062   3.381   0.068
 1739SOL    HW2 8020   2.997   3.474  -0.049
 1740SOL     OW 8021   2.684   2.864   1.372
 1740SOL    HW1 8022   2.724   2.863   1.280
 1740SOL    HW2 8023   2.694   2.956   1.412
 1741SOL     OW 8024   2.234   3.150   1.490
 1741SOL    HW1 8025   2.221   3.243   1.456
 1741SOL    HW2 8026   2.150   3.098   1.477
 1742SOL     OW 8027   3.476   3.154   1.289
 1742SOL    HW1 8028   3.536   3.157   1.369
 1742SOL    HW2 8029   3.401   3.218   1.302
 1743SOL     OW 8030   2.876   2.098   0.971
 1743SOL    HW1 8031   2.868   2.062   0.878
 1743SOL    HW2 8032   2.874   2.022   1.036
 1744SOL     OW 8033   2.452   3.349   0.491
 1744SOL    HW1 8034   2.494   3.291   0.421
 1744SOL    HW2 8035   2.408   3.428   0.447
 1745SOL     OW 8036   3.571   2.247   1.381
 1745SOL    HW1 8037   3.644   2.316   1.385
 1745SOL    HW2 8038   3.599   2.172   1.322
 1746SOL     OW 8039   1.967   2.875   1.726
 1746SOL    HW1 8040   1.890   2.842   1.780
 1746SOL    HW2 8041   2.052   2.845   1.768
 1747SOL     OW 8042   2.534   2.065   1.489
 1747SOL    HW1 8043   2.624   2.049   1.449
 1747SOL    HW2 8044   2.542   2.070   1.588
 1748SOL     OW 8045   3.302   2.718   1.398
 1748SOL    HW1 8046   3.245   2.770   1.335
 1748SOL    HW2 8047   3.398   2.730   1.374
 1749SOL     OW 8048   1.934   2.028   0.318
 1749SOL    HW1 8049   1.917   2.111   0.264
 1749SOL    HW2 8050   2.024   1.991   0.296
 1750SOL     OW 8051   3.045   3.197   0.119
 1750SOL    HW1 8052   2.946   3.186   0.121
 1750SOL    HW2 8053   3.079   3.212   0.212
 1751SOL     OW 8054   3.355   3.629   0.959
 1751SOL    HW1 8055   3.388   3.693   0.890
 1751SOL    HW2 8056   3.421   3.623   1.034
 1752SOL     OW 8057   2.578   2.427   1.708
 1752SOL    HW1 8058   2.597   2.492   1.782
 1752SOL    HW2 8059   2.638   2.347   1.717
 1753SOL     OW 8060   3.312   3.082   1.633
 1753SOL    HW1 8061   3.303   3.072   1.732
 1753SOL    HW2 8062   3.408   3.075   1.607
 1754SOL     OW 8063   2.252   3.603   1.560
 1754SOL    HW1 8064   2.161   3.644   1.558
 1754SOL    HW2 8065   2.245   3.509   1.592
 1755SOL     OW 8066   3.536   2.745   1.254
 1755SOL    HW1 8067   3.509   2.656   1.217
 1755SOL    HW2 8068   3.537   2.813   1.181
 1756SOL     OW 8069   3.087   2.187   0.449
 1756SOL    HW1 8070   3.152   2.113   0.438
 1756SOL    HW2 8071   3.107   2.237   0.533
 1757SOL     OW 8072   2.456   2.607   0.652
 1757SOL    HW1 8073   2.506   2.692   0.633
 1757SOL    HW2 8074   2.368   2.609   0.604
 1758SOL     OW 8075   3.639   2.204   1.642
 1758SOL    HW1 8076   3.622   2.235   1.548
 1758SOL    HW2 8077   3.555   2.167   1.680
 1759SOL     OW 8078   3.592   2.796   1.517
 1759SOL    HW1 8079   3.630   2.887   1.532
 1759SOL    HW2 8080   3.584   2.779   1.418
 1760SOL     OW 8081   2.721   3.236   0.016
 1760SOL    HW1 8082   2.675   3.251   0.104
 1760SOL    HW2 8083   2.765   3.321  -0.014
 1761SOL     OW 8084   2.523   3.652   0.953
 1761SOL    HW1 8085   2.477   3.740   0.940
 1761SOL    HW2 8086   2.622   3.664   0.946
 1762SOL     OW 8087   3.723   3.431   0.851
 1762SOL    HW1 8088   3.652   3.419   0.781
 1762SOL    HW2 8089   3.724   3.352   0.911
 1763SOL     OW 8090   2.083   3.176   1.844
 1763SOL    HW1 8091   2.018   3.103   1.823
 1763SOL    HW2 8092   2.087   3.190   1.942
 1764SOL     OW 8093   1.941   3.102   0.653
 1764SOL    HW1 8094   1.940   3.055   0.741
 1764SOL    HW2 8095   2.023   3.074   0.602
 1765SOL     OW 8096   2.534   3.253   1.624
 1765SOL    HW1 8097   2.456   3.203   1.662
 1765SOL    HW2 8098   2.531   3.348   1.655
 1766SOL     OW 8099   3.686   2.054   1.227
 1766SOL    HW1 8100   3.682   1.964   1.271
 1766SOL    HW2 8101   3.689   2.043   1.128
 1767SOL     OW 8102   2.290   2.286   0.520
 1767SOL    HW1 8103   2.320   2.214   0.458
 1767SOL    HW2 8104   2.251   2.246   0.603
 1768SOL     OW 8105   3.567   3.349   1.104
 1768SOL    HW1 8106   3.474   3.324   1.077
 1768SOL    HW2 8107   3.593   3.299   1.186
 1769SOL     OW 8108   2.674   3.448   0.687
 1769SOL    HW1 8109   2.706   3.458   0.593
 1769SOL    HW2 8110   2.595   3.386   0.689
 1770SOL     OW 8111   3.286   2.076   1.112
 1770SOL    HW1 8112   3.338   2.011   1.167
 1770SOL    HW2 8113   3.237   2.139   1.173
 1771SOL     OW 8114   2.863   1.896   1.154
 1771SOL    HW1 8115   2.800   1.824   1.123
 1771SOL    HW2 8116   2.956   1.860   1.154
 1772SOL     OW 8117   2.632   3.192   0.301
 1772SOL    HW1 8118   2.586   3.105   0.318
 1772SOL    HW2 8119   2.723   3.189   0.342
 1773SOL     OW 8120   2.480   3.429   1.284
 1773SOL    HW1 8121   2.475   3.511   1.341
 1773SOL    HW2 8122   2.569   3.426   1.239
 1774SOL     OW 8123   3.214   1.914   0.168
 1774SOL    HW1 8124   3.249   1.873   0.084
 1774SOL    HW2 8125   3.124   1.876   0.188
 1775SOL     OW 8126   3.162   2.315   0.691
 1775SOL    HW1 8127   3.103   2.395   0.695
 1775SOL    HW2 8128   3.177   2.280   0.784
 1776SOL     OW 8129   3.455   2.083   0.882
 1776SOL    HW1 8130   3.371   2.082   0.936
 1776SOL    HW2 8131   3.457   2.166   0.826
 1777SOL     OW 8132   2.737   3.508   0.337
 1777SOL    HW1 8133   2.660   3.473   0.283
 1777SOL    HW2 8134   2.705   3.579   0.399
 1778SOL     OW 8135   2.092   2.490   1.975
 1778SOL    HW1 8136   1.999   2.488   2.012
 1778SOL    HW2 8137   2.093   2.451   1.883
 1779SOL     OW 8138   1.881   2.230   2.509
 1779SOL    HW1 8139   1.799   2.273   2.548
 1779SOL    HW2 8140   1.853   2.157   2.446
 1780SOL     OW 8141   2.431   3.137   3.027
 1780SOL    HW1 8142   2.338   3.130   2.990
 1780SOL    HW2 8143   2.442   3.226   3.071
 1781SOL     OW 8144   3.417   3.373   2.565
 1781SOL    HW1 8145   3.360   3.357   2.646
 1781SOL    HW2 8146   3.358   3.383   2.485
 1782SOL     OW 8147   3.617   2.469   2.093
 1782SOL    HW1 8148   3.605   2.456   1.994
 1782SOL    HW2 8149   3.587   2.388   2.142
 1783SOL     OW 8150   2.630   3.006   2.885
 1783SOL    HW1 8151   2.552   3.023   2.945
 1783SOL    HW2 8152   2.664   3.093   2.849
 1784SOL     OW 8153   2.712   2.660   3.685
 1784SOL    HW1 8154   2.708   2.736   3.750
 1784SOL    HW2 8155   2.734   2.696   3.594
 1785SOL     OW 8156   2.548   3.023   3.665
 1785SOL    HW1 8157   2.608   3.102   3.679
 1785SOL    HW2 8158   2.462   3.054   3.624
 1786SOL     OW 8159   2.197   3.297   2.923
 1786SOL    HW1 8160   2.119   3.266   2.870
 1786SOL    HW2 8161   2.255   3.355   2.866
 1787SOL     OW 8162   3.322   3.367   3.201
 1787SOL    HW1 8163   3.346   3.461   3.227
 1787SOL    HW2 8164   3.306   3.313   3.283
 1788SOL     OW 8165   3.465   2.309   2.599
 1788SOL    HW1 8166   3.391   2.355   2.549
 1788SOL    HW2 8167   3.516   2.377   2.652
 1789SOL     OW 8168   2.093   3.575   2.345
 1789SOL    HW1 8169   2.127   3.652   2.399
 1789SOL    HW2 8170   2.137   3.575   2.255
 1790SOL     OW 8171   2.989   3.203   3.552
 1790SOL    HW1 8172   3.036   3.203   3.640
 1790SOL    HW2 8173   2.941   3.116   3.541
 1791SOL     OW 8174   2.092   3.296   2.400
 1791SOL    HW1 8175   2.066   3.392   2.400
 1791SOL    HW2 8176   2.021   3.242   2.445
 1792SOL     OW 8177   2.102   2.953   2.748
 1792SOL    HW1 8178   2.116   2.869   2.800
 1792SOL    HW2 8179   2.047   3.017   2.803
 1793SOL     OW 8180   2.482   3.648   3.301
 1793SOL    HW1 8181   2.390   3.631   3.336
 1793SOL    HW2 8182   2.510   3.740   3.327
 1794SOL     OW 8183   2.468   2.826   1.985
 1794SOL    HW1 8184   2.475   2.910   1.931
 1794SOL    HW2 8185   2.514   2.839   2.073
 1795SOL     OW 8186   3.704   3.629   2.221
 1795SOL    HW1 8187   3.758   3.600   2.301
 1795SOL    HW2 8188   3.734   3.719   2.192
 1796SOL     OW 8189   1.889   3.458   1.979
 1796SOL    HW1 8190   1.870   3.362   2.000
 1796SOL    HW2 8191   1.856   3.516   2.054
 1797SOL     OW 8192   3.503   2.970   2.294
 1797SOL    HW1 8193   3.589   2.972   2.242
 1797SOL    HW2 8194   3.517   3.017   2.382
 1798SOL     OW 8195   1.975   2.599   3.459
 1798SOL    HW1 8196   2.063   2.586   3.504
 1798SOL    HW2 8197   1.962   2.696   3.437
 1799SOL     OW 8198   2.475   3.227   2.588
 1799SOL    HW1 8199   2.426   3.140   2.597
 1799SOL    HW2 8200   2.452   3.270   2.501
 1800SOL     OW 8201   3.155   3.090   3.285
 1800SOL    HW1 8202   3.192   3.017   3.227
 1800SOL    HW2 8203   3.207   3.095   3.370
 1801SOL     OW 8204   2.671   1.866   2.364
 1801SOL    HW1 8205   2.711   1.957   2.355
 1801SOL    HW2 8206   2.571   1.874   2.370
 1802SOL     OW 8207   2.059   2.838   3.126
 1802SOL    HW1 8208   2.148   2.793   3.112
 1802SOL    HW2 8209   1.986   2.773   3.107
 1803SOL     OW 8210   3.387   2.861   2.052
 1803SOL    HW1 8211   3.324   2.785   2.065
 1803SOL    HW2 8212   3.435   2.879   2.138
 1804SOL     OW 8213   3.049   3.654   3.478
 1804SOL    HW1 8214   3.073   3.714   3.402
 1804SOL    HW2 8215   3.056   3.559   3.448
 1805SOL     OW 8216   3.328   3.279   2.815
 1805SOL    HW1 8217   3.269   3.285   2.895
 1805SOL    HW2 8218   3.313   3.191   2.769
 1806SOL     OW 8219   3.529   3.576   2.434
 1806SOL    HW1 8220   3.488   3.553   2.346
 1806SOL    HW2 8221   3.511   3.502   2.499
 1807SOL     OW 8222   2.460   2.591   2.132
 1807SOL    HW1 8223   2.484   2.660   2.064
 1807SOL    HW2 8224   2.382   2.624   2.186
 1808SOL     OW 8225   3.438   3.524   2.169
 1808SOL    HW1 8226   3.527   3.570   2.172
 1808SOL    HW2 8227   3.417   3.500   2.074
 1809SOL     OW 8228   2.669   2.467   3.327
 1809SOL    HW1 8229   2.622   2.464   3.416
 1809SOL    HW2 8230   2.618   2.412   3.261
 1810SOL     OW 8231   2.835   2.752   3.434
 1810SOL    HW1 8232   2.881   2.668   3.405
 1810SOL    HW2 8233   2.779   2.786   3.359
 1811SOL     OW 8234   2.853   2.272   3.104
 1811SOL    HW1 8235   2.776   2.306   3.158
 1811SOL    HW2 8236   2.819   2.221   3.025
 1812SOL     OW 8237   2.903   2.563   2.291
 1812SOL    HW1 8238   2.929   2.559   2.387
 1812SOL    HW2 8239   2.818   2.512   2.277
 1813SOL     OW 8240   1.938   2.673   2.651
 1813SOL    HW1 8241   2.037   2.661   2.660
 1813SOL    HW2 8242   1.914   2.768   2.672
 1814SOL     OW 8243   1.992   3.683   3.433
 1814SOL    HW1 8244   1.982   3.668   3.532
 1814SOL    HW2 8245   1.906   3.719   3.397
 1815SOL     OW 8246   2.727   2.210   2.057
 1815SOL    HW1 8247   2.786   2.273   2.008
 1815SOL    HW2 8248   2.746   2.116   2.028
 1816SOL     OW 8249   3.224   3.006   2.407
 1816SOL    HW1 8250   3.307   2.977   2.359
 1816SOL    HW2 8251   3.175   3.073   2.351
 1817SOL     OW 8252   2.412   2.058   2.747
 1817SOL    HW1 8253   2.407   2.053   2.847
 1817SOL    HW2 8254   2.414   2.154   2.718
 1818SOL     OW 8255   2.870   3.318   2.339
 1818SOL    HW1 8256   2.824   3.390   2.287
 1818SOL    HW2 8257   2.866   3.338   2.437
 1819SOL     OW 8258   2.213   3.663   2.715
 1819SOL    HW1 8259   2.263   3.577   2.721
 1819SOL    HW2 8260   2.278   3.740   2.712
 1820SOL     OW 8261   3.657   2.928   2.735
 1820SOL    HW1 8262   3.595   2.913   2.659
 1820SOL    HW2 8263   3.605   2.939   2.820
 1821SOL     OW 8264   3.089   3.412   3.368
 1821SOL    HW1 8265   3.095   3.335   3.432
 1821SOL    HW2 8266   3.037   3.386   3.288
 1822SOL     OW 8267   2.183   2.805   2.104
 1822SOL    HW1 8268   2.265   2.844   2.062
 1822SOL    HW2 8269   2.156   2.723   2.055
 1823SOL     OW 8270   3.320   2.597   2.590
 1823SOL    HW1 8271   3.315   2.532   2.665
 1823SOL    HW2 8272   3.400   2.656   2.603
 1824SOL     OW 8273   2.323   3.128   3.589
 1824SOL    HW1 8274   2.273   3.129   3.503
 1824SOL    HW2 8275   2.260   3.110   3.665
 1825SOL     OW 8276   2.973   3.638   2.099
 1825SOL    HW1 8277   2.913   3.576   2.149
 1825SOL    HW2 8278   3.004   3.594   2.014
 1826SOL     OW 8279   3.494   3.239   1.943
 1826SOL    HW1 8280   3.462   3.333   1.933
 1826SOL    HW2 8281   3.418   3.176   1.931
 1827SOL     OW 8282   2.111   3.647   3.103
 1827SOL    HW1 8283   2.168   3.582   3.153
 1827SOL    HW2 8284   2.095   3.614   3.010
 1828SOL     OW 8285   2.802   3.560   2.766
 1828SOL    HW1 8286   2.882   3.503   2.787
 1828SOL    HW2 8287   2.753   3.520   2.689
 1829SOL     OW 8288   2.244   2.562   2.342
 1829SOL    HW1 8289   2.289   2.472   2.339
 1829SOL    HW2 8290   2.150   2.551   2.375
 1830SOL     OW 8291   2.476   1.984   1.979
 1830SOL    HW1 8292   2.574   1.962   1.986
 1830SOL    HW2 8293   2.445   1.967   1.886
 1831SOL     OW 8294   2.750   3.376   3.057
 1831SOL    HW1 8295   2.727   3.351   2.963
 1831SOL    HW2 8296   2.811   3.307   3.096
 1832SOL     OW 8297   2.665   3.264   2.786
 1832SOL    HW1 8298   2.755   3.278   2.744
 1832SOL    HW2 8299   2.594   3.266   2.715
 1833SOL     OW 8300   2.401   1.926   2.374
 1833SOL    HW1 8301   2.320   1.927   2.432
 1833SOL    HW2 8302   2.404   2.009   2.319
 1834SOL     OW 8303   3.296   3.050   1.903
 1834SOL    HW1 8304   3.328   2.974   1.960
 1834SOL    HW2 8305   3.204   3.077   1.933
 1835SOL     OW 8306   2.938   2.545   3.326
 1835SOL    HW1 8307   2.858   2.484   3.329
 1835SOL    HW2 8308   3.019   2.492   3.302
 1836SOL     OW 8309   3.089   3.432   2.655
 1836SOL    HW1 8310   3.110   3.506   2.590
 1836SOL    HW2 8311   3.157   3.432   2.728
 1837SOL     OW 8312   2.321   3.014   2.603
 1837SOL    HW1 8313   2.250   2.987   2.668
 1837SOL    HW2 8314   2.295   2.986   2.510
 1838SOL     OW 8315   3.133   3.659   2.453
 1838SOL    HW1 8316   3.177   3.723   2.389
 1838SOL    HW2 8317   3.083   3.711   2.523
 1839SOL     OW 8318   2.894   2.411   1.878
 1839SOL    HW1 8319   2.853   2.493   1.839
 1839SOL    HW2 8320   2.958   2.437   1.951
 1840SOL     OW 8321   2.423   2.084   3.009
 1840SOL    HW1 8322   2.461   2.000   3.046
 1840SOL    HW2 8323   2.335   2.103   3.053
 1841SOL     OW 8324   2.879   1.901   2.615
 1841SOL    HW1 8325   2.807   1.906   2.546
 1841SOL    HW2 8326   2.855   1.832   2.684
 1842SOL     OW 8327   3.291   3.035   2.729
 1842SOL    HW1 8328   3.236   2.951   2.722
 1842SOL    HW2 8329   3.317   3.064   2.637
 1843SOL     OW 8330   2.350   3.247   2.036
 1843SOL    HW1 8331   2.263   3.232   2.083
 1843SOL    HW2 8332   2.333   3.273   1.941
 1844SOL     OW 8333   3.526   3.142   2.519
 1844SOL    HW1 8334   3.625   3.150   2.533
 1844SOL    HW2 8335   3.481   3.226   2.550
 1845SOL     OW 8336   3.252   2.437   1.940
 1845SOL    HW1 8337   3.198   2.416   2.021
 1845SOL    HW2 8338   3.343   2.396   1.949
 1846SOL     OW 8339   2.389   2.118   2.190
 1846SOL    HW1 8340   2.416   2.059   2.115
 1846SOL    HW2 8341   2.389   2.213   2.159
 1847SOL     OW 8342   3.616   3.085   3.450
 1847SOL    HW1 8343   3.707   3.046   3.437
 1847SOL    HW2 8344   3.624   3.181   3.474
 1848SOL     OW 8345   2.926   3.209   3.202
 1848SOL    HW1 8346   2.846   3.186   3.257
 1848SOL    HW2 8347   3.009   3.183   3.251
 1849SOL     OW 8348   3.454   3.491   3.487
 1849SOL    HW1 8349   3.481   3.525   3.397
 1849SOL    HW2 8350   3.533   3.453   3.533
 1850SOL     OW 8351   2.973   3.057   2.962
 1850SOL    HW1 8352   2.933   3.101   3.043
 1850SOL    HW2 8353   2.932   3.094   2.879
 1851SOL     OW 8354   3.500   2.961   2.941
 1851SOL    HW1 8355   3.505   3.042   3.000
 1851SOL    HW2 8356   3.414   2.963   2.890
 1852SOL     OW 8357   2.842   2.978   3.581
 1852SOL    HW1 8358   2.743   2.984   3.591
 1852SOL    HW2 8359   2.865   2.898   3.525
 1853SOL     OW 8360   1.926   3.426   3.193
 1853SOL    HW1 8361   1.880   3.508   3.159
 1853SOL    HW2 8362   2.024   3.445   3.202
 1854SOL     OW 8363   2.229   2.962   2.363
 1854SOL    HW1 8364   2.222   3.045   2.307
 1854SOL    HW2 8365   2.233   2.882   2.303
 1855SOL     OW 8366   3.114   3.210   2.250
 1855SOL    HW1 8367   3.164   3.287   2.290
 1855SOL    HW2 8368   3.019   3.212   2.282
 1856SOL     OW 8369   3.134   3.307   3.004
 1856SOL    HW1 8370   3.181   3.320   3.091
 1856SOL    HW2 8371   3.068   3.233   3.013
 1857SOL     OW 8372   2.216   3.372   3.191
 1857SOL    HW1 8373   2.195   3.328   3.104
 1857SOL    HW2 8374   2.313   3.398   3.194
 1858SOL     OW 8375   2.264   2.613   3.460
 1858SOL    HW1 8376   2.332   2.668   3.413
 1858SOL    HW2 8377   2.304   2.525   3.487
 1859SOL     OW 8378   2.435   2.732   2.891
 1859SOL    HW1 8379   2.479   2.821   2.882
 1859SOL    HW2 8380   2.372   2.732   2.968
 1860SOL     OW 8381   3.222   2.724   2.907
 1860SOL    HW1 8382   3.147   2.724   2.841
 1860SOL    HW2 8383   3.259   2.632   2.916
 1861SOL     OW 8384   3.071   2.387   2.137
 1861SOL    HW1 8385   3.084   2.303   2.191
 1861SOL    HW2 8386   3.042   2.461   2.197
 1862SOL     OW 8387   1.899   3.172   3.144
 1862SOL    HW1 8388   1.952   3.123   3.212
 1862SOL    HW2 8389   1.921   3.270   3.149
 1863SOL     OW 8390   3.590   2.797   3.716
 1863SOL    HW1 8391   3.544   2.790   3.627
 1863SOL    HW2 8392   3.528   2.841   3.782
 1864SOL     OW 8393   3.484   2.229   2.236
 1864SOL    HW1 8394   3.486   2.153   2.300
 1864SOL    HW2 8395   3.436   2.306   2.276
 1865SOL     OW 8396   2.885   2.628   2.828
 1865SOL    HW1 8397   2.900   2.649   2.924
 1865SOL    HW2 8398   2.855   2.533   2.819
 1866SOL     OW 8399   2.842   3.435   3.562
 1866SOL    HW1 8400   2.822   3.479   3.474
 1866SOL    HW2 8401   2.881   3.344   3.546
 1867SOL     OW 8402   2.212   2.760   3.666
 1867SOL    HW1 8403   2.288   2.804   3.714
 1867SOL    HW2 8404   2.247   2.713   3.584
 1868SOL     OW 8405   3.402   2.136   1.987
 1868SOL    HW1 8406   3.341   2.061   2.010
 1868SOL    HW2 8407   3.424   2.188   2.070
 1869SOL     OW 8408   3.165   2.700   1.904
 1869SOL    HW1 8409   3.199   2.607   1.919
 1869SOL    HW2 8410   3.183   2.727   1.809
 1870SOL     OW 8411   2.930   3.195   2.711
 1870SOL    HW1 8412   2.937   3.111   2.656
 1870SOL    HW2 8413   2.992   3.264   2.675
 1871SOL     OW 8414   2.181   2.672   2.811
 1871SOL    HW1 8415   2.274   2.708   2.816
 1871SOL    HW2 8416   2.175   2.587   2.863
 1872SOL     OW 8417   2.201   2.371   2.868
 1872SOL    HW1 8418   2.149   2.288   2.851
 1872SOL    HW2 8419   2.278   2.376   2.804
 1873SOL     OW 8420   3.000   2.242   3.540
 1873SOL    HW1 8421   2.955   2.305   3.604
 1873SOL    HW2 8422   3.093   2.273   3.523
 1874SOL     OW 8423   1.870   3.188   2.062
 1874SOL    HW1 8424   1.777   3.209   2.031
 1874SOL    HW2 8425   1.880   3.089   2.075
 1875SOL     OW 8426   1.950   3.663   2.789
 1875SOL    HW1 8427   1.908   3.577   2.762
 1875SOL    HW2 8428   2.044   3.666   2.755
 1876SOL     OW 8429   2.366   3.430   2.772
 1876SOL    HW1 8430   2.432   3.504   2.781
 1876SOL    HW2 8431   2.410   3.351   2.730
 1877SOL     OW 8432   2.864   2.658   3.100
 1877SOL    HW1 8433   2.905   2.626   3.186
 1877SOL    HW2 8434   2.768   2.631   3.097
 1878SOL     OW 8435   1.902   2.406   2.976
 1878SOL    HW1 8436   1.987   2.373   2.935
 1878SOL    HW2 8437   1.915   2.421   3.074
 1879SOL     OW 8438   2.051   2.382   3.584
 1879SOL    HW1 8439   2.110   2.342   3.514
 1879SOL    HW2 8440   1.993   2.453   3.543
 1880SOL     OW 8441   3.231   2.812   3.522
 1880SOL    HW1 8442   3.270   2.901   3.542
 1880SOL    HW2 8443   3.241   2.792   3.425
 1881SOL     OW 8444   2.677   2.434   2.187
 1881SOL    HW1 8445   2.684   2.345   2.141
 1881SOL    HW2 8446   2.583   2.468   2.179
 1882SOL     OW 8447   2.114   3.426   3.606
 1882SOL    HW1 8448   2.084   3.483   3.682
 1882SOL    HW2 8449   2.107   3.329   3.632
 1883SOL     OW 8450   2.792   3.540   3.327
 1883SOL    HW1 8451   2.768   3.522   3.232
 1883SOL    HW2 8452   2.822   3.634   3.337
 1884SOL     OW 8453   2.335   2.362   2.053
 1884SOL    HW1 8454   2.396   2.442   2.057
 1884SOL    HW2 8455   2.240   2.393   2.060
 1885SOL     OW 8456   2.021   2.999   3.328
 1885SOL    HW1 8457   2.043   2.938   3.404
 1885SOL    HW2 8458   2.031   2.950   3.242
 1886SOL     OW 8459   3.209   2.921   3.096
 1886SOL    HW1 8460   3.233   2.858   3.022
 1886SOL    HW2 8461   3.119   2.961   3.078
 1887SOL     OW 8462   3.164   2.717   2.171
 1887SOL    HW1 8463   3.078   2.686   2.213
 1887SOL    HW2 8464   3.160   2.703   2.072
 1888SOL     OW 8465   3.621   3.609   3.016
 1888SOL    HW1 8466   3.682   3.639   2.943
 1888SOL    HW2 8467   3.583   3.520   2.994
 1889SOL     OW 8468   1.945   3.120   2.884
 1889SOL    HW1 8469   1.940   3.119   2.984
 1889SOL    HW2 8470   1.862   3.079   2.846
 1890SOL     OW 8471   2.550   3.524   3.578
 1890SOL    HW1 8472   2.494   3.605   3.587
 1890SOL    HW2 8473   2.602   3.528   3.492
 1891SOL     OW 8474   3.250   3.435   2.339
 1891SOL    HW1 8475   3.317   3.447   2.265
 1891SOL    HW2 8476   3.210   3.524   2.362
 1892SOL     OW 8477   3.142   2.789   2.534
 1892SOL    HW1 8478   3.202   2.708   2.536
 1892SOL    HW2 8479   3.182   2.858   2.474
 1893SOL     OW 8480   2.692   3.135   3.284
 1893SOL    HW1 8481   2.687   3.168   3.379
 1893SOL    HW2 8482   2.606   3.154   3.238
 1894SOL     OW 8483   3.703   2.037   2.825
 1894SOL    HW1 8484   3.742   1.952   2.789
 1894SOL    HW2 8485   3.605   2.039   2.806
 1895SOL     OW 8486   3.056   3.474   1.893
 1895SOL    HW1 8487   3.062   3.381   1.930
 1895SOL    HW2 8488   2.997   3.474   1.813
 1896SOL     OW 8489   2.684   2.864   3.234
 1896SOL    HW1 8490   2.724   2.863   3.142
 1896SOL    HW2 8491   2.694   2.956   3.274
 1897SOL     OW 8492   2.778   2.772   2.153
 1897SOL    HW1 8493   2.841   2.810   2.085
 1897SOL    HW2 8494   2.818   2.689   2.192
 1898SOL     OW 8495   3.366   3.469   1.906
 1898SOL    HW1 8496   3.274   3.506   1.913
 1898SOL    HW2 8497   3.404   3.489   1.816
 1899SOL     OW 8498   2.234   3.150   3.352
 1899SOL    HW1 8499   2.221   3.243   3.318
 1899SOL    HW2 8500   2.150   3.098   3.339
 1900SOL     OW 8501   3.476   3.154   3.151
 1900SOL    HW1 8502   3.536   3.157   3.231
 1900SOL    HW2 8503   3.401   3.218   3.164
 1901SOL     OW 8504   2.901   2.960   2.558
 1901SOL    HW1 8505   2.831   2.913   2.612
 1901SOL    HW2 8506   2.960   2.892   2.515
 1902SOL     OW 8507   2.876   2.098   2.833
 1902SOL    HW1 8508   2.868   2.062   2.740
 1902SOL    HW2 8509   2.874   2.022   2.898
 1903SOL     OW 8510   2.452   3.349   2.353
 1903SOL    HW1 8511   2.494   3.291   2.283
 1903SOL    HW2 8512   2.408   3.428   2.309
 1904SOL     OW 8513   2.117   3.210   2.152
 1904SOL    HW1 8514   2.021   3.211   2.125
 1904SOL    HW2 8515   2.129   3.263   2.236
 1905SOL     OW 8516   1.967   2.875   3.588
 1905SOL    HW1 8517   1.890   2.842   3.642
 1905SOL    HW2 8518   2.052   2.845   3.630
 1906SOL     OW 8519   1.937   2.207   1.895
 1906SOL    HW1 8520   1.845   2.179   1.866
 1906SOL    HW2 8521   1.968   2.284   1.839
 1907SOL     OW 8522   1.934   2.028   2.180
 1907SOL    HW1 8523   1.917   2.111   2.126
 1907SOL    HW2 8524   2.024   1.991   2.158
 1908SOL     OW 8525   3.045   3.197   1.981
 1908SOL    HW1 8526   2.946   3.186   1.983
 1908SOL    HW2 8527   3.079   3.212   2.074
 1909SOL     OW 8528   2.475   2.704   3.293
 1909SOL    HW1 8529   2.531   2.785   3.276
 1909SOL    HW2 8530   2.534   2.624   3.296
 1910SOL     OW 8531   3.355   3.629   2.821
 1910SOL    HW1 8532   3.388   3.693   2.752
 1910SOL    HW2 8533   3.421   3.623   2.896
 1911SOL     OW 8534   2.578   2.427   3.570
 1911SOL    HW1 8535   2.597   2.492   3.644
 1911SOL    HW2 8536   2.638   2.347   3.579
 1912SOL     OW 8537   3.312   3.082   3.495
 1912SOL    HW1 8538   3.303   3.072   3.594
 1912SOL    HW2 8539   3.408   3.075   3.469
 1913SOL     OW 8540   2.252   3.603   3.422
 1913SOL    HW1 8541   2.161   3.644   3.420
 1913SOL    HW2 8542   2.245   3.509   3.454
 1914SOL     OW 8543   2.721   3.236   1.878
 1914SOL    HW1 8544   2.675   3.251   1.966
 1914SOL    HW2 8545   2.765   3.321   1.848
 1915SOL     OW 8546   2.523   3.652   2.815
 1915SOL    HW1 8547   2.477   3.740   2.802
 1915SOL    HW2 8548   2.622   3.664   2.808
 1916SOL     OW 8549   2.945   2.846   1.949
 1916SOL    HW1 8550   2.922   2.899   1.867
 1916SOL    HW2 8551   3.026   2.790   1.930
 1917SOL     OW 8552   3.723   3.431   2.713
 1917SOL    HW1 8553   3.652   3.419   2.643
 1917SOL    HW2 8554   3.724   3.352   2.773
 1918SOL     OW 8555   2.083   3.176   3.706
 1918SOL    HW1 8556   2.018   3.103   3.685
 1918SOL    HW2 8557   2.087   3.190   3.804
 1919SOL     OW 8558   1.941   3.102   2.515
 1919SOL    HW1 8559   1.940   3.055   2.603
 1919SOL    HW2 8560   2.023   3.074   2.464
 1920SOL     OW 8561   2.534   3.253   3.486
 1920SOL    HW1 8562   2.456   3.203   3.524
 1920SOL    HW2 8563   2.531   3.348   3.517
 1921SOL     OW 8564   3.567   3.349   2.966
 1921SOL    HW1 8565   3.474   3.324   2.939
 1921SOL    HW2 8566   3.593   3.299   3.048
 1922SOL     OW 8567   2.674   3.448   2.549
 1922SOL    HW1 8568   2.706   3.458   2.455
 1922SOL    HW2 8569   2.595   3.386   2.551
 1923SOL     OW 8570   2.863   1.896   3.016
 1923SOL    HW1 8571   2.800   1.824   2.985
 1923SOL    HW2 8572   2.956   1.860   3.016
 1924SOL     OW 8573   2.632   3.192   2.163
 1924SOL    HW1 8574   2.586   3.105   2.180
 1924SOL    HW2 8575   2.723   3.189   2.204
 1925SOL     OW 8576   2.480   3.429   3.146
 1925SOL    HW1 8577   2.475   3.511   3.203
 1925SOL    HW2 8578   2.569   3.426   3.101
 1926SOL     OW 8579   1.901   2.939   2.162
 1926SOL    HW1 8580   2.000   2.928   2.153
 1926SOL    HW2 8581   1.861   2.853   2.194
 1927SOL     OW 8582   2.092   2.490   3.837
 1927SOL    HW1 8583   1.999   2.488   3.874
 1927SOL    HW2 8584   2.093   2.451   3.745
 1928SOL     OW 8585   2.087   2.137   4.720
 1928SOL    HW1 8586   2.122   2.120   4.812
 1928SOL    HW2 8587   1.999   2.092   4.708
 1929SOL     OW 8588   1.881   2.230   4.371
 1929SOL    HW1 8589   1.799   2.273   4.410
 1929SOL    HW2 8590   1.853   2.157   4.308
 1930SOL     OW 8591   2.431   3.137   4.889
 1930SOL    HW1 8592   2.338   3.130   4.852
 1930SOL    HW2 8593   2.442   3.226   4.933
 1931SOL     OW 8594   3.417   3.373   4.427
 1931SOL    HW1 8595   3.360   3.357   4.508
 1931SOL    HW2 8596   3.358   3.383   4.347
 1932SOL     OW 8597   2.547   2.874   4.389
 1932SOL    HW1 8598   2.616   2.858   4.459
 1932SOL    HW2 8599   2.474   2.931   4.427
 1933SOL     OW 8600   2.197   3.297   4.785
 1933SOL    HW1 8601   2.119   3.266   4.732
 1933SOL    HW2 8602   2.255   3.355   4.728
 1934SOL     OW 8603   3.465   2.309   4.461
 1934SOL    HW1 8604   3.391   2.355   4.411
 1934SOL    HW2 8605   3.516   2.377   4.514
 1935SOL     OW 8606   2.093   3.575   4.207
 1935SOL    HW1 8607   2.127   3.652   4.261
 1935SOL    HW2 8608   2.137   3.575   4.117
 1936SOL     OW 8609   2.102   2.953   4.610
 1936SOL    HW1 8610   2.116   2.869   4.662
 1936SOL    HW2 8611   2.047   3.017   4.665
 1937SOL     OW 8612   2.482   3.648   5.163
 1937SOL    HW1 8613   2.390   3.631   5.198
 1937SOL    HW2 8614   2.510   3.740   5.189
 1938SOL     OW 8615   2.468   2.826   3.847
 1938SOL    HW1 8616   2.475   2.910   3.793
 1938SOL    HW2 8617   2.514   2.839   3.935
 1939SOL     OW 8618   1.984   2.505   4.287
 1939SOL    HW1 8619   1.939   2.417   4.304
 1939SOL    HW2 8620   1.983   2.559   4.371
 1940SOL     OW 8621   3.704   3.629   4.083
 1940SOL    HW1 8622   3.758   3.600   4.163
 1940SOL    HW2 8623   3.734   3.719   4.054
 1941SOL     OW 8624   3.551   2.784   4.336
 1941SOL    HW1 8625   3.646   2.755   4.344
 1941SOL    HW2 8626   3.543   2.849   4.261
 1942SOL     OW 8627   3.503   2.970   4.156
 1942SOL    HW1 8628   3.589   2.972   4.104
 1942SOL    HW2 8629   3.517   3.017   4.244
 1943SOL     OW 8630   3.387   2.861   3.914
 1943SOL    HW1 8631   3.324   2.785   3.927
 1943SOL    HW2 8632   3.435   2.879   4.000
 1944SOL     OW 8633   3.328   3.279   4.677
 1944SOL    HW1 8634   3.269   3.285   4.757
 1944SOL    HW2 8635   3.313   3.191   4.631
 1945SOL     OW 8636   3.529   3.576   4.296
 1945SOL    HW1 8637   3.488   3.553   4.208
 1945SOL    HW2 8638   3.511   3.502   4.361
 1946SOL     OW 8639   2.460   2.591   3.994
 1946SOL    HW1 8640   2.484   2.660   3.926
 1946SOL    HW2 8641   2.382   2.624   4.048
 1947SOL     OW 8642   3.143   2.207   4.668
 1947SOL    HW1 8643   3.057   2.157   4.655
 1947SOL    HW2 8644   3.205   2.153   4.724
 1948SOL     OW 8645   3.438   3.524   4.031
 1948SOL    HW1 8646   3.527   3.570   4.034
 1948SOL    HW2 8647   3.417   3.500   3.936
 1949SOL     OW 8648   2.853   2.272   4.966
 1949SOL    HW1 8649   2.776   2.306   5.020
 1949SOL    HW2 8650   2.819   2.221   4.887
 1950SOL     OW 8651   1.938   2.673   4.513
 1950SOL    HW1 8652   2.037   2.661   4.522
 1950SOL    HW2 8653   1.914   2.768   4.534
 1951SOL     OW 8654   3.224   3.006   4.269
 1951SOL    HW1 8655   3.307   2.977   4.221
 1951SOL    HW2 8656   3.175   3.073   4.213
 1952SOL     OW 8657   2.412   2.058   4.609
 1952SOL    HW1 8658   2.407   2.053   4.709
 1952SOL    HW2 8659   2.414   2.154   4.580
 1953SOL     OW 8660   2.870   3.318   4.201
 1953SOL    HW1 8661   2.824   3.390   4.149
 1953SOL    HW2 8662   2.866   3.338   4.299
 1954SOL     OW 8663   2.213   3.663   4.577
 1954SOL    HW1 8664   2.263   3.577   4.583
 1954SOL    HW2 8665   2.278   3.740   4.574
 1955SOL     OW 8666   3.657   2.928   4.597
 1955SOL    HW1 8667   3.595   2.913   4.521
 1955SOL    HW2 8668   3.605   2.939   4.682
 1956SOL     OW 8669   2.183   2.805   3.966
 1956SOL    HW1 8670   2.265   2.844   3.924
 1956SOL    HW2 8671   2.156   2.723   3.917
 1957SOL     OW 8672   3.320   2.597   4.452
 1957SOL    HW1 8673   3.315   2.532   4.527
 1957SOL    HW2 8674   3.400   2.656   4.465
 1958SOL     OW 8675   2.973   3.638   3.961
 1958SOL    HW1 8676   2.913   3.576   4.011
 1958SOL    HW2 8677   3.004   3.594   3.876
 1959SOL     OW 8678   3.494   3.239   3.805
 1959SOL    HW1 8679   3.462   3.333   3.795
 1959SOL    HW2 8680   3.418   3.176   3.793
 1960SOL     OW 8681   2.326   3.605   4.047
 1960SOL    HW1 8682   2.359   3.644   4.133
 1960SOL    HW2 8683   2.402   3.598   3.982
 1961SOL     OW 8684   2.111   3.647   4.965
 1961SOL    HW1 8685   2.168   3.582   5.015
 1961SOL    HW2 8686   2.095   3.614   4.872
 1962SOL     OW 8687   2.244   2.562   4.204
 1962SOL    HW1 8688   2.289   2.472   4.201
 1962SOL    HW2 8689   2.150   2.551   4.237
 1963SOL     OW 8690   2.784   2.365   4.623
 1963SOL    HW1 8691   2.759   2.356   4.527
 1963SOL    HW2 8692   2.832   2.283   4.654
 1964SOL     OW 8693   3.296   3.050   3.765
 1964SOL    HW1 8694   3.328   2.974   3.822
 1964SOL    HW2 8695   3.204   3.077   3.795
 1965SOL     OW 8696   2.321   3.014   4.465
 1965SOL    HW1 8697   2.250   2.987   4.530
 1965SOL    HW2 8698   2.295   2.986   4.372
 1966SOL     OW 8699   3.133   3.659   4.315
 1966SOL    HW1 8700   3.177   3.723   4.251
 1966SOL    HW2 8701   3.083   3.711   4.385
 1967SOL     OW 8702   2.894   2.411   3.740
 1967SOL    HW1 8703   2.853   2.493   3.701
 1967SOL    HW2 8704   2.958   2.437   3.813
 1968SOL     OW 8705   3.291   3.035   4.591
 1968SOL    HW1 8706   3.236   2.951   4.584
 1968SOL    HW2 8707   3.317   3.064   4.499
 1969SOL     OW 8708   3.328   2.452   4.716
 1969SOL    HW1 8709   3.298   2.357   4.723
 1969SOL    HW2 8710   3.401   2.468   4.782
 1970SOL     OW 8711   2.350   3.247   3.898
 1970SOL    HW1 8712   2.263   3.232   3.945
 1970SOL    HW2 8713   2.333   3.273   3.803
 1971SOL     OW 8714   3.526   3.142   4.381
 1971SOL    HW1 8715   3.625   3.150   4.395
 1971SOL    HW2 8716   3.481   3.226   4.412
 1972SOL     OW 8717   3.500   2.961   4.803
 1972SOL    HW1 8718   3.505   3.042   4.862
 1972SOL    HW2 8719   3.414   2.963   4.752
 1973SOL     OW 8720   2.567   2.912   4.092
 1973SOL    HW1 8721   2.553   2.919   4.191
 1973SOL    HW2 8722   2.651   2.861   4.074
 1974SOL     OW 8723   3.136   2.248   4.986
 1974SOL    HW1 8724   3.157   2.322   5.050
 1974SOL    HW2 8725   3.047   2.265   4.943
 1975SOL     OW 8726   2.229   2.962   4.225
 1975SOL    HW1 8727   2.222   3.045   4.169
 1975SOL    HW2 8728   2.233   2.882   4.165
 1976SOL     OW 8729   3.114   3.210   4.112
 1976SOL    HW1 8730   3.164   3.287   4.152
 1976SOL    HW2 8731   3.019   3.212   4.144
 1977SOL     OW 8732   2.216   3.372   5.053
 1977SOL    HW1 8733   2.195   3.328   4.966
 1977SOL    HW2 8734   2.313   3.398   5.056
 1978SOL     OW 8735   3.222   2.724   4.769
 1978SOL    HW1 8736   3.147   2.724   4.703
 1978SOL    HW2 8737   3.259   2.632   4.778
 1979SOL     OW 8738   1.899   3.172   5.006
 1979SOL    HW1 8739   1.952   3.123   5.074
 1979SOL    HW2 8740   1.921   3.270   5.011
 1980SOL     OW 8741   2.594   2.496   4.788
 1980SOL    HW1 8742   2.653   2.470   4.712
 1980SOL    HW2 8743   2.566   2.592   4.777
 1981SOL     OW 8744   2.169   1.925   4.342
 1981SOL    HW1 8745   2.158   2.019   4.375
 1981SOL    HW2 8746   2.164   1.862   4.419
 1982SOL     OW 8747   3.165   2.700   3.766
 1982SOL    HW1 8748   3.199   2.607   3.781
 1982SOL    HW2 8749   3.183   2.727   3.671
 1983SOL     OW 8750   2.181   2.672   4.673
 1983SOL    HW1 8751   2.274   2.708   4.678
 1983SOL    HW2 8752   2.175   2.587   4.725
 1984SOL     OW 8753   2.201   2.371   4.730
 1984SOL    HW1 8754   2.149   2.288   4.713
 1984SOL    HW2 8755   2.278   2.376   4.666
 1985SOL     OW 8756   3.022   2.069   5.201
 1985SOL    HW1 8757   3.022   2.133   5.278
 1985SOL    HW2 8758   3.050   2.117   5.118
 1986SOL     OW 8759   1.870   3.188   3.924
 1986SOL    HW1 8760   1.777   3.209   3.893
 1986SOL    HW2 8761   1.880   3.089   3.937
 1987SOL     OW 8762   1.950   3.663   4.651
 1987SOL    HW1 8763   1.908   3.577   4.624
 1987SOL    HW2 8764   2.044   3.666   4.617
 1988SOL     OW 8765   3.519   2.466   4.930
 1988SOL    HW1 8766   3.481   2.397   4.992
 1988SOL    HW2 8767   3.601   2.430   4.886
 1989SOL     OW 8768   2.533   2.326   4.993
 1989SOL    HW1 8769   2.499   2.237   4.963
 1989SOL    HW2 8770   2.559   2.380   4.913
 1990SOL     OW 8771   2.792   3.540   5.189
 1990SOL    HW1 8772   2.768   3.522   5.094
 1990SOL    HW2 8773   2.822   3.634   5.199
 1991SOL     OW 8774   2.335   2.362   3.915
 1991SOL    HW1 8775   2.396   2.442   3.919
 1991SOL    HW2 8776   2.240   2.393   3.922
 1992SOL     OW 8777   3.209   2.921   4.958
 1992SOL    HW1 8778   3.233   2.858   4.884
 1992SOL    HW2 8779   3.119   2.961   4.940
 1993SOL     OW 8780   3.164   2.717   4.033
 1993SOL    HW1 8781   3.078   2.686   4.075
 1993SOL    HW2 8782   3.160   2.703   3.934
 1994SOL     OW 8783   3.114   3.593   4.852
 1994SOL    HW1 8784   3.198   3.598   4.798
 1994SOL    HW2 8785   3.091   3.497   4.870
 1995SOL     OW 8786   1.945   3.120   4.746
 1995SOL    HW1 8787   1.940   3.119   4.846
 1995SOL    HW2 8788   1.862   3.079   4.708
 1996SOL     OW 8789   3.250   3.435   4.201
 1996SOL    HW1 8790   3.317   3.447   4.127
 1996SOL    HW2 8791   3.210   3.524   4.224
 1997SOL     OW 8792   3.142   2.789   4.396
 1997SOL    HW1 8793   3.202   2.708   4.398
 1997SOL    HW2 8794   3.182   2.858   4.336
 1998SOL     OW 8795   2.534   3.478   3.878
 1998SOL    HW1 8796   2.543   3.488   3.779
 1998SOL    HW2 8797   2.494   3.389   3.899
 1999SOL     OW 8798   3.703   2.037   4.687
 1999SOL    HW1 8799   3.742   1.952   4.651
 1999SOL    HW2 8800   3.605   2.039   4.668
 2000SOL     OW 8801   2.125   2.188   4.444
 2000SOL    HW1 8802   2.046   2.239   4.410
 2000SOL    HW2 8803   2.116   2.173   4.542
 2001SOL     OW 8804   3.056   3.474   3.755
 2001SOL    HW1 8805   3.062   3.381   3.792
 2001SOL    HW2 8806   2.997   3.474   3.675
 2002SOL     OW 8807   2.778   2.772   4.015
 2002SOL    HW1 8808   2.841   2.810   3.947
 2002SOL    HW2 8809   2.818   2.689   4.054
 2003SOL     OW 8810   3.366   3.469   3.768
 2003SOL    HW1 8811   3.274   3.506   3.775
 2003SOL    HW2 8812   3.404   3.489   3.678
 2004SOL     OW 8813   2.901   2.960   4.420
 2004SOL    HW1 8814   2.831   2.913   4.474
 2004SOL    HW2 8815   2.960   2.892   4.377
 2005SOL     OW 8816   2.452   3.349   4.215
 2005SOL    HW1 8817   2.494   3.291   4.145
 2005SOL    HW2 8818   2.408   3.428   4.171
 2006SOL     OW 8819   3.571   2.247   5.105
 2006SOL    HW1 8820   3.644   2.316   5.109
 2006SOL    HW2 8821   3.599   2.172   5.046
 2007SOL     OW 8822   2.117   3.210   4.014
 2007SOL    HW1 8823   2.021   3.211   3.987
 2007SOL    HW2 8824   2.129   3.263   4.098
 2008SOL     OW 8825   1.937   2.207   3.757
 2008SOL    HW1 8826   1.845   2.179   3.728
 2008SOL    HW2 8827   1.968   2.284   3.701
 2009SOL     OW 8828   1.934   2.028   4.042
 2009SOL    HW1 8829   1.917   2.111   3.988
 2009SOL    HW2 8830   2.024   1.991   4.020
 2010SOL     OW 8831   3.045   3.197   3.843
 2010SOL    HW1 8832   2.946   3.186   3.845
 2010SOL    HW2 8833   3.079   3.212   3.936
 2011SOL     OW 8834   3.355   3.629   4.683
 2011SOL    HW1 8835   3.388   3.693   4.614
 2011SOL    HW2 8836   3.421   3.623   4.758
 2012SOL     OW 8837   3.536   2.745   4.978
 2012SOL    HW1 8838   3.509   2.656   4.941
 2012SOL    HW2 8839   3.537   2.813   4.905
 2013SOL     OW 8840   2.456   2.607   4.376
 2013SOL    HW1 8841   2.506   2.692   4.357
 2013SOL    HW2 8842   2.368   2.609   4.328
 2014SOL     OW 8843   3.592   2.796   5.241
 2014SOL    HW1 8844   3.630   2.887   5.256
 2014SOL    HW2 8845   3.584   2.779   5.142
 2015SOL     OW 8846   2.721   3.236   3.740
 2015SOL    HW1 8847   2.675   3.251   3.828
 2015SOL    HW2 8848   2.765   3.321   3.710
 2016SOL     OW 8849   2.523   3.652   4.677
 2016SOL    HW1 8850   2.477   3.740   4.664
 2016SOL    HW2 8851   2.622   3.664   4.670
 2017SOL     OW 8852   2.721   2.818   4.585
 2017SOL    HW1 8853   2.775   2.749   4.633
 2017SOL    HW2 8854   2.689   2.887   4.651
 2018SOL     OW 8855   2.945   2.846   3.811
 2018SOL    HW1 8856   2.922   2.899   3.729
 2018SOL    HW2 8857   3.026   2.790   3.792
 2019SOL     OW 8858   3.723   3.431   4.575
 2019SOL    HW1 8859   3.652   3.419   4.505
 2019SOL    HW2 8860   3.724   3.352   4.635
 2020SOL     OW 8861   1.941   3.102   4.377
 2020SOL    HW1 8862   1.940   3.055   4.465
 2020SOL    HW2 8863   2.023   3.074   4.326
 2021SOL     OW 8864   3.567   3.349   4.828
 2021SOL    HW1 8865   3.474   3.324   4.801
 2021SOL    HW2 8866   3.593   3.299   4.910
 2022SOL     OW 8867   3.286   2.076   4.836
 2022SOL    HW1 8868   3.338   2.011   4.891
 2022SOL    HW2 8869   3.237   2.139   4.897
 2023SOL     OW 8870   2.863   1.896   4.878
 2023SOL    HW1 8871   2.800   1.824   4.847
 2023SOL    HW2 8872   2.956   1.860   4.878
 2024SOL     OW 8873   2.632   3.192   4.025
 2024SOL    HW1 8874   2.586   3.105   4.042
 2024SOL    HW2 8875   2.723   3.189   4.066
 2025SOL     OW 8876   3.162   2.315   4.415
 2025SOL    HW1 8877   3.103   2.395   4.419
 2025SOL    HW2 8878   3.177   2.280   4.508
 2026SOL     OW 8879   3.455   2.083   4.606
 2026SOL    HW1 8880   3.371   2.082   4.660
 2026SOL    HW2 8881   3.457   2.166   4.550
 2027SOL     OW 8882   1.901   2.939   4.024
 2027SOL    HW1 8883   2.000   2.928   4.015
 2027SOL    HW2 8884   1.861   2.853   4.056
 2028SOL     OW 8885   2.737   3.508   4.061
 2028SOL    HW1 8886   2.660   3.473   4.007
 2028SOL    HW2 8887   2.705   3.579   4.123
 2029SOL     OW 8888   2.092   4.352   0.113
 2029SOL    HW1 8889   1.999   4.350   0.150
 2029SOL    HW2 8890   2.093   4.313   0.021
 2030SOL     OW 8891   2.087   3.999   0.996
 2030SOL    HW1 8892   2.122   3.982   1.088
 2030SOL    HW2 8893   1.999   3.954   0.984
 2031SOL     OW 8894   2.431   4.999   1.165
 2031SOL    HW1 8895   2.338   4.992   1.128
 2031SOL    HW2 8896   2.442   5.088   1.209
 2032SOL     OW 8897   3.417   5.235   0.703
 2032SOL    HW1 8898   3.360   5.219   0.784
 2032SOL    HW2 8899   3.358   5.245   0.623
 2033SOL     OW 8900   3.617   4.331   0.231
 2033SOL    HW1 8901   3.605   4.318   0.132
 2033SOL    HW2 8902   3.587   4.250   0.280
 2034SOL     OW 8903   2.630   4.868   1.023
 2034SOL    HW1 8904   2.552   4.885   1.083
 2034SOL    HW2 8905   2.664   4.955   0.987
 2035SOL     OW 8906   2.712   4.522   1.823
 2035SOL    HW1 8907   2.708   4.598   1.888
 2035SOL    HW2 8908   2.734   4.558   1.732
 2036SOL     OW 8909   2.547   4.736   0.665
 2036SOL    HW1 8910   2.616   4.720   0.735
 2036SOL    HW2 8911   2.474   4.793   0.703
 2037SOL     OW 8912   2.548   4.885   1.803
 2037SOL    HW1 8913   2.608   4.964   1.817
 2037SOL    HW2 8914   2.462   4.916   1.762
 2038SOL     OW 8915   2.197   5.159   1.061
 2038SOL    HW1 8916   2.119   5.128   1.008
 2038SOL    HW2 8917   2.255   5.217   1.004
 2039SOL     OW 8918   2.300   4.116   1.499
 2039SOL    HW1 8919   2.382   4.060   1.508
 2039SOL    HW2 8920   2.219   4.058   1.503
 2040SOL     OW 8921   3.465   4.171   0.737
 2040SOL    HW1 8922   3.391   4.217   0.687
 2040SOL    HW2 8923   3.516   4.239   0.790
 2041SOL     OW 8924   2.102   4.815   0.886
 2041SOL    HW1 8925   2.116   4.731   0.938
 2041SOL    HW2 8926   2.047   4.879   0.941
 2042SOL     OW 8927   1.984   4.367   0.563
 2042SOL    HW1 8928   1.939   4.279   0.580
 2042SOL    HW2 8929   1.983   4.421   0.647
 2043SOL     OW 8930   2.671   3.728   0.502
 2043SOL    HW1 8931   2.711   3.819   0.493
 2043SOL    HW2 8932   2.571   3.736   0.508
 2044SOL     OW 8933   2.179   3.975   1.801
 2044SOL    HW1 8934   2.250   4.046   1.807
 2044SOL    HW2 8935   2.091   4.014   1.829
 2045SOL     OW 8936   3.143   4.069   0.944
 2045SOL    HW1 8937   3.057   4.019   0.931
 2045SOL    HW2 8938   3.205   4.015   1.000
 2046SOL     OW 8939   2.669   4.329   1.465
 2046SOL    HW1 8940   2.622   4.326   1.554
 2046SOL    HW2 8941   2.618   4.274   1.399
 2047SOL     OW 8942   2.835   4.614   1.572
 2047SOL    HW1 8943   2.881   4.530   1.543
 2047SOL    HW2 8944   2.779   4.648   1.497
 2048SOL     OW 8945   2.853   4.134   1.242
 2048SOL    HW1 8946   2.776   4.168   1.296
 2048SOL    HW2 8947   2.819   4.083   1.163
 2049SOL     OW 8948   2.903   4.425   0.429
 2049SOL    HW1 8949   2.929   4.421   0.525
 2049SOL    HW2 8950   2.818   4.374   0.415
 2050SOL     OW 8951   1.938   4.535   0.789
 2050SOL    HW1 8952   2.037   4.523   0.798
 2050SOL    HW2 8953   1.914   4.630   0.810
 2051SOL     OW 8954   2.727   4.072   0.195
 2051SOL    HW1 8955   2.786   4.135   0.146
 2051SOL    HW2 8956   2.746   3.978   0.166
 2052SOL     OW 8957   3.581   4.309   1.831
 2052SOL    HW1 8958   3.555   4.398   1.795
 2052SOL    HW2 8959   3.579   4.241   1.758
 2053SOL     OW 8960   2.412   3.920   0.885
 2053SOL    HW1 8961   2.407   3.915   0.985
 2053SOL    HW2 8962   2.414   4.016   0.856
 2054SOL     OW 8963   2.183   4.667   0.242
 2054SOL    HW1 8964   2.265   4.706   0.200
 2054SOL    HW2 8965   2.156   4.585   0.193
 2055SOL     OW 8966   3.320   4.459   0.728
 2055SOL    HW1 8967   3.315   4.394   0.803
 2055SOL    HW2 8968   3.400   4.518   0.741
 2056SOL     OW 8969   2.064   4.009   1.498
 2056SOL    HW1 8970   1.984   4.069   1.485
 2056SOL    HW2 8971   2.054   3.960   1.584
 2057SOL     OW 8972   2.244   4.424   0.480
 2057SOL    HW1 8973   2.289   4.334   0.477
 2057SOL    HW2 8974   2.150   4.413   0.513
 2058SOL     OW 8975   3.409   3.946   1.729
 2058SOL    HW1 8976   3.404   3.983   1.821
 2058SOL    HW2 8977   3.337   3.877   1.717
 2059SOL     OW 8978   2.643   3.988   1.749
 2059SOL    HW1 8979   2.710   3.927   1.792
 2059SOL    HW2 8980   2.570   4.007   1.814
 2060SOL     OW 8981   2.665   5.126   0.924
 2060SOL    HW1 8982   2.755   5.140   0.882
 2060SOL    HW2 8983   2.594   5.128   0.853
 2061SOL     OW 8984   2.401   3.788   0.512
 2061SOL    HW1 8985   2.320   3.789   0.570
 2061SOL    HW2 8986   2.404   3.871   0.457
 2062SOL     OW 8987   2.159   3.759   0.171
 2062SOL    HW1 8988   2.208   3.843   0.150
 2062SOL    HW2 8989   2.221   3.694   0.216
 2063SOL     OW 8990   2.797   3.960   0.480
 2063SOL    HW1 8991   2.749   4.001   0.402
 2063SOL    HW2 8992   2.896   3.958   0.461
 2064SOL     OW 8993   2.938   4.407   1.464
 2064SOL    HW1 8994   2.858   4.346   1.467
 2064SOL    HW2 8995   3.019   4.354   1.440
 2065SOL     OW 8996   3.089   5.294   0.793
 2065SOL    HW1 8997   3.110   5.368   0.728
 2065SOL    HW2 8998   3.157   5.294   0.866
 2066SOL     OW 8999   2.321   4.876   0.741
 2066SOL    HW1 9000   2.250   4.849   0.806
 2066SOL    HW2 9001   2.295   4.848   0.648
 2067SOL     OW 9002   2.894   4.273   0.016
 2067SOL    HW1 9003   2.853   4.355  -0.023
 2067SOL    HW2 9004   2.958   4.299   0.089
 2068SOL     OW 9005   1.940   4.280   1.386
 2068SOL    HW1 9006   2.032   4.279   1.345
 2068SOL    HW2 9007   1.934   4.354   1.453
 2069SOL     OW 9008   2.728   4.178   0.642
 2069SOL    HW1 9009   2.696   4.250   0.580
 2069SOL    HW2 9010   2.752   4.097   0.589
 2070SOL     OW 9011   2.879   3.763   0.753
 2070SOL    HW1 9012   2.807   3.768   0.684
 2070SOL    HW2 9013   2.855   3.694   0.822
 2071SOL     OW 9014   3.328   4.314   0.992
 2071SOL    HW1 9015   3.298   4.219   0.999
 2071SOL    HW2 9016   3.401   4.330   1.058
 2072SOL     OW 9017   3.252   4.299   0.078
 2072SOL    HW1 9018   3.198   4.278   0.159
 2072SOL    HW2 9019   3.343   4.258   0.087
 2073SOL     OW 9020   2.389   3.980   0.328
 2073SOL    HW1 9021   2.416   3.921   0.253
 2073SOL    HW2 9022   2.389   4.075   0.297
 2074SOL     OW 9023   3.616   4.947   1.588
 2074SOL    HW1 9024   3.707   4.908   1.575
 2074SOL    HW2 9025   3.624   5.043   1.612
 2075SOL     OW 9026   2.842   4.840   1.719
 2075SOL    HW1 9027   2.743   4.846   1.729
 2075SOL    HW2 9028   2.865   4.760   1.663
 2076SOL     OW 9029   3.136   4.110   1.262
 2076SOL    HW1 9030   3.157   4.184   1.326
 2076SOL    HW2 9031   3.047   4.127   1.219
 2077SOL     OW 9032   2.229   4.824   0.501
 2077SOL    HW1 9033   2.222   4.907   0.445
 2077SOL    HW2 9034   2.233   4.744   0.441
 2078SOL     OW 9035   3.444   4.363   0.472
 2078SOL    HW1 9036   3.413   4.424   0.545
 2078SOL    HW2 9037   3.494   4.415   0.403
 2079SOL     OW 9038   3.449   4.503   1.670
 2079SOL    HW1 9039   3.357   4.541   1.665
 2079SOL    HW2 9040   3.509   4.550   1.605
 2080SOL     OW 9041   3.222   4.586   1.045
 2080SOL    HW1 9042   3.147   4.586   0.979
 2080SOL    HW2 9043   3.259   4.494   1.054
 2081SOL     OW 9044   3.071   4.249   0.275
 2081SOL    HW1 9045   3.084   4.165   0.329
 2081SOL    HW2 9046   3.042   4.323   0.335
 2082SOL     OW 9047   2.169   3.937   1.231
 2082SOL    HW1 9048   2.146   3.974   1.321
 2082SOL    HW2 9049   2.139   3.842   1.225
 2083SOL     OW 9050   3.590   4.659   1.854
 2083SOL    HW1 9051   3.544   4.652   1.765
 2083SOL    HW2 9052   3.528   4.703   1.920
 2084SOL     OW 9053   2.169   3.787   0.618
 2084SOL    HW1 9054   2.158   3.881   0.651
 2084SOL    HW2 9055   2.164   3.724   0.695
 2085SOL     OW 9056   3.484   4.091   0.374
 2085SOL    HW1 9057   3.486   4.015   0.438
 2085SOL    HW2 9058   3.436   4.168   0.414
 2086SOL     OW 9059   2.885   4.490   0.966
 2086SOL    HW1 9060   2.900   4.511   1.062
 2086SOL    HW2 9061   2.855   4.395   0.957
 2087SOL     OW 9062   3.721   5.242   1.605
 2087SOL    HW1 9063   3.735   5.269   1.510
 2087SOL    HW2 9064   3.804   5.264   1.658
 2088SOL     OW 9065   2.212   4.622   1.804
 2088SOL    HW1 9066   2.288   4.666   1.852
 2088SOL    HW2 9067   2.247   4.575   1.722
 2089SOL     OW 9068   3.165   4.562   0.042
 2089SOL    HW1 9069   3.199   4.469   0.057
 2089SOL    HW2 9070   3.183   4.589  -0.053
 2090SOL     OW 9071   2.201   4.233   1.006
 2090SOL    HW1 9072   2.149   4.150   0.989
 2090SOL    HW2 9073   2.278   4.238   0.942
 2091SOL     OW 9074   3.000   4.104   1.678
 2091SOL    HW1 9075   2.955   4.167   1.742
 2091SOL    HW2 9076   3.093   4.135   1.661
 2092SOL     OW 9077   2.864   4.520   1.238
 2092SOL    HW1 9078   2.905   4.488   1.324
 2092SOL    HW2 9079   2.768   4.493   1.235
 2093SOL     OW 9080   1.902   4.268   1.114
 2093SOL    HW1 9081   1.987   4.235   1.073
 2093SOL    HW2 9082   1.915   4.283   1.212
 2094SOL     OW 9083   3.231   4.674   1.660
 2094SOL    HW1 9084   3.270   4.763   1.680
 2094SOL    HW2 9085   3.241   4.654   1.563
 2095SOL     OW 9086   2.677   4.296   0.325
 2095SOL    HW1 9087   2.684   4.207   0.279
 2095SOL    HW2 9088   2.583   4.330   0.317
 2096SOL     OW 9089   2.335   4.224   0.191
 2096SOL    HW1 9090   2.396   4.304   0.195
 2096SOL    HW2 9091   2.240   4.255   0.198
 2097SOL     OW 9092   2.021   4.861   1.466
 2097SOL    HW1 9093   2.043   4.800   1.542
 2097SOL    HW2 9094   2.031   4.812   1.380
 2098SOL     OW 9095   3.209   4.783   1.234
 2098SOL    HW1 9096   3.233   4.720   1.160
 2098SOL    HW2 9097   3.119   4.823   1.216
 2099SOL     OW 9098   3.164   4.579   0.309
 2099SOL    HW1 9099   3.078   4.548   0.351
 2099SOL    HW2 9100   3.160   4.565   0.210
 2100SOL     OW 9101   1.945   4.982   1.022
 2100SOL    HW1 9102   1.940   4.981   1.122
 2100SOL    HW2 9103   1.862   4.941   0.984
 2101SOL     OW 9104   2.765   3.810   0.133
 2101SOL    HW1 9105   2.816   3.811   0.047
 2101SOL    HW2 9106   2.821   3.768   0.204
 2102SOL     OW 9107   3.588   3.859   0.523
 2102SOL    HW1 9108   3.661   3.842   0.456
 2102SOL    HW2 9109   3.557   3.772   0.561
 2103SOL     OW 9110   2.692   4.997   1.422
 2103SOL    HW1 9111   2.687   5.030   1.517
 2103SOL    HW2 9112   2.606   5.016   1.376
 2104SOL     OW 9113   3.703   3.899   0.963
 2104SOL    HW1 9114   3.742   3.814   0.927
 2104SOL    HW2 9115   3.605   3.901   0.944
 2105SOL     OW 9116   2.125   4.050   0.720
 2105SOL    HW1 9117   2.046   4.101   0.686
 2105SOL    HW2 9118   2.116   4.035   0.818
 2106SOL     OW 9119   2.684   4.726   1.372
 2106SOL    HW1 9120   2.724   4.725   1.280
 2106SOL    HW2 9121   2.694   4.818   1.412
 2107SOL     OW 9122   2.234   5.012   1.490
 2107SOL    HW1 9123   2.221   5.105   1.456
 2107SOL    HW2 9124   2.150   4.960   1.477
 2108SOL     OW 9125   1.967   4.737   1.726
 2108SOL    HW1 9126   1.890   4.704   1.780
 2108SOL    HW2 9127   2.052   4.707   1.768
 2109SOL     OW 9128   2.534   3.927   1.489
 2109SOL    HW1 9129   2.624   3.911   1.449
 2109SOL    HW2 9130   2.542   3.932   1.588
 2110SOL     OW 9131   3.302   4.580   1.398
 2110SOL    HW1 9132   3.245   4.632   1.335
 2110SOL    HW2 9133   3.398   4.592   1.374
 2111SOL     OW 9134   2.578   4.289   1.708
 2111SOL    HW1 9135   2.597   4.354   1.782
 2111SOL    HW2 9136   2.638   4.209   1.717
 2112SOL     OW 9137   3.536   4.607   1.254
 2112SOL    HW1 9138   3.509   4.518   1.217
 2112SOL    HW2 9139   3.537   4.675   1.181
 2113SOL     OW 9140   2.456   4.469   0.652
 2113SOL    HW1 9141   2.506   4.554   0.633
 2113SOL    HW2 9142   2.368   4.471   0.604
 2114SOL     OW 9143   3.639   4.066   1.642
 2114SOL    HW1 9144   3.622   4.097   1.548
 2114SOL    HW2 9145   3.555   4.029   1.680
 2115SOL     OW 9146   3.592   4.658   1.517
 2115SOL    HW1 9147   3.630   4.749   1.532
 2115SOL    HW2 9148   3.584   4.641   1.418
 2116SOL     OW 9149   2.721   4.680   0.861
 2116SOL    HW1 9150   2.775   4.611   0.909
 2116SOL    HW2 9151   2.689   4.749   0.927
 2117SOL     OW 9152   2.945   4.708   0.087
 2117SOL    HW1 9153   2.922   4.761   0.005
 2117SOL    HW2 9154   3.026   4.652   0.068
 2118SOL     OW 9155   1.941   4.964   0.653
 2118SOL    HW1 9156   1.940   4.917   0.741
 2118SOL    HW2 9157   2.023   4.936   0.602
 2119SOL     OW 9158   3.686   3.916   1.227
 2119SOL    HW1 9159   3.682   3.826   1.271
 2119SOL    HW2 9160   3.689   3.905   1.128
 2120SOL     OW 9161   2.290   4.148   0.520
 2120SOL    HW1 9162   2.320   4.076   0.458
 2120SOL    HW2 9163   2.251   4.108   0.603
 2121SOL     OW 9164   3.286   3.938   1.112
 2121SOL    HW1 9165   3.338   3.873   1.167
 2121SOL    HW2 9166   3.237   4.001   1.173
 2122SOL     OW 9167   3.162   4.177   0.691
 2122SOL    HW1 9168   3.103   4.257   0.695
 2122SOL    HW2 9169   3.177   4.142   0.784
 2123SOL     OW 9170   3.455   3.945   0.882
 2123SOL    HW1 9171   3.371   3.944   0.936
 2123SOL    HW2 9172   3.457   4.028   0.826
 2124SOL     OW 9173   1.901   4.801   0.300
 2124SOL    HW1 9174   2.000   4.790   0.291
 2124SOL    HW2 9175   1.861   4.715   0.332
 2125SOL     OW 9176   2.092   4.352   1.975
 2125SOL    HW1 9177   1.999   4.350   2.012
 2125SOL    HW2 9178   2.093   4.313   1.883
 2126SOL     OW 9179   2.087   3.999   2.858
 2126SOL    HW1 9180   2.122   3.982   2.950
 2126SOL    HW2 9181   1.999   3.954   2.846
 2127SOL     OW 9182   1.881   4.092   2.509
 2127SOL    HW1 9183   1.799   4.135   2.548
 2127SOL    HW2 9184   1.853   4.019   2.446
 2128SOL     OW 9185   3.417   5.235   2.565
 2128SOL    HW1 9186   3.360   5.219   2.646
 2128SOL    HW2 9187   3.358   5.245   2.485
 2129SOL     OW 9188   3.617   4.331   2.093
 2129SOL    HW1 9189   3.605   4.318   1.994
 2129SOL    HW2 9190   3.587   4.250   2.142
 2130SOL     OW 9191   2.547   4.736   2.527
 2130SOL    HW1 9192   2.616   4.720   2.597
 2130SOL    HW2 9193   2.474   4.793   2.565
 2131SOL     OW 9194   2.548   4.885   3.665
 2131SOL    HW1 9195   2.608   4.964   3.679
 2131SOL    HW2 9196   2.462   4.916   3.624
 2132SOL     OW 9197   2.300   4.116   3.361
 2132SOL    HW1 9198   2.382   4.060   3.370
 2132SOL    HW2 9199   2.219   4.058   3.365
 2133SOL     OW 9200   3.465   4.171   2.599
 2133SOL    HW1 9201   3.391   4.217   2.549
 2133SOL    HW2 9202   3.516   4.239   2.652
 2134SOL     OW 9203   2.102   4.815   2.748
 2134SOL    HW1 9204   2.116   4.731   2.800
 2134SOL    HW2 9205   2.047   4.879   2.803
 2135SOL     OW 9206   2.468   4.688   1.985
 2135SOL    HW1 9207   2.475   4.772   1.931
 2135SOL    HW2 9208   2.514   4.701   2.073
 2136SOL     OW 9209   1.984   4.367   2.425
 2136SOL    HW1 9210   1.939   4.279   2.442
 2136SOL    HW2 9211   1.983   4.421   2.509
 2137SOL     OW 9212   1.975   4.461   3.459
 2137SOL    HW1 9213   2.063   4.448   3.504
 2137SOL    HW2 9214   1.962   4.558   3.437
 2138SOL     OW 9215   3.155   4.952   3.285
 2138SOL    HW1 9216   3.192   4.879   3.227
 2138SOL    HW2 9217   3.207   4.957   3.370
 2139SOL     OW 9218   2.059   4.700   3.126
 2139SOL    HW1 9219   2.148   4.655   3.112
 2139SOL    HW2 9220   1.986   4.635   3.107
 2140SOL     OW 9221   3.387   4.723   2.052
 2140SOL    HW1 9222   3.324   4.647   2.065
 2140SOL    HW2 9223   3.435   4.741   2.138
 2141SOL     OW 9224   2.179   3.975   3.663
 2141SOL    HW1 9225   2.250   4.046   3.669
 2141SOL    HW2 9226   2.091   4.014   3.691
 2142SOL     OW 9227   3.328   5.141   2.815
 2142SOL    HW1 9228   3.269   5.147   2.895
 2142SOL    HW2 9229   3.313   5.053   2.769
 2143SOL     OW 9230   2.460   4.453   2.132
 2143SOL    HW1 9231   2.484   4.522   2.064
 2143SOL    HW2 9232   2.382   4.486   2.186
 2144SOL     OW 9233   3.143   4.069   2.806
 2144SOL    HW1 9234   3.057   4.019   2.793
 2144SOL    HW2 9235   3.205   4.015   2.862
 2145SOL     OW 9236   2.669   4.329   3.327
 2145SOL    HW1 9237   2.622   4.326   3.416
 2145SOL    HW2 9238   2.618   4.274   3.261
 2146SOL     OW 9239   2.835   4.614   3.434
 2146SOL    HW1 9240   2.881   4.530   3.405
 2146SOL    HW2 9241   2.779   4.648   3.359
 2147SOL     OW 9242   2.853   4.134   3.104
 2147SOL    HW1 9243   2.776   4.168   3.158
 2147SOL    HW2 9244   2.819   4.083   3.025
 2148SOL     OW 9245   2.727   4.072   2.057
 2148SOL    HW1 9246   2.786   4.135   2.008
 2148SOL    HW2 9247   2.746   3.978   2.028
 2149SOL     OW 9248   3.581   4.309   3.693
 2149SOL    HW1 9249   3.555   4.398   3.657
 2149SOL    HW2 9250   3.579   4.241   3.620
 2150SOL     OW 9251   3.657   4.790   2.735
 2150SOL    HW1 9252   3.595   4.775   2.659
 2150SOL    HW2 9253   3.605   4.801   2.820
 2151SOL     OW 9254   2.183   4.667   2.104
 2151SOL    HW1 9255   2.265   4.706   2.062
 2151SOL    HW2 9256   2.156   4.585   2.055
 2152SOL     OW 9257   3.320   4.459   2.590
 2152SOL    HW1 9258   3.315   4.394   2.665
 2152SOL    HW2 9259   3.400   4.518   2.603
 2153SOL     OW 9260   3.494   5.101   1.943
 2153SOL    HW1 9261   3.462   5.195   1.933
 2153SOL    HW2 9262   3.418   5.038   1.931
 2154SOL     OW 9263   3.262   3.831   2.288
 2154SOL    HW1 9264   3.238   3.794   2.198
 2154SOL    HW2 9265   3.361   3.847   2.292
 2155SOL     OW 9266   2.244   4.424   2.342
 2155SOL    HW1 9267   2.289   4.334   2.339
 2155SOL    HW2 9268   2.150   4.413   2.375
 2156SOL     OW 9269   2.476   3.846   1.979
 2156SOL    HW1 9270   2.574   3.824   1.986
 2156SOL    HW2 9271   2.445   3.829   1.886
 2157SOL     OW 9272   3.213   4.314   3.295
 2157SOL    HW1 9273   3.241   4.271   3.380
 2157SOL    HW2 9274   3.238   4.410   3.296
 2158SOL     OW 9275   2.784   4.227   2.761
 2158SOL    HW1 9276   2.759   4.218   2.665
 2158SOL    HW2 9277   2.832   4.145   2.792
 2159SOL     OW 9278   3.296   4.912   1.903
 2159SOL    HW1 9279   3.328   4.836   1.960
 2159SOL    HW2 9280   3.204   4.939   1.933
 2160SOL     OW 9281   2.797   3.960   2.342
 2160SOL    HW1 9282   2.749   4.001   2.264
 2160SOL    HW2 9283   2.896   3.958   2.323
 2161SOL     OW 9284   2.938   4.407   3.326
 2161SOL    HW1 9285   2.858   4.346   3.329
 2161SOL    HW2 9286   3.019   4.354   3.302
 2162SOL     OW 9287   3.089   5.294   2.655
 2162SOL    HW1 9288   3.110   5.368   2.590
 2162SOL    HW2 9289   3.157   5.294   2.728
 2163SOL     OW 9290   2.894   4.273   1.878
 2163SOL    HW1 9291   2.853   4.355   1.839
 2163SOL    HW2 9292   2.958   4.299   1.951
 2164SOL     OW 9293   1.940   4.280   3.248
 2164SOL    HW1 9294   2.032   4.279   3.207
 2164SOL    HW2 9295   1.934   4.354   3.315
 2165SOL     OW 9296   2.423   3.946   3.009
 2165SOL    HW1 9297   2.461   3.862   3.046
 2165SOL    HW2 9298   2.335   3.965   3.053
 2166SOL     OW 9299   2.728   4.178   2.504
 2166SOL    HW1 9300   2.696   4.250   2.442
 2166SOL    HW2 9301   2.752   4.097   2.451
 2167SOL     OW 9302   2.879   3.763   2.615
 2167SOL    HW1 9303   2.807   3.768   2.546
 2167SOL    HW2 9304   2.855   3.694   2.684
 2168SOL     OW 9305   3.328   4.314   2.854
 2168SOL    HW1 9306   3.298   4.219   2.861
 2168SOL    HW2 9307   3.401   4.330   2.920
 2169SOL     OW 9308   3.526   5.004   2.519
 2169SOL    HW1 9309   3.625   5.012   2.533
 2169SOL    HW2 9310   3.481   5.088   2.550
 2170SOL     OW 9311   3.616   4.947   3.450
 2170SOL    HW1 9312   3.707   4.908   3.437
 2170SOL    HW2 9313   3.624   5.043   3.474
 2171SOL     OW 9314   3.500   4.823   2.941
 2171SOL    HW1 9315   3.505   4.904   3.000
 2171SOL    HW2 9316   3.414   4.825   2.890
 2172SOL     OW 9317   2.777   3.813   3.264
 2172SOL    HW1 9318   2.802   3.793   3.169
 2172SOL    HW2 9319   2.849   3.869   3.306
 2173SOL     OW 9320   2.842   4.840   3.581
 2173SOL    HW1 9321   2.743   4.846   3.591
 2173SOL    HW2 9322   2.865   4.760   3.525
 2174SOL     OW 9323   2.567   4.774   2.230
 2174SOL    HW1 9324   2.553   4.781   2.329
 2174SOL    HW2 9325   2.651   4.723   2.212
 2175SOL     OW 9326   2.272   4.537   3.113
 2175SOL    HW1 9327   2.358   4.549   3.163
 2175SOL    HW2 9328   2.230   4.450   3.140
 2176SOL     OW 9329   2.428   4.261   2.727
 2176SOL    HW1 9330   2.440   4.327   2.653
 2176SOL    HW2 9331   2.474   4.295   2.810
 2177SOL     OW 9332   3.444   4.363   2.334
 2177SOL    HW1 9333   3.413   4.424   2.407
 2177SOL    HW2 9334   3.494   4.415   2.265
 2178SOL     OW 9335   2.264   4.475   3.460
 2178SOL    HW1 9336   2.332   4.530   3.413
 2178SOL    HW2 9337   2.304   4.387   3.487
 2179SOL     OW 9338   3.449   4.503   3.532
 2179SOL    HW1 9339   3.357   4.541   3.527
 2179SOL    HW2 9340   3.509   4.550   3.467
 2180SOL     OW 9341   2.366   3.774   3.602
 2180SOL    HW1 9342   2.324   3.717   3.532
 2180SOL    HW2 9343   2.300   3.843   3.634
 2181SOL     OW 9344   2.435   4.594   2.891
 2181SOL    HW1 9345   2.479   4.683   2.882
 2181SOL    HW2 9346   2.372   4.594   2.968
 2182SOL     OW 9347   3.222   4.586   2.907
 2182SOL    HW1 9348   3.147   4.586   2.841
 2182SOL    HW2 9349   3.259   4.494   2.916
 2183SOL     OW 9350   2.169   3.937   3.093
 2183SOL    HW1 9351   2.146   3.974   3.183
 2183SOL    HW2 9352   2.139   3.842   3.087
 2184SOL     OW 9353   2.594   4.358   2.926
 2184SOL    HW1 9354   2.653   4.332   2.850
 2184SOL    HW2 9355   2.566   4.454   2.915
 2185SOL     OW 9356   3.590   4.659   3.716
 2185SOL    HW1 9357   3.544   4.652   3.627
 2185SOL    HW2 9358   3.528   4.703   3.782
 2186SOL     OW 9359   2.169   3.787   2.480
 2186SOL    HW1 9360   2.158   3.881   2.513
 2186SOL    HW2 9361   2.164   3.724   2.557
 2187SOL     OW 9362   3.484   4.091   2.236
 2187SOL    HW1 9363   3.486   4.015   2.300
 2187SOL    HW2 9364   3.436   4.168   2.276
 2188SOL     OW 9365   2.885   4.490   2.828
 2188SOL    HW1 9366   2.900   4.511   2.924
 2188SOL    HW2 9367   2.855   4.395   2.819
 2189SOL     OW 9368   3.721   5.242   3.467
 2189SOL    HW1 9369   3.735   5.269   3.372
 2189SOL    HW2 9370   3.804   5.264   3.520
 2190SOL     OW 9371   2.212   4.622   3.666
 2190SOL    HW1 9372   2.288   4.666   3.714
 2190SOL    HW2 9373   2.247   4.575   3.584
 2191SOL     OW 9374   3.402   3.998   1.987
 2191SOL    HW1 9375   3.341   3.923   2.010
 2191SOL    HW2 9376   3.424   4.050   2.070
 2192SOL     OW 9377   3.000   4.104   3.540
 2192SOL    HW1 9378   2.955   4.167   3.604
 2192SOL    HW2 9379   3.093   4.135   3.523
 2193SOL     OW 9380   1.870   5.050   2.062
 2193SOL    HW1 9381   1.777   5.071   2.031
 2193SOL    HW2 9382   1.880   4.951   2.075
 2194SOL     OW 9383   2.864   4.520   3.100
 2194SOL    HW1 9384   2.905   4.488   3.186
 2194SOL    HW2 9385   2.768   4.493   3.097
 2195SOL     OW 9386   3.231   4.674   3.522
 2195SOL    HW1 9387   3.270   4.763   3.542
 2195SOL    HW2 9388   3.241   4.654   3.425
 2196SOL     OW 9389   2.677   4.296   2.187
 2196SOL    HW1 9390   2.684   4.207   2.141
 2196SOL    HW2 9391   2.583   4.330   2.179
 2197SOL     OW 9392   3.519   4.328   3.068
 2197SOL    HW1 9393   3.481   4.259   3.130
 2197SOL    HW2 9394   3.601   4.292   3.024
 2198SOL     OW 9395   2.533   4.188   3.131
 2198SOL    HW1 9396   2.499   4.099   3.101
 2198SOL    HW2 9397   2.559   4.242   3.051
 2199SOL     OW 9398   2.335   4.224   2.053
 2199SOL    HW1 9399   2.396   4.304   2.057
 2199SOL    HW2 9400   2.240   4.255   2.060
 2200SOL     OW 9401   3.209   4.783   3.096
 2200SOL    HW1 9402   3.233   4.720   3.022
 2200SOL    HW2 9403   3.119   4.823   3.078
 2201SOL     OW 9404   3.588   3.859   2.385
 2201SOL    HW1 9405   3.661   3.842   2.318
 2201SOL    HW2 9406   3.557   3.772   2.423
 2202SOL     OW 9407   3.703   3.899   2.825
 2202SOL    HW1 9408   3.742   3.814   2.789
 2202SOL    HW2 9409   3.605   3.901   2.806
 2203SOL     OW 9410   2.125   4.050   2.582
 2203SOL    HW1 9411   2.046   4.101   2.548
 2203SOL    HW2 9412   2.116   4.035   2.680
 2204SOL     OW 9413   2.684   4.726   3.234
 2204SOL    HW1 9414   2.724   4.725   3.142
 2204SOL    HW2 9415   2.694   4.818   3.274
 2205SOL     OW 9416   3.476   5.016   3.151
 2205SOL    HW1 9417   3.536   5.019   3.231
 2205SOL    HW2 9418   3.401   5.080   3.164
 2206SOL     OW 9419   2.901   4.822   2.558
 2206SOL    HW1 9420   2.831   4.775   2.612
 2206SOL    HW2 9421   2.960   4.754   2.515
 2207SOL     OW 9422   2.876   3.960   2.833
 2207SOL    HW1 9423   2.868   3.924   2.740
 2207SOL    HW2 9424   2.874   3.884   2.898
 2208SOL     OW 9425   3.571   4.109   3.243
 2208SOL    HW1 9426   3.644   4.178   3.247
 2208SOL    HW2 9427   3.599   4.034   3.184
 2209SOL     OW 9428   1.967   4.737   3.588
 2209SOL    HW1 9429   1.890   4.704   3.642
 2209SOL    HW2 9430   2.052   4.707   3.630
 2210SOL     OW 9431   2.534   3.927   3.351
 2210SOL    HW1 9432   2.624   3.911   3.311
 2210SOL    HW2 9433   2.542   3.932   3.450
 2211SOL     OW 9434   3.302   4.580   3.260
 2211SOL    HW1 9435   3.245   4.632   3.197
 2211SOL    HW2 9436   3.398   4.592   3.236
 2212SOL     OW 9437   2.475   4.566   3.293
 2212SOL    HW1 9438   2.531   4.647   3.276
 2212SOL    HW2 9439   2.534   4.486   3.296
 2213SOL     OW 9440   3.312   4.944   3.495
 2213SOL    HW1 9441   3.303   4.934   3.594
 2213SOL    HW2 9442   3.408   4.937   3.469
 2214SOL     OW 9443   3.536   4.607   3.116
 2214SOL    HW1 9444   3.509   4.518   3.079
 2214SOL    HW2 9445   3.537   4.675   3.043
 2215SOL     OW 9446   2.456   4.469   2.514
 2215SOL    HW1 9447   2.506   4.554   2.495
 2215SOL    HW2 9448   2.368   4.471   2.466
 2216SOL     OW 9449   3.592   4.658   3.379
 2216SOL    HW1 9450   3.630   4.749   3.394
 2216SOL    HW2 9451   3.584   4.641   3.280
 2217SOL     OW 9452   2.721   4.680   2.723
 2217SOL    HW1 9453   2.775   4.611   2.771
 2217SOL    HW2 9454   2.689   4.749   2.789
 2218SOL     OW 9455   2.945   4.708   1.949
 2218SOL    HW1 9456   2.922   4.761   1.867
 2218SOL    HW2 9457   3.026   4.652   1.930
 2219SOL     OW 9458   3.686   3.916   3.089
 2219SOL    HW1 9459   3.682   3.826   3.133
 2219SOL    HW2 9460   3.689   3.905   2.990
 2220SOL     OW 9461   2.179   4.271   3.142
 2220SOL    HW1 9462   2.217   4.212   3.214
 2220SOL    HW2 9463   2.219   4.245   3.054
 2221SOL     OW 9464   2.863   3.758   3.016
 2221SOL    HW1 9465   2.800   3.686   2.985
 2221SOL    HW2 9466   2.956   3.722   3.016
 2222SOL     OW 9467   2.632   5.054   2.163
 2222SOL    HW1 9468   2.586   4.967   2.180
 2222SOL    HW2 9469   2.723   5.051   2.204
 2223SOL     OW 9470   3.214   3.776   2.030
 2223SOL    HW1 9471   3.249   3.735   1.946
 2223SOL    HW2 9472   3.124   3.738   2.050
 2224SOL     OW 9473   3.455   3.945   2.744
 2224SOL    HW1 9474   3.371   3.944   2.798
 2224SOL    HW2 9475   3.457   4.028   2.688
 2225SOL     OW 9476   2.092   4.352   3.837
 2225SOL    HW1 9477   1.999   4.350   3.874
 2225SOL    HW2 9478   2.093   4.313   3.745
 2226SOL     OW 9479   2.087   3.999   4.720
 2226SOL    HW1 9480   2.122   3.982   4.812
 2226SOL    HW2 9481   1.999   3.954   4.708
 2227SOL     OW 9482   3.417   5.235   4.427
 2227SOL    HW1 9483   3.360   5.219   4.508
 2227SOL    HW2 9484   3.358   5.245   4.347
 2228SOL     OW 9485   2.997   4.427   4.441
 2228SOL    HW1 9486   3.054   4.505   4.416
 2228SOL    HW2 9487   2.937   4.453   4.517
 2229SOL     OW 9488   3.617   4.331   3.955
 2229SOL    HW1 9489   3.605   4.318   3.856
 2229SOL    HW2 9490   3.587   4.250   4.004
 2230SOL     OW 9491   2.630   4.868   4.747
 2230SOL    HW1 9492   2.552   4.885   4.807
 2230SOL    HW2 9493   2.664   4.955   4.711
 2231SOL     OW 9494   2.547   4.736   4.389
 2231SOL    HW1 9495   2.616   4.720   4.459
 2231SOL    HW2 9496   2.474   4.793   4.427
 2232SOL     OW 9497   2.197   5.159   4.785
 2232SOL    HW1 9498   2.119   5.128   4.732
 2232SOL    HW2 9499   2.255   5.217   4.728
 2233SOL     OW 9500   3.465   4.171   4.461
 2233SOL    HW1 9501   3.391   4.217   4.411
 2233SOL    HW2 9502   3.516   4.239   4.514
 2234SOL     OW 9503   1.984   4.367   4.287
 2234SOL    HW1 9504   1.939   4.279   4.304
 2234SOL    HW2 9505   1.983   4.421   4.371
 2235SOL     OW 9506   2.671   3.728   4.226
 2235SOL    HW1 9507   2.711   3.819   4.217
 2235SOL    HW2 9508   2.571   3.736   4.232
 2236SOL     OW 9509   3.387   4.723   3.914
 2236SOL    HW1 9510   3.324   4.647   3.927
 2236SOL    HW2 9511   3.435   4.741   4.000
 2237SOL     OW 9512   3.328   5.141   4.677
 2237SOL    HW1 9513   3.269   5.147   4.757
 2237SOL    HW2 9514   3.313   5.053   4.631
 2238SOL     OW 9515   3.143   4.069   4.668
 2238SOL    HW1 9516   3.057   4.019   4.655
 2238SOL    HW2 9517   3.205   4.015   4.724
 2239SOL     OW 9518   2.853   4.134   4.966
 2239SOL    HW1 9519   2.776   4.168   5.020
 2239SOL    HW2 9520   2.819   4.083   4.887
 2240SOL     OW 9521   2.903   4.425   4.153
 2240SOL    HW1 9522   2.929   4.421   4.249
 2240SOL    HW2 9523   2.818   4.374   4.139
 2241SOL     OW 9524   1.938   4.535   4.513
 2241SOL    HW1 9525   2.037   4.523   4.522
 2241SOL    HW2 9526   1.914   4.630   4.534
 2242SOL     OW 9527   2.412   3.920   4.609
 2242SOL    HW1 9528   2.407   3.915   4.709
 2242SOL    HW2 9529   2.414   4.016   4.580
 2243SOL     OW 9530   2.183   4.667   3.966
 2243SOL    HW1 9531   2.265   4.706   3.924
 2243SOL    HW2 9532   2.156   4.585   3.917
 2244SOL     OW 9533   3.494   5.101   3.805
 2244SOL    HW1 9534   3.462   5.195   3.795
 2244SOL    HW2 9535   3.418   5.038   3.793
 2245SOL     OW 9536   3.262   3.831   4.150
 2245SOL    HW1 9537   3.238   3.794   4.060
 2245SOL    HW2 9538   3.361   3.847   4.154
 2246SOL     OW 9539   2.476   3.846   3.841
 2246SOL    HW1 9540   2.574   3.824   3.848
 2246SOL    HW2 9541   2.445   3.829   3.748
 2247SOL     OW 9542   2.665   5.126   4.648
 2247SOL    HW1 9543   2.755   5.140   4.606
 2247SOL    HW2 9544   2.594   5.128   4.577
 2248SOL     OW 9545   2.784   4.227   4.623
 2248SOL    HW1 9546   2.759   4.218   4.527
 2248SOL    HW2 9547   2.832   4.145   4.654
 2249SOL     OW 9548   2.401   3.788   4.236
 2249SOL    HW1 9549   2.320   3.789   4.294
 2249SOL    HW2 9550   2.404   3.871   4.181
 2250SOL     OW 9551   3.296   4.912   3.765
 2250SOL    HW1 9552   3.328   4.836   3.822
 2250SOL    HW2 9553   3.204   4.939   3.795
 2251SOL     OW 9554   2.159   3.759   3.895
 2251SOL    HW1 9555   2.208   3.843   3.874
 2251SOL    HW2 9556   2.221   3.694   3.940
 2252SOL     OW 9557   2.797   3.960   4.204
 2252SOL    HW1 9558   2.749   4.001   4.126
 2252SOL    HW2 9559   2.896   3.958   4.185
 2253SOL     OW 9560   3.089   5.294   4.517
 2253SOL    HW1 9561   3.110   5.368   4.452
 2253SOL    HW2 9562   3.157   5.294   4.590
 2254SOL     OW 9563   2.321   4.876   4.465
 2254SOL    HW1 9564   2.250   4.849   4.530
 2254SOL    HW2 9565   2.295   4.848   4.372
 2255SOL     OW 9566   2.423   3.946   4.871
 2255SOL    HW1 9567   2.461   3.862   4.908
 2255SOL    HW2 9568   2.335   3.965   4.915
 2256SOL     OW 9569   2.728   4.178   4.366
 2256SOL    HW1 9570   2.696   4.250   4.304
 2256SOL    HW2 9571   2.752   4.097   4.313
 2257SOL     OW 9572   2.879   3.763   4.477
 2257SOL    HW1 9573   2.807   3.768   4.408
 2257SOL    HW2 9574   2.855   3.694   4.546
 2258SOL     OW 9575   3.328   4.314   4.716
 2258SOL    HW1 9576   3.298   4.219   4.723
 2258SOL    HW2 9577   3.401   4.330   4.782
 2259SOL     OW 9578   3.719   4.557   4.101
 2259SOL    HW1 9579   3.761   4.493   4.165
 2259SOL    HW2 9580   3.681   4.506   4.023
 2260SOL     OW 9581   3.526   5.004   4.381
 2260SOL    HW1 9582   3.625   5.012   4.395
 2260SOL    HW2 9583   3.481   5.088   4.412
 2261SOL     OW 9584   3.252   4.299   3.802
 2261SOL    HW1 9585   3.198   4.278   3.883
 2261SOL    HW2 9586   3.343   4.258   3.811
 2262SOL     OW 9587   2.389   3.980   4.052
 2262SOL    HW1 9588   2.416   3.921   3.977
 2262SOL    HW2 9589   2.389   4.075   4.021
 2263SOL     OW 9590   2.567   4.774   4.092
 2263SOL    HW1 9591   2.553   4.781   4.191
 2263SOL    HW2 9592   2.651   4.723   4.074
 2264SOL     OW 9593   2.272   4.537   4.975
 2264SOL    HW1 9594   2.358   4.549   5.025
 2264SOL    HW2 9595   2.230   4.450   5.002
 2265SOL     OW 9596   3.136   4.110   4.986
 2265SOL    HW1 9597   3.157   4.184   5.050
 2265SOL    HW2 9598   3.047   4.127   4.943
 2266SOL     OW 9599   2.229   4.824   4.225
 2266SOL    HW1 9600   2.222   4.907   4.169
 2266SOL    HW2 9601   2.233   4.744   4.165
 2267SOL     OW 9602   2.428   4.261   4.589
 2267SOL    HW1 9603   2.440   4.327   4.515
 2267SOL    HW2 9604   2.474   4.295   4.672
 2268SOL     OW 9605   2.435   4.594   4.753
 2268SOL    HW1 9606   2.479   4.683   4.744
 2268SOL    HW2 9607   2.372   4.594   4.830
 2269SOL     OW 9608   3.071   4.249   3.999
 2269SOL    HW1 9609   3.084   4.165   4.053
 2269SOL    HW2 9610   3.042   4.323   4.059
 2270SOL     OW 9611   2.169   3.937   4.955
 2270SOL    HW1 9612   2.146   3.974   5.045
 2270SOL    HW2 9613   2.139   3.842   4.949
 2271SOL     OW 9614   2.594   4.358   4.788
 2271SOL    HW1 9615   2.653   4.332   4.712
 2271SOL    HW2 9616   2.566   4.454   4.777
 2272SOL     OW 9617   2.169   3.787   4.342
 2272SOL    HW1 9618   2.158   3.881   4.375
 2272SOL    HW2 9619   2.164   3.724   4.419
 2273SOL     OW 9620   3.484   4.091   4.098
 2273SOL    HW1 9621   3.486   4.015   4.162
 2273SOL    HW2 9622   3.436   4.168   4.138
 2274SOL     OW 9623   2.885   4.490   4.690
 2274SOL    HW1 9624   2.900   4.511   4.786
 2274SOL    HW2 9625   2.855   4.395   4.681
 2275SOL     OW 9626   3.402   3.998   3.849
 2275SOL    HW1 9627   3.341   3.923   3.872
 2275SOL    HW2 9628   3.424   4.050   3.932
 2276SOL     OW 9629   3.165   4.562   3.766
 2276SOL    HW1 9630   3.199   4.469   3.781
 2276SOL    HW2 9631   3.183   4.589   3.671
 2277SOL     OW 9632   2.181   4.534   4.673
 2277SOL    HW1 9633   2.274   4.570   4.678
 2277SOL    HW2 9634   2.175   4.449   4.725
 2278SOL     OW 9635   2.201   4.233   4.730
 2278SOL    HW1 9636   2.149   4.150   4.713
 2278SOL    HW2 9637   2.278   4.238   4.666
 2279SOL     OW 9638   2.864   4.520   4.962
 2279SOL    HW1 9639   2.905   4.488   5.048
 2279SOL    HW2 9640   2.768   4.493   4.959
 2280SOL     OW 9641   1.902   4.268   4.838
 2280SOL    HW1 9642   1.987   4.235   4.797
 2280SOL    HW2 9643   1.915   4.283   4.936
 2281SOL     OW 9644   3.519   4.328   4.930
 2281SOL    HW1 9645   3.481   4.259   4.992
 2281SOL    HW2 9646   3.601   4.292   4.886
 2282SOL     OW 9647   2.533   4.188   4.993
 2282SOL    HW1 9648   2.499   4.099   4.963
 2282SOL    HW2 9649   2.559   4.242   4.913
 2283SOL     OW 9650   3.588   3.859   4.247
 2283SOL    HW1 9651   3.661   3.842   4.180
 2283SOL    HW2 9652   3.557   3.772   4.285
 2284SOL     OW 9653   3.703   3.899   4.687
 2284SOL    HW1 9654   3.742   3.814   4.651
 2284SOL    HW2 9655   3.605   3.901   4.668
 2285SOL     OW 9656   2.125   4.050   4.444
 2285SOL    HW1 9657   2.046   4.101   4.410
 2285SOL    HW2 9658   2.116   4.035   4.542
 2286SOL     OW 9659   3.056   5.336   3.755
 2286SOL    HW1 9660   3.062   5.243   3.792
 2286SOL    HW2 9661   2.997   5.336   3.675
 2287SOL     OW 9662   2.684   4.726   5.096
 2287SOL    HW1 9663   2.724   4.725   5.004
 2287SOL    HW2 9664   2.694   4.818   5.136
 2288SOL     OW 9665   2.901   4.822   4.420
 2288SOL    HW1 9666   2.831   4.775   4.474
 2288SOL    HW2 9667   2.960   4.754   4.377
 2289SOL     OW 9668   2.876   3.960   4.695
 2289SOL    HW1 9669   2.868   3.924   4.602
 2289SOL    HW2 9670   2.874   3.884   4.760
 2290SOL     OW 9671   3.571   4.109   5.105
 2290SOL    HW1 9672   3.644   4.178   5.109
 2290SOL    HW2 9673   3.599   4.034   5.046
 2291SOL     OW 9674   3.087   4.049   4.173
 2291SOL    HW1 9675   3.152   3.975   4.162
 2291SOL    HW2 9676   3.107   4.099   4.257
 2292SOL     OW 9677   3.592   4.658   5.241
 2292SOL    HW1 9678   3.630   4.749   5.256
 2292SOL    HW2 9679   3.584   4.641   5.142
 2293SOL     OW 9680   2.721   4.680   4.585
 2293SOL    HW1 9681   2.775   4.611   4.633
 2293SOL    HW2 9682   2.689   4.749   4.651
 2294SOL     OW 9683   2.945   4.708   3.811
 2294SOL    HW1 9684   2.922   4.761   3.729
 2294SOL    HW2 9685   3.026   4.652   3.792
 2295SOL     OW 9686   1.941   4.964   4.377
 2295SOL    HW1 9687   1.940   4.917   4.465
 2295SOL    HW2 9688   2.023   4.936   4.326
 2296SOL     OW 9689   3.686   3.916   4.951
 2296SOL    HW1 9690   3.682   3.826   4.995
 2296SOL    HW2 9691   3.689   3.905   4.852
 2297SOL     OW 9692   3.286   3.938   4.836
 2297SOL    HW1 9693   3.338   3.873   4.891
 2297SOL    HW2 9694   3.237   4.001   4.897
 2298SOL     OW 9695   2.863   3.758   4.878
 2298SOL    HW1 9696   2.800   3.686   4.847
 2298SOL    HW2 9697   2.956   3.722   4.878
 2299SOL     OW 9698   2.632   5.054   4.025
 2299SOL    HW1 9699   2.586   4.967   4.042
 2299SOL    HW2 9700   2.723   5.051   4.066
 2300SOL     OW 9701   3.214   3.776   3.892
 2300SOL    HW1 9702   3.249   3.735   3.808
 2300SOL    HW2 9703   3.124   3.738   3.912
 2301SOL     OW 9704   3.162   4.177   4.415
 2301SOL    HW1 9705   3.103   4.257   4.419
 2301SOL    HW2 9706   3.177   4.142   4.508
 2302SOL     OW 9707   3.455   3.945   4.606
 2302SOL    HW1 9708   3.371   3.944   4.660
 2302SOL    HW2 9709   3.457   4.028   4.550
 2303SOL     OW 9710   1.901   4.801   4.024
 2303SOL    HW1 9711   2.000   4.790   4.015
 2303SOL    HW2 9712   1.861   4.715   4.056
 2304SOL     OW 9713   3.954   0.628   0.113
 2304SOL    HW1 9714   3.861   0.626   0.150
 2304SOL    HW2 9715   3.955   0.589   0.021
 2305SOL     OW 9716   3.949   0.275   0.996
 2305SOL    HW1 9717   3.984   0.258   1.088
 2305SOL    HW2 9718   3.861   0.230   0.984
 2306SOL     OW 9719   3.743   0.368   0.647
 2306SOL    HW1 9720   3.661   0.411   0.686
 2306SOL    HW2 9721   3.715   0.295   0.584
 2307SOL     OW 9722   4.293   1.275   1.165
 2307SOL    HW1 9723   4.200   1.268   1.128
 2307SOL    HW2 9724   4.304   1.364   1.209
 2308SOL     OW 9725   4.492   1.144   1.023
 2308SOL    HW1 9726   4.414   1.161   1.083
 2308SOL    HW2 9727   4.526   1.231   0.987
 2309SOL     OW 9728   4.574   0.798   1.823
 2309SOL    HW1 9729   4.570   0.874   1.888
 2309SOL    HW2 9730   4.596   0.834   1.732
 2310SOL     OW 9731   4.059   1.435   1.061
 2310SOL    HW1 9732   3.981   1.404   1.008
 2310SOL    HW2 9733   4.117   1.493   1.004
 2311SOL     OW 9734   4.162   0.392   1.499
 2311SOL    HW1 9735   4.244   0.336   1.508
 2311SOL    HW2 9736   4.081   0.334   1.503
 2312SOL     OW 9737   3.955   1.713   0.483
 2312SOL    HW1 9738   3.989   1.790   0.537
 2312SOL    HW2 9739   3.999   1.713   0.393
 2313SOL     OW 9740   3.954   1.434   0.538
 2313SOL    HW1 9741   3.928   1.530   0.538
 2313SOL    HW2 9742   3.883   1.380   0.583
 2314SOL     OW 9743   4.344   1.786   1.439
 2314SOL    HW1 9744   4.252   1.769   1.474
 2314SOL    HW2 9745   4.372   1.878   1.465
 2315SOL     OW 9746   3.751   1.596   0.117
 2315SOL    HW1 9747   3.732   1.500   0.138
 2315SOL    HW2 9748   3.718   1.654   0.192
 2316SOL     OW 9749   4.337   1.365   0.726
 2316SOL    HW1 9750   4.288   1.278   0.735
 2316SOL    HW2 9751   4.314   1.408   0.639
 2317SOL     OW 9752   4.533   0.004   0.502
 2317SOL    HW1 9753   4.573   0.095   0.493
 2317SOL    HW2 9754   4.433   0.012   0.508
 2318SOL     OW 9755   3.921   0.976   1.264
 2318SOL    HW1 9756   4.010   0.931   1.250
 2318SOL    HW2 9757   3.848   0.911   1.245
 2319SOL     OW 9758   4.911   1.792   1.616
 2319SOL    HW1 9759   4.935   1.852   1.540
 2319SOL    HW2 9760   4.918   1.697   1.586
 2320SOL     OW 9761   4.041   0.251   1.801
 2320SOL    HW1 9762   4.112   0.322   1.807
 2320SOL    HW2 9763   3.953   0.290   1.829
 2321SOL     OW 9764   4.531   0.605   1.465
 2321SOL    HW1 9765   4.484   0.602   1.554
 2321SOL    HW2 9766   4.480   0.550   1.399
 2322SOL     OW 9767   4.715   0.410   1.242
 2322SOL    HW1 9768   4.638   0.444   1.296
 2322SOL    HW2 9769   4.681   0.359   1.163
 2323SOL     OW 9770   4.765   0.701   0.429
 2323SOL    HW1 9771   4.791   0.697   0.525
 2323SOL    HW2 9772   4.680   0.650   0.415
 2324SOL     OW 9773   3.854   1.821   1.571
 2324SOL    HW1 9774   3.844   1.806   1.670
 2324SOL    HW2 9775   3.768   1.857   1.535
 2325SOL     OW 9776   4.589   0.348   0.195
 2325SOL    HW1 9777   4.648   0.411   0.146
 2325SOL    HW2 9778   4.608   0.254   0.166
 2326SOL     OW 9779   4.274   0.196   0.885
 2326SOL    HW1 9780   4.269   0.191   0.985
 2326SOL    HW2 9781   4.276   0.292   0.856
 2327SOL     OW 9782   4.732   1.456   0.477
 2327SOL    HW1 9783   4.686   1.528   0.425
 2327SOL    HW2 9784   4.728   1.476   0.575
 2328SOL     OW 9785   4.075   1.801   0.853
 2328SOL    HW1 9786   4.125   1.715   0.859
 2328SOL    HW2 9787   4.140   1.878   0.850
 2329SOL     OW 9788   4.951   1.550   1.506
 2329SOL    HW1 9789   4.957   1.473   1.570
 2329SOL    HW2 9790   4.899   1.524   1.426
 2330SOL     OW 9791   3.926   0.285   1.498
 2330SOL    HW1 9792   3.846   0.345   1.485
 2330SOL    HW2 9793   3.916   0.236   1.584
 2331SOL     OW 9794   5.356   1.377   0.081
 2331SOL    HW1 9795   5.324   1.471   0.071
 2331SOL    HW2 9796   5.280   1.314   0.069
 2332SOL     OW 9797   4.188   1.743   0.323
 2332SOL    HW1 9798   4.221   1.782   0.409
 2332SOL    HW2 9799   4.264   1.736   0.258
 2333SOL     OW 9800   3.973   1.785   1.241
 2333SOL    HW1 9801   4.030   1.720   1.291
 2333SOL    HW2 9802   3.957   1.752   1.148
 2334SOL     OW 9803   4.664   1.698   0.904
 2334SOL    HW1 9804   4.744   1.641   0.925
 2334SOL    HW2 9805   4.615   1.658   0.827
 2335SOL     OW 9806   4.106   0.700   0.480
 2335SOL    HW1 9807   4.151   0.610   0.477
 2335SOL    HW2 9808   4.012   0.689   0.513
 2336SOL     OW 9809   4.338   0.122   0.117
 2336SOL    HW1 9810   4.436   0.100   0.124
 2336SOL    HW2 9811   4.307   0.105   0.024
 2337SOL     OW 9812   4.505   0.264   1.749
 2337SOL    HW1 9813   4.572   0.203   1.792
 2337SOL    HW2 9814   4.432   0.283   1.814
 2338SOL     OW 9815   4.612   1.514   1.195
 2338SOL    HW1 9816   4.589   1.489   1.101
 2338SOL    HW2 9817   4.673   1.445   1.234
 2339SOL     OW 9818   4.527   1.402   0.924
 2339SOL    HW1 9819   4.617   1.416   0.882
 2339SOL    HW2 9820   4.456   1.404   0.853
 2340SOL     OW 9821   4.646   0.503   0.899
 2340SOL    HW1 9822   4.621   0.494   0.803
 2340SOL    HW2 9823   4.694   0.421   0.930
 2341SOL     OW 9824   4.263   0.064   0.512
 2341SOL    HW1 9825   4.182   0.065   0.570
 2341SOL    HW2 9826   4.266   0.147   0.457
 2342SOL     OW 9827   4.021   0.035   0.171
 2342SOL    HW1 9828   4.070   0.119   0.150
 2342SOL    HW2 9829   4.083  -0.030   0.216
 2343SOL     OW 9830   4.659   0.236   0.480
 2343SOL    HW1 9831   4.611   0.277   0.402
 2343SOL    HW2 9832   4.758   0.234   0.461
 2344SOL     OW 9833   4.951   1.570   0.793
 2344SOL    HW1 9834   4.972   1.644   0.728
 2344SOL    HW2 9835   5.019   1.570   0.866
 2345SOL     OW 9836   4.183   1.152   0.741
 2345SOL    HW1 9837   4.112   1.125   0.806
 2345SOL    HW2 9838   4.157   1.124   0.648
 2346SOL     OW 9839   4.756   0.549   0.016
 2346SOL    HW1 9840   4.715   0.631  -0.023
 2346SOL    HW2 9841   4.820   0.575   0.089
 2347SOL     OW 9842   4.285   0.222   1.147
 2347SOL    HW1 9843   4.323   0.138   1.184
 2347SOL    HW2 9844   4.197   0.241   1.191
 2348SOL     OW 9845   4.741   0.039   0.753
 2348SOL    HW1 9846   4.669   0.044   0.684
 2348SOL    HW2 9847   4.717  -0.030   0.822
 2349SOL     OW 9848   4.212   1.385   0.174
 2349SOL    HW1 9849   4.125   1.370   0.221
 2349SOL    HW2 9850   4.195   1.411   0.079
 2350SOL     OW 9851   5.388   1.280   0.657
 2350SOL    HW1 9852   5.487   1.288   0.671
 2350SOL    HW2 9853   5.343   1.364   0.688
 2351SOL     OW 9854   4.251   0.256   0.328
 2351SOL    HW1 9855   4.278   0.197   0.253
 2351SOL    HW2 9856   4.251   0.351   0.297
 2352SOL     OW 9857   4.788   1.347   1.340
 2352SOL    HW1 9858   4.708   1.324   1.395
 2352SOL    HW2 9859   4.871   1.321   1.389
 2353SOL     OW 9860   4.835   1.195   1.100
 2353SOL    HW1 9861   4.795   1.239   1.181
 2353SOL    HW2 9862   4.794   1.232   1.017
 2354SOL     OW 9863   4.639   0.089   1.402
 2354SOL    HW1 9864   4.664   0.069   1.307
 2354SOL    HW2 9865   4.711   0.145   1.444
 2355SOL     OW 9866   4.134   0.813   1.251
 2355SOL    HW1 9867   4.220   0.825   1.301
 2355SOL    HW2 9868   4.092   0.726   1.278
 2356SOL     OW 9869   3.788   1.564   1.331
 2356SOL    HW1 9870   3.742   1.646   1.297
 2356SOL    HW2 9871   3.886   1.583   1.340
 2357SOL     OW 9872   4.290   0.537   0.865
 2357SOL    HW1 9873   4.302   0.603   0.791
 2357SOL    HW2 9874   4.336   0.571   0.948
 2358SOL     OW 9875   4.976   1.348   0.388
 2358SOL    HW1 9876   5.026   1.425   0.428
 2358SOL    HW2 9877   4.881   1.350   0.420
 2359SOL     OW 9878   4.078   1.510   1.329
 2359SOL    HW1 9879   4.057   1.466   1.242
 2359SOL    HW2 9880   4.175   1.536   1.332
 2360SOL     OW 9881   4.126   0.751   1.598
 2360SOL    HW1 9882   4.194   0.806   1.551
 2360SOL    HW2 9883   4.166   0.663   1.625
 2361SOL     OW 9884   4.737   0.105   1.770
 2361SOL    HW1 9885   4.743   0.190   1.718
 2361SOL    HW2 9886   4.769   0.029   1.713
 2362SOL     OW 9887   4.228   0.050   1.740
 2362SOL    HW1 9888   4.186  -0.007   1.670
 2362SOL    HW2 9889   4.162   0.119   1.772
 2363SOL     OW 9890   4.933   0.525   0.275
 2363SOL    HW1 9891   4.946   0.441   0.329
 2363SOL    HW2 9892   4.904   0.599   0.335
 2364SOL     OW 9893   4.031   0.213   1.231
 2364SOL    HW1 9894   4.008   0.250   1.321
 2364SOL    HW2 9895   4.001   0.118   1.225
 2365SOL     OW 9896   4.456   0.634   1.064
 2365SOL    HW1 9897   4.515   0.608   0.988
 2365SOL    HW2 9898   4.428   0.730   1.053
 2366SOL     OW 9899   4.747   0.766   0.966
 2366SOL    HW1 9900   4.762   0.787   1.062
 2366SOL    HW2 9901   4.717   0.671   0.957
 2367SOL     OW 9902   5.027   0.838   0.042
 2367SOL    HW1 9903   5.061   0.745   0.057
 2367SOL    HW2 9904   5.045   0.865  -0.053
 2368SOL     OW 9905   4.792   1.333   0.849
 2368SOL    HW1 9906   4.799   1.249   0.794
 2368SOL    HW2 9907   4.854   1.402   0.813
 2369SOL     OW 9908   4.043   0.810   0.949
 2369SOL    HW1 9909   4.136   0.846   0.954
 2369SOL    HW2 9910   4.037   0.725   1.001
 2370SOL     OW 9911   4.063   0.509   1.006
 2370SOL    HW1 9912   4.011   0.426   0.989
 2370SOL    HW2 9913   4.140   0.514   0.942
 2371SOL     OW 9914   4.884   0.207   1.477
 2371SOL    HW1 9915   4.884   0.271   1.554
 2371SOL    HW2 9916   4.912   0.255   1.394
 2372SOL     OW 9917   3.812   1.801   0.927
 2372SOL    HW1 9918   3.770   1.715   0.900
 2372SOL    HW2 9919   3.906   1.804   0.893
 2373SOL     OW 9920   4.228   1.568   0.910
 2373SOL    HW1 9921   4.294   1.642   0.919
 2373SOL    HW2 9922   4.272   1.489   0.868
 2374SOL     OW 9923   4.726   0.796   1.238
 2374SOL    HW1 9924   4.767   0.764   1.324
 2374SOL    HW2 9925   4.630   0.769   1.235
 2375SOL     OW 9926   3.764   0.544   1.114
 2375SOL    HW1 9927   3.849   0.511   1.073
 2375SOL    HW2 9928   3.777   0.559   1.212
 2376SOL     OW 9929   3.976   1.564   1.744
 2376SOL    HW1 9930   3.946   1.621   1.820
 2376SOL    HW2 9931   3.969   1.467   1.770
 2377SOL     OW 9932   4.395   0.464   1.269
 2377SOL    HW1 9933   4.361   0.375   1.239
 2377SOL    HW2 9934   4.421   0.518   1.189
 2378SOL     OW 9935   4.654   1.678   1.465
 2378SOL    HW1 9936   4.630   1.660   1.370
 2378SOL    HW2 9937   4.684   1.772   1.475
 2379SOL     OW 9938   4.976   1.731   1.128
 2379SOL    HW1 9939   5.060   1.736   1.074
 2379SOL    HW2 9940   4.953   1.635   1.146
 2380SOL     OW 9941   4.627   0.086   0.133
 2380SOL    HW1 9942   4.678   0.087   0.047
 2380SOL    HW2 9943   4.683   0.044   0.204
 2381SOL     OW 9944   3.854   1.794   1.851
 2381SOL    HW1 9945   3.813   1.720   1.904
 2381SOL    HW2 9946   3.918   1.845   1.909
 2382SOL     OW 9947   4.554   1.273   1.422
 2382SOL    HW1 9948   4.549   1.306   1.517
 2382SOL    HW2 9949   4.468   1.292   1.376
 2383SOL     OW 9950   4.396   1.616   0.154
 2383SOL    HW1 9951   4.405   1.626   0.055
 2383SOL    HW2 9952   4.356   1.527   0.175
 2384SOL     OW 9953   3.987   0.326   0.720
 2384SOL    HW1 9954   3.908   0.377   0.686
 2384SOL    HW2 9955   3.978   0.311   0.818
 2385SOL     OW 9956   4.918   1.612   0.031
 2385SOL    HW1 9957   4.924   1.519   0.068
 2385SOL    HW2 9958   4.859   1.612  -0.049
 2386SOL     OW 9959   4.546   1.002   1.372
 2386SOL    HW1 9960   4.586   1.001   1.280
 2386SOL    HW2 9961   4.556   1.094   1.412
 2387SOL     OW 9962   4.640   0.910   0.291
 2387SOL    HW1 9963   4.703   0.948   0.223
 2387SOL    HW2 9964   4.680   0.827   0.330
 2388SOL     OW 9965   4.738   0.236   0.971
 2388SOL    HW1 9966   4.730   0.200   0.878
 2388SOL    HW2 9967   4.736   0.160   1.036
 2389SOL     OW 9968   4.314   1.487   0.491
 2389SOL    HW1 9969   4.356   1.429   0.421
 2389SOL    HW2 9970   4.270   1.566   0.447
 2390SOL     OW 9971   3.979   1.348   0.290
 2390SOL    HW1 9972   3.883   1.349   0.263
 2390SOL    HW2 9973   3.991   1.401   0.374
 2391SOL     OW 9974   3.829   1.013   1.726
 2391SOL    HW1 9975   3.752   0.980   1.780
 2391SOL    HW2 9976   3.914   0.983   1.768
 2392SOL     OW 9977   4.396   0.203   1.489
 2392SOL    HW1 9978   4.486   0.187   1.449
 2392SOL    HW2 9979   4.404   0.208   1.588
 2393SOL     OW 9980   4.337   0.842   1.431
 2393SOL    HW1 9981   4.393   0.923   1.414
 2393SOL    HW2 9982   4.396   0.762   1.434
 2394SOL     OW 9983   4.440   0.565   1.708
 2394SOL    HW1 9984   4.459   0.630   1.782
 2394SOL    HW2 9985   4.500   0.485   1.717
 2395SOL     OW 9986   4.114   1.741   1.560
 2395SOL    HW1 9987   4.023   1.782   1.558
 2395SOL    HW2 9988   4.107   1.647   1.592
 2396SOL     OW 9989   4.949   0.325   0.449
 2396SOL    HW1 9990   5.014   0.251   0.438
 2396SOL    HW2 9991   4.969   0.375   0.533
 2397SOL     OW 9992   4.583   1.374   0.016
 2397SOL    HW1 9993   4.537   1.389   0.104
 2397SOL    HW2 9994   4.627   1.459  -0.014
 2398SOL     OW 9995   4.385   1.790   0.953
 2398SOL    HW1 9996   4.339   1.878   0.940
 2398SOL    HW2 9997   4.484   1.802   0.946
 2399SOL     OW 9998   4.807   0.984   0.087
 2399SOL    HW1 9999   4.784   1.037   0.005
 2399SOL    HW210000   4.888   0.928   0.068
 2400SOL     OW10001   4.152   0.424   0.520
 2400SOL    HW110002   4.182   0.352   0.458
 2400SOL    HW210003   4.113   0.384   0.603
 2401SOL     OW10004   4.041   0.547   1.280
 2401SOL    HW110005   4.079   0.488   1.352
 2401SOL    HW210006   4.081   0.521   1.192
 2402SOL     OW10007   4.536   1.586   0.687
 2402SOL    HW110008   4.568   1.596   0.593
 2402SOL    HW210009   4.457   1.524   0.689
 2403SOL     OW10010   4.725   0.034   1.154
 2403SOL    HW110011   4.662  -0.038   1.123
 2403SOL    HW210012   4.818  -0.002   1.154
 2404SOL     OW10013   4.494   1.330   0.301
 2404SOL    HW110014   4.448   1.243   0.318
 2404SOL    HW210015   4.585   1.327   0.342
 2405SOL     OW10016   4.342   1.567   1.284
 2405SOL    HW110017   4.337   1.649   1.341
 2405SOL    HW210018   4.431   1.564   1.239
 2406SOL     OW10019   3.763   1.077   0.300
 2406SOL    HW110020   3.862   1.066   0.291
 2406SOL    HW210021   3.723   0.991   0.332
 2407SOL     OW10022   4.599   1.646   0.337
 2407SOL    HW110023   4.522   1.611   0.283
 2407SOL    HW210024   4.567   1.717   0.399
 2408SOL     OW10025   3.954   0.628   1.975
 2408SOL    HW110026   3.861   0.626   2.012
 2408SOL    HW210027   3.955   0.589   1.883
 2409SOL     OW10028   3.743   0.368   2.509
 2409SOL    HW110029   3.661   0.411   2.548
 2409SOL    HW210030   3.715   0.295   2.446
 2410SOL     OW10031   4.859   0.703   2.579
 2410SOL    HW110032   4.916   0.781   2.554
 2410SOL    HW210033   4.799   0.729   2.655
 2411SOL     OW10034   4.492   1.144   2.885
 2411SOL    HW110035   4.414   1.161   2.945
 2411SOL    HW210036   4.526   1.231   2.849
 2412SOL     OW10037   4.409   1.012   2.527
 2412SOL    HW110038   4.478   0.996   2.597
 2412SOL    HW210039   4.336   1.069   2.565
 2413SOL     OW10040   4.162   0.392   3.361
 2413SOL    HW110041   4.244   0.336   3.370
 2413SOL    HW210042   4.081   0.334   3.365
 2414SOL     OW10043   4.851   1.341   3.552
 2414SOL    HW110044   4.898   1.341   3.640
 2414SOL    HW210045   4.803   1.254   3.541
 2415SOL     OW10046   3.954   1.434   2.400
 2415SOL    HW110047   3.928   1.530   2.400
 2415SOL    HW210048   3.883   1.380   2.445
 2416SOL     OW10049   4.344   1.786   3.301
 2416SOL    HW110050   4.252   1.769   3.336
 2416SOL    HW210051   4.372   1.878   3.327
 2417SOL     OW10052   3.751   1.596   1.979
 2417SOL    HW110053   3.732   1.500   2.000
 2417SOL    HW210054   3.718   1.654   2.054
 2418SOL     OW10055   3.837   0.737   3.459
 2418SOL    HW110056   3.925   0.724   3.504
 2418SOL    HW210057   3.824   0.834   3.437
 2419SOL     OW10058   3.921   0.976   3.126
 2419SOL    HW110059   4.010   0.931   3.112
 2419SOL    HW210060   3.848   0.911   3.107
 2420SOL     OW10061   4.911   1.792   3.478
 2420SOL    HW110062   4.935   1.852   3.402
 2420SOL    HW210063   4.918   1.697   3.448
 2421SOL     OW10064   4.041   0.251   3.663
 2421SOL    HW110065   4.112   0.322   3.669
 2421SOL    HW210066   3.953   0.290   3.691
 2422SOL     OW10067   5.005   0.345   2.806
 2422SOL    HW110068   4.919   0.295   2.793
 2422SOL    HW210069   5.067   0.291   2.862
 2423SOL     OW10070   4.697   0.890   3.434
 2423SOL    HW110071   4.743   0.806   3.405
 2423SOL    HW210072   4.641   0.924   3.359
 2424SOL     OW10073   4.715   0.410   3.104
 2424SOL    HW110074   4.638   0.444   3.158
 2424SOL    HW210075   4.681   0.359   3.025
 2425SOL     OW10076   4.765   0.701   2.291
 2425SOL    HW110077   4.791   0.697   2.387
 2425SOL    HW210078   4.680   0.650   2.277
 2426SOL     OW10079   3.800   0.811   2.651
 2426SOL    HW110080   3.899   0.799   2.660
 2426SOL    HW210081   3.776   0.906   2.672
 2427SOL     OW10082   3.854   1.821   3.433
 2427SOL    HW110083   3.844   1.806   3.532
 2427SOL    HW210084   3.768   1.857   3.397
 2428SOL     OW10085   4.589   0.348   2.057
 2428SOL    HW110086   4.648   0.411   2.008
 2428SOL    HW210087   4.608   0.254   2.028
 2429SOL     OW10088   4.732   1.456   2.339
 2429SOL    HW110089   4.686   1.528   2.287
 2429SOL    HW210090   4.728   1.476   2.437
 2430SOL     OW10091   4.951   1.550   3.368
 2430SOL    HW110092   4.957   1.473   3.432
 2430SOL    HW210093   4.899   1.524   3.288
 2431SOL     OW10094   4.045   0.943   2.104
 2431SOL    HW110095   4.127   0.982   2.062
 2431SOL    HW210096   4.018   0.861   2.055
 2432SOL     OW10097   4.835   1.776   2.099
 2432SOL    HW110098   4.775   1.714   2.149
 2432SOL    HW210099   4.866   1.732   2.014
 2433SOL     OW10100   3.926   0.285   3.360
 2433SOL    HW110101   3.846   0.345   3.347
 2433SOL    HW210102   3.916   0.236   3.446
 2434SOL     OW10103   4.664   1.698   2.766
 2434SOL    HW110104   4.744   1.641   2.787
 2434SOL    HW210105   4.615   1.658   2.689
 2435SOL     OW10106   4.338   0.122   1.979
 2435SOL    HW110107   4.436   0.100   1.986
 2435SOL    HW210108   4.307   0.105   1.886
 2436SOL     OW10109   4.505   0.264   3.611
 2436SOL    HW110110   4.572   0.203   3.654
 2436SOL    HW210111   4.432   0.283   3.676
 2437SOL     OW10112   4.612   1.514   3.057
 2437SOL    HW110113   4.589   1.489   2.963
 2437SOL    HW210114   4.673   1.445   3.096
 2438SOL     OW10115   4.527   1.402   2.786
 2438SOL    HW110116   4.617   1.416   2.744
 2438SOL    HW210117   4.456   1.404   2.715
 2439SOL     OW10118   4.646   0.503   2.761
 2439SOL    HW110119   4.621   0.494   2.665
 2439SOL    HW210120   4.694   0.421   2.792
 2440SOL     OW10121   4.021   0.035   2.033
 2440SOL    HW110122   4.070   0.119   2.012
 2440SOL    HW210123   4.083  -0.030   2.078
 2441SOL     OW10124   4.659   0.236   2.342
 2441SOL    HW110125   4.611   0.277   2.264
 2441SOL    HW210126   4.758   0.234   2.323
 2442SOL     OW10127   4.800   0.683   3.326
 2442SOL    HW110128   4.720   0.622   3.329
 2442SOL    HW210129   4.881   0.630   3.302
 2443SOL     OW10130   4.951   1.570   2.655
 2443SOL    HW110131   4.972   1.644   2.590
 2443SOL    HW210132   5.019   1.570   2.728
 2444SOL     OW10133   4.183   1.152   2.603
 2444SOL    HW110134   4.112   1.125   2.668
 2444SOL    HW210135   4.157   1.124   2.510
 2445SOL     OW10136   4.995   1.797   2.453
 2445SOL    HW110137   5.039   1.861   2.389
 2445SOL    HW210138   4.945   1.849   2.523
 2446SOL     OW10139   4.756   0.549   1.878
 2446SOL    HW110140   4.715   0.631   1.839
 2446SOL    HW210141   4.820   0.575   1.951
 2447SOL     OW10142   3.802   0.556   3.248
 2447SOL    HW110143   3.894   0.555   3.207
 2447SOL    HW210144   3.796   0.630   3.315
 2448SOL     OW10145   4.285   0.222   3.009
 2448SOL    HW110146   4.323   0.138   3.046
 2448SOL    HW210147   4.197   0.241   3.053
 2449SOL     OW10148   4.590   0.454   2.504
 2449SOL    HW110149   4.558   0.526   2.442
 2449SOL    HW210150   4.614   0.373   2.451
 2450SOL     OW10151   4.741   0.039   2.615
 2450SOL    HW110152   4.669   0.044   2.546
 2450SOL    HW210153   4.717  -0.030   2.684
 2451SOL     OW10154   5.388   1.280   2.519
 2451SOL    HW110155   5.487   1.288   2.533
 2451SOL    HW210156   5.343   1.364   2.550
 2452SOL     OW10157   4.251   0.256   2.190
 2452SOL    HW110158   4.278   0.197   2.115
 2452SOL    HW210159   4.251   0.351   2.159
 2453SOL     OW10160   4.788   1.347   3.202
 2453SOL    HW110161   4.708   1.324   3.257
 2453SOL    HW210162   4.871   1.321   3.251
 2454SOL     OW10163   4.835   1.195   2.962
 2454SOL    HW110164   4.795   1.239   3.043
 2454SOL    HW210165   4.794   1.232   2.879
 2455SOL     OW10166   4.704   1.116   3.581
 2455SOL    HW110167   4.605   1.122   3.591
 2455SOL    HW210168   4.727   1.036   3.525
 2456SOL     OW10169   4.134   0.813   3.113
 2456SOL    HW110170   4.220   0.825   3.163
 2456SOL    HW210171   4.092   0.726   3.140
 2457SOL     OW10172   4.998   0.386   3.124
 2457SOL    HW110173   5.019   0.460   3.188
 2457SOL    HW210174   4.909   0.403   3.081
 2458SOL     OW10175   3.788   1.564   3.193
 2458SOL    HW110176   3.742   1.646   3.159
 2458SOL    HW210177   3.886   1.583   3.202
 2459SOL     OW10178   4.126   0.751   3.460
 2459SOL    HW110179   4.194   0.806   3.413
 2459SOL    HW210180   4.166   0.663   3.487
 2460SOL     OW10181   4.228   0.050   3.602
 2460SOL    HW110182   4.186  -0.007   3.532
 2460SOL    HW210183   4.162   0.119   3.634
 2461SOL     OW10184   4.297   0.870   2.891
 2461SOL    HW110185   4.341   0.959   2.882
 2461SOL    HW210186   4.234   0.870   2.968
 2462SOL     OW10187   5.084   0.862   2.907
 2462SOL    HW110188   5.009   0.862   2.841
 2462SOL    HW210189   5.121   0.770   2.916
 2463SOL     OW10190   4.933   0.525   2.137
 2463SOL    HW110191   4.946   0.441   2.191
 2463SOL    HW210192   4.904   0.599   2.197
 2464SOL     OW10193   4.031   0.213   3.093
 2464SOL    HW110194   4.008   0.250   3.183
 2464SOL    HW210195   4.001   0.118   3.087
 2465SOL     OW10196   4.456   0.634   2.926
 2465SOL    HW110197   4.515   0.608   2.850
 2465SOL    HW210198   4.428   0.730   2.915
 2466SOL     OW10199   5.346   0.367   2.236
 2466SOL    HW110200   5.348   0.291   2.300
 2466SOL    HW210201   5.298   0.444   2.276
 2467SOL     OW10202   4.747   0.766   2.828
 2467SOL    HW110203   4.762   0.787   2.924
 2467SOL    HW210204   4.717   0.671   2.819
 2468SOL     OW10205   4.704   1.573   3.562
 2468SOL    HW110206   4.684   1.617   3.474
 2468SOL    HW210207   4.743   1.482   3.546
 2469SOL     OW10208   4.074   0.898   3.666
 2469SOL    HW110209   4.150   0.942   3.714
 2469SOL    HW210210   4.109   0.851   3.584
 2470SOL     OW10211   5.027   0.838   1.904
 2470SOL    HW110212   5.061   0.745   1.919
 2470SOL    HW210213   5.045   0.865   1.809
 2471SOL     OW10214   4.792   1.333   2.711
 2471SOL    HW110215   4.799   1.249   2.656
 2471SOL    HW210216   4.854   1.402   2.675
 2472SOL     OW10217   4.043   0.810   2.811
 2472SOL    HW110218   4.136   0.846   2.816
 2472SOL    HW210219   4.037   0.725   2.863
 2473SOL     OW10220   3.812   1.801   2.789
 2473SOL    HW110221   3.770   1.715   2.762
 2473SOL    HW210222   3.906   1.804   2.755
 2474SOL     OW10223   4.726   0.796   3.100
 2474SOL    HW110224   4.767   0.764   3.186
 2474SOL    HW210225   4.630   0.769   3.097
 2475SOL     OW10226   3.913   0.520   3.584
 2475SOL    HW110227   3.972   0.480   3.514
 2475SOL    HW210228   3.855   0.591   3.543
 2476SOL     OW10229   4.539   0.572   2.187
 2476SOL    HW110230   4.546   0.483   2.141
 2476SOL    HW210231   4.445   0.606   2.179
 2477SOL     OW10232   4.395   0.464   3.131
 2477SOL    HW110233   4.361   0.375   3.101
 2477SOL    HW210234   4.421   0.518   3.051
 2478SOL     OW10235   4.654   1.678   3.327
 2478SOL    HW110236   4.630   1.660   3.232
 2478SOL    HW210237   4.684   1.772   3.337
 2479SOL     OW10238   4.197   0.500   2.053
 2479SOL    HW110239   4.258   0.580   2.057
 2479SOL    HW210240   4.102   0.531   2.060
 2480SOL     OW10241   3.883   1.137   3.328
 2480SOL    HW110242   3.905   1.076   3.404
 2480SOL    HW210243   3.893   1.088   3.242
 2481SOL     OW10244   4.976   1.731   2.990
 2481SOL    HW110245   5.060   1.736   2.936
 2481SOL    HW210246   4.953   1.635   3.008
 2482SOL     OW10247   4.412   1.662   3.578
 2482SOL    HW110248   4.356   1.743   3.587
 2482SOL    HW210249   4.464   1.666   3.492
 2483SOL     OW10250   5.112   1.573   2.339
 2483SOL    HW110251   5.179   1.585   2.265
 2483SOL    HW210252   5.072   1.662   2.362
 2484SOL     OW10253   3.854   1.794   3.713
 2484SOL    HW110254   3.813   1.720   3.766
 2484SOL    HW210255   3.918   1.845   3.771
 2485SOL     OW10256   5.004   0.927   2.534
 2485SOL    HW110257   5.064   0.846   2.536
 2485SOL    HW210258   5.044   0.996   2.474
 2486SOL     OW10259   4.554   1.273   3.284
 2486SOL    HW110260   4.549   1.306   3.379
 2486SOL    HW210261   4.468   1.292   3.238
 2487SOL     OW10262   4.396   1.616   2.016
 2487SOL    HW110263   4.405   1.626   1.917
 2487SOL    HW210264   4.356   1.527   2.037
 2488SOL     OW10265   3.987   0.326   2.582
 2488SOL    HW110266   3.908   0.377   2.548
 2488SOL    HW210267   3.978   0.311   2.680
 2489SOL     OW10268   4.918   1.612   1.893
 2489SOL    HW110269   4.924   1.519   1.930
 2489SOL    HW210270   4.859   1.612   1.813
 2490SOL     OW10271   4.546   1.002   3.234
 2490SOL    HW110272   4.586   1.001   3.142
 2490SOL    HW210273   4.556   1.094   3.274
 2491SOL     OW10274   4.640   0.910   2.153
 2491SOL    HW110275   4.703   0.948   2.085
 2491SOL    HW210276   4.680   0.827   2.192
 2492SOL     OW10277   4.763   1.098   2.558
 2492SOL    HW110278   4.693   1.051   2.612
 2492SOL    HW210279   4.822   1.030   2.515
 2493SOL     OW10280   4.738   0.236   2.833
 2493SOL    HW110281   4.730   0.200   2.740
 2493SOL    HW210282   4.736   0.160   2.898
 2494SOL     OW10283   3.829   1.013   3.588
 2494SOL    HW110284   3.752   0.980   3.642
 2494SOL    HW210285   3.914   0.983   3.630
 2495SOL     OW10286   4.396   0.203   3.351
 2495SOL    HW110287   4.486   0.187   3.311
 2495SOL    HW210288   4.404   0.208   3.450
 2496SOL     OW10289   3.799   0.345   1.895
 2496SOL    HW110290   3.707   0.317   1.866
 2496SOL    HW210291   3.830   0.422   1.839
 2497SOL     OW10292   3.796   0.166   2.180
 2497SOL    HW110293   3.779   0.249   2.126
 2497SOL    HW210294   3.886   0.129   2.158
 2498SOL     OW10295   4.114   1.741   3.422
 2498SOL    HW110296   4.023   1.782   3.420
 2498SOL    HW210297   4.107   1.647   3.454
 2499SOL     OW10298   4.949   0.325   2.311
 2499SOL    HW110299   5.014   0.251   2.300
 2499SOL    HW210300   4.969   0.375   2.395
 2500SOL     OW10301   4.318   0.745   2.514
 2500SOL    HW110302   4.368   0.830   2.495
 2500SOL    HW210303   4.230   0.747   2.466
 2501SOL     OW10304   4.385   1.790   2.815
 2501SOL    HW110305   4.339   1.878   2.802
 2501SOL    HW210306   4.484   1.802   2.808
 2502SOL     OW10307   4.583   0.956   2.723
 2502SOL    HW110308   4.637   0.887   2.771
 2502SOL    HW210309   4.551   1.025   2.789
 2503SOL     OW10310   3.945   1.314   3.706
 2503SOL    HW110311   3.880   1.241   3.685
 2503SOL    HW210312   3.949   1.328   3.804
 2504SOL     OW10313   3.803   1.240   2.515
 2504SOL    HW110314   3.802   1.193   2.603
 2504SOL    HW210315   3.885   1.212   2.464
 2505SOL     OW10316   4.152   0.424   2.382
 2505SOL    HW110317   4.182   0.352   2.320
 2505SOL    HW210318   4.113   0.384   2.465
 2506SOL     OW10319   4.536   1.586   2.549
 2506SOL    HW110320   4.568   1.596   2.455
 2506SOL    HW210321   4.457   1.524   2.551
 2507SOL     OW10322   4.494   1.330   2.163
 2507SOL    HW110323   4.448   1.243   2.180
 2507SOL    HW210324   4.585   1.327   2.204
 2508SOL     OW10325   4.599   1.646   2.199
 2508SOL    HW110326   4.522   1.611   2.145
 2508SOL    HW210327   4.567   1.717   2.261
 2509SOL     OW10328   3.954   0.628   3.837
 2509SOL    HW110329   3.861   0.626   3.874
 2509SOL    HW210330   3.955   0.589   3.745
 2510SOL     OW10331   3.949   0.275   4.720
 2510SOL    HW110332   3.984   0.258   4.812
 2510SOL    HW210333   3.861   0.230   4.708
 2511SOL     OW10334   3.743   0.368   4.371
 2511SOL    HW110335   3.661   0.411   4.410
 2511SOL    HW210336   3.715   0.295   4.308
 2512SOL     OW10337   4.293   1.275   4.889
 2512SOL    HW110338   4.200   1.268   4.852
 2512SOL    HW210339   4.304   1.364   4.933
 2513SOL     OW10340   4.409   1.012   4.389
 2513SOL    HW110341   4.478   0.996   4.459
 2513SOL    HW210342   4.336   1.069   4.427
 2514SOL     OW10343   4.059   1.435   4.785
 2514SOL    HW110344   3.981   1.404   4.732
 2514SOL    HW210345   4.117   1.493   4.728
 2515SOL     OW10346   3.954   1.434   4.262
 2515SOL    HW110347   3.928   1.530   4.262
 2515SOL    HW210348   3.883   1.380   4.307
 2516SOL     OW10349   3.964   1.091   4.610
 2516SOL    HW110350   3.978   1.007   4.662
 2516SOL    HW210351   3.909   1.155   4.665
 2517SOL     OW10352   4.344   1.786   5.163
 2517SOL    HW110353   4.252   1.769   5.198
 2517SOL    HW210354   4.372   1.878   5.189
 2518SOL     OW10355   3.846   0.643   4.287
 2518SOL    HW110356   3.801   0.555   4.304
 2518SOL    HW210357   3.845   0.697   4.371
 2519SOL     OW10358   3.751   1.596   3.841
 2519SOL    HW110359   3.732   1.500   3.862
 2519SOL    HW210360   3.718   1.654   3.916
 2520SOL     OW10361   4.337   1.365   4.450
 2520SOL    HW110362   4.288   1.278   4.459
 2520SOL    HW210363   4.314   1.408   4.363
 2521SOL     OW10364   4.533   0.004   4.226
 2521SOL    HW110365   4.573   0.095   4.217
 2521SOL    HW210366   4.433   0.012   4.232
 2522SOL     OW10367   3.921   0.976   4.988
 2522SOL    HW110368   4.010   0.931   4.974
 2522SOL    HW210369   3.848   0.911   4.969
 2523SOL     OW10370   5.005   0.345   4.668
 2523SOL    HW110371   4.919   0.295   4.655
 2523SOL    HW210372   5.067   0.291   4.724
 2524SOL     OW10373   4.715   0.410   4.966
 2524SOL    HW110374   4.638   0.444   5.020
 2524SOL    HW210375   4.681   0.359   4.887
 2525SOL     OW10376   3.800   0.811   4.513
 2525SOL    HW110377   3.899   0.799   4.522
 2525SOL    HW210378   3.776   0.906   4.534
 2526SOL     OW10379   4.274   0.196   4.609
 2526SOL    HW110380   4.269   0.191   4.709
 2526SOL    HW210381   4.276   0.292   4.580
 2527SOL     OW10382   4.075   1.801   4.577
 2527SOL    HW110383   4.125   1.715   4.583
 2527SOL    HW210384   4.140   1.878   4.574
 2528SOL     OW10385   4.045   0.943   3.966
 2528SOL    HW110386   4.127   0.982   3.924
 2528SOL    HW210387   4.018   0.861   3.917
 2529SOL     OW10388   4.835   1.776   3.961
 2529SOL    HW110389   4.775   1.714   4.011
 2529SOL    HW210390   4.866   1.732   3.876
 2530SOL     OW10391   3.973   1.785   4.965
 2530SOL    HW110392   4.030   1.720   5.015
 2530SOL    HW210393   3.957   1.752   4.872
 2531SOL     OW10394   4.664   1.698   4.628
 2531SOL    HW110395   4.744   1.641   4.649
 2531SOL    HW210396   4.615   1.658   4.551
 2532SOL     OW10397   4.106   0.700   4.204
 2532SOL    HW110398   4.151   0.610   4.201
 2532SOL    HW210399   4.012   0.689   4.237
 2533SOL     OW10400   4.338   0.122   3.841
 2533SOL    HW110401   4.436   0.100   3.848
 2533SOL    HW210402   4.307   0.105   3.748
 2534SOL     OW10403   4.527   1.402   4.648
 2534SOL    HW110404   4.617   1.416   4.606
 2534SOL    HW210405   4.456   1.404   4.577
 2535SOL     OW10406   4.646   0.503   4.623
 2535SOL    HW110407   4.621   0.494   4.527
 2535SOL    HW210408   4.694   0.421   4.654
 2536SOL     OW10409   4.263   0.064   4.236
 2536SOL    HW110410   4.182   0.065   4.294
 2536SOL    HW210411   4.266   0.147   4.181
 2537SOL     OW10412   4.021   0.035   3.895
 2537SOL    HW110413   4.070   0.119   3.874
 2537SOL    HW210414   4.083  -0.030   3.940
 2538SOL     OW10415   4.659   0.236   4.204
 2538SOL    HW110416   4.611   0.277   4.126
 2538SOL    HW210417   4.758   0.234   4.185
 2539SOL     OW10418   4.951   1.570   4.517
 2539SOL    HW110419   4.972   1.644   4.452
 2539SOL    HW210420   5.019   1.570   4.590
 2540SOL     OW10421   4.183   1.152   4.465
 2540SOL    HW110422   4.112   1.125   4.530
 2540SOL    HW210423   4.157   1.124   4.372
 2541SOL     OW10424   4.995   1.797   4.315
 2541SOL    HW110425   5.039   1.861   4.251
 2541SOL    HW210426   4.945   1.849   4.385
 2542SOL     OW10427   4.756   0.549   3.740
 2542SOL    HW110428   4.715   0.631   3.701
 2542SOL    HW210429   4.820   0.575   3.813
 2543SOL     OW10430   4.285   0.222   4.871
 2543SOL    HW110431   4.323   0.138   4.908
 2543SOL    HW210432   4.197   0.241   4.915
 2544SOL     OW10433   4.741   0.039   4.477
 2544SOL    HW110434   4.669   0.044   4.408
 2544SOL    HW210435   4.717  -0.030   4.546
 2545SOL     OW10436   4.212   1.385   3.898
 2545SOL    HW110437   4.125   1.370   3.945
 2545SOL    HW210438   4.195   1.411   3.803
 2546SOL     OW10439   4.251   0.256   4.052
 2546SOL    HW110440   4.278   0.197   3.977
 2546SOL    HW210441   4.251   0.351   4.021
 2547SOL     OW10442   4.134   0.813   4.975
 2547SOL    HW110443   4.220   0.825   5.025
 2547SOL    HW210444   4.092   0.726   5.002
 2548SOL     OW10445   4.091   1.100   4.225
 2548SOL    HW110446   4.084   1.183   4.169
 2548SOL    HW210447   4.095   1.020   4.165
 2549SOL     OW10448   4.078   1.510   5.053
 2549SOL    HW110449   4.057   1.466   4.966
 2549SOL    HW210450   4.175   1.536   5.056
 2550SOL     OW10451   4.297   0.870   4.753
 2550SOL    HW110452   4.341   0.959   4.744
 2550SOL    HW210453   4.234   0.870   4.830
 2551SOL     OW10454   4.933   0.525   3.999
 2551SOL    HW110455   4.946   0.441   4.053
 2551SOL    HW210456   4.904   0.599   4.059
 2552SOL     OW10457   4.031   0.213   4.955
 2552SOL    HW110458   4.008   0.250   5.045
 2552SOL    HW210459   4.001   0.118   4.949
 2553SOL     OW10460   3.761   1.310   5.006
 2553SOL    HW110461   3.814   1.261   5.074
 2553SOL    HW210462   3.783   1.408   5.011
 2554SOL     OW10463   4.031   0.063   4.342
 2554SOL    HW110464   4.020   0.157   4.375
 2554SOL    HW210465   4.026   0.000   4.419
 2555SOL     OW10466   5.346   0.367   4.098
 2555SOL    HW110467   5.348   0.291   4.162
 2555SOL    HW210468   5.298   0.444   4.138
 2556SOL     OW10469   5.027   0.838   3.766
 2556SOL    HW110470   5.061   0.745   3.781
 2556SOL    HW210471   5.045   0.865   3.671
 2557SOL     OW10472   4.043   0.810   4.673
 2557SOL    HW110473   4.136   0.846   4.678
 2557SOL    HW210474   4.037   0.725   4.725
 2558SOL     OW10475   4.063   0.509   4.730
 2558SOL    HW110476   4.011   0.426   4.713
 2558SOL    HW210477   4.140   0.514   4.666
 2559SOL     OW10478   4.884   0.207   5.201
 2559SOL    HW110479   4.884   0.271   5.278
 2559SOL    HW210480   4.912   0.255   5.118
 2560SOL     OW10481   3.732   1.326   3.924
 2560SOL    HW110482   3.639   1.347   3.893
 2560SOL    HW210483   3.742   1.227   3.937
 2561SOL     OW10484   3.812   1.801   4.651
 2561SOL    HW110485   3.770   1.715   4.624
 2561SOL    HW210486   3.906   1.804   4.617
 2562SOL     OW10487   4.228   1.568   4.634
 2562SOL    HW110488   4.294   1.642   4.643
 2562SOL    HW210489   4.272   1.489   4.592
 2563SOL     OW10490   4.726   0.796   4.962
 2563SOL    HW110491   4.767   0.764   5.048
 2563SOL    HW210492   4.630   0.769   4.959
 2564SOL     OW10493   3.764   0.544   4.838
 2564SOL    HW110494   3.849   0.511   4.797
 2564SOL    HW210495   3.777   0.559   4.936
 2565SOL     OW10496   4.395   0.464   4.993
 2565SOL    HW110497   4.361   0.375   4.963
 2565SOL    HW210498   4.421   0.518   4.913
 2566SOL     OW10499   4.654   1.678   5.189
 2566SOL    HW110500   4.630   1.660   5.094
 2566SOL    HW210501   4.684   1.772   5.199
 2567SOL     OW10502   4.197   0.500   3.915
 2567SOL    HW110503   4.258   0.580   3.919
 2567SOL    HW210504   4.102   0.531   3.922
 2568SOL     OW10505   5.071   1.059   4.958
 2568SOL    HW110506   5.095   0.996   4.884
 2568SOL    HW210507   4.981   1.099   4.940
 2569SOL     OW10508   4.976   1.731   4.852
 2569SOL    HW110509   5.060   1.736   4.798
 2569SOL    HW210510   4.953   1.635   4.870
 2570SOL     OW10511   3.807   1.258   4.746
 2570SOL    HW110512   3.802   1.257   4.846
 2570SOL    HW210513   3.724   1.217   4.708
 2571SOL     OW10514   4.396   1.616   3.878
 2571SOL    HW110515   4.405   1.626   3.779
 2571SOL    HW210516   4.356   1.527   3.899
 2572SOL     OW10517   3.987   0.326   4.444
 2572SOL    HW110518   3.908   0.377   4.410
 2572SOL    HW210519   3.978   0.311   4.542
 2573SOL     OW10520   4.918   1.612   3.755
 2573SOL    HW110521   4.924   1.519   3.792
 2573SOL    HW210522   4.859   1.612   3.675
 2574SOL     OW10523   4.738   0.236   4.695
 2574SOL    HW110524   4.730   0.200   4.602
 2574SOL    HW210525   4.736   0.160   4.760
 2575SOL     OW10526   4.314   1.487   4.215
 2575SOL    HW110527   4.356   1.429   4.145
 2575SOL    HW210528   4.270   1.566   4.171
 2576SOL     OW10529   3.979   1.348   4.014
 2576SOL    HW110530   3.883   1.349   3.987
 2576SOL    HW210531   3.991   1.401   4.098
 2577SOL     OW10532   3.799   0.345   3.757
 2577SOL    HW110533   3.707   0.317   3.728
 2577SOL    HW210534   3.830   0.422   3.701
 2578SOL     OW10535   3.796   0.166   4.042
 2578SOL    HW110536   3.779   0.249   3.988
 2578SOL    HW210537   3.886   0.129   4.020
 2579SOL     OW10538   4.949   0.325   4.173
 2579SOL    HW110539   5.014   0.251   4.162
 2579SOL    HW210540   4.969   0.375   4.257
 2580SOL     OW10541   4.318   0.745   4.376
 2580SOL    HW110542   4.368   0.830   4.357
 2580SOL    HW210543   4.230   0.747   4.328
 2581SOL     OW10544   4.583   1.374   3.740
 2581SOL    HW110545   4.537   1.389   3.828
 2581SOL    HW210546   4.627   1.459   3.710
 2582SOL     OW10547   4.385   1.790   4.677
 2582SOL    HW110548   4.339   1.878   4.664
 2582SOL    HW210549   4.484   1.802   4.670
 2583SOL     OW10550   4.807   0.984   3.811
 2583SOL    HW110551   4.784   1.037   3.729
 2583SOL    HW210552   4.888   0.928   3.792
 2584SOL     OW10553   3.803   1.240   4.377
 2584SOL    HW110554   3.802   1.193   4.465
 2584SOL    HW210555   3.885   1.212   4.326
 2585SOL     OW10556   4.152   0.424   4.244
 2585SOL    HW110557   4.182   0.352   4.182
 2585SOL    HW210558   4.113   0.384   4.327
 2586SOL     OW10559   4.536   1.586   4.411
 2586SOL    HW110560   4.568   1.596   4.317
 2586SOL    HW210561   4.457   1.524   4.413
 2587SOL     OW10562   4.725   0.034   4.878
 2587SOL    HW110563   4.662  -0.038   4.847
 2587SOL    HW210564   4.818  -0.002   4.878
 2588SOL     OW10565   4.494   1.330   4.025
 2588SOL    HW110566   4.448   1.243   4.042
 2588SOL    HW210567   4.585   1.327   4.066
 2589SOL     OW10568   3.763   1.077   4.024
 2589SOL    HW110569   3.862   1.066   4.015
 2589SOL    HW210570   3.723   0.991   4.056
 2590SOL     OW10571   4.599   1.646   4.061
 2590SOL    HW110572   4.522   1.611   4.007
 2590SOL    HW210573   4.567   1.717   4.123
 2591SOL     OW10574   3.954   2.490   0.113
 2591SOL    HW110575   3.861   2.488   0.150
 2591SOL    HW210576   3.955   2.451   0.021
 2592SOL     OW10577   3.949   2.137   0.996
 2592SOL    HW110578   3.984   2.120   1.088
 2592SOL    HW210579   3.861   2.092   0.984
 2593SOL     OW10580   3.743   2.230   0.647
 2593SOL    HW110581   3.661   2.273   0.686
 2593SOL    HW210582   3.715   2.157   0.584
 2594SOL     OW10583   4.293   3.137   1.165
 2594SOL    HW110584   4.200   3.130   1.128
 2594SOL    HW210585   4.304   3.226   1.209
 2595SOL     OW10586   4.859   2.565   0.717
 2595SOL    HW110587   4.916   2.643   0.692
 2595SOL    HW210588   4.799   2.591   0.793
 2596SOL     OW10589   4.492   3.006   1.023
 2596SOL    HW110590   4.414   3.023   1.083
 2596SOL    HW210591   4.526   3.093   0.987
 2597SOL     OW10592   4.574   2.660   1.823
 2597SOL    HW110593   4.570   2.736   1.888
 2597SOL    HW210594   4.596   2.696   1.732
 2598SOL     OW10595   4.409   2.874   0.665
 2598SOL    HW110596   4.478   2.858   0.735
 2598SOL    HW210597   4.336   2.931   0.703
 2599SOL     OW10598   4.410   3.023   1.803
 2599SOL    HW110599   4.470   3.102   1.817
 2599SOL    HW210600   4.324   3.054   1.762
 2600SOL     OW10601   4.059   3.297   1.061
 2600SOL    HW110602   3.981   3.266   1.008
 2600SOL    HW210603   4.117   3.355   1.004
 2601SOL     OW10604   4.162   2.254   1.499
 2601SOL    HW110605   4.244   2.198   1.508
 2601SOL    HW210606   4.081   2.196   1.503
 2602SOL     OW10607   3.955   3.575   0.483
 2602SOL    HW110608   3.989   3.652   0.537
 2602SOL    HW210609   3.999   3.575   0.393
 2603SOL     OW10610   3.964   2.953   0.886
 2603SOL    HW110611   3.978   2.869   0.938
 2603SOL    HW210612   3.909   3.017   0.941
 2604SOL     OW10613   4.344   3.648   1.439
 2604SOL    HW110614   4.252   3.631   1.474
 2604SOL    HW210615   4.372   3.740   1.465
 2605SOL     OW10616   4.330   2.826   0.123
 2605SOL    HW110617   4.337   2.910   0.069
 2605SOL    HW210618   4.376   2.839   0.211
 2606SOL     OW10619   3.837   2.599   1.597
 2606SOL    HW110620   3.925   2.586   1.642
 2606SOL    HW210621   3.824   2.696   1.575
 2607SOL     OW10622   4.337   3.227   0.726
 2607SOL    HW110623   4.288   3.140   0.735
 2607SOL    HW210624   4.314   3.270   0.639
 2608SOL     OW10625   3.921   2.838   1.264
 2608SOL    HW110626   4.010   2.793   1.250
 2608SOL    HW210627   3.848   2.773   1.245
 2609SOL     OW10628   4.041   2.113   1.801
 2609SOL    HW110629   4.112   2.184   1.807
 2609SOL    HW210630   3.953   2.152   1.829
 2610SOL     OW10631   4.322   2.591   0.270
 2610SOL    HW110632   4.346   2.660   0.202
 2610SOL    HW210633   4.244   2.624   0.324
 2611SOL     OW10634   4.531   2.467   1.465
 2611SOL    HW110635   4.484   2.464   1.554
 2611SOL    HW210636   4.480   2.412   1.399
 2612SOL     OW10637   4.697   2.752   1.572
 2612SOL    HW110638   4.743   2.668   1.543
 2612SOL    HW210639   4.641   2.786   1.497
 2613SOL     OW10640   4.715   2.272   1.242
 2613SOL    HW110641   4.638   2.306   1.296
 2613SOL    HW210642   4.681   2.221   1.163
 2614SOL     OW10643   4.765   2.563   0.429
 2614SOL    HW110644   4.791   2.559   0.525
 2614SOL    HW210645   4.680   2.512   0.415
 2615SOL     OW10646   3.854   3.683   1.571
 2615SOL    HW110647   3.844   3.668   1.670
 2615SOL    HW210648   3.768   3.719   1.535
 2616SOL     OW10649   4.274   2.058   0.885
 2616SOL    HW110650   4.269   2.053   0.985
 2616SOL    HW210651   4.276   2.154   0.856
 2617SOL     OW10652   4.045   2.805   0.242
 2617SOL    HW110653   4.127   2.844   0.200
 2617SOL    HW210654   4.018   2.723   0.193
 2618SOL     OW10655   4.185   3.128   1.727
 2618SOL    HW110656   4.135   3.129   1.641
 2618SOL    HW210657   4.122   3.110   1.803
 2619SOL     OW10658   4.835   3.638   0.237
 2619SOL    HW110659   4.775   3.576   0.287
 2619SOL    HW210660   4.866   3.594   0.152
 2620SOL     OW10661   3.926   2.147   1.498
 2620SOL    HW110662   3.846   2.207   1.485
 2620SOL    HW210663   3.916   2.098   1.584
 2621SOL     OW10664   5.356   3.239   0.081
 2621SOL    HW110665   5.324   3.333   0.071
 2621SOL    HW210666   5.280   3.176   0.069
 2622SOL     OW10667   3.973   3.647   1.241
 2622SOL    HW110668   4.030   3.582   1.291
 2622SOL    HW210669   3.957   3.614   1.148
 2623SOL     OW10670   4.664   3.560   0.904
 2623SOL    HW110671   4.744   3.503   0.925
 2623SOL    HW210672   4.615   3.520   0.827
 2624SOL     OW10673   4.106   2.562   0.480
 2624SOL    HW110674   4.151   2.472   0.477
 2624SOL    HW210675   4.012   2.551   0.513
 2625SOL     OW10676   4.505   2.126   1.749
 2625SOL    HW110677   4.572   2.065   1.792
 2625SOL    HW210678   4.432   2.145   1.814
 2626SOL     OW10679   4.527   3.264   0.924
 2626SOL    HW110680   4.617   3.278   0.882
 2626SOL    HW210681   4.456   3.266   0.853
 2627SOL     OW10682   4.646   2.365   0.899
 2627SOL    HW110683   4.621   2.356   0.803
 2627SOL    HW210684   4.694   2.283   0.930
 2628SOL     OW10685   4.263   1.926   0.512
 2628SOL    HW110686   4.182   1.927   0.570
 2628SOL    HW210687   4.266   2.009   0.457
 2629SOL     OW10688   4.021   1.897   0.171
 2629SOL    HW110689   4.070   1.981   0.150
 2629SOL    HW210690   4.083   1.832   0.216
 2630SOL     OW10691   4.659   2.098   0.480
 2630SOL    HW110692   4.611   2.139   0.402
 2630SOL    HW210693   4.758   2.096   0.461
 2631SOL     OW10694   4.800   2.545   1.464
 2631SOL    HW110695   4.720   2.484   1.467
 2631SOL    HW210696   4.881   2.492   1.440
 2632SOL     OW10697   4.756   2.411   0.016
 2632SOL    HW110698   4.715   2.493  -0.023
 2632SOL    HW210699   4.820   2.437   0.089
 2633SOL     OW10700   3.802   2.418   1.386
 2633SOL    HW110701   3.894   2.417   1.345
 2633SOL    HW210702   3.796   2.492   1.453
 2634SOL     OW10703   4.285   2.084   1.147
 2634SOL    HW110704   4.323   2.000   1.184
 2634SOL    HW210705   4.197   2.103   1.191
 2635SOL     OW10706   4.590   2.316   0.642
 2635SOL    HW110707   4.558   2.388   0.580
 2635SOL    HW210708   4.614   2.235   0.589
 2636SOL     OW10709   4.212   3.247   0.174
 2636SOL    HW110710   4.125   3.232   0.221
 2636SOL    HW210711   4.195   3.273   0.079
 2637SOL     OW10712   4.639   1.951   1.402
 2637SOL    HW110713   4.664   1.931   1.307
 2637SOL    HW210714   4.711   2.007   1.444
 2638SOL     OW10715   4.704   2.978   1.719
 2638SOL    HW110716   4.605   2.984   1.729
 2638SOL    HW210717   4.727   2.898   1.663
 2639SOL     OW10718   4.429   2.912   0.368
 2639SOL    HW110719   4.415   2.919   0.467
 2639SOL    HW210720   4.513   2.861   0.350
 2640SOL     OW10721   4.134   2.675   1.251
 2640SOL    HW110722   4.220   2.687   1.301
 2640SOL    HW210723   4.092   2.588   1.278
 2641SOL     OW10724   4.998   2.248   1.262
 2641SOL    HW110725   5.019   2.322   1.326
 2641SOL    HW210726   4.909   2.265   1.219
 2642SOL     OW10727   3.788   3.426   1.331
 2642SOL    HW110728   3.742   3.508   1.297
 2642SOL    HW210729   3.886   3.445   1.340
 2643SOL     OW10730   4.078   3.372   1.329
 2643SOL    HW110731   4.057   3.328   1.242
 2643SOL    HW210732   4.175   3.398   1.332
 2644SOL     OW10733   4.126   2.613   1.598
 2644SOL    HW110734   4.194   2.668   1.551
 2644SOL    HW210735   4.166   2.525   1.625
 2645SOL     OW10736   4.737   1.967   1.770
 2645SOL    HW110737   4.743   2.052   1.718
 2645SOL    HW210738   4.769   1.891   1.713
 2646SOL     OW10739   4.228   1.912   1.740
 2646SOL    HW110740   4.186   1.855   1.670
 2646SOL    HW210741   4.162   1.981   1.772
 2647SOL     OW10742   4.297   2.732   1.029
 2647SOL    HW110743   4.341   2.821   1.020
 2647SOL    HW210744   4.234   2.732   1.106
 2648SOL     OW10745   4.031   2.075   1.231
 2648SOL    HW110746   4.008   2.112   1.321
 2648SOL    HW210747   4.001   1.980   1.225
 2649SOL     OW10748   3.761   3.172   1.282
 2649SOL    HW110749   3.814   3.123   1.350
 2649SOL    HW210750   3.783   3.270   1.287
 2650SOL     OW10751   4.456   2.496   1.064
 2650SOL    HW110752   4.515   2.470   0.988
 2650SOL    HW210753   4.428   2.592   1.053
 2651SOL     OW10754   4.031   1.925   0.618
 2651SOL    HW110755   4.020   2.019   0.651
 2651SOL    HW210756   4.026   1.862   0.695
 2652SOL     OW10757   4.747   2.628   0.966
 2652SOL    HW110758   4.762   2.649   1.062
 2652SOL    HW210759   4.717   2.533   0.957
 2653SOL     OW10760   4.792   3.195   0.849
 2653SOL    HW110761   4.799   3.111   0.794
 2653SOL    HW210762   4.854   3.264   0.813
 2654SOL     OW10763   4.043   2.672   0.949
 2654SOL    HW110764   4.136   2.708   0.954
 2654SOL    HW210765   4.037   2.587   1.001
 2655SOL     OW10766   4.063   2.371   1.006
 2655SOL    HW110767   4.011   2.288   0.989
 2655SOL    HW210768   4.140   2.376   0.942
 2656SOL     OW10769   4.862   2.242   1.678
 2656SOL    HW110770   4.817   2.305   1.742
 2656SOL    HW210771   4.955   2.273   1.661
 2657SOL     OW10772   4.884   2.069   1.477
 2657SOL    HW110773   4.884   2.133   1.554
 2657SOL    HW210774   4.912   2.117   1.394
 2658SOL     OW10775   3.812   3.663   0.927
 2658SOL    HW110776   3.770   3.577   0.900
 2658SOL    HW210777   3.906   3.666   0.893
 2659SOL     OW10778   4.228   3.430   0.910
 2659SOL    HW110779   4.294   3.504   0.919
 2659SOL    HW210780   4.272   3.351   0.868
 2660SOL     OW10781   4.726   2.658   1.238
 2660SOL    HW110782   4.767   2.626   1.324
 2660SOL    HW210783   4.630   2.631   1.235
 2661SOL     OW10784   3.764   2.406   1.114
 2661SOL    HW110785   3.849   2.373   1.073
 2661SOL    HW210786   3.777   2.421   1.212
 2662SOL     OW10787   3.913   2.382   1.722
 2662SOL    HW110788   3.972   2.342   1.652
 2662SOL    HW210789   3.855   2.453   1.681
 2663SOL     OW10790   4.539   2.434   0.325
 2663SOL    HW110791   4.546   2.345   0.279
 2663SOL    HW210792   4.445   2.468   0.317
 2664SOL     OW10793   3.976   3.426   1.744
 2664SOL    HW110794   3.946   3.483   1.820
 2664SOL    HW210795   3.969   3.329   1.770
 2665SOL     OW10796   4.395   2.326   1.269
 2665SOL    HW110797   4.361   2.237   1.239
 2665SOL    HW210798   4.421   2.380   1.189
 2666SOL     OW10799   4.197   2.362   0.191
 2666SOL    HW110800   4.258   2.442   0.195
 2666SOL    HW210801   4.102   2.393   0.198
 2667SOL     OW10802   3.807   3.120   1.022
 2667SOL    HW110803   3.802   3.119   1.122
 2667SOL    HW210804   3.724   3.079   0.984
 2668SOL     OW10805   4.412   3.524   1.716
 2668SOL    HW110806   4.356   3.605   1.725
 2668SOL    HW210807   4.464   3.528   1.630
 2669SOL     OW10808   4.554   3.135   1.422
 2669SOL    HW110809   4.549   3.168   1.517
 2669SOL    HW210810   4.468   3.154   1.376
 2670SOL     OW10811   4.396   3.478   0.154
 2670SOL    HW110812   4.405   3.488   0.055
 2670SOL    HW210813   4.356   3.389   0.175
 2671SOL     OW10814   3.987   2.188   0.720
 2671SOL    HW110815   3.908   2.239   0.686
 2671SOL    HW210816   3.978   2.173   0.818
 2672SOL     OW10817   4.546   2.864   1.372
 2672SOL    HW110818   4.586   2.863   1.280
 2672SOL    HW210819   4.556   2.956   1.412
 2673SOL     OW10820   4.640   2.772   0.291
 2673SOL    HW110821   4.703   2.810   0.223
 2673SOL    HW210822   4.680   2.689   0.330
 2674SOL     OW10823   4.763   2.960   0.696
 2674SOL    HW110824   4.693   2.913   0.750
 2674SOL    HW210825   4.822   2.892   0.653
 2675SOL     OW10826   4.738   2.098   0.971
 2675SOL    HW110827   4.730   2.062   0.878
 2675SOL    HW210828   4.736   2.022   1.036
 2676SOL     OW10829   4.314   3.349   0.491
 2676SOL    HW110830   4.356   3.291   0.421
 2676SOL    HW210831   4.270   3.428   0.447
 2677SOL     OW10832   4.396   2.065   1.489
 2677SOL    HW110833   4.486   2.049   1.449
 2677SOL    HW210834   4.404   2.070   1.588
 2678SOL     OW10835   3.796   2.028   0.318
 2678SOL    HW110836   3.779   2.111   0.264
 2678SOL    HW210837   3.886   1.991   0.296
 2679SOL     OW10838   4.337   2.704   1.431
 2679SOL    HW110839   4.393   2.785   1.414
 2679SOL    HW210840   4.396   2.624   1.434
 2680SOL     OW10841   4.440   2.427   1.708
 2680SOL    HW110842   4.459   2.492   1.782
 2680SOL    HW210843   4.500   2.347   1.717
 2681SOL     OW10844   4.114   3.603   1.560
 2681SOL    HW110845   4.023   3.644   1.558
 2681SOL    HW210846   4.107   3.509   1.592
 2682SOL     OW10847   4.583   3.236   0.016
 2682SOL    HW110848   4.537   3.251   0.104
 2682SOL    HW210849   4.627   3.321  -0.014
 2683SOL     OW10850   4.385   3.652   0.953
 2683SOL    HW110851   4.339   3.740   0.940
 2683SOL    HW210852   4.484   3.664   0.946
 2684SOL     OW10853   4.583   2.818   0.861
 2684SOL    HW110854   4.637   2.749   0.909
 2684SOL    HW210855   4.551   2.887   0.927
 2685SOL     OW10856   4.396   3.253   1.624
 2685SOL    HW110857   4.318   3.203   1.662
 2685SOL    HW210858   4.393   3.348   1.655
 2686SOL     OW10859   4.041   2.409   1.280
 2686SOL    HW110860   4.079   2.350   1.352
 2686SOL    HW210861   4.081   2.383   1.192
 2687SOL     OW10862   4.725   1.896   1.154
 2687SOL    HW110863   4.662   1.824   1.123
 2687SOL    HW210864   4.818   1.860   1.154
 2688SOL     OW10865   4.494   3.192   0.301
 2688SOL    HW110866   4.448   3.105   0.318
 2688SOL    HW210867   4.585   3.189   0.342
 2689SOL     OW10868   4.342   3.429   1.284
 2689SOL    HW110869   4.337   3.511   1.341
 2689SOL    HW210870   4.431   3.426   1.239
 2690SOL     OW10871   3.763   2.939   0.300
 2690SOL    HW110872   3.862   2.928   0.291
 2690SOL    HW210873   3.723   2.853   0.332
 2691SOL     OW10874   4.599   3.508   0.337
 2691SOL    HW110875   4.522   3.473   0.283
 2691SOL    HW210876   4.567   3.579   0.399
 2692SOL     OW10877   3.954   2.490   1.975
 2692SOL    HW110878   3.861   2.488   2.012
 2692SOL    HW210879   3.955   2.451   1.883
 2693SOL     OW10880   3.949   2.137   2.858
 2693SOL    HW110881   3.984   2.120   2.950
 2693SOL    HW210882   3.861   2.092   2.846
 2694SOL     OW10883   3.743   2.230   2.509
 2694SOL    HW110884   3.661   2.273   2.548
 2694SOL    HW210885   3.715   2.157   2.446
 2695SOL     OW10886   4.574   2.660   3.685
 2695SOL    HW110887   4.570   2.736   3.750
 2695SOL    HW210888   4.596   2.696   3.594
 2696SOL     OW10889   4.409   2.874   2.527
 2696SOL    HW110890   4.478   2.858   2.597
 2696SOL    HW210891   4.336   2.931   2.565
 2697SOL     OW10892   4.410   3.023   3.665
 2697SOL    HW110893   4.470   3.102   3.679
 2697SOL    HW210894   4.324   3.054   3.624
 2698SOL     OW10895   4.059   3.297   2.923
 2698SOL    HW110896   3.981   3.266   2.870
 2698SOL    HW210897   4.117   3.355   2.866
 2699SOL     OW10898   4.162   2.254   3.361
 2699SOL    HW110899   4.244   2.198   3.370
 2699SOL    HW210900   4.081   2.196   3.365
 2700SOL     OW10901   4.330   2.826   1.985
 2700SOL    HW110902   4.337   2.910   1.931
 2700SOL    HW210903   4.376   2.839   2.073
 2701SOL     OW10904   3.846   2.505   2.425
 2701SOL    HW110905   3.801   2.417   2.442
 2701SOL    HW210906   3.845   2.559   2.509
 2702SOL     OW10907   4.337   3.227   2.588
 2702SOL    HW110908   4.288   3.140   2.597
 2702SOL    HW210909   4.314   3.270   2.501
 2703SOL     OW10910   4.533   1.866   2.364
 2703SOL    HW110911   4.573   1.957   2.355
 2703SOL    HW210912   4.433   1.874   2.370
 2704SOL     OW10913   4.911   3.654   3.478
 2704SOL    HW110914   4.935   3.714   3.402
 2704SOL    HW210915   4.918   3.559   3.448
 2705SOL     OW10916   4.041   2.113   3.663
 2705SOL    HW110917   4.112   2.184   3.669
 2705SOL    HW210918   3.953   2.152   3.691
 2706SOL     OW10919   4.322   2.591   2.132
 2706SOL    HW110920   4.346   2.660   2.064
 2706SOL    HW210921   4.244   2.624   2.186
 2707SOL     OW10922   4.697   2.752   3.434
 2707SOL    HW110923   4.743   2.668   3.405
 2707SOL    HW210924   4.641   2.786   3.359
 2708SOL     OW10925   4.715   2.272   3.104
 2708SOL    HW110926   4.638   2.306   3.158
 2708SOL    HW210927   4.681   2.221   3.025
 2709SOL     OW10928   4.765   2.563   2.291
 2709SOL    HW110929   4.791   2.559   2.387
 2709SOL    HW210930   4.680   2.512   2.277
 2710SOL     OW10931   3.800   2.673   2.651
 2710SOL    HW110932   3.899   2.661   2.660
 2710SOL    HW210933   3.776   2.768   2.672
 2711SOL     OW10934   3.854   3.683   3.433
 2711SOL    HW110935   3.844   3.668   3.532
 2711SOL    HW210936   3.768   3.719   3.397
 2712SOL     OW10937   4.589   2.210   2.057
 2712SOL    HW110938   4.648   2.273   2.008
 2712SOL    HW210939   4.608   2.116   2.028
 2713SOL     OW10940   4.274   2.058   2.747
 2713SOL    HW110941   4.269   2.053   2.847
 2713SOL    HW210942   4.276   2.154   2.718
 2714SOL     OW10943   4.732   3.318   2.339
 2714SOL    HW110944   4.686   3.390   2.287
 2714SOL    HW210945   4.728   3.338   2.437
 2715SOL     OW10946   4.075   3.663   2.715
 2715SOL    HW110947   4.125   3.577   2.721
 2715SOL    HW210948   4.140   3.740   2.712
 2716SOL     OW10949   4.951   3.412   3.368
 2716SOL    HW110950   4.957   3.335   3.432
 2716SOL    HW210951   4.899   3.386   3.288
 2717SOL     OW10952   4.185   3.128   3.589
 2717SOL    HW110953   4.135   3.129   3.503
 2717SOL    HW210954   4.122   3.110   3.665
 2718SOL     OW10955   4.835   3.638   2.099
 2718SOL    HW110956   4.775   3.576   2.149
 2718SOL    HW210957   4.866   3.594   2.014
 2719SOL     OW10958   3.926   2.147   3.360
 2719SOL    HW110959   3.846   2.207   3.347
 2719SOL    HW210960   3.916   2.098   3.446
 2720SOL     OW10961   3.973   3.647   3.103
 2720SOL    HW110962   4.030   3.582   3.153
 2720SOL    HW210963   3.957   3.614   3.010
 2721SOL     OW10964   4.664   3.560   2.766
 2721SOL    HW110965   4.744   3.503   2.787
 2721SOL    HW210966   4.615   3.520   2.689
 2722SOL     OW10967   4.338   1.984   1.979
 2722SOL    HW110968   4.436   1.962   1.986
 2722SOL    HW210969   4.307   1.967   1.886
 2723SOL     OW10970   4.612   3.376   3.057
 2723SOL    HW110971   4.589   3.351   2.963
 2723SOL    HW210972   4.673   3.307   3.096
 2724SOL     OW10973   4.527   3.264   2.786
 2724SOL    HW110974   4.617   3.278   2.744
 2724SOL    HW210975   4.456   3.266   2.715
 2725SOL     OW10976   4.646   2.365   2.761
 2725SOL    HW110977   4.621   2.356   2.665
 2725SOL    HW210978   4.694   2.283   2.792
 2726SOL     OW10979   4.021   1.897   2.033
 2726SOL    HW110980   4.070   1.981   2.012
 2726SOL    HW210981   4.083   1.832   2.078
 2727SOL     OW10982   4.659   2.098   2.342
 2727SOL    HW110983   4.611   2.139   2.264
 2727SOL    HW210984   4.758   2.096   2.323
 2728SOL     OW10985   4.951   3.432   2.655
 2728SOL    HW110986   4.972   3.506   2.590
 2728SOL    HW210987   5.019   3.432   2.728
 2729SOL     OW10988   4.995   3.659   2.453
 2729SOL    HW110989   5.039   3.723   2.389
 2729SOL    HW210990   4.945   3.711   2.523
 2730SOL     OW10991   4.756   2.411   1.878
 2730SOL    HW110992   4.715   2.493   1.839
 2730SOL    HW210993   4.820   2.437   1.951
 2731SOL     OW10994   4.285   2.084   3.009
 2731SOL    HW110995   4.323   2.000   3.046
 2731SOL    HW210996   4.197   2.103   3.053
 2732SOL     OW10997   4.590   2.316   2.504
 2732SOL    HW110998   4.558   2.388   2.442
 2732SOL    HW210999   4.614   2.235   2.451
 2733SOL     OW11000   4.741   1.901   2.615
 2733SOL    HW111001   4.669   1.906   2.546
 2733SOL    HW211002   4.717   1.832   2.684
 2734SOL     OW11003   4.212   3.247   2.036
 2734SOL    HW111004   4.125   3.232   2.083
 2734SOL    HW211005   4.195   3.273   1.941
 2735SOL     OW11006   5.388   3.142   2.519
 2735SOL    HW111007   5.487   3.150   2.533
 2735SOL    HW211008   5.343   3.226   2.550
 2736SOL     OW11009   4.639   1.951   3.264
 2736SOL    HW111010   4.664   1.931   3.169
 2736SOL    HW211011   4.711   2.007   3.306
 2737SOL     OW11012   4.429   2.912   2.230
 2737SOL    HW111013   4.415   2.919   2.329
 2737SOL    HW211014   4.513   2.861   2.212
 2738SOL     OW11015   3.788   3.426   3.193
 2738SOL    HW111016   3.742   3.508   3.159
 2738SOL    HW211017   3.886   3.445   3.202
 2739SOL     OW11018   4.976   3.210   2.250
 2739SOL    HW111019   5.026   3.287   2.290
 2739SOL    HW211020   4.881   3.212   2.282
 2740SOL     OW11021   4.078   3.372   3.191
 2740SOL    HW111022   4.057   3.328   3.104
 2740SOL    HW211023   4.175   3.398   3.194
 2741SOL     OW11024   4.126   2.613   3.460
 2741SOL    HW111025   4.194   2.668   3.413
 2741SOL    HW211026   4.166   2.525   3.487
 2742SOL     OW11027   4.737   1.967   3.632
 2742SOL    HW111028   4.743   2.052   3.580
 2742SOL    HW211029   4.769   1.891   3.575
 2743SOL     OW11030   4.933   2.387   2.137
 2743SOL    HW111031   4.946   2.303   2.191
 2743SOL    HW211032   4.904   2.461   2.197
 2744SOL     OW11033   4.031   2.075   3.093
 2744SOL    HW111034   4.008   2.112   3.183
 2744SOL    HW211035   4.001   1.980   3.087
 2745SOL     OW11036   3.761   3.172   3.144
 2745SOL    HW111037   3.814   3.123   3.212
 2745SOL    HW211038   3.783   3.270   3.149
 2746SOL     OW11039   5.346   2.229   2.236
 2746SOL    HW111040   5.348   2.153   2.300
 2746SOL    HW211041   5.298   2.306   2.276
 2747SOL     OW11042   4.704   3.435   3.562
 2747SOL    HW111043   4.684   3.479   3.474
 2747SOL    HW211044   4.743   3.344   3.546
 2748SOL     OW11045   4.074   2.760   3.666
 2748SOL    HW111046   4.150   2.804   3.714
 2748SOL    HW211047   4.109   2.713   3.584
 2749SOL     OW11048   4.792   3.195   2.711
 2749SOL    HW111049   4.799   3.111   2.656
 2749SOL    HW211050   4.854   3.264   2.675
 2750SOL     OW11051   4.063   2.371   2.868
 2750SOL    HW111052   4.011   2.288   2.851
 2750SOL    HW211053   4.140   2.376   2.804
 2751SOL     OW11054   4.862   2.242   3.540
 2751SOL    HW111055   4.817   2.305   3.604
 2751SOL    HW211056   4.955   2.273   3.523
 2752SOL     OW11057   4.884   2.069   3.339
 2752SOL    HW111058   4.884   2.133   3.416
 2752SOL    HW211059   4.912   2.117   3.256
 2753SOL     OW11060   3.812   3.663   2.789
 2753SOL    HW111061   3.770   3.577   2.762
 2753SOL    HW211062   3.906   3.666   2.755
 2754SOL     OW11063   4.228   3.430   2.772
 2754SOL    HW111064   4.294   3.504   2.781
 2754SOL    HW211065   4.272   3.351   2.730
 2755SOL     OW11066   4.539   2.434   2.187
 2755SOL    HW111067   4.546   2.345   2.141
 2755SOL    HW211068   4.445   2.468   2.179
 2756SOL     OW11069   3.976   3.426   3.606
 2756SOL    HW111070   3.946   3.483   3.682
 2756SOL    HW211071   3.969   3.329   3.632
 2757SOL     OW11072   4.654   3.540   3.327
 2757SOL    HW111073   4.630   3.522   3.232
 2757SOL    HW211074   4.684   3.634   3.337
 2758SOL     OW11075   3.883   2.999   3.328
 2758SOL    HW111076   3.905   2.938   3.404
 2758SOL    HW211077   3.893   2.950   3.242
 2759SOL     OW11078   3.807   3.120   2.884
 2759SOL    HW111079   3.802   3.119   2.984
 2759SOL    HW211080   3.724   3.079   2.846
 2760SOL     OW11081   4.412   3.524   3.578
 2760SOL    HW111082   4.356   3.605   3.587
 2760SOL    HW211083   4.464   3.528   3.492
 2761SOL     OW11084   5.112   3.435   2.339
 2761SOL    HW111085   5.179   3.447   2.265
 2761SOL    HW211086   5.072   3.524   2.362
 2762SOL     OW11087   3.854   3.656   3.713
 2762SOL    HW111088   3.813   3.582   3.766
 2762SOL    HW211089   3.918   3.707   3.771
 2763SOL     OW11090   4.554   3.135   3.284
 2763SOL    HW111091   4.549   3.168   3.379
 2763SOL    HW211092   4.468   3.154   3.238
 2764SOL     OW11093   4.396   3.478   2.016
 2764SOL    HW111094   4.405   3.488   1.917
 2764SOL    HW211095   4.356   3.389   2.037
 2765SOL     OW11096   4.918   3.474   1.893
 2765SOL    HW111097   4.924   3.381   1.930
 2765SOL    HW211098   4.859   3.474   1.813
 2766SOL     OW11099   4.640   2.772   2.153
 2766SOL    HW111100   4.703   2.810   2.085
 2766SOL    HW211101   4.680   2.689   2.192
 2767SOL     OW11102   4.096   3.150   3.352
 2767SOL    HW111103   4.083   3.243   3.318
 2767SOL    HW211104   4.012   3.098   3.339
 2768SOL     OW11105   4.763   2.960   2.558
 2768SOL    HW111106   4.693   2.913   2.612
 2768SOL    HW211107   4.822   2.892   2.515
 2769SOL     OW11108   4.738   2.098   2.833
 2769SOL    HW111109   4.730   2.062   2.740
 2769SOL    HW211110   4.736   2.022   2.898
 2770SOL     OW11111   3.829   2.875   3.588
 2770SOL    HW111112   3.752   2.842   3.642
 2770SOL    HW211113   3.914   2.845   3.630
 2771SOL     OW11114   4.396   2.065   3.351
 2771SOL    HW111115   4.486   2.049   3.311
 2771SOL    HW211116   4.404   2.070   3.450
 2772SOL     OW11117   3.799   2.207   1.895
 2772SOL    HW111118   3.707   2.179   1.866
 2772SOL    HW211119   3.830   2.284   1.839
 2773SOL     OW11120   4.440   2.427   3.570
 2773SOL    HW111121   4.459   2.492   3.644
 2773SOL    HW211122   4.500   2.347   3.579
 2774SOL     OW11123   4.949   2.187   2.311
 2774SOL    HW111124   5.014   2.113   2.300
 2774SOL    HW211125   4.969   2.237   2.395
 2775SOL     OW11126   4.583   3.236   1.878
 2775SOL    HW111127   4.537   3.251   1.966
 2775SOL    HW211128   4.627   3.321   1.848
 2776SOL     OW11129   4.385   3.652   2.815
 2776SOL    HW111130   4.339   3.740   2.802
 2776SOL    HW211131   4.484   3.664   2.808
 2777SOL     OW11132   4.583   2.818   2.723
 2777SOL    HW111133   4.637   2.749   2.771
 2777SOL    HW211134   4.551   2.887   2.789
 2778SOL     OW11135   4.807   2.846   1.949
 2778SOL    HW111136   4.784   2.899   1.867
 2778SOL    HW211137   4.888   2.790   1.930
 2779SOL     OW11138   3.945   3.176   3.706
 2779SOL    HW111139   3.880   3.103   3.685
 2779SOL    HW211140   3.949   3.190   3.804
 2780SOL     OW11141   3.803   3.102   2.515
 2780SOL    HW111142   3.802   3.055   2.603
 2780SOL    HW211143   3.885   3.074   2.464
 2781SOL     OW11144   4.396   3.253   3.486
 2781SOL    HW111145   4.318   3.203   3.524
 2781SOL    HW211146   4.393   3.348   3.517
 2782SOL     OW11147   4.041   2.409   3.142
 2782SOL    HW111148   4.079   2.350   3.214
 2782SOL    HW211149   4.081   2.383   3.054
 2783SOL     OW11150   4.536   3.448   2.549
 2783SOL    HW111151   4.568   3.458   2.455
 2783SOL    HW211152   4.457   3.386   2.551
 2784SOL     OW11153   4.725   1.896   3.016
 2784SOL    HW111154   4.662   1.824   2.985
 2784SOL    HW211155   4.818   1.860   3.016
 2785SOL     OW11156   4.494   3.192   2.163
 2785SOL    HW111157   4.448   3.105   2.180
 2785SOL    HW211158   4.585   3.189   2.204
 2786SOL     OW11159   5.076   1.914   2.030
 2786SOL    HW111160   5.111   1.873   1.946
 2786SOL    HW211161   4.986   1.876   2.050
 2787SOL     OW11162   4.599   3.508   2.199
 2787SOL    HW111163   4.522   3.473   2.145
 2787SOL    HW211164   4.567   3.579   2.261
 2788SOL     OW11165   3.743   2.230   4.371
 2788SOL    HW111166   3.661   2.273   4.410
 2788SOL    HW211167   3.715   2.157   4.308
 2789SOL     OW11168   4.293   3.137   4.889
 2789SOL    HW111169   4.200   3.130   4.852
 2789SOL    HW211170   4.304   3.226   4.933
 2790SOL     OW11171   4.492   3.006   4.747
 2790SOL    HW111172   4.414   3.023   4.807
 2790SOL    HW211173   4.526   3.093   4.711
 2791SOL     OW11174   4.409   2.874   4.389
 2791SOL    HW111175   4.478   2.858   4.459
 2791SOL    HW211176   4.336   2.931   4.427
 2792SOL     OW11177   4.059   3.297   4.785
 2792SOL    HW111178   3.981   3.266   4.732
 2792SOL    HW211179   4.117   3.355   4.728
 2793SOL     OW11180   3.955   3.575   4.207
 2793SOL    HW111181   3.989   3.652   4.261
 2793SOL    HW211182   3.999   3.575   4.117
 2794SOL     OW11183   3.954   3.296   4.262
 2794SOL    HW111184   3.928   3.392   4.262
 2794SOL    HW211185   3.883   3.242   4.307
 2795SOL     OW11186   3.964   2.953   4.610
 2795SOL    HW111187   3.978   2.869   4.662
 2795SOL    HW211188   3.909   3.017   4.665
 2796SOL     OW11189   4.330   2.826   3.847
 2796SOL    HW111190   4.337   2.910   3.793
 2796SOL    HW211191   4.376   2.839   3.935
 2797SOL     OW11192   3.846   2.505   4.287
 2797SOL    HW111193   3.801   2.417   4.304
 2797SOL    HW211194   3.845   2.559   4.371
 2798SOL     OW11195   3.751   3.458   3.841
 2798SOL    HW111196   3.732   3.362   3.862
 2798SOL    HW211197   3.718   3.516   3.916
 2799SOL     OW11198   4.533   1.866   4.226
 2799SOL    HW111199   4.573   1.957   4.217
 2799SOL    HW211200   4.433   1.874   4.232
 2800SOL     OW11201   3.921   2.838   4.988
 2800SOL    HW111202   4.010   2.793   4.974
 2800SOL    HW211203   3.848   2.773   4.969
 2801SOL     OW11204   4.765   2.563   4.153
 2801SOL    HW111205   4.791   2.559   4.249
 2801SOL    HW211206   4.680   2.512   4.139
 2802SOL     OW11207   3.800   2.673   4.513
 2802SOL    HW111208   3.899   2.661   4.522
 2802SOL    HW211209   3.776   2.768   4.534
 2803SOL     OW11210   4.732   3.318   4.201
 2803SOL    HW111211   4.686   3.390   4.149
 2803SOL    HW211212   4.728   3.338   4.299
 2804SOL     OW11213   4.045   2.805   3.966
 2804SOL    HW111214   4.127   2.844   3.924
 2804SOL    HW211215   4.018   2.723   3.917
 2805SOL     OW11216   4.835   3.638   3.961
 2805SOL    HW111217   4.775   3.576   4.011
 2805SOL    HW211218   4.866   3.594   3.876
 2806SOL     OW11219   4.188   3.605   4.047
 2806SOL    HW111220   4.221   3.644   4.133
 2806SOL    HW211221   4.264   3.598   3.982
 2807SOL     OW11222   3.973   3.647   4.965
 2807SOL    HW111223   4.030   3.582   5.015
 2807SOL    HW211224   3.957   3.614   4.872
 2808SOL     OW11225   4.106   2.562   4.204
 2808SOL    HW111226   4.151   2.472   4.201
 2808SOL    HW211227   4.012   2.551   4.237
 2809SOL     OW11228   4.263   1.926   4.236
 2809SOL    HW111229   4.182   1.927   4.294
 2809SOL    HW211230   4.266   2.009   4.181
 2810SOL     OW11231   4.951   3.432   4.517
 2810SOL    HW111232   4.972   3.506   4.452
 2810SOL    HW211233   5.019   3.432   4.590
 2811SOL     OW11234   4.183   3.014   4.465
 2811SOL    HW111235   4.112   2.987   4.530
 2811SOL    HW211236   4.157   2.986   4.372
 2812SOL     OW11237   4.995   3.659   4.315
 2812SOL    HW111238   5.039   3.723   4.251
 2812SOL    HW211239   4.945   3.711   4.385
 2813SOL     OW11240   4.756   2.411   3.740
 2813SOL    HW111241   4.715   2.493   3.701
 2813SOL    HW211242   4.820   2.437   3.813
 2814SOL     OW11243   4.590   2.316   4.366
 2814SOL    HW111244   4.558   2.388   4.304
 2814SOL    HW211245   4.614   2.235   4.313
 2815SOL     OW11246   4.212   3.247   3.898
 2815SOL    HW111247   4.125   3.232   3.945
 2815SOL    HW211248   4.195   3.273   3.803
 2816SOL     OW11249   5.388   3.142   4.381
 2816SOL    HW111250   5.487   3.150   4.395
 2816SOL    HW211251   5.343   3.226   4.412
 2817SOL     OW11252   4.835   3.057   4.824
 2817SOL    HW111253   4.795   3.101   4.905
 2817SOL    HW211254   4.794   3.094   4.741
 2818SOL     OW11255   4.429   2.912   4.092
 2818SOL    HW111256   4.415   2.919   4.191
 2818SOL    HW211257   4.513   2.861   4.074
 2819SOL     OW11258   4.134   2.675   4.975
 2819SOL    HW111259   4.220   2.687   5.025
 2819SOL    HW211260   4.092   2.588   5.002
 2820SOL     OW11261   4.091   2.962   4.225
 2820SOL    HW111262   4.084   3.045   4.169
 2820SOL    HW211263   4.095   2.882   4.165
 2821SOL     OW11264   4.290   2.399   4.589
 2821SOL    HW111265   4.302   2.465   4.515
 2821SOL    HW211266   4.336   2.433   4.672
 2822SOL     OW11267   4.976   3.210   4.112
 2822SOL    HW111268   5.026   3.287   4.152
 2822SOL    HW211269   4.881   3.212   4.144
 2823SOL     OW11270   4.078   3.372   5.053
 2823SOL    HW111271   4.057   3.328   4.966
 2823SOL    HW211272   4.175   3.398   5.056
 2824SOL     OW11273   4.297   2.732   4.753
 2824SOL    HW111274   4.341   2.821   4.744
 2824SOL    HW211275   4.234   2.732   4.830
 2825SOL     OW11276   5.084   2.724   4.769
 2825SOL    HW111277   5.009   2.724   4.703
 2825SOL    HW211278   5.121   2.632   4.778
 2826SOL     OW11279   4.933   2.387   3.999
 2826SOL    HW111280   4.946   2.303   4.053
 2826SOL    HW211281   4.904   2.461   4.059
 2827SOL     OW11282   3.761   3.172   5.006
 2827SOL    HW111283   3.814   3.123   5.074
 2827SOL    HW211284   3.783   3.270   5.011
 2828SOL     OW11285   4.456   2.496   4.788
 2828SOL    HW111286   4.515   2.470   4.712
 2828SOL    HW211287   4.428   2.592   4.777
 2829SOL     OW11288   5.346   2.229   4.098
 2829SOL    HW111289   5.348   2.153   4.162
 2829SOL    HW211290   5.298   2.306   4.138
 2830SOL     OW11291   4.792   3.195   4.573
 2830SOL    HW111292   4.799   3.111   4.518
 2830SOL    HW211293   4.854   3.264   4.537
 2831SOL     OW11294   4.043   2.672   4.673
 2831SOL    HW111295   4.136   2.708   4.678
 2831SOL    HW211296   4.037   2.587   4.725
 2832SOL     OW11297   3.732   3.188   3.924
 2832SOL    HW111298   3.639   3.209   3.893
 2832SOL    HW211299   3.742   3.089   3.937
 2833SOL     OW11300   3.812   3.663   4.651
 2833SOL    HW111301   3.770   3.577   4.624
 2833SOL    HW211302   3.906   3.666   4.617
 2834SOL     OW11303   4.726   2.658   4.962
 2834SOL    HW111304   4.767   2.626   5.048
 2834SOL    HW211305   4.630   2.631   4.959
 2835SOL     OW11306   3.764   2.406   4.838
 2835SOL    HW111307   3.849   2.373   4.797
 2835SOL    HW211308   3.777   2.421   4.936
 2836SOL     OW11309   4.395   2.326   4.993
 2836SOL    HW111310   4.361   2.237   4.963
 2836SOL    HW211311   4.421   2.380   4.913
 2837SOL     OW11312   4.654   3.540   5.189
 2837SOL    HW111313   4.630   3.522   5.094
 2837SOL    HW211314   4.684   3.634   5.199
 2838SOL     OW11315   5.071   2.921   4.958
 2838SOL    HW111316   5.095   2.858   4.884
 2838SOL    HW211317   4.981   2.961   4.940
 2839SOL     OW11318   3.807   3.120   4.746
 2839SOL    HW111319   3.802   3.119   4.846
 2839SOL    HW211320   3.724   3.079   4.708
 2840SOL     OW11321   4.396   3.478   3.878
 2840SOL    HW111322   4.405   3.488   3.779
 2840SOL    HW211323   4.356   3.389   3.899
 2841SOL     OW11324   3.987   2.188   4.444
 2841SOL    HW111325   3.908   2.239   4.410
 2841SOL    HW211326   3.978   2.173   4.542
 2842SOL     OW11327   4.918   3.474   3.755
 2842SOL    HW111328   4.924   3.381   3.792
 2842SOL    HW211329   4.859   3.474   3.675
 2843SOL     OW11330   4.546   2.864   5.096
 2843SOL    HW111331   4.586   2.863   5.004
 2843SOL    HW211332   4.556   2.956   5.136
 2844SOL     OW11333   4.640   2.772   4.015
 2844SOL    HW111334   4.703   2.810   3.947
 2844SOL    HW211335   4.680   2.689   4.054
 2845SOL     OW11336   4.763   2.960   4.420
 2845SOL    HW111337   4.693   2.913   4.474
 2845SOL    HW211338   4.822   2.892   4.377
 2846SOL     OW11339   4.314   3.349   4.215
 2846SOL    HW111340   4.356   3.291   4.145
 2846SOL    HW211341   4.270   3.428   4.171
 2847SOL     OW11342   3.979   3.210   4.014
 2847SOL    HW111343   3.883   3.211   3.987
 2847SOL    HW211344   3.991   3.263   4.098
 2848SOL     OW11345   3.796   2.028   4.042
 2848SOL    HW111346   3.779   2.111   3.988
 2848SOL    HW211347   3.886   1.991   4.020
 2849SOL     OW11348   4.949   2.187   4.173
 2849SOL    HW111349   5.014   2.113   4.162
 2849SOL    HW211350   4.969   2.237   4.257
 2850SOL     OW11351   4.318   2.607   4.376
 2850SOL    HW111352   4.368   2.692   4.357
 2850SOL    HW211353   4.230   2.609   4.328
 2851SOL     OW11354   4.583   3.236   3.740
 2851SOL    HW111355   4.537   3.251   3.828
 2851SOL    HW211356   4.627   3.321   3.710
 2852SOL     OW11357   4.583   2.818   4.585
 2852SOL    HW111358   4.637   2.749   4.633
 2852SOL    HW211359   4.551   2.887   4.651
 2853SOL     OW11360   3.803   3.102   4.377
 2853SOL    HW111361   3.802   3.055   4.465
 2853SOL    HW211362   3.885   3.074   4.326
 2854SOL     OW11363   4.152   2.286   4.244
 2854SOL    HW111364   4.182   2.214   4.182
 2854SOL    HW211365   4.113   2.246   4.327
 2855SOL     OW11366   4.494   3.192   4.025
 2855SOL    HW111367   4.448   3.105   4.042
 2855SOL    HW211368   4.585   3.189   4.066
 2856SOL     OW11369   5.076   1.914   3.892
 2856SOL    HW111370   5.111   1.873   3.808
 2856SOL    HW211371   4.986   1.876   3.912
 2857SOL     OW11372   3.763   2.939   4.024
 2857SOL    HW111373   3.862   2.928   4.015
 2857SOL    HW211374   3.723   2.853   4.056
 2858SOL     OW11375   4.599   3.508   4.061
 2858SOL    HW111376   4.522   3.473   4.007
 2858SOL    HW211377   4.567   3.579   4.123
 2859SOL     OW11378   3.954   4.352   0.113
 2859SOL    HW111379   3.861   4.350   0.150
 2859SOL    HW211380   3.955   4.313   0.021
 2860SOL     OW11381   3.743   4.092   0.647
 2860SOL    HW111382   3.661   4.135   0.686
 2860SOL    HW211383   3.715   4.019   0.584
 2861SOL     OW11384   4.293   4.999   1.165
 2861SOL    HW111385   4.200   4.992   1.128
 2861SOL    HW211386   4.304   5.088   1.209
 2862SOL     OW11387   4.859   4.427   0.717
 2862SOL    HW111388   4.916   4.505   0.692
 2862SOL    HW211389   4.799   4.453   0.793
 2863SOL     OW11390   4.492   4.868   1.023
 2863SOL    HW111391   4.414   4.885   1.083
 2863SOL    HW211392   4.526   4.955   0.987
 2864SOL     OW11393   4.574   4.522   1.823
 2864SOL    HW111394   4.570   4.598   1.888
 2864SOL    HW211395   4.596   4.558   1.732
 2865SOL     OW11396   4.409   4.736   0.665
 2865SOL    HW111397   4.478   4.720   0.735
 2865SOL    HW211398   4.336   4.793   0.703
 2866SOL     OW11399   4.410   4.885   1.803
 2866SOL    HW111400   4.470   4.964   1.817
 2866SOL    HW211401   4.324   4.916   1.762
 2867SOL     OW11402   4.059   5.159   1.061
 2867SOL    HW111403   3.981   5.128   1.008
 2867SOL    HW211404   4.117   5.217   1.004
 2868SOL     OW11405   4.162   4.116   1.499
 2868SOL    HW111406   4.244   4.060   1.508
 2868SOL    HW211407   4.081   4.058   1.503
 2869SOL     OW11408   3.846   4.367   0.563
 2869SOL    HW111409   3.801   4.279   0.580
 2869SOL    HW211410   3.845   4.421   0.647
 2870SOL     OW11411   3.837   4.461   1.597
 2870SOL    HW111412   3.925   4.448   1.642
 2870SOL    HW211413   3.824   4.558   1.575
 2871SOL     OW11414   5.017   4.952   1.423
 2871SOL    HW111415   5.054   4.879   1.365
 2871SOL    HW211416   5.069   4.957   1.508
 2872SOL     OW11417   3.921   4.700   1.264
 2872SOL    HW111418   4.010   4.655   1.250
 2872SOL    HW211419   3.848   4.635   1.245
 2873SOL     OW11420   4.041   3.975   1.801
 2873SOL    HW111421   4.112   4.046   1.807
 2873SOL    HW211422   3.953   4.014   1.829
 2874SOL     OW11423   4.322   4.453   0.270
 2874SOL    HW111424   4.346   4.522   0.202
 2874SOL    HW211425   4.244   4.486   0.324
 2875SOL     OW11426   5.005   4.069   0.944
 2875SOL    HW111427   4.919   4.019   0.931
 2875SOL    HW211428   5.067   4.015   1.000
 2876SOL     OW11429   4.531   4.329   1.465
 2876SOL    HW111430   4.484   4.326   1.554
 2876SOL    HW211431   4.480   4.274   1.399
 2877SOL     OW11432   4.697   4.614   1.572
 2877SOL    HW111433   4.743   4.530   1.543
 2877SOL    HW211434   4.641   4.648   1.497
 2878SOL     OW11435   4.715   4.134   1.242
 2878SOL    HW111436   4.638   4.168   1.296
 2878SOL    HW211437   4.681   4.083   1.163
 2879SOL     OW11438   4.765   4.425   0.429
 2879SOL    HW111439   4.791   4.421   0.525
 2879SOL    HW211440   4.680   4.374   0.415
 2880SOL     OW11441   3.800   4.535   0.789
 2880SOL    HW111442   3.899   4.523   0.798
 2880SOL    HW211443   3.776   4.630   0.810
 2881SOL     OW11444   3.926   4.009   1.498
 2881SOL    HW111445   3.846   4.069   1.485
 2881SOL    HW211446   3.916   3.960   1.584
 2882SOL     OW11447   4.106   4.424   0.480
 2882SOL    HW111448   4.151   4.334   0.477
 2882SOL    HW211449   4.012   4.413   0.513
 2883SOL     OW11450   4.505   3.988   1.749
 2883SOL    HW111451   4.572   3.927   1.792
 2883SOL    HW211452   4.432   4.007   1.814
 2884SOL     OW11453   4.527   5.126   0.924
 2884SOL    HW111454   4.617   5.140   0.882
 2884SOL    HW211455   4.456   5.128   0.853
 2885SOL     OW11456   4.646   4.227   0.899
 2885SOL    HW111457   4.621   4.218   0.803
 2885SOL    HW211458   4.694   4.145   0.930
 2886SOL     OW11459   4.021   3.759   0.171
 2886SOL    HW111460   4.070   3.843   0.150
 2886SOL    HW211461   4.083   3.694   0.216
 2887SOL     OW11462   4.800   4.407   1.464
 2887SOL    HW111463   4.720   4.346   1.467
 2887SOL    HW211464   4.881   4.354   1.440
 2888SOL     OW11465   4.951   5.294   0.793
 2888SOL    HW111466   4.972   5.368   0.728
 2888SOL    HW211467   5.019   5.294   0.866
 2889SOL     OW11468   4.183   4.876   0.741
 2889SOL    HW111469   4.112   4.849   0.806
 2889SOL    HW211470   4.157   4.848   0.648
 2890SOL     OW11471   4.756   4.273   0.016
 2890SOL    HW111472   4.715   4.355  -0.023
 2890SOL    HW211473   4.820   4.299   0.089
 2891SOL     OW11474   4.741   3.763   0.753
 2891SOL    HW111475   4.669   3.768   0.684
 2891SOL    HW211476   4.717   3.694   0.822
 2892SOL     OW11477   4.704   4.840   1.719
 2892SOL    HW111478   4.605   4.846   1.729
 2892SOL    HW211479   4.727   4.760   1.663
 2893SOL     OW11480   4.429   4.774   0.368
 2893SOL    HW111481   4.415   4.781   0.467
 2893SOL    HW211482   4.513   4.723   0.350
 2894SOL     OW11483   4.998   4.110   1.262
 2894SOL    HW111484   5.019   4.184   1.326
 2894SOL    HW211485   4.909   4.127   1.219
 2895SOL     OW11486   4.091   4.824   0.501
 2895SOL    HW111487   4.084   4.907   0.445
 2895SOL    HW211488   4.095   4.744   0.441
 2896SOL     OW11489   4.290   4.261   0.865
 2896SOL    HW111490   4.302   4.327   0.791
 2896SOL    HW211491   4.336   4.295   0.948
 2897SOL     OW11492   4.976   5.072   0.388
 2897SOL    HW111493   5.026   5.149   0.428
 2897SOL    HW211494   4.881   5.074   0.420
 2898SOL     OW11495   4.297   4.594   1.029
 2898SOL    HW111496   4.341   4.683   1.020
 2898SOL    HW211497   4.234   4.594   1.106
 2899SOL     OW11498   5.084   4.586   1.045
 2899SOL    HW111499   5.009   4.586   0.979
 2899SOL    HW211500   5.121   4.494   1.054
 2900SOL     OW11501   4.933   4.249   0.275
 2900SOL    HW111502   4.946   4.165   0.329
 2900SOL    HW211503   4.904   4.323   0.335
 2901SOL     OW11504   4.031   3.937   1.231
 2901SOL    HW111505   4.008   3.974   1.321
 2901SOL    HW211506   4.001   3.842   1.225
 2902SOL     OW11507   4.456   4.358   1.064
 2902SOL    HW111508   4.515   4.332   0.988
 2902SOL    HW211509   4.428   4.454   1.053
 2903SOL     OW11510   5.346   4.091   0.374
 2903SOL    HW111511   5.348   4.015   0.438
 2903SOL    HW211512   5.298   4.168   0.414
 2904SOL     OW11513   4.747   4.490   0.966
 2904SOL    HW111514   4.762   4.511   1.062
 2904SOL    HW211515   4.717   4.395   0.957
 2905SOL     OW11516   4.074   4.622   1.804
 2905SOL    HW111517   4.150   4.666   1.852
 2905SOL    HW211518   4.109   4.575   1.722
 2906SOL     OW11519   4.726   4.520   1.238
 2906SOL    HW111520   4.767   4.488   1.324
 2906SOL    HW211521   4.630   4.493   1.235
 2907SOL     OW11522   3.913   4.244   1.722
 2907SOL    HW111523   3.972   4.204   1.652
 2907SOL    HW211524   3.855   4.315   1.681
 2908SOL     OW11525   4.395   4.188   1.269
 2908SOL    HW111526   4.361   4.099   1.239
 2908SOL    HW211527   4.421   4.242   1.189
 2909SOL     OW11528   4.197   4.224   0.191
 2909SOL    HW111529   4.258   4.304   0.195
 2909SOL    HW211530   4.102   4.255   0.198
 2910SOL     OW11531   3.883   4.861   1.466
 2910SOL    HW111532   3.905   4.800   1.542
 2910SOL    HW211533   3.893   4.812   1.380
 2911SOL     OW11534   5.071   4.783   1.234
 2911SOL    HW111535   5.095   4.720   1.160
 2911SOL    HW211536   4.981   4.823   1.216
 2912SOL     OW11537   3.807   4.982   1.022
 2912SOL    HW111538   3.802   4.981   1.122
 2912SOL    HW211539   3.724   4.941   0.984
 2913SOL     OW11540   4.627   3.810   0.133
 2913SOL    HW111541   4.678   3.811   0.047
 2913SOL    HW211542   4.683   3.768   0.204
 2914SOL     OW11543   5.004   4.651   0.672
 2914SOL    HW111544   5.064   4.570   0.674
 2914SOL    HW211545   5.044   4.720   0.612
 2915SOL     OW11546   4.554   4.997   1.422
 2915SOL    HW111547   4.549   5.030   1.517
 2915SOL    HW211548   4.468   5.016   1.376
 2916SOL     OW11549   4.546   4.726   1.372
 2916SOL    HW111550   4.586   4.725   1.280
 2916SOL    HW211551   4.556   4.818   1.412
 2917SOL     OW11552   4.640   4.634   0.291
 2917SOL    HW111553   4.703   4.672   0.223
 2917SOL    HW211554   4.680   4.551   0.330
 2918SOL     OW11555   4.096   5.012   1.490
 2918SOL    HW111556   4.083   5.105   1.456
 2918SOL    HW211557   4.012   4.960   1.477
 2919SOL     OW11558   4.763   4.822   0.696
 2919SOL    HW111559   4.693   4.775   0.750
 2919SOL    HW211560   4.822   4.754   0.653
 2920SOL     OW11561   4.738   3.960   0.971
 2920SOL    HW111562   4.730   3.924   0.878
 2920SOL    HW211563   4.736   3.884   1.036
 2921SOL     OW11564   3.829   4.737   1.726
 2921SOL    HW111565   3.752   4.704   1.780
 2921SOL    HW211566   3.914   4.707   1.768
 2922SOL     OW11567   4.396   3.927   1.489
 2922SOL    HW111568   4.486   3.911   1.449
 2922SOL    HW211569   4.404   3.932   1.588
 2923SOL     OW11570   5.164   4.580   1.398
 2923SOL    HW111571   5.107   4.632   1.335
 2923SOL    HW211572   5.260   4.592   1.374
 2924SOL     OW11573   3.796   3.890   0.318
 2924SOL    HW111574   3.779   3.973   0.264
 2924SOL    HW211575   3.886   3.853   0.296
 2925SOL     OW11576   4.440   4.289   1.708
 2925SOL    HW111577   4.459   4.354   1.782
 2925SOL    HW211578   4.500   4.209   1.717
 2926SOL     OW11579   5.174   4.944   1.633
 2926SOL    HW111580   5.165   4.934   1.732
 2926SOL    HW211581   5.270   4.937   1.607
 2927SOL     OW11582   4.949   4.049   0.449
 2927SOL    HW111583   5.014   3.975   0.438
 2927SOL    HW211584   4.969   4.099   0.533
 2928SOL     OW11585   4.318   4.469   0.652
 2928SOL    HW111586   4.368   4.554   0.633
 2928SOL    HW211587   4.230   4.471   0.604
 2929SOL     OW11588   4.583   4.680   0.861
 2929SOL    HW111589   4.637   4.611   0.909
 2929SOL    HW211590   4.551   4.749   0.927
 2930SOL     OW11591   4.807   4.708   0.087
 2930SOL    HW111592   4.784   4.761   0.005
 2930SOL    HW211593   4.888   4.652   0.068
 2931SOL     OW11594   4.152   4.148   0.520
 2931SOL    HW111595   4.182   4.076   0.458
 2931SOL    HW211596   4.113   4.108   0.603
 2932SOL     OW11597   4.725   3.758   1.154
 2932SOL    HW111598   4.662   3.686   1.123
 2932SOL    HW211599   4.818   3.722   1.154
 2933SOL     OW11600   4.494   5.054   0.301
 2933SOL    HW111601   4.448   4.967   0.318
 2933SOL    HW211602   4.585   5.051   0.342
 2934SOL     OW11603   3.949   3.999   2.858
 2934SOL    HW111604   3.984   3.982   2.950
 2934SOL    HW211605   3.861   3.954   2.846
 2935SOL     OW11606   3.743   4.092   2.509
 2935SOL    HW111607   3.661   4.135   2.548
 2935SOL    HW211608   3.715   4.019   2.446
 2936SOL     OW11609   4.293   4.999   3.027
 2936SOL    HW111610   4.200   4.992   2.990
 2936SOL    HW211611   4.304   5.088   3.071
 2937SOL     OW11612   4.859   4.427   2.579
 2937SOL    HW111613   4.916   4.505   2.554
 2937SOL    HW211614   4.799   4.453   2.655
 2938SOL     OW11615   4.492   4.868   2.885
 2938SOL    HW111616   4.414   4.885   2.945
 2938SOL    HW211617   4.526   4.955   2.849
 2939SOL     OW11618   4.574   4.522   3.685
 2939SOL    HW111619   4.570   4.598   3.750
 2939SOL    HW211620   4.596   4.558   3.594
 2940SOL     OW11621   4.409   4.736   2.527
 2940SOL    HW111622   4.478   4.720   2.597
 2940SOL    HW211623   4.336   4.793   2.565
 2941SOL     OW11624   4.410   4.885   3.665
 2941SOL    HW111625   4.470   4.964   3.679
 2941SOL    HW211626   4.324   4.916   3.624
 2942SOL     OW11627   4.059   5.159   2.923
 2942SOL    HW111628   3.981   5.128   2.870
 2942SOL    HW211629   4.117   5.217   2.866
 2943SOL     OW11630   4.330   4.688   1.985
 2943SOL    HW111631   4.337   4.772   1.931
 2943SOL    HW211632   4.376   4.701   2.073
 2944SOL     OW11633   3.846   4.367   2.425
 2944SOL    HW111634   3.801   4.279   2.442
 2944SOL    HW211635   3.845   4.421   2.509
 2945SOL     OW11636   3.837   4.461   3.459
 2945SOL    HW111637   3.925   4.448   3.504
 2945SOL    HW211638   3.824   4.558   3.437
 2946SOL     OW11639   4.533   3.728   2.364
 2946SOL    HW111640   4.573   3.819   2.355
 2946SOL    HW211641   4.433   3.736   2.370
 2947SOL     OW11642   3.921   4.700   3.126
 2947SOL    HW111643   4.010   4.655   3.112
 2947SOL    HW211644   3.848   4.635   3.107
 2948SOL     OW11645   4.041   3.975   3.663
 2948SOL    HW111646   4.112   4.046   3.669
 2948SOL    HW211647   3.953   4.014   3.691
 2949SOL     OW11648   4.322   4.453   2.132
 2949SOL    HW111649   4.346   4.522   2.064
 2949SOL    HW211650   4.244   4.486   2.186
 2950SOL     OW11651   5.005   4.069   2.806
 2950SOL    HW111652   4.919   4.019   2.793
 2950SOL    HW211653   5.067   4.015   2.862
 2951SOL     OW11654   4.531   4.329   3.327
 2951SOL    HW111655   4.484   4.326   3.416
 2951SOL    HW211656   4.480   4.274   3.261
 2952SOL     OW11657   4.765   4.425   2.291
 2952SOL    HW111658   4.791   4.421   2.387
 2952SOL    HW211659   4.680   4.374   2.277
 2953SOL     OW11660   4.274   3.920   2.747
 2953SOL    HW111661   4.269   3.915   2.847
 2953SOL    HW211662   4.276   4.016   2.718
 2954SOL     OW11663   3.926   4.009   3.360
 2954SOL    HW111664   3.846   4.069   3.347
 2954SOL    HW211665   3.916   3.960   3.446
 2955SOL     OW11666   4.106   4.424   2.342
 2955SOL    HW111667   4.151   4.334   2.339
 2955SOL    HW211668   4.012   4.413   2.375
 2956SOL     OW11669   4.505   3.988   3.611
 2956SOL    HW111670   4.572   3.927   3.654
 2956SOL    HW211671   4.432   4.007   3.676
 2957SOL     OW11672   4.263   3.788   2.374
 2957SOL    HW111673   4.182   3.789   2.432
 2957SOL    HW211674   4.266   3.871   2.319
 2958SOL     OW11675   5.158   4.912   1.903
 2958SOL    HW111676   5.190   4.836   1.960
 2958SOL    HW211677   5.066   4.939   1.933
 2959SOL     OW11678   4.659   3.960   2.342
 2959SOL    HW111679   4.611   4.001   2.264
 2959SOL    HW211680   4.758   3.958   2.323
 2960SOL     OW11681   4.951   5.294   2.655
 2960SOL    HW111682   4.972   5.368   2.590
 2960SOL    HW211683   5.019   5.294   2.728
 2961SOL     OW11684   4.756   4.273   1.878
 2961SOL    HW111685   4.715   4.355   1.839
 2961SOL    HW211686   4.820   4.299   1.951
 2962SOL     OW11687   3.802   4.280   3.248
 2962SOL    HW111688   3.894   4.279   3.207
 2962SOL    HW211689   3.796   4.354   3.315
 2963SOL     OW11690   4.590   4.178   2.504
 2963SOL    HW111691   4.558   4.250   2.442
 2963SOL    HW211692   4.614   4.097   2.451
 2964SOL     OW11693   4.741   3.763   2.615
 2964SOL    HW111694   4.669   3.768   2.546
 2964SOL    HW211695   4.717   3.694   2.684
 2965SOL     OW11696   4.251   3.980   2.190
 2965SOL    HW111697   4.278   3.921   2.115
 2965SOL    HW211698   4.251   4.075   2.159
 2966SOL     OW11699   4.639   3.813   3.264
 2966SOL    HW111700   4.664   3.793   3.169
 2966SOL    HW211701   4.711   3.869   3.306
 2967SOL     OW11702   4.134   4.537   3.113
 2967SOL    HW111703   4.220   4.549   3.163
 2967SOL    HW211704   4.092   4.450   3.140
 2968SOL     OW11705   4.998   4.110   3.124
 2968SOL    HW111706   5.019   4.184   3.188
 2968SOL    HW211707   4.909   4.127   3.081
 2969SOL     OW11708   4.290   4.261   2.727
 2969SOL    HW111709   4.302   4.327   2.653
 2969SOL    HW211710   4.336   4.295   2.810
 2970SOL     OW11711   4.976   5.072   2.250
 2970SOL    HW111712   5.026   5.149   2.290
 2970SOL    HW211713   4.881   5.074   2.282
 2971SOL     OW11714   4.126   4.475   3.460
 2971SOL    HW111715   4.194   4.530   3.413
 2971SOL    HW211716   4.166   4.387   3.487
 2972SOL     OW11717   4.737   3.829   3.632
 2972SOL    HW111718   4.743   3.914   3.580
 2972SOL    HW211719   4.769   3.753   3.575
 2973SOL     OW11720   4.228   3.774   3.602
 2973SOL    HW111721   4.186   3.717   3.532
 2973SOL    HW211722   4.162   3.843   3.634
 2974SOL     OW11723   4.297   4.594   2.891
 2974SOL    HW111724   4.341   4.683   2.882
 2974SOL    HW211725   4.234   4.594   2.968
 2975SOL     OW11726   4.933   4.249   2.137
 2975SOL    HW111727   4.946   4.165   2.191
 2975SOL    HW211728   4.904   4.323   2.197
 2976SOL     OW11729   4.031   3.937   3.093
 2976SOL    HW111730   4.008   3.974   3.183
 2976SOL    HW211731   4.001   3.842   3.087
 2977SOL     OW11732   4.031   3.787   2.480
 2977SOL    HW111733   4.020   3.881   2.513
 2977SOL    HW211734   4.026   3.724   2.557
 2978SOL     OW11735   5.346   4.091   2.236
 2978SOL    HW111736   5.348   4.015   2.300
 2978SOL    HW211737   5.298   4.168   2.276
 2979SOL     OW11738   4.074   4.622   3.666
 2979SOL    HW111739   4.150   4.666   3.714
 2979SOL    HW211740   4.109   4.575   3.584
 2980SOL     OW11741   5.027   4.562   1.904
 2980SOL    HW111742   5.061   4.469   1.919
 2980SOL    HW211743   5.045   4.589   1.809
 2981SOL     OW11744   4.043   4.534   2.811
 2981SOL    HW111745   4.136   4.570   2.816
 2981SOL    HW211746   4.037   4.449   2.863
 2982SOL     OW11747   4.063   4.233   2.868
 2982SOL    HW111748   4.011   4.150   2.851
 2982SOL    HW211749   4.140   4.238   2.804
 2983SOL     OW11750   4.862   4.104   3.540
 2983SOL    HW111751   4.817   4.167   3.604
 2983SOL    HW211752   4.955   4.135   3.523
 2984SOL     OW11753   4.884   3.931   3.339
 2984SOL    HW111754   4.884   3.995   3.416
 2984SOL    HW211755   4.912   3.979   3.256
 2985SOL     OW11756   3.732   5.050   2.062
 2985SOL    HW111757   3.639   5.071   2.031
 2985SOL    HW211758   3.742   4.951   2.075
 2986SOL     OW11759   3.764   4.268   2.976
 2986SOL    HW111760   3.849   4.235   2.935
 2986SOL    HW211761   3.777   4.283   3.074
 2987SOL     OW11762   3.913   4.244   3.584
 2987SOL    HW111763   3.972   4.204   3.514
 2987SOL    HW211764   3.855   4.315   3.543
 2988SOL     OW11765   4.539   4.296   2.187
 2988SOL    HW111766   4.546   4.207   2.141
 2988SOL    HW211767   4.445   4.330   2.179
 2989SOL     OW11768   4.197   4.224   2.053
 2989SOL    HW111769   4.258   4.304   2.057
 2989SOL    HW211770   4.102   4.255   2.060
 2990SOL     OW11771   3.883   4.861   3.328
 2990SOL    HW111772   3.905   4.800   3.404
 2990SOL    HW211773   3.893   4.812   3.242
 2991SOL     OW11774   3.807   4.982   2.884
 2991SOL    HW111775   3.802   4.981   2.984
 2991SOL    HW211776   3.724   4.941   2.846
 2992SOL     OW11777   5.004   4.651   2.534
 2992SOL    HW111778   5.064   4.570   2.536
 2992SOL    HW211779   5.044   4.720   2.474
 2993SOL     OW11780   3.987   4.050   2.582
 2993SOL    HW111781   3.908   4.101   2.548
 2993SOL    HW211782   3.978   4.035   2.680
 2994SOL     OW11783   4.918   5.336   1.893
 2994SOL    HW111784   4.924   5.243   1.930
 2994SOL    HW211785   4.859   5.336   1.813
 2995SOL     OW11786   4.546   4.726   3.234
 2995SOL    HW111787   4.586   4.725   3.142
 2995SOL    HW211788   4.556   4.818   3.274
 2996SOL     OW11789   4.640   4.634   2.153
 2996SOL    HW111790   4.703   4.672   2.085
 2996SOL    HW211791   4.680   4.551   2.192
 2997SOL     OW11792   4.096   5.012   3.352
 2997SOL    HW111793   4.083   5.105   3.318
 2997SOL    HW211794   4.012   4.960   3.339
 2998SOL     OW11795   4.763   4.822   2.558
 2998SOL    HW111796   4.693   4.775   2.612
 2998SOL    HW211797   4.822   4.754   2.515
 2999SOL     OW11798   3.829   4.737   3.588
 2999SOL    HW111799   3.752   4.704   3.642
 2999SOL    HW211800   3.914   4.707   3.630
 3000SOL     OW11801   3.799   4.069   1.895
 3000SOL    HW111802   3.707   4.041   1.866
 3000SOL    HW211803   3.830   4.146   1.839
 3001SOL     OW11804   4.337   4.566   3.293
 3001SOL    HW111805   4.393   4.647   3.276
 3001SOL    HW211806   4.396   4.486   3.296
 3002SOL     OW11807   4.440   4.289   3.570
 3002SOL    HW111808   4.459   4.354   3.644
 3002SOL    HW211809   4.500   4.209   3.579
 3003SOL     OW11810   5.174   4.944   3.495
 3003SOL    HW111811   5.165   4.934   3.594
 3003SOL    HW211812   5.270   4.937   3.469
 3004SOL     OW11813   4.949   4.049   2.311
 3004SOL    HW111814   5.014   3.975   2.300
 3004SOL    HW211815   4.969   4.099   2.395
 3005SOL     OW11816   4.807   4.708   1.949
 3005SOL    HW111817   4.784   4.761   1.867
 3005SOL    HW211818   4.888   4.652   1.930
 3006SOL     OW11819   3.803   4.964   2.515
 3006SOL    HW111820   3.802   4.917   2.603
 3006SOL    HW211821   3.885   4.936   2.464
 3007SOL     OW11822   4.152   4.148   2.382
 3007SOL    HW111823   4.182   4.076   2.320
 3007SOL    HW211824   4.113   4.108   2.465
 3008SOL     OW11825   4.041   4.271   3.142
 3008SOL    HW111826   4.079   4.212   3.214
 3008SOL    HW211827   4.081   4.245   3.054
 3009SOL     OW11828   3.954   4.352   3.837
 3009SOL    HW111829   3.861   4.350   3.874
 3009SOL    HW211830   3.955   4.313   3.745
 3010SOL     OW11831   3.949   3.999   4.720
 3010SOL    HW111832   3.984   3.982   4.812
 3010SOL    HW211833   3.861   3.954   4.708
 3011SOL     OW11834   3.743   4.092   4.371
 3011SOL    HW111835   3.661   4.135   4.410
 3011SOL    HW211836   3.715   4.019   4.308
 3012SOL     OW11837   4.293   4.999   4.889
 3012SOL    HW111838   4.200   4.992   4.852
 3012SOL    HW211839   4.304   5.088   4.933
 3013SOL     OW11840   4.409   4.736   4.389
 3013SOL    HW111841   4.478   4.720   4.459
 3013SOL    HW211842   4.336   4.793   4.427
 3014SOL     OW11843   4.059   5.159   4.785
 3014SOL    HW111844   3.981   5.128   4.732
 3014SOL    HW211845   4.117   5.217   4.728
 3015SOL     OW11846   3.846   4.367   4.287
 3015SOL    HW111847   3.801   4.279   4.304
 3015SOL    HW211848   3.845   4.421   4.371
 3016SOL     OW11849   4.533   3.728   4.226
 3016SOL    HW111850   4.573   3.819   4.217
 3016SOL    HW211851   4.433   3.736   4.232
 3017SOL     OW11852   5.005   4.069   4.668
 3017SOL    HW111853   4.919   4.019   4.655
 3017SOL    HW211854   5.067   4.015   4.724
 3018SOL     OW11855   4.715   4.134   4.966
 3018SOL    HW111856   4.638   4.168   5.020
 3018SOL    HW211857   4.681   4.083   4.887
 3019SOL     OW11858   4.589   4.072   3.919
 3019SOL    HW111859   4.648   4.135   3.870
 3019SOL    HW211860   4.608   3.978   3.890
 3020SOL     OW11861   4.338   3.846   3.841
 3020SOL    HW111862   4.436   3.824   3.848
 3020SOL    HW211863   4.307   3.829   3.748
 3021SOL     OW11864   4.527   5.126   4.648
 3021SOL    HW111865   4.617   5.140   4.606
 3021SOL    HW211866   4.456   5.128   4.577
 3022SOL     OW11867   4.646   4.227   4.623
 3022SOL    HW111868   4.621   4.218   4.527
 3022SOL    HW211869   4.694   4.145   4.654
 3023SOL     OW11870   4.263   3.788   4.236
 3023SOL    HW111871   4.182   3.789   4.294
 3023SOL    HW211872   4.266   3.871   4.181
 3024SOL     OW11873   5.158   4.912   3.765
 3024SOL    HW111874   5.190   4.836   3.822
 3024SOL    HW211875   5.066   4.939   3.795
 3025SOL     OW11876   4.021   3.759   3.895
 3025SOL    HW111877   4.070   3.843   3.874
 3025SOL    HW211878   4.083   3.694   3.940
 3026SOL     OW11879   4.659   3.960   4.204
 3026SOL    HW111880   4.611   4.001   4.126
 3026SOL    HW211881   4.758   3.958   4.185
 3027SOL     OW11882   4.951   5.294   4.517
 3027SOL    HW111883   4.972   5.368   4.452
 3027SOL    HW211884   5.019   5.294   4.590
 3028SOL     OW11885   4.183   4.876   4.465
 3028SOL    HW111886   4.112   4.849   4.530
 3028SOL    HW211887   4.157   4.848   4.372
 3029SOL     OW11888   4.756   4.273   3.740
 3029SOL    HW111889   4.715   4.355   3.701
 3029SOL    HW211890   4.820   4.299   3.813
 3030SOL     OW11891   4.285   3.946   4.871
 3030SOL    HW111892   4.323   3.862   4.908
 3030SOL    HW211893   4.197   3.965   4.915
 3031SOL     OW11894   4.590   4.178   4.366
 3031SOL    HW111895   4.558   4.250   4.304
 3031SOL    HW211896   4.614   4.097   4.313
 3032SOL     OW11897   4.741   3.763   4.477
 3032SOL    HW111898   4.669   3.768   4.408
 3032SOL    HW211899   4.717   3.694   4.546
 3033SOL     OW11900   4.251   3.980   4.052
 3033SOL    HW111901   4.278   3.921   3.977
 3033SOL    HW211902   4.251   4.075   4.021
 3034SOL     OW11903   4.091   4.824   4.225
 3034SOL    HW111904   4.084   4.907   4.169
 3034SOL    HW211905   4.095   4.744   4.165
 3035SOL     OW11906   4.290   4.261   4.589
 3035SOL    HW111907   4.302   4.327   4.515
 3035SOL    HW211908   4.336   4.295   4.672
 3036SOL     OW11909   5.084   4.586   4.769
 3036SOL    HW111910   5.009   4.586   4.703
 3036SOL    HW211911   5.121   4.494   4.778
 3037SOL     OW11912   4.031   3.937   4.955
 3037SOL    HW111913   4.008   3.974   5.045
 3037SOL    HW211914   4.001   3.842   4.949
 3038SOL     OW11915   4.456   4.358   4.788
 3038SOL    HW111916   4.515   4.332   4.712
 3038SOL    HW211917   4.428   4.454   4.777
 3039SOL     OW11918   4.747   4.490   4.690
 3039SOL    HW111919   4.762   4.511   4.786
 3039SOL    HW211920   4.717   4.395   4.681
 3040SOL     OW11921   4.884   3.931   5.201
 3040SOL    HW111922   4.884   3.995   5.278
 3040SOL    HW211923   4.912   3.979   5.118
 3041SOL     OW11924   3.732   5.050   3.924
 3041SOL    HW111925   3.639   5.071   3.893
 3041SOL    HW211926   3.742   4.951   3.937
 3042SOL     OW11927   4.726   4.520   4.962
 3042SOL    HW111928   4.767   4.488   5.048
 3042SOL    HW211929   4.630   4.493   4.959
 3043SOL     OW11930   3.764   4.268   4.838
 3043SOL    HW111931   3.849   4.235   4.797
 3043SOL    HW211932   3.777   4.283   4.936
 3044SOL     OW11933   4.395   4.188   4.993
 3044SOL    HW111934   4.361   4.099   4.963
 3044SOL    HW211935   4.421   4.242   4.913
 3045SOL     OW11936   4.197   4.224   3.915
 3045SOL    HW111937   4.258   4.304   3.919
 3045SOL    HW211938   4.102   4.255   3.922
 3046SOL     OW11939   3.807   4.982   4.746
 3046SOL    HW111940   3.802   4.981   4.846
 3046SOL    HW211941   3.724   4.941   4.708
 3047SOL     OW11942   5.004   4.651   4.396
 3047SOL    HW111943   5.064   4.570   4.398
 3047SOL    HW211944   5.044   4.720   4.336
 3048SOL     OW11945   4.554   4.997   5.146
 3048SOL    HW111946   4.549   5.030   5.241
 3048SOL    HW211947   4.468   5.016   5.100
 3049SOL     OW11948   3.987   4.050   4.444
 3049SOL    HW111949   3.908   4.101   4.410
 3049SOL    HW211950   3.978   4.035   4.542
 3050SOL     OW11951   4.546   4.726   5.096
 3050SOL    HW111952   4.586   4.725   5.004
 3050SOL    HW211953   4.556   4.818   5.136
 3051SOL     OW11954   3.799   4.069   3.757
 3051SOL    HW111955   3.707   4.041   3.728
 3051SOL    HW211956   3.830   4.146   3.701
 3052SOL     OW11957   3.796   3.890   4.042
 3052SOL    HW111958   3.779   3.973   3.988
 3052SOL    HW211959   3.886   3.853   4.020
 3053SOL     OW11960   4.583   4.680   4.585
 3053SOL    HW111961   4.637   4.611   4.633
 3053SOL    HW211962   4.551   4.749   4.651
 3054SOL     OW11963   3.803   4.964   4.377
 3054SOL    HW111964   3.802   4.917   4.465
 3054SOL    HW211965   3.885   4.936   4.326
 3055SOL     OW11966   4.152   4.148   4.244
 3055SOL    HW111967   4.182   4.076   4.182
 3055SOL    HW211968   4.113   4.108   4.327
 3056SOL     OW11969   4.494   5.054   4.025
 3056SOL    HW111970   4.448   4.967   4.042
 3056SOL    HW211971   4.585   5.051   4.066
   5.08970   5.08970   5.08970
