; Topology for Mitomycin C concentration study
; Generated by setup_systems.sh

; Include the GROMOS 54A7 force field parameters.
#include "../../../mitomycin_c/gromos54a7_atb.ff/forcefield.itp"

; Include the specific topology file for your molecule.
#include "../../../mitomycin_c/mmc.itp"

; Include the water topology (SPC is the standard water model for GROMOS)
#include "../../../mitomycin_c/gromos54a7_atb.ff/spc.itp"

; Include topology for standard ions
#include "../../../mitomycin_c/gromos54a7_atb.ff/ions.itp"

[ system ]
; Name
72 X2IT Molecules Solvated in SPC Water in water

[ molecules ]
; Compound        #mols
X2IT              72
SOL              3298
