; Production MD at 325 K, 1 bar (semi-isotropic for membrane)
integrator               = md
dt                       = 0.002
nsteps                   = 250000000

nstxout                  = 0
nstvout                  = 0
nstenergy                = 5000
nstlog                   = 5000
nstxout-compressed       = 5000

continuation             = yes
constraint_algorithm     = lincs
constraints              = all-bonds
lincs_iter               = 1
lincs_order              = 4

cutoff-scheme            = Verlet
ns_type                  = grid
nstlist                  = 10
rcoulomb                 = 1.2
rvdw                     = 1.2

coulombtype              = PME
pme_order                = 4
fourierspacing           = 0.16

tcoupl                   = Nose-Hoover
tc-grps                  = DPPC X2IT SOL
tau_t                    = 0.5 0.5 0.5
ref_t                    = 325 325 325

pcoupl                   = Parrinello-Rahman
pcoupltype               = semiisotropic
tau_p                    = 2.0
ref_p                    = 1.0 1.0
compressibility          = 4.5e-5 4.5e-5

pbc                      = xyz
DispCorr                 = EnerPres

gen_vel                  = no
