UNITED ATOM STRUCTURE FOR MOLECULE UNK
12041
    0X2IT   H18    1   3.092   2.352   2.583
    0X2IT    N4    2   3.026   2.419   2.548
    0X2IT   H17    3   3.059   2.484   2.478
    0X2IT   C14    4   2.895   2.380   2.546
    0X2IT    O5    5   2.849   2.285   2.607
    0X2IT    O4    6   2.822   2.466   2.469
    0X2IT   C13    7   2.680   2.441   2.463
    0X2IT   C10    8   2.607   2.502   2.584
    0X2IT    C9    9   2.457   2.484   2.578
    0X2IT    C4   10   2.394   2.607   2.582
    0X2IT    C5   11   2.245   2.625   2.577
    0X2IT    O1   12   2.197   2.739   2.585
    0X2IT    C6   13   2.166   2.505   2.564
    0X2IT   C12   14   2.015   2.516   2.558
    0X2IT    C7   15   2.229   2.382   2.561
    0X2IT    C8   16   2.381   2.365   2.567
    0X2IT    O2   17   2.427   2.250   2.559
    0X2IT    N3   18   2.164   2.265   2.551
    0X2IT   H15   19   2.064   2.258   2.544
    0X2IT   H16   20   2.221   2.180   2.548
    0X2IT    N2   21   2.482   2.709   2.599
    0X2IT    C3   22   2.473   2.846   2.546
    0X2IT    C2   23   2.599   2.856   2.461
    0X2IT    H2   24   2.639   2.954   2.435
    0X2IT    N1   25   2.611   2.744   2.365
    0X2IT   H14   26   2.674   2.771   2.289
    0X2IT    C1   27   2.688   2.741   2.491
    0X2IT    H1   28   2.796   2.748   2.490
    0X2IT   C11   29   2.622   2.658   2.600
    0X2IT    O3   30   2.691   2.695   2.718
    0X2IT   C15   31   2.628   2.664   2.843
    1X2IT   H18   32   2.298   4.118   4.559
    1X2IT    N4   33   2.366   4.076   4.498
    1X2IT   H17   34   2.441   4.136   4.465
    1X2IT   C14   35   2.390   3.943   4.516
    1X2IT    O5   36   2.318   3.866   4.577
    1X2IT    O4   37   2.504   3.907   4.449
    1X2IT   C13   38   2.538   3.767   4.454
    1X2IT   C10   39   2.462   3.687   4.346
    1X2IT    C9   40   2.500   3.541   4.342
    1X2IT    C4   41   2.547   3.507   4.217
    1X2IT    C5   42   2.594   3.369   4.179
    1X2IT    O1   43   2.631   3.347   4.063
    1X2IT    C6   44   2.592   3.270   4.284
    1X2IT   C12   45   2.639   3.129   4.253
    1X2IT    C7   46   2.544   3.304   4.409
    1X2IT    C8   47   2.496   3.444   4.446
    1X2IT    O2   48   2.459   3.464   4.563
    1X2IT    N3   49   2.537   3.218   4.512
    1X2IT   H15   50   2.566   3.122   4.506
    1X2IT   H16   51   2.501   3.254   4.601
    1X2IT    N2   52   2.538   3.610   4.129
    1X2IT    C3   53   2.628   3.642   4.017
    1X2IT    C2   54   2.678   3.781   4.055
    1X2IT    H2   55   2.720   3.846   3.978
    1X2IT    N1   56   2.732   3.787   4.192
    1X2IT   H14   57   2.794   3.867   4.201
    1X2IT    C1   58   2.595   3.835   4.166
    1X2IT    H1   59   2.571   3.940   4.176
    1X2IT   C11   60   2.487   3.733   4.198
    1X2IT    O3   61   2.371   3.784   4.135
    1X2IT   C15   62   2.263   3.693   4.114
    2X2IT   H18   63   0.281   2.189   1.732
    2X2IT    N4   64   0.310   2.093   1.737
    2X2IT   H17   65   0.243   2.026   1.771
    2X2IT   C14   66   0.402   2.053   1.644
    2X2IT    O5   67   0.471   2.128   1.577
    2X2IT    O4   68   0.409   1.917   1.641
    2X2IT   C13   69   0.507   1.860   1.552
    2X2IT   C10   70   0.647   1.856   1.617
    2X2IT    C9   71   0.751   1.791   1.529
    2X2IT    C4   72   0.808   1.683   1.595
    2X2IT    C5   73   0.915   1.595   1.536
    2X2IT    O1   74   0.962   1.503   1.603
    2X2IT    C6   75   0.956   1.627   1.401
    2X2IT   C12   76   1.063   1.542   1.335
    2X2IT    C7   77   0.900   1.735   1.336
    2X2IT    C8   78   0.792   1.824   1.398
    2X2IT    O2   79   0.746   1.916   1.329
    2X2IT    N3   80   0.934   1.773   1.212
    2X2IT   H15   81   1.002   1.724   1.156
    2X2IT   H16   82   0.884   1.854   1.173
    2X2IT    N2   83   0.761   1.670   1.722
    2X2IT    C3   84   0.741   1.546   1.799
    2X2IT    C2   85   0.591   1.551   1.829
    2X2IT    H2   86   0.550   1.493   1.911
    2X2IT    N1   87   0.510   1.573   1.707
    2X2IT   H14   88   0.414   1.542   1.723
    2X2IT    C1   89   0.539   1.687   1.796
    2X2IT    H1   90   0.460   1.734   1.853
    2X2IT   C11   91   0.656   1.772   1.750
    2X2IT    O3   92   0.688   1.851   1.863
    2X2IT   C15   93   0.817   1.914   1.865
    3X2IT   H18   94   0.535   0.343   4.195
    3X2IT    N4   95   0.583   0.413   4.141
    3X2IT   H17   96   0.674   0.442   4.175
    3X2IT   C14   97   0.559   0.414   4.007
    3X2IT    O5   98   0.466   0.359   3.952
    3X2IT    O4   99   0.653   0.491   3.943
    3X2IT   C13  100   0.636   0.506   3.801
    3X2IT   C10  101   0.536   0.619   3.768
    3X2IT    C9  102   0.521   0.643   3.620
    3X2IT    C4  103   0.552   0.774   3.590
    3X2IT    C5  104   0.548   0.832   3.451
    3X2IT    O1  105   0.574   0.952   3.434
    3X2IT    C6  106   0.512   0.741   3.345
    3X2IT   C12  107   0.507   0.792   3.202
    3X2IT    C7  108   0.480   0.610   3.375
    3X2IT    C8  109   0.484   0.553   3.517
    3X2IT    O2  110   0.458   0.432   3.532
    3X2IT    N3  111   0.444   0.519   3.283
    3X2IT   H15  112   0.439   0.539   3.185
    3X2IT   H16  113   0.424   0.424   3.317
    3X2IT    N2  114   0.579   0.847   3.701
    3X2IT    C3  115   0.673   0.959   3.715
    3X2IT    C2  116   0.769   0.908   3.822
    3X2IT    H2  117   0.830   0.978   3.879
    3X2IT    N1  118   0.822   0.774   3.789
    3X2IT   H14  119   0.909   0.758   3.842
    3X2IT    C1  120   0.711   0.786   3.885
    3X2IT    H1  121   0.725   0.762   3.990
    3X2IT   C11  122   0.575   0.761   3.822
    3X2IT    O3  123   0.483   0.810   3.919
    3X2IT   C15  124   0.349   0.837   3.874
    4X2IT   H18  125   1.333   4.284   2.551
    4X2IT    N4  126   1.273   4.349   2.598
    4X2IT   H17  127   1.223   4.315   2.679
    4X2IT   C14  128   1.309   4.481   2.592
    4X2IT    O5  129   1.390   4.528   2.514
    4X2IT    O4  130   1.238   4.552   2.685
    4X2IT   C13  131   1.262   4.695   2.686
    4X2IT   C10  132   1.178   4.767   2.579
    4X2IT    C9  133   1.195   4.917   2.581
    4X2IT    C4  134   1.072   4.978   2.601
    4X2IT    C5  135   1.053   5.127   2.609
    4X2IT    O1  136   0.939   5.173   2.623
    4X2IT    C6  137   1.172   5.208   2.599
    4X2IT   C12  138   1.160   5.358   2.607
    4X2IT    C7  139   1.294   5.146   2.578
    4X2IT    C8  140   1.312   4.995   2.569
    4X2IT    O2  141   1.427   4.950   2.555
    4X2IT    N3  142   1.410   5.213   2.566
    4X2IT   H15  143   1.417   5.313   2.571
    4X2IT   H16  144   1.495   5.157   2.552
    4X2IT    N2  145   0.970   4.888   2.603
    4X2IT    C3  146   0.846   4.896   2.682
    4X2IT    C2  147   0.854   4.770   2.767
    4X2IT    H2  148   0.763   4.728   2.811
    4X2IT    N1  149   0.982   4.760   2.840
    4X2IT   H14  150   0.971   4.696   2.920
    4X2IT    C1  151   0.962   4.682   2.716
    4X2IT    H1  152   0.957   4.574   2.718
    4X2IT   C11  153   1.022   4.749   2.593
    4X2IT    O3  154   0.964   4.679   2.484
    4X2IT   C15  155   0.970   4.743   2.355
    5X2IT   H18  156   4.514   0.075   2.648
    5X2IT    N4  157   4.496   0.101   2.743
    5X2IT   H17  158   4.526   0.037   2.815
    5X2IT   C14  159   4.495   0.235   2.769
    5X2IT    O5  160   4.485   0.323   2.685
    5X2IT    O4  161   4.500   0.256   2.904
    5X2IT   C13  162   4.493   0.393   2.948
    5X2IT   C10  163   4.347   0.442   2.956
    5X2IT    C9  164   4.334   0.583   3.007
    5X2IT    C4  165   4.255   0.585   3.121
    5X2IT    C5  166   4.222   0.710   3.198
    5X2IT    O1  167   4.147   0.703   3.296
    5X2IT    C6  168   4.282   0.833   3.150
    5X2IT   C12  169   4.253   0.962   3.223
    5X2IT    C7  170   4.360   0.830   3.036
    5X2IT    C8  171   4.392   0.703   2.958
    5X2IT    O2  172   4.467   0.712   2.860
    5X2IT    N3  173   4.418   0.939   2.983
    5X2IT   H15  174   4.409   1.031   3.023
    5X2IT   H16  175   4.475   0.926   2.899
    5X2IT    N2  176   4.203   0.463   3.149
    5X2IT    C3  177   4.174   0.406   3.282
    5X2IT    C2  178   4.262   0.282   3.284
    5X2IT    H2  179   4.239   0.201   3.353
    5X2IT    N1  180   4.403   0.313   3.250
    5X2IT   H14  181   4.463   0.239   3.286
    5X2IT    C1  182   4.313   0.256   3.147
    5X2IT    H1  183   4.330   0.156   3.109
    5X2IT   C11  184   4.254   0.361   3.054
    5X2IT    O3  185   4.149   0.293   2.988
    5X2IT   C15  186   4.050   0.373   2.923
    6X2IT   H18  187   0.021   2.923   1.628
    6X2IT    N4  188   0.094   2.970   1.681
    6X2IT   H17  189   0.188   2.959   1.647
    6X2IT   C14  190   0.058   3.085   1.744
    6X2IT    O5  191  -0.056   3.121   1.766
    6X2IT    O4  192   0.170   3.153   1.784
    6X2IT   C13  193   0.148   3.274   1.859
    6X2IT   C10  194   0.123   3.244   2.008
    6X2IT    C9  195   0.107   3.369   2.091
    6X2IT    C4  196   0.201   3.373   2.192
    6X2IT    C5  197   0.213   3.484   2.292
    6X2IT    O1  198   0.299   3.477   2.381
    6X2IT    C6  199   0.120   3.594   2.278
    6X2IT   C12  200   0.127   3.710   2.375
    6X2IT    C7  201   0.025   3.590   2.178
    6X2IT    C8  202   0.014   3.475   2.077
    6X2IT    O2  203  -0.073   3.484   1.989
    6X2IT    N3  204  -0.067   3.686   2.158
    6X2IT   H15  205  -0.072   3.769   2.214
    6X2IT   H16  206  -0.131   3.673   2.080
    6X2IT    N2  207   0.278   3.261   2.194
    6X2IT    C3  208   0.419   3.248   2.232
    6X2IT    C2  209   0.482   3.193   2.105
    6X2IT    H2  210   0.578   3.142   2.110
    6X2IT    N1  211   0.448   3.274   1.986
    6X2IT   H14  212   0.517   3.257   1.912
    6X2IT    C1  213   0.375   3.148   2.012
    6X2IT    H1  214   0.385   3.063   1.946
    6X2IT   C11  215   0.241   3.170   2.082
    6X2IT    O3  216   0.205   3.041   2.128
    6X2IT   C15  217   0.104   3.033   2.229
    7X2IT   H18  218   1.412   1.860   1.805
    7X2IT    N4  219   1.457   1.794   1.745
    7X2IT   H17  220   1.481   1.704   1.784
    7X2IT   C14  221   1.425   1.802   1.612
    7X2IT    O5  222   1.370   1.897   1.558
    7X2IT    O4  223   1.467   1.689   1.547
    7X2IT   C13  224   1.446   1.686   1.404
    7X2IT   C10  225   1.558   1.760   1.329
    7X2IT    C9  226   1.544   1.753   1.179
    7X2IT    C4  227   1.656   1.695   1.123
    7X2IT    C5  228   1.674   1.673   0.975
    7X2IT    O1  229   1.780   1.624   0.933
    7X2IT    C6  230   1.564   1.712   0.891
    7X2IT   C12  231   1.575   1.691   0.741
    7X2IT    C7  232   1.452   1.770   0.947
    7X2IT    C8  233   1.435   1.793   1.097
    7X2IT    O2  234   1.329   1.843   1.137
    7X2IT    N3  235   1.345   1.811   0.876
    7X2IT   H15  236   1.339   1.802   0.776
    7X2IT   H16  237   1.267   1.852   0.928
    7X2IT    N2  238   1.752   1.669   1.215
    7X2IT    C3  239   1.849   1.558   1.216
    7X2IT    C2  240   1.814   1.487   1.346
    7X2IT    H2  241   1.888   1.421   1.393
    7X2IT    N1  242   1.670   1.454   1.357
    7X2IT   H14  243   1.657   1.379   1.424
    7X2IT    C1  244   1.724   1.572   1.428
    7X2IT    H1  245   1.727   1.575   1.536
    7X2IT   C11  246   1.703   1.703   1.352
    7X2IT    O3  247   1.789   1.794   1.418
    7X2IT   C15  248   1.822   1.915   1.347
    8X2IT   H18  249   4.232   2.023   0.946
    8X2IT    N4  250   4.313   2.081   0.931
    8X2IT   H17  251   4.341   2.097   0.836
    8X2IT   C14  252   4.336   2.178   1.025
    8X2IT    O5  253   4.286   2.182   1.136
    8X2IT    O4  254   4.429   2.266   0.978
    8X2IT   C13  255   4.469   2.371   1.069
    8X2IT   C10  256   4.578   2.323   1.165
    8X2IT    C9  257   4.628   2.431   1.258
    8X2IT    C4  258   4.764   2.449   1.242
    8X2IT    C5  259   4.845   2.550   1.318
    8X2IT    O1  260   4.968   2.556   1.301
    8X2IT    C6  261   4.773   2.634   1.411
    8X2IT   C12  262   4.848   2.738   1.491
    8X2IT    C7  263   4.637   2.616   1.427
    8X2IT    C8  264   4.556   2.512   1.349
    8X2IT    O2  265   4.433   2.507   1.368
    8X2IT    N3  266   4.561   2.688   1.511
    8X2IT   H15  267   4.598   2.761   1.569
    8X2IT   H16  268   4.461   2.667   1.514
    8X2IT    N2  269   4.818   2.359   1.155
    8X2IT    C3  270   4.931   2.378   1.063
    8X2IT    C2  271   4.867   2.352   0.928
    8X2IT    H2  272   4.929   2.326   0.842
    8X2IT    N1  273   4.745   2.433   0.907
    8X2IT   H14  274   4.725   2.440   0.807
    8X2IT    C1  275   4.733   2.291   0.947
    8X2IT    H1  276   4.691   2.218   0.880
    8X2IT   C11  277   4.711   2.273   1.097
    8X2IT    O3  278   4.736   2.135   1.118
    8X2IT   C15  279   4.762   2.094   1.253
    9X2IT   H18  280   2.617   1.470   3.269
    9X2IT    N4  281   2.684   1.396   3.263
    9X2IT   H17  282   2.701   1.342   3.347
    9X2IT   C14  283   2.696   1.334   3.141
    9X2IT    O5  284   2.654   1.379   3.036
    9X2IT    O4  285   2.765   1.218   3.155
    9X2IT   C13  286   2.792   1.145   3.033
    9X2IT   C10  287   2.916   1.200   2.960
    9X2IT    C9  288   2.951   1.122   2.835
    9X2IT    C4  289   3.080   1.073   2.845
    9X2IT    C5  290   3.145   0.990   2.738
    9X2IT    O1  291   3.263   0.953   2.753
    9X2IT    C6  292   3.066   0.959   2.622
    9X2IT   C12  293   3.126   0.876   2.511
    9X2IT    C7  294   2.937   1.009   2.612
    9X2IT    C8  295   2.872   1.094   2.721
    9X2IT    O2  296   2.754   1.131   2.704
    9X2IT    N3  297   2.856   0.988   2.507
    9X2IT   H15  298   2.883   0.933   2.428
    9X2IT   H16  299   2.763   1.029   2.512
    9X2IT    N2  300   3.142   1.114   2.958
    9X2IT    C3  301   3.242   1.041   3.038
    9X2IT    C2  302   3.174   1.032   3.174
    9X2IT    H2  303   3.234   1.013   3.263
    9X2IT    N1  304   3.037   0.976   3.164
    9X2IT   H14  305   3.009   0.939   3.255
    9X2IT    C1  306   3.056   1.122   3.176
    9X2IT    H1  307   3.023   1.174   3.265
    9X2IT   C11  308   3.050   1.195   3.043
    9X2IT    O3  309   3.102   1.323   3.071
    9X2IT   C15  310   3.146   1.402   2.960
   10X2IT   H18  311   1.214   0.081  -0.172
   10X2IT    N4  312   1.250   0.096  -0.080
   10X2IT   H17  313   1.260   0.016  -0.020
   10X2IT   C14  314   1.338   0.200  -0.066
   10X2IT    O5  315   1.354   0.290  -0.147
   10X2IT    O4  316   1.402   0.191   0.054
   10X2IT   C13  317   1.493   0.299   0.086
   10X2IT   C10  318   1.419   0.420   0.145
   10X2IT    C9  319   1.512   0.532   0.186
   10X2IT    C4  320   1.496   0.560   0.320
   10X2IT    C5  321   1.574   0.666   0.393
   10X2IT    O1  322   1.551   0.687   0.513
   10X2IT    C6  323   1.673   0.738   0.316
   10X2IT   C12  324   1.755   0.846   0.384
   10X2IT    C7  325   1.688   0.710   0.182
   10X2IT    C8  326   1.607   0.603   0.108
   10X2IT    O2  327   1.632   0.583  -0.012
   10X2IT    N3  328   1.776   0.773   0.102
   10X2IT   H15  329   1.838   0.845   0.134
   10X2IT   H16  330   1.779   0.743   0.004
   10X2IT    N2  331   1.397   0.487   0.376
   10X2IT    C3  332   1.389   0.437   0.514
   10X2IT    C2  333   1.380   0.286   0.493
   10X2IT    H2  334   1.340   0.222   0.572
   10X2IT    N1  335   1.488   0.235   0.405
   10X2IT   H14  336   1.500   0.135   0.421
   10X2IT    C1  337   1.353   0.258   0.349
   10X2IT    H1  338   1.293   0.175   0.316
   10X2IT   C11  339   1.340   0.392   0.278
   10X2IT    O3  340   1.200   0.408   0.263
   10X2IT   C15  341   1.152   0.541   0.234
   11X2IT   H18  342   0.412   4.583   3.702
   11X2IT    N4  343   0.351   4.632   3.765
   11X2IT   H17  344   0.280   4.691   3.724
   11X2IT   C14  345   0.325   4.570   3.884
   11X2IT    O5  346   0.390   4.478   3.931
   11X2IT    O4  347   0.219   4.630   3.946
   11X2IT   C13  348   0.185   4.580   4.076
   11X2IT   C10  349   0.272   4.643   4.186
   11X2IT    C9  350   0.234   4.598   4.325
   11X2IT    C4  351   0.201   4.707   4.403
   11X2IT    C5  352   0.158   4.697   4.547
   11X2IT    O1  353   0.134   4.801   4.611
   11X2IT    C6  354   0.149   4.564   4.603
   11X2IT   C12  355   0.105   4.547   4.747
   11X2IT    C7  356   0.183   4.455   4.525
   11X2IT    C8  357   0.227   4.467   4.379
   11X2IT    O2  358   0.251   4.362   4.317
   11X2IT    N3  359   0.179   4.328   4.568
   11X2IT   H15  360   0.150   4.303   4.661
   11X2IT   H16  361   0.205   4.255   4.501
   11X2IT    N2  362   0.220   4.824   4.338
   11X2IT    C3  363   0.142   4.949   4.352
   11X2IT    C2  364   0.089   4.969   4.210
   11X2IT    H2  365   0.056   5.068   4.179
   11X2IT    N1  366   0.020   4.849   4.158
   11X2IT   H14  367  -0.042   4.876   4.082
   11X2IT    C1  368   0.159   4.877   4.117
   11X2IT    H1  369   0.183   4.903   4.015
   11X2IT   C11  370   0.263   4.800   4.197
   11X2IT    O3  371   0.385   4.864   4.167
   11X2IT   C15  372   0.495   4.840   4.256
   12X2IT   H18  373   0.536   3.500   4.113
   12X2IT    N4  374   0.439   3.500   4.139
   12X2IT   H17  375   0.401   3.585   4.178
   12X2IT   C14  376   0.357   3.418   4.066
   12X2IT    O5  377   0.394   3.328   3.994
   12X2IT    O4  378   0.226   3.450   4.090
   12X2IT   C13  379   0.128   3.367   4.025
   12X2IT   C10  380   0.101   3.238   4.104
   12X2IT    C9  381  -0.007   3.152   4.042
   12X2IT    C4  382  -0.109   3.131   4.133
   12X2IT    C5  383  -0.232   3.050   4.103
   12X2IT    O1  384  -0.317   3.034   4.192
   12X2IT    C6  385  -0.243   2.995   3.971
   12X2IT   C12  386  -0.364   2.913   3.934
   12X2IT    C7  387  -0.140   3.015   3.880
   12X2IT    C8  388  -0.014   3.097   3.912
   12X2IT    O2  389   0.069   3.112   3.822
   12X2IT    N3  390  -0.140   2.966   3.755
   12X2IT   H15  391  -0.215   2.912   3.717
   12X2IT   H16  392  -0.059   2.989   3.696
   12X2IT    N2  393  -0.081   3.186   4.254
   12X2IT    C3  394  -0.176   3.244   4.351
   12X2IT    C2  395  -0.125   3.387   4.363
   12X2IT    H2  396  -0.152   3.447   4.450
   12X2IT    N1  397  -0.109   3.453   4.231
   12X2IT   H14  398  -0.110   3.554   4.243
   12X2IT    C1  399   0.009   3.397   4.300
   12X2IT    H1  400   0.087   3.463   4.337
   12X2IT   C11  401   0.048   3.259   4.251
   12X2IT    O3  402   0.139   3.212   4.349
   12X2IT   C15  403   0.164   3.071   4.352
   13X2IT   H18  404   3.254   2.933   4.480
   13X2IT    N4  405   3.223   3.027   4.469
   13X2IT   H17  406   3.227   3.088   4.549
   13X2IT   C14  407   3.238   3.082   4.344
   13X2IT    O5  408   3.261   3.019   4.242
   13X2IT    O4  409   3.221   3.217   4.350
   13X2IT   C13  410   3.228   3.287   4.224
   13X2IT   C10  411   3.094   3.282   4.149
   13X2IT    C9  412   3.095   3.361   4.020
   13X2IT    C4  413   2.997   3.458   4.022
   13X2IT    C5  414   2.971   3.554   3.909
   13X2IT    O1  415   2.878   3.635   3.918
   13X2IT    C6  416   3.059   3.544   3.795
   13X2IT   C12  417   3.039   3.638   3.678
   13X2IT    C7  418   3.157   3.446   3.793
   13X2IT    C8  419   3.181   3.348   3.908
   13X2IT    O2  420   3.275   3.268   3.897
   13X2IT    N3  421   3.242   3.428   3.690
   13X2IT   H15  422   3.241   3.485   3.607
   13X2IT   H16  423   3.311   3.353   3.700
   13X2IT    N2  424   2.920   3.451   4.134
   13X2IT    C3  425   2.856   3.561   4.207
   13X2IT    C2  426   2.920   3.551   4.345
   13X2IT    H2  427   2.871   3.596   4.431
   13X2IT    N1  428   3.068   3.547   4.338
   13X2IT   H14  429   3.107   3.575   4.428
   13X2IT    C1  430   2.992   3.422   4.355
   13X2IT    H1  431   2.999   3.365   4.448
   13X2IT   C11  432   2.971   3.345   4.226
   13X2IT    O3  433   2.872   3.250   4.258
   13X2IT   C15  434   2.802   3.189   4.148
   14X2IT   H18  435   2.005   4.117   1.779
   14X2IT    N4  436   1.926   4.097   1.839
   14X2IT   H17  437   1.887   4.175   1.890
   14X2IT   C14  438   1.845   3.995   1.800
   14X2IT    O5  439   1.874   3.910   1.717
   14X2IT    O4  440   1.728   3.999   1.870
   14X2IT   C13  441   1.635   3.892   1.844
   14X2IT   C10  442   1.669   3.766   1.926
   14X2IT    C9  443   1.570   3.654   1.907
   14X2IT    C4  444   1.515   3.618   2.029
   14X2IT    C5  445   1.411   3.510   2.045
   14X2IT    O1  446   1.370   3.481   2.159
   14X2IT    C6  447   1.367   3.444   1.925
   14X2IT   C12  448   1.263   3.334   1.934
   14X2IT    C7  449   1.423   3.479   1.803
   14X2IT    C8  450   1.528   3.589   1.788
   14X2IT    O2  451   1.568   3.616   1.673
   14X2IT    N3  452   1.389   3.423   1.686
   14X2IT   H15  453   1.320   3.351   1.678
   14X2IT   H16  454   1.436   3.458   1.602
   14X2IT    N2  455   1.570   3.685   2.132
   14X2IT    C3  456   1.506   3.729   2.257
   14X2IT    C2  457   1.523   3.880   2.252
   14X2IT    H2  458   1.516   3.938   2.344
   14X2IT    N1  459   1.475   3.937   2.124
   14X2IT   H14  460   1.455   4.037   2.137
   14X2IT    C1  461   1.619   3.915   2.144
   14X2IT    H1  462   1.688   3.998   2.151
   14X2IT   C11  463   1.669   3.785   2.082
   14X2IT    O3  464   1.797   3.766   2.140
   14X2IT   C15  465   1.854   3.635   2.132
   15X2IT   H18  466   2.090   4.268   1.653
   15X2IT    N4  467   2.184   4.263   1.621
   15X2IT   H17  468   2.248   4.206   1.674
   15X2IT   C14  469   2.204   4.275   1.486
   15X2IT    O5  470   2.122   4.319   1.407
   15X2IT    O4  471   2.330   4.236   1.453
   15X2IT   C13  472   2.367   4.250   1.314
   15X2IT   C10  473   2.414   4.393   1.282
   15X2IT    C9  474   2.460   4.410   1.139
   15X2IT    C4  475   2.591   4.455   1.137
   15X2IT    C5  476   2.667   4.481   1.010
   15X2IT    O1  477   2.783   4.525   1.017
   15X2IT    C6  478   2.599   4.454   0.886
   15X2IT   C12  479   2.671   4.478   0.755
   15X2IT    C7  480   2.468   4.410   0.889
   15X2IT    C8  481   2.390   4.384   1.019
   15X2IT    O2  482   2.275   4.340   1.010
   15X2IT    N3  483   2.395   4.384   0.779
   15X2IT   H15  484   2.431   4.393   0.686
   15X2IT   H16  485   2.300   4.350   0.793
   15X2IT    N2  486   2.639   4.480   1.261
   15X2IT    C3  487   2.777   4.464   1.309
   15X2IT    C2  488   2.760   4.363   1.422
   15X2IT    H2  489   2.837   4.354   1.499
   15X2IT    N1  490   2.687   4.242   1.378
   15X2IT   H14  491   2.707   4.165   1.442
   15X2IT    C1  492   2.616   4.347   1.454
   15X2IT    H1  493   2.579   4.329   1.554
   15X2IT   C11  494   2.538   4.443   1.365
   15X2IT    O3  495   2.508   4.552   1.450
   15X2IT   C15  496   2.469   4.675   1.387
   16X2IT   H18  497   1.476   2.974   1.252
   16X2IT    N4  498   1.575   2.988   1.241
   16X2IT   H17  499   1.605   3.050   1.167
   16X2IT   C14  500   1.651   2.980   1.355
   16X2IT    O5  501   1.614   2.930   1.460
   16X2IT    O4  502   1.775   3.031   1.331
   16X2IT   C13  503   1.869   3.023   1.441
   16X2IT   C10  504   1.937   2.885   1.447
   16X2IT    C9  505   2.040   2.874   1.556
   16X2IT    C4  506   2.163   2.841   1.502
   16X2IT    C5  507   2.288   2.823   1.583
   16X2IT    O1  508   2.394   2.790   1.527
   16X2IT    C6  509   2.277   2.846   1.725
   16X2IT   C12  510   2.399   2.830   1.813
   16X2IT    C7  511   2.154   2.878   1.779
   16X2IT    C8  512   2.027   2.895   1.696
   16X2IT    O2  513   1.922   2.928   1.754
   16X2IT    N3  514   2.133   2.899   1.910
   16X2IT   H15  515   2.206   2.894   1.979
   16X2IT   H16  516   2.038   2.924   1.939
   16X2IT    N2  517   2.156   2.819   1.368
   16X2IT    C3  518   2.259   2.846   1.267
   16X2IT    C2  519   2.187   2.944   1.174
   16X2IT    H2  520   2.223   2.958   1.072
   16X2IT    N1  521   2.129   3.058   1.248
   16X2IT   H14  522   2.114   3.136   1.183
   16X2IT    C1  523   2.042   2.946   1.207
   16X2IT    H1  524   1.965   2.959   1.133
   16X2IT   C11  525   2.018   2.845   1.318
   16X2IT    O3  526   1.964   2.732   1.251
   16X2IT   C15  527   1.967   2.607   1.321
   17X2IT   H18  528   1.244   2.697   3.616
   17X2IT    N4  529   1.315   2.677   3.548
   17X2IT   H17  530   1.364   2.756   3.507
   17X2IT   C14  531   1.380   2.558   3.561
   17X2IT    O5  532   1.342   2.464   3.630
   17X2IT    O4  533   1.492   2.557   3.483
   17X2IT   C13  534   1.568   2.434   3.482
   17X2IT   C10  535   1.509   2.332   3.383
   17X2IT    C9  536   1.590   2.205   3.374
   17X2IT    C4  537   1.632   2.184   3.244
   17X2IT    C5  538   1.715   2.067   3.200
   17X2IT    O1  539   1.745   2.054   3.081
   17X2IT    C6  540   1.755   1.974   3.303
   17X2IT   C12  541   1.839   1.853   3.266
   17X2IT    C7  542   1.712   1.994   3.433
   17X2IT    C8  543   1.626   2.114   3.476
   17X2IT    O2  544   1.598   2.124   3.596
   17X2IT    N3  545   1.742   1.913   3.536
   17X2IT   H15  546   1.799   1.830   3.525
   17X2IT   H16  547   1.706   1.938   3.628
   17X2IT    N2  548   1.582   2.277   3.159
   17X2IT    C3  549   1.646   2.333   3.038
   17X2IT    C2  550   1.654   2.481   3.071
   17X2IT    H2  551   1.666   2.554   2.991
   17X2IT    N1  552   1.718   2.506   3.202
   17X2IT   H14  553   1.753   2.602   3.205
   17X2IT    C1  554   1.571   2.510   3.191
   17X2IT    H1  555   1.517   2.602   3.204
   17X2IT   C11  556   1.504   2.380   3.233
   17X2IT    O3  557   1.372   2.392   3.183
   17X2IT   C15  558   1.295   2.271   3.173
   18X2IT   H18  559   2.988   4.049   0.435
   18X2IT    N4  560   2.952   4.040   0.342
   18X2IT   H17  561   2.979   3.957   0.290
   18X2IT   C14  562   2.829   4.096   0.319
   18X2IT    O5  563   2.775   4.179   0.390
   18X2IT    O4  564   2.779   4.050   0.200
   18X2IT   C13  565   2.653   4.106   0.159
   18X2IT   C10  566   2.672   4.241   0.088
   18X2IT    C9  567   2.542   4.300   0.037
   18X2IT    C4  568   2.549   4.320  -0.100
   18X2IT    C5  569   2.437   4.377  -0.183
   18X2IT    O1  570   2.454   4.395  -0.304
   18X2IT    C6  571   2.315   4.408  -0.112
   18X2IT   C12  572   2.198   4.465  -0.190
   18X2IT    C7  573   2.308   4.389   0.024
   18X2IT    C8  574   2.424   4.332   0.107
   18X2IT    O2  575   2.405   4.315   0.229
   18X2IT    N3  576   2.200   4.417   0.098
   18X2IT   H15  577   2.115   4.453   0.059
   18X2IT   H16  578   2.206   4.398   0.199
   18X2IT    N2  579   2.672   4.290  -0.150
   18X2IT    C3  580   2.705   4.235  -0.282
   18X2IT    C2  581   2.775   4.104  -0.246
   18X2IT    H2  582   2.840   4.056  -0.318
   18X2IT    N1  583   2.695   4.022  -0.153
   18X2IT   H14  584   2.726   3.924  -0.158
   18X2IT    C1  585   2.806   4.104  -0.101
   18X2IT    H1  586   2.894   4.057  -0.059
   18X2IT   C11  587   2.761   4.237  -0.042
   18X2IT    O3  588   2.880   4.311  -0.030
   18X2IT   C15  589   2.868   4.453  -0.015
   19X2IT   H18  590   0.693   0.608   1.937
   19X2IT    N4  591   0.664   0.703   1.948
   19X2IT   H17  592   0.666   0.761   1.865
   19X2IT   C14  593   0.570   0.728   2.044
   19X2IT    O5  594   0.540   0.652   2.134
   19X2IT    O4  595   0.517   0.853   2.026
   19X2IT   C13  596   0.421   0.896   2.125
   19X2IT   C10  597   0.491   0.953   2.250
   19X2IT    C9  598   0.394   1.005   2.353
   19X2IT    C4  599   0.419   1.139   2.379
   19X2IT    C5  600   0.340   1.222   2.476
   19X2IT    O1  601   0.372   1.340   2.496
   19X2IT    C6  602   0.230   1.156   2.542
   19X2IT   C12  603   0.146   1.234   2.641
   19X2IT    C7  604   0.205   1.023   2.517
   19X2IT    C8  605   0.287   0.939   2.419
   19X2IT    O2  606   0.253   0.821   2.400
   19X2IT    N3  607   0.106   0.953   2.575
   19X2IT   H15  608   0.042   0.993   2.641
   19X2IT   H16  609   0.096   0.854   2.548
   19X2IT    N2  610   0.528   1.184   2.313
   19X2IT    C3  611   0.552   1.319   2.259
   19X2IT    C2  612   0.571   1.291   2.110
   19X2IT    H2  613   0.622   1.364   2.048
   19X2IT    N1  614   0.460   1.212   2.054
   19X2IT   H14  615   0.456   1.225   1.952
   19X2IT    C1  616   0.587   1.145   2.089
   19X2IT    H1  617   0.650   1.104   2.012
   19X2IT   C11  618   0.584   1.077   2.225
   19X2IT    O3  619   0.720   1.051   2.253
   19X2IT   C15  620   0.755   1.023   2.389
   20X2IT   H18  621   1.505   1.586   1.959
   20X2IT    N4  622   1.572   1.560   2.030
   20X2IT   H17  623   1.662   1.528   1.999
   20X2IT   C14  624   1.562   1.627   2.149
   20X2IT    O5  625   1.466   1.693   2.185
   20X2IT    O4  626   1.674   1.606   2.223
   20X2IT   C13  627   1.676   1.666   2.355
   20X2IT   C10  628   1.602   1.577   2.457
   20X2IT    C9  629   1.607   1.633   2.598
   20X2IT    C4  630   1.665   1.541   2.683
   20X2IT    C5  631   1.687   1.565   2.830
   20X2IT    O1  632   1.736   1.476   2.900
   20X2IT    C6  633   1.645   1.694   2.881
   20X2IT   C12  634   1.664   1.724   3.028
   20X2IT    C7  635   1.586   1.785   2.796
   20X2IT    C8  636   1.564   1.759   2.646
   20X2IT    O2  637   1.514   1.850   2.578
   20X2IT    N3  638   1.543   1.906   2.834
   20X2IT   H15  639   1.551   1.940   2.928
   20X2IT   H16  640   1.502   1.966   2.762
   20X2IT    N2  641   1.694   1.424   2.621
   20X2IT    C3  642   1.806   1.333   2.647
   20X2IT    C2  643   1.879   1.331   2.514
   20X2IT    H2  644   1.946   1.248   2.490
   20X2IT    N1  645   1.909   1.467   2.464
   20X2IT   H14  646   1.986   1.462   2.396
   20X2IT    C1  647   1.793   1.394   2.410
   20X2IT    H1  648   1.791   1.361   2.307
   20X2IT   C11  649   1.662   1.433   2.476
   20X2IT    O3  650   1.572   1.331   2.436
   20X2IT   C15  651   1.451   1.317   2.511
   21X2IT   H18  652   2.619   0.780   1.242
   21X2IT    N4  653   2.544   0.840   1.274
   21X2IT   H17  654   2.508   0.907   1.208
   21X2IT   C14  655   2.460   0.787   1.368
   21X2IT    O5  656   2.484   0.689   1.436
   21X2IT    O4  657   2.348   0.865   1.379
   21X2IT   C13  658   2.253   0.825   1.480
   21X2IT   C10  659   2.293   0.879   1.618
   21X2IT    C9  660   2.192   0.846   1.726
   21X2IT    C4  661   2.145   0.962   1.785
   21X2IT    C5  662   2.043   0.965   1.895
   21X2IT    O1  663   2.009   1.073   1.945
   21X2IT    C6  664   1.990   0.837   1.937
   21X2IT   C12  665   1.887   0.832   2.048
   21X2IT    C7  666   2.038   0.721   1.879
   21X2IT    C8  667   2.143   0.720   1.767
   21X2IT    O2  668   2.175   0.610   1.719
   21X2IT    N3  669   1.997   0.598   1.913
   21X2IT   H15  670   1.927   0.581   1.983
   21X2IT   H16  671   2.038   0.519   1.862
   21X2IT    N2  672   2.207   1.073   1.737
   21X2IT    C3  673   2.151   1.208   1.719
   21X2IT    C2  674   2.168   1.230   1.569
   21X2IT    H2  675   2.168   1.331   1.529
   21X2IT    N1  676   2.112   1.119   1.489
   21X2IT   H14  677   2.094   1.151   1.394
   21X2IT    C1  678   2.257   1.125   1.514
   21X2IT    H1  679   2.326   1.143   1.432
   21X2IT   C11  680   2.303   1.036   1.629
   21X2IT    O3  681   2.434   1.081   1.657
   21X2IT   C15  682   2.490   1.045   1.784
   22X2IT   H18  683   4.568  -0.177   3.572
   22X2IT    N4  684   4.502  -0.118   3.619
   22X2IT   H17  685   4.404  -0.138   3.606
   22X2IT   C14  686   4.544  -0.064   3.738
   22X2IT    O5  687   4.659  -0.058   3.776
   22X2IT    O4  688   4.437  -0.013   3.806
   22X2IT   C13  689   4.467   0.054   3.931
   22X2IT   C10  690   4.510   0.200   3.908
   22X2IT    C9  691   4.536   0.275   4.036
   22X2IT    C4  692   4.454   0.386   4.043
   22X2IT    C5  693   4.454   0.483   4.158
   22X2IT    O1  694   4.380   0.582   4.154
   22X2IT    C6  695   4.542   0.452   4.268
   22X2IT   C12  696   4.546   0.545   4.388
   22X2IT    C7  697   4.624   0.341   4.261
   22X2IT    C8  698   4.624   0.244   4.142
   22X2IT    O2  699   4.699   0.145   4.148
   22X2IT    N3  700   4.711   0.306   4.357
   22X2IT   H15  701   4.722   0.357   4.443
   22X2IT   H16  702   4.765   0.220   4.342
   22X2IT    N2  703   4.381   0.403   3.930
   22X2IT    C3  704   4.245   0.459   3.918
   22X2IT    C2  705   4.168   0.343   3.857
   22X2IT    H2  706   4.074   0.363   3.805
   22X2IT    N1  707   4.185   0.218   3.933
   22X2IT   H14  708   4.108   0.154   3.912
   22X2IT    C1  709   4.263   0.240   3.809
   22X2IT    H1  710   4.245   0.179   3.721
   22X2IT   C11  711   4.404   0.291   3.835
   22X2IT    O3  712   4.448   0.337   3.709
   22X2IT   C15  713   4.561   0.425   3.707
   23X2IT   H18  714   3.427   1.367   2.634
   23X2IT    N4  715   3.501   1.386   2.699
   23X2IT   H17  716   3.579   1.441   2.666
   23X2IT   C14  717   3.466   1.394   2.831
   23X2IT    O5  718   3.361   1.354   2.878
   23X2IT    O4  719   3.568   1.450   2.903
   23X2IT   C13  720   3.547   1.458   3.046
   23X2IT   C10  721   3.581   1.326   3.116
   23X2IT    C9  722   3.567   1.333   3.266
   23X2IT    C4  723   3.688   1.301   3.327
   23X2IT    C5  724   3.709   1.300   3.476
   23X2IT    O1  725   3.819   1.267   3.521
   23X2IT    C6  726   3.595   1.337   3.557
   23X2IT   C12  727   3.610   1.338   3.708
   23X2IT    C7  728   3.475   1.367   3.497
   23X2IT    C8  729   3.455   1.368   3.345
   23X2IT    O2  730   3.343   1.401   3.301
   23X2IT    N3  731   3.364   1.401   3.564
   23X2IT   H15  732   3.360   1.408   3.664
   23X2IT   H16  733   3.281   1.423   3.509
   23X2IT    N2  734   3.782   1.265   3.237
   23X2IT    C3  735   3.928   1.287   3.244
   23X2IT    C2  736   3.954   1.370   3.119
   23X2IT    H2  737   4.054   1.375   3.077
   23X2IT    N1  738   3.865   1.488   3.110
   23X2IT   H14  739   3.906   1.557   3.048
   23X2IT    C1  740   3.833   1.367   3.032
   23X2IT    H1  741   3.839   1.368   2.924
   23X2IT   C11  742   3.730   1.277   3.098
   23X2IT    O3  743   3.740   1.155   3.027
   23X2IT   C15  744   3.684   1.038   3.088
   24X2IT   H18  745   0.348   4.853   4.464
   24X2IT    N4  746   0.329   4.921   4.535
   24X2IT   H17  747   0.269   4.998   4.510
   24X2IT   C14  748   0.330   4.876   4.664
   24X2IT    O5  749   0.378   4.770   4.701
   24X2IT    O4  750   0.273   4.970   4.746
   24X2IT   C13  751   0.273   4.939   4.887
   24X2IT   C10  752   0.407   4.976   4.953
   24X2IT    C9  753   0.408   4.951   5.102
   24X2IT    C4  754   0.437   5.069   5.169
   24X2IT    C5  755   0.445   5.080   5.319
   24X2IT    O1  756   0.475   5.188   5.370
   24X2IT    C6  757   0.418   4.959   5.394
   24X2IT   C12  758   0.424   4.964   5.545
   24X2IT    C7  759   0.390   4.842   5.326
   24X2IT    C8  760   0.383   4.832   5.174
   24X2IT    O2  761   0.353   4.722   5.124
   24X2IT    N3  762   0.366   4.725   5.387
   24X2IT   H15  763   0.365   4.714   5.487
   24X2IT   H16  764   0.345   4.645   5.327
   24X2IT    N2  765   0.464   5.171   5.084
   24X2IT    C3  766   0.435   5.314   5.102
   24X2IT    C2  767   0.345   5.344   4.984
   24X2IT    H2  768   0.332   5.447   4.950
   24X2IT    N1  769   0.231   5.250   4.975
   24X2IT   H14  770   0.156   5.292   4.919
   24X2IT    C1  771   0.349   5.230   4.888
   24X2IT    H1  772   0.342   5.243   4.781
   24X2IT   C11  773   0.447   5.128   4.943
   24X2IT    O3  774   0.565   5.149   4.866
   24X2IT   C15  775   0.687   5.095   4.918
   25X2IT   H18  776   1.229   2.317   4.846
   25X2IT    N4  777   1.250   2.400   4.794
   25X2IT   H17  778   1.255   2.392   4.693
   25X2IT   C14  779   1.208   2.519   4.849
   25X2IT    O5  780   1.174   2.534   4.965
   25X2IT    O4  781   1.215   2.618   4.756
   25X2IT   C13  782   1.181   2.751   4.802
   25X2IT   C10  783   1.300   2.819   4.871
   25X2IT    C9  784   1.270   2.961   4.914
   25X2IT    C4  785   1.359   3.049   4.856
   25X2IT    C5  786   1.357   3.197   4.877
   25X2IT    O1  787   1.443   3.268   4.823
   25X2IT    C6  788   1.252   3.248   4.962
   25X2IT   C12  789   1.243   3.397   4.988
   25X2IT    C7  790   1.163   3.160   5.022
   25X2IT    C8  791   1.168   3.009   5.000
   25X2IT    O2  792   1.080   2.940   5.055
   25X2IT    N3  793   1.064   3.198   5.104
   25X2IT   H15  794   1.046   3.294   5.127
   25X2IT   H16  795   1.003   3.124   5.141
   25X2IT    N2  796   1.454   2.984   4.783
   25X2IT    C3  797   1.520   3.031   4.660
   25X2IT    C2  798   1.482   2.922   4.560
   25X2IT    H2  799   1.542   2.909   4.469
   25X2IT    N1  800   1.336   2.898   4.556
   25X2IT   H14  801   1.312   2.853   4.468
   25X2IT    C1  802   1.424   2.807   4.632
   25X2IT    H1  803   1.437   2.704   4.601
   25X2IT   C11  804   1.428   2.838   4.781
   25X2IT    O3  805   1.540   2.764   4.828
   25X2IT   C15  806   1.594   2.802   4.956
   26X2IT   H18  807   2.535   4.044   2.686
   26X2IT    N4  808   2.521   3.992   2.771
   26X2IT   H17  809   2.558   3.898   2.775
   26X2IT   C14  810   2.514   4.065   2.886
   26X2IT    O5  811   2.495   4.185   2.892
   26X2IT    O4  812   2.525   3.983   2.995
   26X2IT   C13  813   2.513   4.045   3.124
   26X2IT   C10  814   2.365   4.062   3.164
   26X2IT    C9  815   2.348   4.121   3.302
   26X2IT    C4  816   2.275   4.035   3.382
   26X2IT    C5  817   2.240   4.062   3.526
   26X2IT    O1  818   2.171   3.981   3.589
   26X2IT    C6  819   2.290   4.186   3.581
   26X2IT   C12  820   2.259   4.220   3.726
   26X2IT    C7  821   2.362   4.272   3.501
   26X2IT    C8  822   2.396   4.243   3.355
   26X2IT    O2  823   2.466   4.326   3.294
   26X2IT    N3  824   2.411   4.390   3.544
   26X2IT   H15  825   2.400   4.424   3.637
   26X2IT   H16  826   2.465   4.445   3.476
   26X2IT    N2  827   2.231   3.926   3.314
   26X2IT    C3  828   2.212   3.789   3.364
   26X2IT    C2  829   2.307   3.708   3.276
   26X2IT    H2  830   2.293   3.601   3.265
   26X2IT    N1  831   2.444   3.765   3.275
   26X2IT   H14  832   2.510   3.692   3.246
   26X2IT    C1  833   2.352   3.793   3.162
   26X2IT    H1  834   2.372   3.754   3.064
   26X2IT   C11  835   2.283   3.928   3.174
   26X2IT    O3  836   2.178   3.921   3.079
   26X2IT   C15  837   2.071   4.015   3.092
   27X2IT   H18  838   2.931   3.293   0.078
   27X2IT    N4  839   2.893   3.297   0.170
   27X2IT   H17  840   2.922   3.226   0.236
   27X2IT   C14  841   2.861   3.422   0.217
   27X2IT    O5  842   2.849   3.522   0.148
   27X2IT    O4  843   2.840   3.417   0.352
   27X2IT   C13  844   2.799   3.541   0.414
   27X2IT   C10  845   2.647   3.563   0.401
   27X2IT    C9  846   2.599   3.688   0.470
   27X2IT    C4  847   2.503   3.656   0.565
   27X2IT    C5  848   2.435   3.757   0.653
   27X2IT    O1  849   2.348   3.720   0.732
   27X2IT    C6  850   2.477   3.894   0.638
   27X2IT   C12  851   2.413   4.001   0.723
   27X2IT    C7  852   2.573   3.926   0.543
   27X2IT    C8  853   2.641   3.822   0.453
   27X2IT    O2  854   2.728   3.862   0.374
   27X2IT    N3  855   2.617   4.051   0.520
   27X2IT   H15  856   2.584   4.131   0.571
   27X2IT   H16  857   2.689   4.063   0.448
   27X2IT    N2  858   2.472   3.524   0.563
   27X2IT    C3  859   2.433   3.439   0.677
   27X2IT    C2  860   2.541   3.332   0.676
   27X2IT    H2  861   2.524   3.237   0.726
   27X2IT    N1  862   2.677   3.391   0.676
   27X2IT   H14  863   2.744   3.322   0.711
   27X2IT    C1  864   2.619   3.341   0.550
   27X2IT    H1  865   2.661   3.255   0.500
   27X2IT   C11  866   2.557   3.451   0.465
   27X2IT    O3  867   2.480   3.381   0.369
   27X2IT   C15  868   2.379   3.456   0.299
   28X2IT   H18  869   4.138  -0.262   0.313
   28X2IT    N4  870   4.181  -0.212   0.388
   28X2IT   H17  871   4.275  -0.239   0.414
   28X2IT   C14  872   4.143  -0.081   0.404
   28X2IT    O5  873   4.044  -0.030   0.355
   28X2IT    O4  874   4.230  -0.017   0.488
   28X2IT   C13  875   4.199   0.120   0.519
   28X2IT   C10  876   4.096   0.129   0.634
   28X2IT    C9  877   4.066   0.272   0.675
   28X2IT    C4  878   4.094   0.290   0.809
   28X2IT    C5  879   4.076   0.420   0.881
   28X2IT    O1  880   4.101   0.426   1.003
   28X2IT    C6  881   4.029   0.532   0.803
   28X2IT   C12  882   4.009   0.666   0.870
   28X2IT    C7  883   4.000   0.513   0.669
   28X2IT    C8  884   4.018   0.379   0.597
   28X2IT    O2  885   3.992   0.375   0.475
   28X2IT    N3  886   3.954   0.610   0.588
   28X2IT   H15  887   3.938   0.704   0.619
   28X2IT   H16  888   3.937   0.585   0.491
   28X2IT    N2  889   4.133   0.175   0.869
   28X2IT    C3  890   4.229   0.158   0.979
   28X2IT    C2  891   4.335   0.068   0.916
   28X2IT    H2  892   4.402   0.011   0.980
   28X2IT    N1  893   4.384   0.121   0.787
   28X2IT   H14  894   4.476   0.080   0.766
   28X2IT    C1  895   4.283   0.013   0.788
   28X2IT    H1  896   4.308  -0.086   0.752
   28X2IT   C11  897   4.141   0.064   0.770
   28X2IT    O3  898   4.060  -0.047   0.807
   28X2IT   C15  899   3.923  -0.020   0.838
   29X2IT   H18  900   1.264   1.831   2.118
   29X2IT    N4  901   1.336   1.898   2.139
   29X2IT   H17  902   1.432   1.865   2.136
   29X2IT   C14  903   1.309   2.028   2.107
   29X2IT    O5  904   1.198   2.073   2.082
   29X2IT    O4  905   1.424   2.102   2.112
   29X2IT   C13  906   1.409   2.243   2.087
   29X2IT   C10  907   1.366   2.319   2.214
   29X2IT    C9  908   1.357   2.468   2.194
   29X2IT    C4  909   1.440   2.534   2.283
   29X2IT    C5  910   1.455   2.683   2.289
   29X2IT    O1  911   1.530   2.733   2.374
   29X2IT    C6  912   1.379   2.759   2.193
   29X2IT   C12  913   1.390   2.911   2.193
   29X2IT    C7  914   1.295   2.694   2.105
   29X2IT    C8  915   1.280   2.542   2.100
   29X2IT    O2  916   1.205   2.493   2.014
   29X2IT    N3  917   1.219   2.756   2.014
   29X2IT   H15  918   1.218   2.856   2.002
   29X2IT   H16  919   1.162   2.698   1.953
   29X2IT    N2  920   1.501   2.448   2.369
   29X2IT    C3  921   1.635   2.459   2.428
   29X2IT    C2  922   1.703   2.333   2.378
   29X2IT    H2  923   1.791   2.294   2.430
   29X2IT    N1  924   1.692   2.317   2.231
   29X2IT   H14  925   1.765   2.254   2.198
   29X2IT    C1  926   1.601   2.242   2.320
   29X2IT    H1  927   1.608   2.134   2.326
   29X2IT   C11  928   1.465   2.307   2.336
   29X2IT    O3  929   1.408   2.240   2.447
   29X2IT   C15  930   1.297   2.303   2.512
   30X2IT   H18  931   1.480   4.857   0.530
   30X2IT    N4  932   1.405   4.886   0.591
   30X2IT   H17  933   1.312   4.885   0.553
   30X2IT   C14  934   1.423   4.861   0.724
   30X2IT    O5  935   1.530   4.834   0.777
   30X2IT    O4  936   1.305   4.875   0.791
   30X2IT   C13  937   1.310   4.859   0.934
   30X2IT   C10  938   1.354   4.988   1.004
   30X2IT    C9  939   1.354   4.977   1.155
   30X2IT    C4  940   1.271   5.073   1.210
   30X2IT    C5  941   1.247   5.089   1.357
   30X2IT    O1  942   1.174   5.180   1.398
   30X2IT    C6  943   1.314   4.995   1.444
   30X2IT   C12  944   1.294   5.005   1.594
   30X2IT    C7  945   1.398   4.899   1.389
   30X2IT    C8  946   1.422   4.885   1.238
   30X2IT    O2  947   1.495   4.792   1.200
   30X2IT    N3  948   1.465   4.809   1.461
   30X2IT   H15  949   1.460   4.803   1.561
   30X2IT   H16  950   1.523   4.742   1.410
   30X2IT    N2  951   1.220   5.156   1.116
   30X2IT    C3  952   1.088   5.222   1.115
   30X2IT    C2  953   1.025   5.167   0.987
   30X2IT    H2  954   0.942   5.220   0.941
   30X2IT    N1  955   1.030   5.019   0.982
   30X2IT   H14  956   0.959   4.985   0.916
   30X2IT    C1  957   1.129   5.098   0.907
   30X2IT    H1  958   1.129   5.099   0.798
   30X2IT   C11  959   1.262   5.113   0.979
   30X2IT    O3  960   1.328   5.217   0.909
   30X2IT   C15  961   1.438   5.281   0.976
   31X2IT   H18  962   4.960   4.245   1.965
   31X2IT    N4  963   4.928   4.265   1.872
   31X2IT   H17  964   4.834   4.303   1.862
   31X2IT   C14  965   5.024   4.302   1.781
   31X2IT    O5  966   5.144   4.286   1.796
   31X2IT    O4  967   4.965   4.356   1.670
   31X2IT   C13  968   5.054   4.393   1.563
   31X2IT   C10  969   5.089   4.272   1.475
   31X2IT    C9  970   5.177   4.309   1.357
   31X2IT    C4  971   5.115   4.273   1.238
   31X2IT    C5  972   5.175   4.296   1.103
   31X2IT    O1  973   5.114   4.258   1.002
   31X2IT    C6  974   5.303   4.362   1.099
   31X2IT   C12  975   5.369   4.389   0.965
   31X2IT    C7  976   5.365   4.397   1.217
   31X2IT    C8  977   5.304   4.372   1.355
   31X2IT    O2  978   5.367   4.411   1.455
   31X2IT    N3  979   5.485   4.457   1.224
   31X2IT   H15  980   5.539   4.482   1.143
   31X2IT   H16  981   5.521   4.479   1.317
   31X2IT    N2  982   4.998   4.208   1.260
   31X2IT    C3  983   4.876   4.212   1.177
   31X2IT    C2  984   4.773   4.267   1.274
   31X2IT    H2  985   4.666   4.251   1.255
   31X2IT    N1  986   4.817   4.392   1.340
   31X2IT   H14  987   4.736   4.443   1.375
   31X2IT    C1  988   4.828   4.264   1.412
   31X2IT    H1  989   4.767   4.244   1.500
   31X2IT   C11  990   4.967   4.202   1.405
   31X2IT    O3  991   4.948   4.069   1.449
   31X2IT   C15  992   5.051   3.974   1.418
   32X2IT   H18  993   1.376   3.849   0.305
   32X2IT    N4  994   1.284   3.849   0.345
   32X2IT   H17  995   1.207   3.875   0.285
   32X2IT   C14  996   1.262   3.759   0.446
   32X2IT    O5  997   1.348   3.700   0.508
   32X2IT    O4  998   1.128   3.747   0.469
   32X2IT   C13  999   1.089   3.660   0.577
   32X2IT   C10 1000   1.098   3.732   0.713
   32X2IT    C9 1001   1.052   3.646   0.829
   32X2IT    C4 1002   0.947   3.707   0.896
   32X2IT    C5 1003   0.878   3.649   1.015
   32X2IT    O1 1004   0.788   3.713   1.071
   32X2IT    C6 1005   0.923   3.518   1.058
   32X2IT   C12 1006   0.857   3.453   1.177
   32X2IT    C7 1007   1.028   3.457   0.992
   32X2IT    C8 1008   1.098   3.519   0.871
   32X2IT    O2 1009   1.189   3.453   0.816
   32X2IT    N3 1010   1.078   3.337   1.026
   32X2IT   H15 1011   1.042   3.282   1.101
   32X2IT   H16 1012   1.155   3.301   0.969
   32X2IT    N2 1013   0.921   3.831   0.846
   32X2IT    C3 1014   0.790   3.899   0.837
   32X2IT    C2 1015   0.775   3.921   0.687
   32X2IT    H2 1016   0.706   3.997   0.651
   32X2IT    N1 1017   0.795   3.797   0.609
   32X2IT   H14 1018   0.751   3.807   0.517
   32X2IT    C1 1019   0.905   3.895   0.620
   32X2IT    H1 1020   0.939   3.950   0.533
   32X2IT   C11 1021   1.007   3.860   0.728
   32X2IT    O3 1022   1.081   3.979   0.745
   32X2IT   C15 1023   1.159   3.991   0.865
   33X2IT   H18 1024   3.758  -0.132   3.922
   33X2IT    N4 1025   3.727  -0.039   3.942
   33X2IT   H17 1026   3.785   0.016   4.004
   33X2IT   C14 1027   3.656   0.024   3.844
   33X2IT    O5 1028   3.603  -0.031   3.749
   33X2IT    O4 1029   3.647   0.158   3.872
   33X2IT   C13 1030   3.568   0.236   3.780
   33X2IT   C10 1031   3.418   0.229   3.815
   33X2IT    C9 1032   3.333   0.316   3.726
   33X2IT    C4 1033   3.262   0.408   3.801
   33X2IT    C5 1034   3.168   0.510   3.744
   33X2IT    O1 1035   3.106   0.585   3.820
   33X2IT    C6 1036   3.156   0.512   3.600
   33X2IT   C12 1037   3.063   0.612   3.535
   33X2IT    C7 1038   3.226   0.420   3.524
   33X2IT    C8 1039   3.321   0.316   3.584
   33X2IT    O2 1040   3.382   0.241   3.507
   33X2IT    N3 1041   3.219   0.413   3.390
   33X2IT   H15 1042   3.163   0.475   3.335
   33X2IT   H16 1043   3.277   0.342   3.344
   33X2IT    N2 1044   3.281   0.389   3.935
   33X2IT    C3 1045   3.284   0.491   4.041
   33X2IT    C2 1046   3.424   0.475   4.098
   33X2IT    H2 1047   3.446   0.512   4.198
   33X2IT    N1 1048   3.528   0.480   3.994
   33X2IT   H14 1049   3.618   0.503   4.036
   33X2IT    C1 1050   3.484   0.349   4.047
   33X2IT    H1 1051   3.551   0.287   4.105
   33X2IT   C11 1052   3.380   0.281   3.959
   33X2IT    O3 1053   3.327   0.178   4.041
   33X2IT   C15 1054   3.202   0.121   4.002
   34X2IT   H18 1055   1.361   3.683   3.619
   34X2IT    N4 1056   1.360   3.712   3.715
   34X2IT   H17 1057   1.406   3.653   3.782
   34X2IT   C14 1058   1.357   3.847   3.737
   34X2IT    O5 1059   1.329   3.931   3.653
   34X2IT    O4 1060   1.387   3.874   3.867
   34X2IT   C13 1061   1.381   4.013   3.907
   34X2IT   C10 1062   1.238   4.056   3.940
   34X2IT    C9 1063   1.228   4.199   3.989
   34X2IT    C4 1064   1.171   4.203   4.114
   34X2IT    C5 1065   1.149   4.329   4.192
   34X2IT    O1 1066   1.093   4.324   4.303
   34X2IT    C6 1067   1.193   4.452   4.130
   34X2IT   C12 1068   1.173   4.583   4.203
   34X2IT    C7 1069   1.249   4.448   4.003
   34X2IT    C8 1070   1.271   4.318   3.925
   34X2IT    O2 1071   1.326   4.326   3.814
   34X2IT    N3 1072   1.291   4.557   3.937
   34X2IT   H15 1073   1.286   4.650   3.974
   34X2IT   H16 1074   1.332   4.542   3.844
   34X2IT    N2 1075   1.131   4.080   4.157
   34X2IT    C3 1076   1.130   4.028   4.294
   34X2IT    C2 1077   1.222   3.907   4.284
   34X2IT    H2 1078   1.217   3.828   4.359
   34X2IT    N1 1079   1.353   3.942   4.223
   34X2IT   H14 1080   1.422   3.871   4.249
   34X2IT    C1 1081   1.249   3.877   4.141
   34X2IT    H1 1082   1.262   3.777   4.103
   34X2IT   C11 1083   1.169   3.976   4.057
   34X2IT    O3 1084   1.056   3.901   4.014
   34X2IT   C15 1085   0.943   3.975   3.966
   35X2IT   H18 1086   3.392   4.122   2.009
   35X2IT    N4 1087   3.433   4.205   1.971
   35X2IT   H17 1088   3.410   4.293   2.017
   35X2IT   C14 1089   3.555   4.192   1.911
   35X2IT    O5 1090   3.605   4.086   1.876
   35X2IT    O4 1091   3.612   4.314   1.893
   35X2IT   C13 1092   3.739   4.316   1.825
   35X2IT   C10 1093   3.721   4.311   1.672
   35X2IT    C9 1094   3.852   4.320   1.596
   35X2IT    C4 1095   3.851   4.429   1.511
   35X2IT    C5 1096   3.965   4.466   1.422
   35X2IT    O1 1097   3.954   4.564   1.346
   35X2IT    C6 1098   4.083   4.384   1.430
   35X2IT   C12 1099   4.203   4.417   1.343
   35X2IT    C7 1100   4.084   4.275   1.515
   35X2IT    C8 1101   3.966   4.237   1.605
   35X2IT    O2 1102   3.980   4.139   1.680
   35X2IT    N3 1103   4.189   4.191   1.528
   35X2IT   H15 1104   4.275   4.203   1.478
   35X2IT   H16 1105   4.179   4.115   1.595
   35X2IT    N2 1106   3.731   4.493   1.511
   35X2IT    C3 1107   3.705   4.636   1.493
   35X2IT    C2 1108   3.636   4.673   1.624
   35X2IT    H2 1109   3.575   4.764   1.629
   35X2IT    N1 1110   3.714   4.630   1.742
   35X2IT   H14 1111   3.685   4.685   1.824
   35X2IT    C1 1112   3.598   4.550   1.697
   35X2IT    H1 1113   3.509   4.541   1.757
   35X2IT   C11 1114   3.638   4.431   1.611
   35X2IT    O3 1115   3.517   4.389   1.551
   35X2IT   C15 1116   3.526   4.305   1.436
   36X2IT   H18 1117   5.147   1.753   0.945
   36X2IT    N4 1118   5.047   1.743   0.949
   36X2IT   H17 1119   4.995   1.820   0.990
   36X2IT   C14 1120   4.989   1.669   0.850
   36X2IT    O5 1121   5.048   1.593   0.775
   36X2IT    O4 1122   4.854   1.691   0.849
   36X2IT   C13 1123   4.778   1.614   0.753
   36X2IT   C10 1124   4.746   1.473   0.807
   36X2IT    C9 1125   4.661   1.391   0.712
   36X2IT    C4 1126   4.544   1.352   0.776
   36X2IT    C5 1127   4.437   1.270   0.710
   36X2IT    O1 1128   4.337   1.236   0.775
   36X2IT    C6 1129   4.458   1.235   0.571
   36X2IT   C12 1130   4.354   1.153   0.499
   36X2IT    C7 1131   4.575   1.274   0.509
   36X2IT    C8 1132   4.684   1.356   0.577
   36X2IT    O2 1133   4.783   1.389   0.510
   36X2IT    N3 1134   4.605   1.244   0.381
   36X2IT   H15 1135   4.543   1.193   0.321
   36X2IT   H16 1136   4.694   1.279   0.344
   36X2IT    N2 1137   4.542   1.389   0.906
   36X2IT    C3 1138   4.425   1.427   0.987
   36X2IT    C2 1139   4.460   1.569   1.029
   36X2IT    H2 1140   4.411   1.614   1.116
   36X2IT    N1 1141   4.497   1.655   0.914
   36X2IT   H14 1142   4.486   1.753   0.940
   36X2IT    C1 1143   4.603   1.596   0.998
   36X2IT    H1 1144   4.666   1.659   1.060
   36X2IT   C11 1145   4.663   1.469   0.940
   36X2IT    O3 1146   4.735   1.412   1.049
   36X2IT   C15 1147   4.770   1.273   1.038
   37X2IT   H18 1148   1.972   1.194   3.491
   37X2IT    N4 1149   1.905   1.132   3.449
   37X2IT   H17 1150   1.941   1.050   3.402
   37X2IT   C14 1151   1.782   1.126   3.507
   37X2IT    O5 1152   1.739   1.208   3.587
   37X2IT    O4 1153   1.713   1.019   3.460
   37X2IT   C13 1154   1.578   1.004   3.509
   37X2IT   C10 1155   1.479   1.091   3.429
   37X2IT    C9 1156   1.335   1.072   3.472
   37X2IT    C4 1157   1.258   1.031   3.365
   37X2IT    C5 1158   1.111   1.003   3.374
   37X2IT    O1 1159   1.049   0.970   3.272
   37X2IT    C6 1160   1.050   1.018   3.504
   37X2IT   C12 1161   0.902   0.991   3.520
   37X2IT    C7 1162   1.127   1.060   3.611
   37X2IT    C8 1163   1.277   1.089   3.600
   37X2IT    O2 1164   1.337   1.122   3.703
   37X2IT    N3 1165   1.079   1.079   3.735
   37X2IT   H15 1166   0.983   1.062   3.760
   37X2IT   H16 1167   1.146   1.109   3.806
   37X2IT    N2 1168   1.329   1.026   3.249
   37X2IT    C3 1169   1.313   0.933   3.137
   37X2IT    C2 1170   1.449   0.865   3.131
   37X2IT    H2 1171   1.480   0.815   3.039
   37X2IT    N1 1172   1.490   0.810   3.262
   37X2IT   H14 1173   1.560   0.738   3.248
   37X2IT    C1 1174   1.545   0.939   3.216
   37X2IT    H1 1175   1.650   0.949   3.192
   37X2IT   C11 1176   1.472   1.060   3.274
   37X2IT    O3 1177   1.516   1.168   3.194
   37X2IT   C15 1178   1.438   1.288   3.198
   38X2IT   H18 1179   1.041   2.468   2.521
   38X2IT    N4 1180   0.991   2.537   2.573
   38X2IT   H17 1181   0.890   2.534   2.569
   38X2IT   C14 1182   1.051   2.583   2.687
   38X2IT    O5 1183   1.169   2.568   2.715
   38X2IT    O4 1184   0.961   2.652   2.763
   38X2IT   C13 1185   1.013   2.712   2.884
   38X2IT   C10 1186   1.079   2.848   2.855
   38X2IT    C9 1187   1.128   2.918   2.980
   38X2IT    C4 1188   1.068   3.042   2.992
   38X2IT    C5 1189   1.094   3.137   3.105
   38X2IT    O1 1190   1.039   3.248   3.106
   38X2IT    C6 1191   1.185   3.091   3.208
   38X2IT   C12 1192   1.216   3.182   3.325
   38X2IT    C7 1193   1.246   2.968   3.195
   38X2IT    C8 1194   1.219   2.872   3.078
   38X2IT    O2 1195   1.275   2.762   3.080
   38X2IT    N3 1196   1.333   2.918   3.284
   38X2IT   H15 1197   1.360   2.967   3.368
   38X2IT   H16 1198   1.370   2.824   3.265
   38X2IT    N2 1199   0.989   3.071   2.885
   38X2IT    C3 1200   0.865   3.150   2.884
   38X2IT    C2 1201   0.764   3.050   2.831
   38X2IT    H2 1202   0.670   3.085   2.787
   38X2IT    N1 1203   0.765   2.923   2.908
   38X2IT   H14 1204   0.677   2.874   2.894
   38X2IT    C1 1205   0.835   2.931   2.778
   38X2IT    H1 1206   0.800   2.874   2.692
   38X2IT   C11 1207   0.984   2.957   2.791
   38X2IT    O3 1208   1.024   2.994   2.660
   38X2IT   C15 1209   1.150   3.061   2.647
   39X2IT   H18 1210   1.639   1.088   1.449
   39X2IT    N4 1211   1.597   1.059   1.536
   39X2IT   H17 1212   1.637   0.979   1.582
   39X2IT   C14 1213   1.540   1.158   1.611
   39X2IT    O5 1214   1.512   1.270   1.572
   39X2IT    O4 1215   1.515   1.111   1.737
   39X2IT   C13 1216   1.449   1.203   1.827
   39X2IT   C10 1217   1.296   1.201   1.806
   39X2IT    C9 1218   1.222   1.291   1.903
   39X2IT    C4 1219   1.131   1.217   1.976
   39X2IT    C5 1220   1.041   1.275   2.081
   39X2IT    O1 1221   0.959   1.202   2.139
   39X2IT    C6 1222   1.056   1.416   2.108
   39X2IT   C12 1223   0.969   1.481   2.214
   39X2IT    C7 1224   1.147   1.490   2.035
   39X2IT    C8 1225   1.237   1.429   1.927
   39X2IT    O2 1226   1.318   1.504   1.870
   39X2IT    N3 1227   1.167   1.622   2.051
   39X2IT   H15 1228   1.118   1.677   2.119
   39X2IT   H16 1229   1.238   1.666   1.992
   39X2IT    N2 1230   1.126   1.087   1.935
   39X2IT    C3 1231   1.099   0.968   2.017
   39X2IT    C2 1232   1.226   0.887   1.998
   39X2IT    H2 1233   1.226   0.779   2.018
   39X2IT    N1 1234   1.348   0.966   2.026
   39X2IT   H14 1235   1.426   0.902   2.046
   39X2IT    C1 1236   1.306   0.945   1.886
   39X2IT    H1 1237   1.365   0.885   1.819
   39X2IT   C11 1238   1.227   1.061   1.829
   39X2IT    O3 1239   1.168   1.009   1.712
   39X2IT   C15 1240   1.058   1.082   1.656
   40X2IT   H18 1241   2.632   0.274   1.506
   40X2IT    N4 1242   2.707   0.278   1.572
   40X2IT   H17 1243   2.731   0.369   1.608
   40X2IT   C14 1244   2.724   0.168   1.652
   40X2IT    O5 1245   2.675   0.058   1.631
   40X2IT    O4 1246   2.806   0.199   1.756
   40X2IT   C13 1247   2.839   0.090   1.846
   40X2IT   C10 1248   2.954   0.005   1.791
   40X2IT    C9 1249   2.996  -0.106   1.885
   40X2IT    C4 1250   3.130  -0.093   1.917
   40X2IT    C5 1251   3.203  -0.187   2.010
   40X2IT    O1 1252   3.324  -0.170   2.030
   40X2IT    C6 1253   3.125  -0.293   2.068
   40X2IT   C12 1254   3.193  -0.390   2.163
   40X2IT    C7 1255   2.992  -0.306   2.035
   40X2IT    C8 1256   2.919  -0.211   1.940
   40X2IT    O2 1257   2.797  -0.230   1.921
   40X2IT    N3 1258   2.912  -0.403   2.083
   40X2IT   H15 1259   2.943  -0.473   2.148
   40X2IT   H16 1260   2.814  -0.402   2.053
   40X2IT    N2 1261   3.189   0.009   1.850
   40X2IT    C3 1262   3.298   0.096   1.896
   40X2IT    C2 1263   3.234   0.234   1.890
   40X2IT    H2 1264   3.297   0.323   1.886
   40X2IT    N1 1265   3.104   0.239   1.962
   40X2IT   H14 1266   3.082   0.336   1.985
   40X2IT    C1 1267   3.106   0.225   1.814
   40X2IT    H1 1268   3.070   0.305   1.751
   40X2IT   C11 1269   3.090   0.082   1.767
   40X2IT    O3 1270   3.128   0.086   1.631
   40X2IT   C15 1271   3.160  -0.039   1.568
   41X2IT   H18 1272   0.562   4.707   2.439
   41X2IT    N4 1273   0.546   4.635   2.507
   41X2IT   H17 1274   0.617   4.565   2.518
   41X2IT   C14 1275   0.470   4.670   2.616
   41X2IT    O5 1276   0.400   4.769   2.623
   41X2IT    O4 1277   0.482   4.575   2.713
   41X2IT   C13 1278   0.402   4.595   2.832
   41X2IT   C10 1279   0.259   4.544   2.812
   41X2IT    C9 1280   0.174   4.557   2.937
   41X2IT    C4 1281   0.125   4.433   2.974
   41X2IT    C5 1282   0.038   4.411   3.095
   41X2IT    O1 1283  -0.004   4.297   3.119
   41X2IT    C6 1284   0.007   4.527   3.175
   41X2IT   C12 1285  -0.080   4.511   3.298
   41X2IT    C7 1286   0.055   4.651   3.136
   41X2IT    C8 1287   0.143   4.673   3.013
   41X2IT    O2 1288   0.184   4.787   2.991
   41X2IT    N3 1289   0.031   4.764   3.203
   41X2IT   H15 1290  -0.024   4.768   3.288
   41X2IT   H16 1291   0.072   4.850   3.167
   41X2IT    N2 1292   0.159   4.336   2.886
   41X2IT    C3 1293   0.188   4.194   2.914
   41X2IT    C2 1294   0.331   4.180   2.864
   41X2IT    H2 1295   0.370   4.081   2.840
   41X2IT    N1 1296   0.421   4.283   2.921
   41X2IT   H14 1297   0.518   4.250   2.915
   41X2IT    C1 1298   0.368   4.300   2.785
   41X2IT    H1 1299   0.433   4.296   2.699
   41X2IT   C11 1300   0.246   4.391   2.778
   41X2IT    O3 1301   0.192   4.367   2.649
   41X2IT   C15 1302   0.056   4.408   2.627
   42X2IT   H18 1303   1.268   2.530   0.094
   42X2IT    N4 1304   1.279   2.450   0.154
   42X2IT   H17 1305   1.322   2.368   0.113
   42X2IT   C14 1306   1.299   2.477   0.287
   42X2IT    O5 1307   1.276   2.583   0.342
   42X2IT    O4 1308   1.344   2.364   0.350
   42X2IT   C13 1309   1.363   2.375   0.493
   42X2IT   C10 1310   1.230   2.354   0.569
   42X2IT    C9 1311   1.247   2.358   0.719
   42X2IT    C4 1312   1.203   2.239   0.775
   42X2IT    C5 1313   1.206   2.210   0.922
   42X2IT    O1 1314   1.161   2.102   0.964
   42X2IT    C6 1315   1.262   2.312   1.007
   42X2IT   C12 1316   1.269   2.288   1.157
   42X2IT    C7 1317   1.306   2.431   0.951
   42X2IT    C8 1318   1.301   2.460   0.801
   42X2IT    O2 1319   1.347   2.568   0.762
   42X2IT    N3 1320   1.357   2.532   1.022
   42X2IT   H15 1321   1.370   2.529   1.122
   42X2IT   H16 1322   1.388   2.615   0.970
   42X2IT    N2 1323   1.149   2.156   0.682
   42X2IT    C3 1324   1.152   2.009   0.680
   42X2IT    C2 1325   1.224   1.980   0.549
   42X2IT    H2 1326   1.213   1.882   0.502
   42X2IT    N1 1327   1.352   2.053   0.539
   42X2IT   H14 1328   1.412   2.006   0.470
   42X2IT    C1 1329   1.233   2.104   0.469
   42X2IT    H1 1330   1.228   2.105   0.361
   42X2IT   C11 1331   1.161   2.215   0.546
   42X2IT    O3 1332   1.035   2.225   0.481
   42X2IT   C15 1333   0.931   2.293   0.553
   43X2IT   H18 1334   2.388   3.025   0.787
   43X2IT    N4 1335   2.422   3.004   0.695
   43X2IT   H17 1336   2.430   3.081   0.630
   43X2IT   C14 1337   2.509   2.898   0.685
   43X2IT    O5 1338   2.526   2.813   0.770
   43X2IT    O4 1339   2.570   2.900   0.563
   43X2IT   C13 1340   2.659   2.791   0.535
   43X2IT   C10 1341   2.583   2.667   0.484
   43X2IT    C9 1342   2.674   2.552   0.448
   43X2IT    C4 1343   2.655   2.516   0.315
   43X2IT    C5 1344   2.730   2.406   0.247
   43X2IT    O1 1345   2.703   2.378   0.129
   43X2IT    C6 1346   2.830   2.338   0.325
   43X2IT   C12 1347   2.910   2.226   0.261
   43X2IT    C7 1348   2.849   2.373   0.457
   43X2IT    C8 1349   2.771   2.485   0.526
   43X2IT    O2 1350   2.799   2.511   0.644
   43X2IT    N3 1351   2.938   2.314   0.538
   43X2IT   H15 1352   2.999   2.240   0.508
   43X2IT   H16 1353   2.945   2.350   0.634
   43X2IT    N2 1354   2.554   2.587   0.258
   43X2IT    C3 1355   2.543   2.630   0.117
   43X2IT    C2 1356   2.536   2.781   0.131
   43X2IT    H2 1357   2.494   2.841   0.049
   43X2IT    N1 1358   2.646   2.836   0.212
   43X2IT   H14 1359   2.659   2.935   0.191
   43X2IT    C1 1360   2.513   2.817   0.273
   43X2IT    H1 1361   2.453   2.902   0.304
   43X2IT   C11 1362   2.500   2.688   0.352
   43X2IT    O3 1363   2.361   2.673   0.372
   43X2IT   C15 1364   2.313   2.543   0.409
   44X2IT   H18 1365   2.289   3.806   1.008
   44X2IT    N4 1366   2.246   3.763   1.087
   44X2IT   H17 1367   2.182   3.686   1.070
   44X2IT   C14 1368   2.317   3.765   1.204
   44X2IT    O5 1369   2.414   3.836   1.226
   44X2IT    O4 1370   2.262   3.678   1.294
   44X2IT   C13 1371   2.323   3.674   1.424
   44X2IT   C10 1372   2.270   3.787   1.515
   44X2IT    C9 1373   2.327   3.782   1.655
   44X2IT    C4 1374   2.224   3.772   1.747
   44X2IT    C5 1375   2.246   3.764   1.896
   44X2IT    O1 1376   2.148   3.759   1.971
   44X2IT    C6 1377   2.383   3.764   1.941
   44X2IT   C12 1378   2.412   3.756   2.089
   44X2IT    C7 1379   2.485   3.776   1.848
   44X2IT    C8 1380   2.462   3.784   1.697
   44X2IT    O2 1381   2.561   3.790   1.623
   44X2IT    N3 1382   2.615   3.778   1.881
   44X2IT   H15 1383   2.649   3.772   1.976
   44X2IT   H16 1384   2.683   3.785   1.804
   44X2IT    N2 1385   2.102   3.778   1.689
   44X2IT    C3 1386   1.978   3.710   1.731
   44X2IT    C2 1387   1.945   3.625   1.608
   44X2IT    H2 1388   1.844   3.589   1.594
   44X2IT    N1 1389   2.060   3.542   1.565
   44X2IT   H14 1390   2.026   3.464   1.508
   44X2IT    C1 1391   2.030   3.668   1.494
   44X2IT    H1 1392   1.995   3.667   1.392
   44X2IT   C11 1393   2.115   3.786   1.540
   44X2IT    O3 1394   2.049   3.899   1.487
   44X2IT   C15 1395   2.082   4.026   1.545
   45X2IT   H18 1396   2.081  -0.284   0.784
   45X2IT    N4 1397   2.129  -0.238   0.859
   45X2IT   H17 1398   2.146  -0.292   0.943
   45X2IT   C14 1399   2.217  -0.139   0.824
   45X2IT    O5 1400   2.222  -0.085   0.715
   45X2IT    O4 1401   2.296  -0.107   0.931
   45X2IT   C13 1402   2.390   0.000   0.910
   45X2IT   C10 1403   2.323   0.138   0.930
   45X2IT    C9 1404   2.420   0.253   0.916
   45X2IT    C4 1405   2.421   0.328   1.032
   45X2IT    C5 1406   2.507   0.450   1.052
   45X2IT    O1 1407   2.499   0.514   1.158
   45X2IT    C6 1408   2.595   0.485   0.943
   45X2IT   C12 1409   2.685   0.607   0.957
   45X2IT    C7 1410   2.593   0.410   0.827
   45X2IT    C8 1411   2.505   0.287   0.807
   45X2IT    O2 1412   2.514   0.224   0.701
   45X2IT    N3 1413   2.670   0.436   0.720
   45X2IT   H15 1414   2.735   0.512   0.716
   45X2IT   H16 1415   2.662   0.373   0.640
   45X2IT    N2 1416   2.330   0.285   1.122
   45X2IT    C3 1417   2.339   0.287   1.269
   45X2IT    C2 1418   2.328   0.140   1.305
   45X2IT    H2 1419   2.299   0.110   1.405
   45X2IT    N1 1420   2.425   0.056   1.229
   45X2IT   H14 1421   2.439  -0.032   1.279
   45X2IT    C1 1422   2.284   0.063   1.185
   45X2IT    H1 1423   2.220  -0.024   1.191
   45X2IT   C11 1424   2.261   0.162   1.072
   45X2IT    O3 1425   2.120   0.178   1.069
   45X2IT   C15 1426   2.069   0.293   1.000
   46X2IT   H18 1427   3.670   1.795   1.602
   46X2IT    N4 1428   3.730   1.819   1.678
   46X2IT   H17 1429   3.817   1.865   1.656
   46X2IT   C14 1430   3.669   1.848   1.797
   46X2IT    O5 1431   3.553   1.820   1.825
   46X2IT    O4 1432   3.757   1.909   1.882
   46X2IT   C13 1433   3.708   1.939   2.014
   46X2IT   C10 1434   3.718   1.817   2.107
   46X2IT    C9 1435   3.674   1.846   2.248
   46X2IT    C4 1436   3.776   1.818   2.337
   46X2IT    C5 1437   3.766   1.837   2.486
   46X2IT    O1 1438   3.862   1.806   2.558
   46X2IT    C6 1439   3.642   1.891   2.535
   46X2IT   C12 1440   3.625   1.913   2.684
   46X2IT    C7 1441   3.539   1.918   2.447
   46X2IT    C8 1442   3.550   1.897   2.296
   46X2IT    O2 1443   3.453   1.929   2.225
   46X2IT    N3 1444   3.419   1.966   2.484
   46X2IT   H15 1445   3.396   1.987   2.579
   46X2IT   H16 1446   3.351   1.983   2.410
   46X2IT    N2 1447   3.884   1.764   2.275
   46X2IT    C3 1448   4.026   1.781   2.310
   46X2IT    C2 1449   4.084   1.844   2.183
   46X2IT    H2 1450   4.191   1.838   2.164
   46X2IT    N1 1451   4.007   1.963   2.140
   46X2IT   H14 1452   4.066   2.021   2.080
   46X2IT    C1 1453   3.984   1.833   2.074
   46X2IT    H1 1454   4.012   1.819   1.970
   46X2IT   C11 1455   3.863   1.759   2.127
   46X2IT    O3 1456   3.878   1.628   2.077
   46X2IT   C15 1457   3.802   1.524   2.140
   47X2IT   H18 1458   0.312   1.237   3.658
   47X2IT    N4 1459   0.349   1.308   3.718
   47X2IT   H17 1460   0.339   1.404   3.687
   47X2IT   C14 1461   0.348   1.282   3.852
   47X2IT    O5 1462   0.333   1.171   3.902
   47X2IT    O4 1463   0.371   1.396   3.923
   47X2IT   C13 1464   0.379   1.382   4.066
   47X2IT   C10 1465   0.520   1.338   4.110
   47X2IT    C9 1466   0.535   1.329   4.260
   47X2IT    C4 1467   0.637   1.412   4.303
   47X2IT    C5 1468   0.678   1.427   4.447
   47X2IT    O1 1469   0.773   1.501   4.476
   47X2IT    C6 1470   0.602   1.352   4.544
   47X2IT   C12 1471   0.637   1.363   4.690
   47X2IT    C7 1472   0.500   1.269   4.501
   47X2IT    C8 1473   0.460   1.253   4.354
   47X2IT    O2 1474   0.365   1.179   4.327
   47X2IT    N3 1475   0.425   1.193   4.583
   47X2IT   H15 1476   0.437   1.193   4.683
   47X2IT   H16 1477   0.352   1.136   4.540
   47X2IT    N2 1478   0.701   1.472   4.199
   47X2IT    C3 1479   0.763   1.605   4.196
   47X2IT    C2 1480   0.685   1.674   4.084
   47X2IT    H2 1481   0.727   1.761   4.035
   47X2IT    N1 1482   0.539   1.664   4.104
   47X2IT   H14 1483   0.492   1.738   4.050
   47X2IT    C1 1484   0.606   1.572   4.010
   47X2IT    H1 1485   0.588   1.579   3.903
   47X2IT   C11 1486   0.637   1.436   4.070
   47X2IT    O3 1487   0.729   1.378   3.979
   47X2IT   C15 1488   0.806   1.267   4.026
   48X2IT   H18 1489   2.256   4.886   2.273
   48X2IT    N4 1490   2.219   4.853   2.361
   48X2IT   H17 1491   2.178   4.761   2.361
   48X2IT   C14 1492   2.278   4.901   2.474
   48X2IT    O5 1493   2.351   4.998   2.480
   48X2IT    O4 1494   2.239   4.826   2.582
   48X2IT   C13 1495   2.289   4.868   2.710
   48X2IT   C10 1496   2.203   4.981   2.769
   48X2IT    C9 1497   2.247   5.024   2.907
   48X2IT    C4 1498   2.144   5.009   2.998
   48X2IT    C5 1499   2.155   5.041   3.144
   48X2IT    O1 1500   2.056   5.028   3.217
   48X2IT    C6 1501   2.284   5.088   3.190
   48X2IT   C12 1502   2.302   5.123   3.336
   48X2IT    C7 1503   2.387   5.104   3.099
   48X2IT    C8 1504   2.374   5.071   2.950
   48X2IT    O2 1505   2.474   5.085   2.878
   48X2IT    N3 1506   2.509   5.149   3.132
   48X2IT   H15 1507   2.535   5.173   3.226
   48X2IT   H16 1508   2.578   5.155   3.057
   48X2IT    N2 1509   2.029   4.968   2.938
   48X2IT    C3 1510   1.924   4.881   2.993
   48X2IT    C2 1511   1.923   4.765   2.895
   48X2IT    H2 1512   1.836   4.701   2.888
   48X2IT    N1 1513   2.058   4.708   2.875
   48X2IT   H14 1514   2.050   4.613   2.838
   48X2IT    C1 1515   2.003   4.801   2.775
   48X2IT    H1 1516   1.978   4.767   2.675
   48X2IT   C11 1517   2.051   4.944   2.793
   48X2IT    O3 1518   1.963   5.021   2.712
   48X2IT   C15 1519   1.958   5.162   2.737
   49X2IT   H18 1520   3.272   1.721   1.732
   49X2IT    N4 1521   3.177   1.735   1.703
   49X2IT   H17 1522   3.114   1.776   1.771
   49X2IT   C14 1523   3.156   1.758   1.570
   49X2IT    O5 1524   3.238   1.736   1.482
   49X2IT    O4 1525   3.030   1.804   1.550
   49X2IT   C13 1526   2.992   1.827   1.413
   49X2IT   C10 1527   2.944   1.697   1.345
   49X2IT    C9 1528   2.897   1.718   1.203
   49X2IT    C4 1529   2.766   1.675   1.190
   49X2IT    C5 1530   2.688   1.683   1.062
   49X2IT    O1 1531   2.572   1.639   1.058
   49X2IT    C6 1532   2.756   1.741   0.948
   49X2IT   C12 1533   2.683   1.752   0.816
   49X2IT    C7 1534   2.887   1.782   0.961
   49X2IT    C8 1535   2.965   1.774   1.093
   49X2IT    O2 1536   3.081   1.818   1.094
   49X2IT    N3 1537   2.959   1.836   0.861
   49X2IT   H15 1538   2.922   1.851   0.769
   49X2IT   H16 1539   3.054   1.865   0.883
   49X2IT    N2 1540   2.719   1.619   1.304
   49X2IT    C3 1541   2.581   1.622   1.356
   49X2IT    C2 1542   2.599   1.690   1.491
   49X2IT    H2 1543   2.523   1.679   1.568
   49X2IT    N1 1544   2.673   1.818   1.479
   49X2IT   H14 1545   2.653   1.876   1.561
   49X2IT    C1 1546   2.744   1.697   1.524
   49X2IT    H1 1547   2.782   1.689   1.625
   49X2IT   C11 1548   2.820   1.627   1.413
   49X2IT    O3 1549   2.851   1.500   1.466
   49X2IT   C15 1550   2.889   1.397   1.374
   50X2IT   H18 1551   3.513   3.461   3.013
   50X2IT    N4 1552   3.414   3.479   3.005
   50X2IT   H17 1553   3.374   3.476   2.912
   50X2IT   C14 1554   3.337   3.443   3.112
   50X2IT    O5 1555   3.379   3.419   3.224
   50X2IT    O4 1556   3.205   3.444   3.076
   50X2IT   C13 1557   3.111   3.414   3.181
   50X2IT   C10 1558   3.079   3.540   3.265
   50X2IT    C9 1559   2.975   3.515   3.372
   50X2IT    C4 1560   2.867   3.600   3.355
   50X2IT    C5 1561   2.746   3.600   3.443
   50X2IT    O1 1562   2.656   3.683   3.423
   50X2IT    C6 1563   2.744   3.504   3.550
   50X2IT   C12 1564   2.624   3.499   3.643
   50X2IT    C7 1565   2.852   3.419   3.568
   50X2IT    C8 1566   2.975   3.420   3.478
   50X2IT    O2 1567   3.065   3.337   3.500
   50X2IT    N3 1568   2.860   3.327   3.666
   50X2IT   H15 1569   2.787   3.312   3.733
   50X2IT   H16 1570   2.944   3.269   3.668
   50X2IT    N2 1571   2.887   3.687   3.253
   50X2IT    C3 1572   2.787   3.744   3.162
   50X2IT    C2 1573   2.837   3.697   3.026
   50X2IT    H2 1574   2.805   3.748   2.935
   50X2IT    N1 1575   2.861   3.551   3.022
   50X2IT   H14 1576   2.860   3.518   2.925
   50X2IT    C1 1577   2.975   3.643   3.040
   50X2IT    H1 1578   3.051   3.653   2.963
   50X2IT   C11 1579   3.017   3.660   3.185
   50X2IT    O3 1580   3.101   3.774   3.183
   50X2IT   C15 1581   3.126   3.839   3.309
   51X2IT   H18 1582   2.426   2.250   0.199
   51X2IT    N4 1583   2.414   2.178   0.268
   51X2IT   H17 1584   2.438   2.084   0.240
   51X2IT   C14 1585   2.429   2.215   0.398
   51X2IT    O5 1586   2.428   2.330   0.439
   51X2IT    O4 1587   2.441   2.104   0.477
   51X2IT   C13 1588   2.451   2.128   0.619
   51X2IT   C10 1589   2.313   2.147   0.683
   51X2IT    C9 1590   2.319   2.165   0.833
   51X2IT    C4 1591   2.244   2.068   0.896
   51X2IT    C5 1592   2.229   2.056   1.045
   51X2IT    O1 1593   2.156   1.968   1.093
   51X2IT    C6 1594   2.301   2.152   1.124
   51X2IT   C12 1595   2.291   2.147   1.276
   51X2IT    C7 1596   2.376   2.251   1.061
   51X2IT    C8 1597   2.389   2.261   0.909
   51X2IT    O2 1598   2.462   2.351   0.864
   51X2IT    N3 1599   2.445   2.345   1.127
   51X2IT   H15 1600   2.449   2.352   1.227
   51X2IT   H16 1601   2.498   2.412   1.070
   51X2IT    N2 1602   2.178   1.988   0.807
   51X2IT    C3 1603   2.146   1.845   0.821
   51X2IT    C2 1604   2.218   1.785   0.701
   51X2IT    H2 1605   2.188   1.687   0.664
   51X2IT    N1 1606   2.361   1.824   0.696
   51X2IT   H14 1607   2.413   1.757   0.639
   51X2IT    C1 1608   2.263   1.893   0.610
   51X2IT    H1 1609   2.266   1.882   0.502
   51X2IT   C11 1610   2.214   2.025   0.668
   51X2IT    O3 1611   2.100   2.057   0.590
   51X2IT   C15 1612   2.009   2.154   0.644
   52X2IT   H18 1613   2.684   0.033   4.529
   52X2IT    N4 1614   2.619   0.039   4.605
   52X2IT   H17 1615   2.535  -0.017   4.599
   52X2IT   C14 1616   2.671   0.067   4.728
   52X2IT    O5 1617   2.783   0.111   4.749
   52X2IT    O4 1618   2.578   0.042   4.825
   52X2IT   C13 1619   2.618   0.073   4.961
   52X2IT   C10 1620   2.597   0.222   4.992
   52X2IT    C9 1621   2.631   0.258   5.135
   52X2IT    C4 1622   2.521   0.314   5.198
   52X2IT    C5 1623   2.520   0.360   5.341
   52X2IT    O1 1624   2.418   0.412   5.387
   52X2IT    C6 1625   2.642   0.339   5.416
   52X2IT   C12 1626   2.647   0.383   5.561
   52X2IT    C7 1627   2.752   0.284   5.353
   52X2IT    C8 1628   2.752   0.239   5.207
   52X2IT    O2 1629   2.855   0.186   5.162
   52X2IT    N3 1630   2.870   0.263   5.414
   52X2IT   H15 1631   2.887   0.286   5.510
   52X2IT   H16 1632   2.944   0.220   5.358
   52X2IT    N2 1633   2.417   0.330   5.112
   52X2IT    C3 1634   2.273   0.321   5.143
   52X2IT    C2 1635   2.227   0.208   5.052
   52X2IT    H2 1636   2.122   0.198   5.026
   52X2IT    N1 1637   2.310   0.086   5.068
   52X2IT   H14 1638   2.258   0.005   5.034
   52X2IT    C1 1639   2.335   0.177   4.954
   52X2IT    H1 1640   2.315   0.145   4.852
   52X2IT   C11 1641   2.449   0.274   4.978
   52X2IT    O3 1642   2.434   0.371   4.876
   52X2IT   C15 1643   2.502   0.496   4.893
   53X2IT   H18 1644   1.528   4.984   4.360
   53X2IT    N4 1645   1.585   4.910   4.396
   53X2IT   H17 1646   1.656   4.873   4.334
   53X2IT   C14 1647   1.608   4.911   4.531
   53X2IT    O5 1648   1.544   4.975   4.612
   53X2IT    O4 1649   1.711   4.826   4.561
   53X2IT   C13 1650   1.742   4.812   4.701
   53X2IT   C10 1651   1.649   4.710   4.770
   53X2IT    C9 1652   1.683   4.687   4.915
   53X2IT    C4 1653   1.711   4.553   4.937
   53X2IT    C5 1654   1.749   4.497   5.071
   53X2IT    O1 1655   1.769   4.375   5.082
   53X2IT    C6 1656   1.760   4.591   5.180
   53X2IT   C12 1657   1.798   4.540   5.317
   53X2IT    C7 1658   1.731   4.724   5.158
   53X2IT    C8 1659   1.691   4.780   5.021
   53X2IT    O2 1660   1.672   4.903   5.012
   53X2IT    N3 1661   1.736   4.818   5.253
   53X2IT   H15 1662   1.763   4.799   5.349
   53X2IT   H16 1663   1.715   4.914   5.226
   53X2IT    N2 1664   1.692   4.478   4.826
   53X2IT    C3 1665   1.766   4.358   4.784
   53X2IT    C2 1666   1.823   4.401   4.650
   53X2IT    H2 1667   1.855   4.325   4.578
   53X2IT    N1 1668   1.897   4.529   4.658
   53X2IT   H14 1669   1.961   4.536   4.579
   53X2IT    C1 1670   1.759   4.527   4.606
   53X2IT    H1 1671   1.738   4.550   4.502
   53X2IT   C11 1672   1.654   4.564   4.710
   53X2IT    O3 1673   1.532   4.524   4.652
   53X2IT   C15 1674   1.419   4.510   4.739
   54X2IT   H18 1675   4.488   1.793   4.286
   54X2IT    N4 1676   4.436   1.820   4.367
   54X2IT   H17 1677   4.411   1.746   4.432
   54X2IT   C14 1678   4.457   1.946   4.415
   54X2IT    O5 1679   4.510   2.037   4.353
   54X2IT    O4 1680   4.405   1.958   4.541
   54X2IT   C13 1681   4.414   2.088   4.601
   54X2IT   C10 1682   4.299   2.180   4.555
   54X2IT    C9 1683   4.301   2.316   4.622
   54X2IT    C4 1684   4.182   2.338   4.689
   54X2IT    C5 1685   4.151   2.462   4.767
   54X2IT    O1 1686   4.040   2.475   4.820
   54X2IT    C6 1687   4.256   2.562   4.772
   54X2IT   C12 1688   4.231   2.690   4.849
   54X2IT    C7 1689   4.374   2.540   4.704
   54X2IT    C8 1690   4.404   2.413   4.625
   54X2IT    O2 1691   4.515   2.402   4.572
   54X2IT    N3 1692   4.476   2.628   4.702
   54X2IT   H15 1693   4.474   2.716   4.751
   54X2IT   H16 1694   4.560   2.601   4.650
   54X2IT    N2 1695   4.093   2.237   4.670
   54X2IT    C3 1696   3.992   2.186   4.764
   54X2IT    C2 1697   4.034   2.040   4.781
   54X2IT    H2 1698   3.962   1.967   4.817
   54X2IT    N1 1699   4.177   2.027   4.816
   54X2IT   H14 1700   4.193   1.935   4.860
   54X2IT    C1 1701   4.134   2.006   4.677
   54X2IT    H1 1702   4.140   1.908   4.631
   54X2IT   C11 1703   4.154   2.128   4.588
   54X2IT    O3 1704   4.078   2.099   4.472
   54X2IT   C15 1705   4.045   2.210   4.387
   55X2IT   H18 1706   2.316   3.258   3.673
   55X2IT    N4 1707   2.366   3.204   3.605
   55X2IT   H17 1708   2.409   3.118   3.637
   55X2IT   C14 1709   2.322   3.213   3.476
   55X2IT    O5 1710   2.247   3.299   3.433
   55X2IT    O4 1711   2.377   3.113   3.401
   55X2IT   C13 1712   2.344   3.113   3.261
   55X2IT   C10 1713   2.435   3.209   3.182
   55X2IT    C9 1714   2.408   3.207   3.033
   55X2IT    C4 1715   2.523   3.174   2.964
   55X2IT    C5 1716   2.531   3.162   2.815
   55X2IT    O1 1717   2.639   3.135   2.762
   55X2IT    C6 1718   2.409   3.185   2.742
   55X2IT   C12 1719   2.410   3.174   2.591
   55X2IT    C7 1720   2.294   3.220   2.811
   55X2IT    C8 1721   2.287   3.232   2.963
   55X2IT    O2 1722   2.178   3.259   3.015
   55X2IT    N3 1723   2.176   3.245   2.751
   55X2IT   H15 1724   2.162   3.239   2.652
   55X2IT   H16 1725   2.097   3.268   2.812
   55X2IT    N2 1726   2.630   3.160   3.047
   55X2IT    C3 1727   2.744   3.068   3.033
   55X2IT    C2 1728   2.735   2.986   3.161
   55X2IT    H2 1729   2.822   2.932   3.197
   55X2IT    N1 1730   2.600   2.928   3.180
   55X2IT   H14 1731   2.606   2.848   3.244
   55X2IT    C1 1732   2.639   3.050   3.254
   55X2IT    H1 1733   2.651   3.048   3.362
   55X2IT   C11 1734   2.589   3.178   3.189
   55X2IT    O3 1735   2.663   3.280   3.254
   55X2IT   C15 1736   2.668   3.408   3.189
   56X2IT   H18 1737   0.342   1.495   1.418
   56X2IT    N4 1738   0.398   1.498   1.335
   56X2IT   H17 1739   0.498   1.501   1.346
   56X2IT   C14 1740   0.345   1.436   1.225
   56X2IT    O5 1741   0.229   1.403   1.212
   56X2IT    O4 1742   0.442   1.420   1.130
   56X2IT   C13 1743   0.399   1.362   1.005
   56X2IT   C10 1744   0.337   1.468   0.911
   56X2IT    C9 1745   0.298   1.412   0.777
   56X2IT    C4 1746   0.363   1.480   0.676
   56X2IT    C5 1747   0.347   1.449   0.530
   56X2IT    O1 1748   0.407   1.518   0.446
   56X2IT    C6 1749   0.259   1.339   0.496
   56X2IT   C12 1750   0.239   1.302   0.351
   56X2IT    C7 1751   0.193   1.272   0.597
   56X2IT    C8 1752   0.210   1.305   0.746
   56X2IT    O2 1753   0.149   1.235   0.828
   56X2IT    N3 1754   0.109   1.170   0.576
   56X2IT   H15 1755   0.088   1.134   0.485
   56X2IT   H16 1756   0.067   1.126   0.659
   56X2IT    N2 1757   0.438   1.583   0.723
   56X2IT    C3 1758   0.565   1.635   0.670
   56X2IT    C2 1759   0.659   1.615   0.788
   56X2IT    H2 1760   0.751   1.673   0.793
   56X2IT    N1 1761   0.656   1.477   0.840
   56X2IT   H14 1762   0.742   1.459   0.893
   56X2IT    C1 1763   0.580   1.583   0.910
   56X2IT    H1 1764   0.609   1.616   1.009
   56X2IT   C11 1765   0.433   1.587   0.872
   56X2IT    O3 1766   0.388   1.712   0.920
   56X2IT   C15 1767   0.264   1.762   0.868
   57X2IT   H18 1768   2.008   1.320   4.477
   57X2IT    N4 1769   2.020   1.389   4.549
   57X2IT   H17 1770   2.004   1.485   4.524
   57X2IT   C14 1771   1.993   1.348   4.677
   57X2IT    O5 1772   1.984   1.233   4.714
   57X2IT    O4 1773   1.984   1.457   4.759
   57X2IT   C13 1774   1.963   1.430   4.899
   57X2IT   C10 1775   2.095   1.399   4.971
   57X2IT    C9 1776   2.078   1.376   5.120
   57X2IT    C4 1777   2.155   1.466   5.191
   57X2IT    C5 1778   2.161   1.471   5.341
   57X2IT    O1 1779   2.236   1.552   5.396
   57X2IT    C6 1780   2.077   1.378   5.412
   57X2IT   C12 1781   2.077   1.378   5.563
   57X2IT    C7 1782   2.000   1.287   5.340
   57X2IT    C8 1783   1.996   1.282   5.187
   57X2IT    O2 1784   1.920   1.200   5.134
   57X2IT    N3 1785   1.921   1.196   5.397
   57X2IT   H15 1786   1.910   1.186   5.497
   57X2IT   H16 1787   1.867   1.135   5.335
   57X2IT    N2 1788   2.232   1.543   5.109
   57X2IT    C3 1789   2.273   1.683   5.130
   57X2IT    C2 1790   2.212   1.753   5.009
   57X2IT    H2 1791   2.252   1.849   4.977
   57X2IT    N1 1792   2.068   1.723   4.993
   57X2IT   H14 1793   2.025   1.796   4.935
   57X2IT    C1 1794   2.167   1.651   4.911
   57X2IT    H1 1795   2.172   1.665   4.804
   57X2IT   C11 1796   2.203   1.514   4.966
   57X2IT    O3 1797   2.320   1.477   4.895
   57X2IT   C15 1798   2.399   1.371   4.951
   58X2IT   H18 1799   3.908   2.257   3.789
   58X2IT    N4 1800   3.976   2.299   3.851
   58X2IT   H17 1801   4.040   2.237   3.898
   58X2IT   C14 1802   4.017   2.425   3.818
   58X2IT    O5 1803   3.961   2.500   3.740
   58X2IT    O4 1804   4.129   2.457   3.889
   58X2IT   C13 1805   4.181   2.590   3.870
   58X2IT   C10 1806   4.107   2.692   3.958
   58X2IT    C9 1807   4.162   2.833   3.946
   58X2IT    C4 1808   4.203   2.878   4.070
   58X2IT    C5 1809   4.264   3.014   4.094
   58X2IT    O1 1810   4.294   3.048   4.209
   58X2IT    C6 1811   4.282   3.097   3.977
   58X2IT   C12 1812   4.343   3.235   3.994
   58X2IT    C7 1813   4.240   3.052   3.854
   58X2IT    C8 1814   4.178   2.914   3.831
   58X2IT    O2 1815   4.148   2.881   3.715
   58X2IT    N3 1816   4.252   3.122   3.740
   58X2IT   H15 1817   4.292   3.214   3.736
   58X2IT   H16 1818   4.219   3.078   3.654
   58X2IT    N2 1819   4.175   2.790   4.169
   58X2IT    C3 1820   4.251   2.765   4.292
   58X2IT    C2 1821   4.286   2.617   4.279
   58X2IT    H2 1822   4.314   2.560   4.367
   58X2IT    N1 1823   4.350   2.586   4.149
   58X2IT   H14 1824   4.402   2.499   4.156
   58X2IT    C1 1825   4.206   2.558   4.169
   58X2IT    H1 1826   4.170   2.456   4.170
   58X2IT   C11 1827   4.115   2.666   4.113
   58X2IT    O3 1828   3.989   2.637   4.171
   58X2IT   C15 1829   3.891   2.742   4.170
   59X2IT   H18 1830   4.477   4.614   4.002
   59X2IT    N4 1831   4.403   4.594   4.066
   59X2IT   H17 1832   4.319   4.552   4.028
   59X2IT   C14 1833   4.440   4.563   4.194
   59X2IT    O5 1834   4.549   4.586   4.243
   59X2IT    O4 1835   4.334   4.508   4.262
   59X2IT   C13 1836   4.357   4.477   4.401
   59X2IT   C10 1837   4.337   4.601   4.490
   59X2IT    C9 1838   4.353   4.571   4.637
   59X2IT    C4 1839   4.237   4.605   4.705
   59X2IT    C5 1840   4.219   4.587   4.853
   59X2IT    O1 1841   4.113   4.624   4.907
   59X2IT    C6 1842   4.329   4.528   4.925
   59X2IT   C12 1843   4.318   4.507   5.075
   59X2IT    C7 1844   4.445   4.496   4.857
   59X2IT    C8 1845   4.463   4.515   4.706
   59X2IT    O2 1846   4.569   4.478   4.655
   59X2IT    N3 1847   4.554   4.442   4.916
   59X2IT   H15 1848   4.559   4.421   5.014
   59X2IT   H16 1849   4.633   4.420   4.855
   59X2IT    N2 1850   4.145   4.663   4.624
   59X2IT    C3 1851   3.998   4.654   4.633
   59X2IT    C2 1852   3.962   4.593   4.498
   59X2IT    H2 1853   3.861   4.603   4.460
   59X2IT    N1 1854   4.039   4.469   4.471
   59X2IT   H14 1855   3.989   4.414   4.400
   59X2IT    C1 1856   4.080   4.597   4.409
   59X2IT    H1 1857   4.073   4.611   4.302
   59X2IT   C11 1858   4.193   4.666   4.483
   59X2IT    O3 1859   4.194   4.797   4.430
   59X2IT   C15 1860   4.263   4.898   4.506
   60X2IT   H18 1861   0.129   2.189   2.918
   60X2IT    N4 1862   0.196   2.215   2.849
   60X2IT   H17 1863   0.294   2.205   2.874
   60X2IT   C14 1864   0.159   2.199   2.718
   60X2IT    O5 1865   0.045   2.183   2.679
   60X2IT    O4 1866   0.269   2.208   2.637
   60X2IT   C13 1867   0.244   2.200   2.495
   60X2IT   C10 1868   0.201   2.336   2.438
   60X2IT    C9 1869   0.180   2.333   2.288
   60X2IT    C4 1870   0.263   2.425   2.227
   60X2IT    C5 1871   0.268   2.447   2.078
   60X2IT    O1 1872   0.343   2.535   2.032
   60X2IT    C6 1873   0.183   2.364   1.997
   60X2IT   C12 1874   0.184   2.380   1.847
   60X2IT    C7 1875   0.100   2.272   2.059
   60X2IT    C8 1876   0.095   2.251   2.210
   60X2IT    O2 1877   0.019   2.163   2.255
   60X2IT    N3 1878   0.016   2.191   1.993
   60X2IT   H15 1879   0.008   2.191   1.892
   60X2IT   H16 1880  -0.040   2.126   2.048
   60X2IT    N2 1881   0.333   2.499   2.317
   60X2IT    C3 1882   0.469   2.554   2.302
   60X2IT    C2 1883   0.543   2.488   2.417
   60X2IT    H2 1884   0.636   2.532   2.454
   60X2IT    N1 1885   0.527   2.340   2.417
   60X2IT   H14 1886   0.603   2.298   2.471
   60X2IT    C1 1887   0.445   2.423   2.508
   60X2IT    H1 1888   0.460   2.417   2.616
   60X2IT   C11 1889   0.306   2.452   2.455
   60X2IT    O3 1890   0.259   2.557   2.538
   60X2IT   C15 1891   0.147   2.633   2.490
   61X2IT   H18 1892   0.602   1.060   0.474
   61X2IT    N4 1893   0.617   0.980   0.533
   61X2IT   H17 1894   0.692   0.918   0.507
   61X2IT   C14 1895   0.585   0.995   0.665
   61X2IT    O5 1896   0.515   1.084   0.711
   61X2IT    O4 1897   0.638   0.892   0.738
   61X2IT   C13 1898   0.606   0.890   0.878
   61X2IT   C10 1899   0.469   0.826   0.904
   61X2IT    C9 1900   0.435   0.816   1.051
   61X2IT    C4 1901   0.412   0.684   1.086
   61X2IT    C5 1902   0.376   0.639   1.225
   61X2IT    O1 1903   0.354   0.520   1.247
   61X2IT    C6 1904   0.370   0.742   1.327
   61X2IT   C12 1905   0.335   0.704   1.469
   61X2IT    C7 1906   0.392   0.874   1.291
   61X2IT    C8 1907   0.427   0.918   1.149
   61X2IT    O2 1908   0.449   1.039   1.130
   61X2IT    N3 1909   0.387   0.976   1.378
   61X2IT   H15 1910   0.367   0.965   1.476
   61X2IT   H16 1911   0.406   1.070   1.341
   61X2IT    N2 1912   0.417   0.601   0.979
   61X2IT    C3 1913   0.463   0.462   0.975
   61X2IT    C2 1914   0.578   0.469   0.876
   61X2IT    H2 1915   0.612   0.378   0.826
   61X2IT    N1 1916   0.676   0.574   0.911
   61X2IT   H14 1917   0.766   0.553   0.866
   61X2IT    C1 1918   0.575   0.600   0.806
   61X2IT    H1 1919   0.605   0.612   0.703
   61X2IT   C11 1920   0.454   0.677   0.856
   61X2IT    O3 1921   0.358   0.661   0.753
   61X2IT   C15 1922   0.222   0.689   0.786
   62X2IT   H18 1923   3.893   3.049   3.734
   62X2IT    N4 1924   3.903   3.092   3.644
   62X2IT   H17 1925   3.963   3.046   3.577
   62X2IT   C14 1926   3.795   3.164   3.598
   62X2IT    O5 1927   3.702   3.202   3.667
   62X2IT    O4 1928   3.810   3.190   3.465
   62X2IT   C13 1929   3.707   3.270   3.405
   62X2IT   C10 1930   3.732   3.421   3.428
   62X2IT    C9 1931   3.630   3.509   3.360
   62X2IT    C4 1932   3.692   3.596   3.272
   62X2IT    C5 1933   3.619   3.696   3.188
   62X2IT    O1 1934   3.684   3.773   3.115
   62X2IT    C6 1935   3.475   3.698   3.199
   62X2IT   C12 1936   3.396   3.797   3.117
   62X2IT    C7 1937   3.413   3.612   3.287
   62X2IT    C8 1938   3.489   3.510   3.373
   62X2IT    O2 1939   3.422   3.435   3.446
   62X2IT    N3 1940   3.280   3.607   3.306
   62X2IT   H15 1941   3.216   3.666   3.256
   62X2IT   H16 1942   3.245   3.538   3.373
   62X2IT    N2 1943   3.827   3.585   3.277
   62X2IT    C3 1944   3.923   3.603   3.167
   62X2IT    C2 1945   3.991   3.466   3.161
   62X2IT    H2 1946   4.089   3.457   3.113
   62X2IT    N1 1947   3.894   3.355   3.152
   62X2IT   H14 1948   3.940   3.273   3.114
   62X2IT    C1 1949   3.956   3.388   3.282
   62X2IT    H1 1950   4.024   3.319   3.330
   62X2IT   C11 1951   3.868   3.476   3.370
   62X2IT    O3 1952   3.956   3.522   3.471
   62X2IT   C15 1953   3.914   3.636   3.547
   63X2IT   H18 1954   3.600   4.903   3.397
   63X2IT    N4 1955   3.670   4.913   3.325
   63X2IT   H17 1956   3.759   4.952   3.353
   63X2IT   C14 1957   3.666   4.824   3.222
   63X2IT    O5 1958   3.571   4.752   3.195
   63X2IT    O4 1959   3.782   4.830   3.150
   63X2IT   C13 1960   3.789   4.745   3.034
   63X2IT   C10 1961   3.721   4.811   2.912
   63X2IT    C9 1962   3.733   4.728   2.786
   63X2IT    C4 1963   3.796   4.801   2.687
   63X2IT    C5 1964   3.824   4.748   2.549
   63X2IT    O1 1965   3.877   4.821   2.465
   63X2IT    C6 1966   3.784   4.611   2.523
   63X2IT   C12 1967   3.809   4.552   2.386
   63X2IT    C7 1968   3.720   4.539   2.622
   63X2IT    C8 1969   3.691   4.595   2.762
   63X2IT    O2 1970   3.637   4.519   2.844
   63X2IT    N3 1971   3.677   4.413   2.607
   63X2IT   H15 1972   3.690   4.360   2.522
   63X2IT   H16 1973   3.633   4.368   2.687
   63X2IT    N2 1974   3.822   4.928   2.726
   63X2IT    C3 1975   3.936   5.012   2.687
   63X2IT    C2 1976   4.002   5.041   2.821
   63X2IT    H2 1977   4.069   5.127   2.831
   63X2IT    N1 1978   4.029   4.918   2.898
   63X2IT   H14 1979   4.102   4.936   2.968
   63X2IT    C1 1980   3.911   5.000   2.931
   63X2IT    H1 1981   3.905   5.053   3.025
   63X2IT   C11 1982   3.783   4.949   2.868
   63X2IT    O3 1983   3.692   5.057   2.882
   63X2IT   C15 1984   3.575   5.055   2.800
   64X2IT   H18 1985   2.982   2.518   4.589
   64X2IT    N4 1986   2.931   2.485   4.509
   64X2IT   H17 1987   2.851   2.426   4.527
   64X2IT   C14 1988   2.930   2.567   4.400
   64X2IT    O5 1989   3.007   2.660   4.381
   64X2IT    O4 1990   2.834   2.527   4.312
   64X2IT   C13 1991   2.826   2.600   4.188
   64X2IT   C10 1992   2.929   2.549   4.085
   64X2IT    C9 1993   2.919   2.619   3.951
   64X2IT    C4 1994   2.895   2.526   3.851
   64X2IT    C5 1995   2.879   2.563   3.706
   64X2IT    O1 1996   2.861   2.473   3.623
   64X2IT    C6 1997   2.887   2.703   3.674
   64X2IT   C12 1998   2.871   2.746   3.529
   64X2IT    C7 1999   2.912   2.795   3.774
   64X2IT    C8 2000   2.928   2.757   3.921
   64X2IT    O2 2001   2.946   2.848   4.003
   64X2IT    N3 2002   2.922   2.927   3.753
   64X2IT   H15 2003   2.912   2.969   3.662
   64X2IT   H16 2004   2.939   2.986   3.835
   64X2IT    N2 2005   2.895   2.399   3.898
   64X2IT    C3 2006   2.815   2.285   3.850
   64X2IT    C2 2007   2.736   2.247   3.974
   64X2IT    H2 2008   2.693   2.147   3.982
   64X2IT    N1 2009   2.666   2.362   4.034
   64X2IT   H14 2010   2.589   2.328   4.093
   64X2IT    C1 2011   2.793   2.316   4.092
   64X2IT    H1 2012   2.796   2.272   4.191
   64X2IT   C11 2013   2.913   2.397   4.046
   64X2IT    O3 2014   3.025   2.318   4.084
   64X2IT   C15 2015   3.150   2.347   4.021
   65X2IT   H18 2016   3.731  -0.015   1.179
   65X2IT    N4 2017   3.678   0.035   1.248
   65X2IT   H17 2018   3.610   0.102   1.215
   65X2IT   C14 2019   3.654  -0.032   1.365
   65X2IT    O5 2020   3.713  -0.132   1.402
   65X2IT    O4 2021   3.557   0.032   1.436
   65X2IT   C13 2022   3.526  -0.023   1.566
   65X2IT   C10 2023   3.624   0.025   1.673
   65X2IT    C9 2024   3.591  -0.026   1.812
   65X2IT    C4 2025   3.572   0.081   1.898
   65X2IT    C5 2026   3.536   0.065   2.043
   65X2IT    O1 2027   3.525   0.166   2.114
   65X2IT    C6 2028   3.518  -0.070   2.091
   65X2IT   C12 2029   3.482  -0.092   2.237
   65X2IT    C7 2030   3.538  -0.176   2.005
   65X2IT    C8 2031   3.575  -0.159   1.858
   65X2IT    O2 2032   3.586  -0.261   1.788
   65X2IT    N3 2033   3.526  -0.305   2.041
   65X2IT   H15 2034   3.500  -0.334   2.134
   65X2IT   H16 2035   3.541  -0.375   1.968
   65X2IT    N2 2036   3.597   0.200   1.839
   65X2IT    C3 2037   3.532   0.329   1.864
   65X2IT    C2 2038   3.472   0.363   1.728
   65X2IT    H2 2039   3.446   0.466   1.705
   65X2IT    N1 2040   3.390   0.253   1.674
   65X2IT   H14 2041   3.326   0.290   1.603
   65X2IT    C1 2042   3.529   0.272   1.626
   65X2IT    H1 2043   3.548   0.302   1.524
   65X2IT   C11 2044   3.629   0.181   1.695
   65X2IT    O3 2045   3.755   0.237   1.661
   65X2IT   C15 2046   3.868   0.198   1.741
   66X2IT   H18 2047   4.063   3.677   1.721
   66X2IT    N4 2048   4.120   3.676   1.803
   66X2IT   H17 2049   4.195   3.745   1.808
   66X2IT   C14 2050   4.060   3.635   1.919
   66X2IT    O5 2051   3.955   3.575   1.926
   66X2IT    O4 2052   4.138   3.669   2.026
   66X2IT   C13 2053   4.090   3.625   2.155
   66X2IT   C10 2054   4.129   3.479   2.184
   66X2IT    C9 2055   4.087   3.432   2.321
   66X2IT    C4 2056   4.197   3.390   2.393
   66X2IT    C5 2057   4.190   3.337   2.534
   66X2IT    O1 2058   4.294   3.298   2.589
   66X2IT    C6 2059   4.060   3.336   2.596
   66X2IT   C12 2060   4.046   3.285   2.738
   66X2IT    C7 2061   3.950   3.378   2.523
   66X2IT    C8 2062   3.958   3.430   2.380
   66X2IT    O2 2063   3.853   3.469   2.326
   66X2IT    N3 2064   3.824   3.378   2.572
   66X2IT   H15 2065   3.801   3.349   2.665
   66X2IT   H16 2066   3.751   3.413   2.510
   66X2IT    N2 2067   4.311   3.393   2.319
   66X2IT    C3 2068   4.448   3.421   2.365
   66X2IT    C2 2069   4.485   3.544   2.283
   66X2IT    H2 2070   4.590   3.570   2.269
   66X2IT    N1 2071   4.383   3.651   2.295
   66X2IT   H14 2072   4.426   3.741   2.269
   66X2IT    C1 2073   4.384   3.564   2.176
   66X2IT    H1 2074   4.409   3.603   2.078
   66X2IT   C11 2075   4.284   3.450   2.184
   66X2IT    O3 2076   4.323   3.362   2.081
   66X2IT   C15 2077   4.273   3.227   2.087
   67X2IT   H18 2078   3.736   1.611   4.394
   67X2IT    N4 2079   3.637   1.612   4.404
   67X2IT   H17 2080   3.582   1.647   4.327
   67X2IT   C14 2081   3.584   1.514   4.484
   67X2IT    O5 2082   3.646   1.446   4.563
   67X2IT    O4 2083   3.448   1.507   4.465
   67X2IT   C13 2084   3.378   1.412   4.547
   67X2IT   C10 2085   3.346   1.471   4.686
   67X2IT    C9 2086   3.265   1.377   4.773
   67X2IT    C4 2087   3.147   1.437   4.811
   67X2IT    C5 2088   3.043   1.371   4.897
   67X2IT    O1 2089   2.941   1.434   4.929
   67X2IT    C6 2090   3.071   1.235   4.939
   67X2IT   C12 2091   2.971   1.163   5.026
   67X2IT    C7 2092   3.190   1.176   4.902
   67X2IT    C8 2093   3.295   1.245   4.814
   67X2IT    O2 2094   3.397   1.180   4.783
   67X2IT    N3 2095   3.226   1.051   4.937
   67X2IT   H15 2096   3.167   0.991   4.992
   67X2IT   H16 2097   3.316   1.017   4.902
   67X2IT    N2 2098   3.138   1.565   4.768
   67X2IT    C3 2099   3.018   1.639   4.727
   67X2IT    C2 2100   3.049   1.676   4.583
   67X2IT    H2 2101   2.996   1.758   4.535
   67X2IT    N1 2102   3.090   1.558   4.503
   67X2IT   H14 2103   3.076   1.578   4.403
   67X2IT    C1 2104   3.193   1.650   4.555
   67X2IT    H1 2105   3.252   1.711   4.489
   67X2IT   C11 2106   3.257   1.601   4.684
   67X2IT    O3 2107   3.325   1.715   4.735
   67X2IT   C15 2108   3.362   1.712   4.873
   68SOL     OW 2109   0.230   0.628   0.113
   68SOL    HW1 2110   0.137   0.626   0.150
   68SOL    HW2 2111   0.231   0.589   0.021
   69SOL     OW 2112   0.225   0.275   0.996
   69SOL    HW1 2113   0.260   0.258   1.088
   69SOL    HW2 2114   0.137   0.230   0.984
   70SOL     OW 2115   0.019   0.368   0.647
   70SOL    HW1 2116  -0.063   0.411   0.686
   70SOL    HW2 2117  -0.009   0.295   0.584
   71SOL     OW 2118   0.569   1.275   1.165
   71SOL    HW1 2119   0.476   1.268   1.128
   71SOL    HW2 2120   0.580   1.364   1.209
   72SOL     OW 2121   1.555   1.511   0.703
   72SOL    HW1 2122   1.498   1.495   0.784
   72SOL    HW2 2123   1.496   1.521   0.623
   73SOL     OW 2124   1.135   0.703   0.717
   73SOL    HW1 2125   1.192   0.781   0.692
   73SOL    HW2 2126   1.075   0.729   0.793
   74SOL     OW 2127   0.768   1.144   1.023
   74SOL    HW1 2128   0.690   1.161   1.083
   74SOL    HW2 2129   0.802   1.231   0.987
   75SOL     OW 2130   0.850   0.798   1.823
   75SOL    HW1 2131   0.846   0.874   1.888
   75SOL    HW2 2132   0.872   0.834   1.732
   76SOL     OW 2133   0.686   1.161   1.803
   76SOL    HW1 2134   0.746   1.240   1.817
   76SOL    HW2 2135   0.600   1.192   1.762
   77SOL     OW 2136   0.438   0.392   1.499
   77SOL    HW1 2137   0.520   0.336   1.508
   77SOL    HW2 2138   0.357   0.334   1.503
   78SOL     OW 2139   1.603   0.447   0.737
   78SOL    HW1 2140   1.529   0.493   0.687
   78SOL    HW2 2141   1.654   0.515   0.790
   79SOL     OW 2142   0.231   1.713   0.483
   79SOL    HW1 2143   0.265   1.790   0.537
   79SOL    HW2 2144   0.275   1.713   0.393
   80SOL     OW 2145   0.606   0.964   0.123
   80SOL    HW1 2146   0.613   1.048   0.069
   80SOL    HW2 2147   0.652   0.977   0.211
   81SOL     OW 2148   1.594   0.114   1.480
   81SOL    HW1 2149   1.576   0.181   1.408
   81SOL    HW2 2150   1.591   0.160   1.569
   82SOL     OW 2151   0.122   0.643   0.563
   82SOL    HW1 2152   0.077   0.555   0.580
   82SOL    HW2 2153   0.121   0.697   0.647
   83SOL     OW 2154   1.842   1.767   0.359
   83SOL    HW1 2155   1.896   1.738   0.439
   83SOL    HW2 2156   1.872   1.857   0.330
   84SOL     OW 2157   0.027   1.596   0.117
   84SOL    HW1 2158   0.008   1.500   0.138
   84SOL    HW2 2159  -0.006   1.654   0.192
   85SOL     OW 2160   1.689   0.922   0.612
   85SOL    HW1 2161   1.784   0.893   0.620
   85SOL    HW2 2162   1.681   0.987   0.537
   86SOL     OW 2163   1.641   1.108   0.432
   86SOL    HW1 2164   1.727   1.110   0.380
   86SOL    HW2 2165   1.655   1.155   0.520
   87SOL     OW 2166   0.113   0.737   1.597
   87SOL    HW1 2167   0.201   0.724   1.642
   87SOL    HW2 2168   0.100   0.834   1.575
   88SOL     OW 2169   1.293   1.228   1.423
   88SOL    HW1 2170   1.330   1.155   1.365
   88SOL    HW2 2171   1.345   1.233   1.508
   89SOL     OW 2172   0.809   0.004   0.502
   89SOL    HW1 2173   0.849   0.095   0.493
   89SOL    HW2 2174   0.709   0.012   0.508
   90SOL     OW 2175   1.525   0.999   0.190
   90SOL    HW1 2176   1.462   0.923   0.203
   90SOL    HW2 2177   1.573   1.017   0.276
   91SOL     OW 2178   1.187   1.792   1.616
   91SOL    HW1 2179   1.211   1.852   1.540
   91SOL    HW2 2180   1.194   1.697   1.586
   92SOL     OW 2181   0.317   0.251   1.801
   92SOL    HW1 2182   0.388   0.322   1.807
   92SOL    HW2 2183   0.229   0.290   1.829
   93SOL     OW 2184   1.466   1.417   0.953
   93SOL    HW1 2185   1.407   1.423   1.033
   93SOL    HW2 2186   1.451   1.329   0.907
   94SOL     OW 2187   0.598   0.729   0.270
   94SOL    HW1 2188   0.622   0.798   0.202
   94SOL    HW2 2189   0.520   0.762   0.324
   95SOL     OW 2190   1.576   1.662   0.307
   95SOL    HW1 2191   1.665   1.708   0.310
   95SOL    HW2 2192   1.555   1.638   0.212
   96SOL     OW 2193   0.807   0.605   1.465
   96SOL    HW1 2194   0.760   0.602   1.554
   96SOL    HW2 2195   0.756   0.550   1.399
   97SOL     OW 2196   1.394   0.469   1.674
   97SOL    HW1 2197   1.374   0.512   1.762
   97SOL    HW2 2198   1.472   0.407   1.683
   98SOL     OW 2199   0.973   0.890   1.572
   98SOL    HW1 2200   1.019   0.806   1.543
   98SOL    HW2 2201   0.917   0.924   1.497
   99SOL     OW 2202   0.991   0.410   1.242
   99SOL    HW1 2203   0.914   0.444   1.296
   99SOL    HW2 2204   0.957   0.359   1.163
  100SOL     OW 2205   1.041   0.701   0.429
  100SOL    HW1 2206   1.067   0.697   0.525
  100SOL    HW2 2207   0.956   0.650   0.415
  101SOL     OW 2208   0.130   1.821   1.571
  101SOL    HW1 2209   0.120   1.806   1.670
  101SOL    HW2 2210   0.044   1.857   1.535
  102SOL     OW 2211   0.865   0.348   0.195
  102SOL    HW1 2212   0.924   0.411   0.146
  102SOL    HW2 2213   0.884   0.254   0.166
  103SOL     OW 2214   1.719   0.585   1.831
  103SOL    HW1 2215   1.693   0.674   1.795
  103SOL    HW2 2216   1.717   0.517   1.758
  104SOL     OW 2217   1.362   1.144   0.545
  104SOL    HW1 2218   1.445   1.115   0.497
  104SOL    HW2 2219   1.313   1.211   0.489
  105SOL     OW 2220   1.008   1.456   0.477
  105SOL    HW1 2221   0.962   1.528   0.425
  105SOL    HW2 2222   1.004   1.476   0.575
  106SOL     OW 2223   1.795   1.066   0.873
  106SOL    HW1 2224   1.733   1.051   0.797
  106SOL    HW2 2225   1.743   1.077   0.958
  107SOL     OW 2226   0.321   0.943   0.242
  107SOL    HW1 2227   0.403   0.982   0.200
  107SOL    HW2 2228   0.294   0.861   0.193
  108SOL     OW 2229   1.458   0.735   0.728
  108SOL    HW1 2230   1.453   0.670   0.803
  108SOL    HW2 2231   1.538   0.794   0.741
  109SOL     OW 2232   0.461   1.266   1.727
  109SOL    HW1 2233   0.411   1.267   1.641
  109SOL    HW2 2234   0.398   1.248   1.803
  110SOL     OW 2235   1.111   1.776   0.237
  110SOL    HW1 2236   1.051   1.714   0.287
  110SOL    HW2 2237   1.142   1.732   0.152
  111SOL     OW 2238   0.202   0.285   1.498
  111SOL    HW1 2239   0.122   0.345   1.485
  111SOL    HW2 2240   0.192   0.236   1.584
  112SOL     OW 2241   1.632   1.377   0.081
  112SOL    HW1 2242   1.600   1.471   0.071
  112SOL    HW2 2243   1.556   1.314   0.069
  113SOL     OW 2244   0.464   1.743   0.323
  113SOL    HW1 2245   0.497   1.782   0.409
  113SOL    HW2 2246   0.540   1.736   0.258
  114SOL     OW 2247   0.249   1.785   1.241
  114SOL    HW1 2248   0.306   1.720   1.291
  114SOL    HW2 2249   0.233   1.752   1.148
  115SOL     OW 2250   0.940   1.698   0.904
  115SOL    HW1 2251   1.020   1.641   0.925
  115SOL    HW2 2252   0.891   1.658   0.827
  116SOL     OW 2253   0.382   0.700   0.480
  116SOL    HW1 2254   0.427   0.610   0.477
  116SOL    HW2 2255   0.288   0.689   0.513
  117SOL     OW 2256   1.547   0.222   1.729
  117SOL    HW1 2257   1.542   0.259   1.821
  117SOL    HW2 2258   1.475   0.153   1.717
  118SOL     OW 2259   0.781   0.264   1.749
  118SOL    HW1 2260   0.848   0.203   1.792
  118SOL    HW2 2261   0.708   0.283   1.814
  119SOL     OW 2262   0.888   1.514   1.195
  119SOL    HW1 2263   0.865   1.489   1.101
  119SOL    HW2 2264   0.949   1.445   1.234
  120SOL     OW 2265   1.351   0.590   1.433
  120SOL    HW1 2266   1.379   0.547   1.518
  120SOL    HW2 2267   1.376   0.686   1.434
  121SOL     OW 2268   0.922   0.503   0.899
  121SOL    HW1 2269   0.897   0.494   0.803
  121SOL    HW2 2270   0.970   0.421   0.930
  122SOL     OW 2271   0.539   0.064   0.512
  122SOL    HW1 2272   0.458   0.065   0.570
  122SOL    HW2 2273   0.542   0.147   0.457
  123SOL     OW 2274   1.434   1.188   0.041
  123SOL    HW1 2275   1.466   1.112   0.098
  123SOL    HW2 2276   1.342   1.215   0.071
  124SOL     OW 2277   0.935   0.236   0.480
  124SOL    HW1 2278   0.887   0.277   0.402
  124SOL    HW2 2279   1.034   0.234   0.461
  125SOL     OW 2280   1.076   0.683   1.464
  125SOL    HW1 2281   0.996   0.622   1.467
  125SOL    HW2 2282   1.157   0.630   1.440
  126SOL     OW 2283   1.227   1.570   0.793
  126SOL    HW1 2284   1.248   1.644   0.728
  126SOL    HW2 2285   1.295   1.570   0.866
  127SOL     OW 2286   0.078   0.556   1.386
  127SOL    HW1 2287   0.170   0.555   1.345
  127SOL    HW2 2288   0.072   0.630   1.453
  128SOL     OW 2289   0.561   0.222   1.147
  128SOL    HW1 2290   0.599   0.138   1.184
  128SOL    HW2 2291   0.473   0.241   1.191
  129SOL     OW 2292   0.866   0.454   0.642
  129SOL    HW1 2293   0.834   0.526   0.580
  129SOL    HW2 2294   0.890   0.373   0.589
  130SOL     OW 2295   1.429   1.173   0.867
  130SOL    HW1 2296   1.374   1.089   0.860
  130SOL    HW2 2297   1.455   1.202   0.775
  131SOL     OW 2298   1.466   0.590   0.992
  131SOL    HW1 2299   1.436   0.495   0.999
  131SOL    HW2 2300   1.539   0.606   1.058
  132SOL     OW 2301   0.488   1.385   0.174
  132SOL    HW1 2302   0.401   1.370   0.221
  132SOL    HW2 2303   0.471   1.411   0.079
  133SOL     OW 2304   1.664   1.280   0.657
  133SOL    HW1 2305   1.763   1.288   0.671
  133SOL    HW2 2306   1.619   1.364   0.688
  134SOL     OW 2307   1.754   1.223   1.588
  134SOL    HW1 2308   1.845   1.184   1.575
  134SOL    HW2 2309   1.762   1.319   1.612
  135SOL     OW 2310   1.064   1.347   1.340
  135SOL    HW1 2311   0.984   1.324   1.395
  135SOL    HW2 2312   1.147   1.321   1.389
  136SOL     OW 2313   1.111   1.195   1.100
  136SOL    HW1 2314   1.071   1.239   1.181
  136SOL    HW2 2315   1.070   1.232   1.017
  137SOL     OW 2316   1.638   1.099   1.079
  137SOL    HW1 2317   1.643   1.180   1.138
  137SOL    HW2 2318   1.552   1.101   1.028
  138SOL     OW 2319   0.915   0.089   1.402
  138SOL    HW1 2320   0.940   0.069   1.307
  138SOL    HW2 2321   0.987   0.145   1.444
  139SOL     OW 2322   1.274   0.386   1.262
  139SOL    HW1 2323   1.295   0.460   1.326
  139SOL    HW2 2324   1.185   0.403   1.219
  140SOL     OW 2325   0.064   1.564   1.331
  140SOL    HW1 2326   0.018   1.646   1.297
  140SOL    HW2 2327   0.162   1.583   1.340
  141SOL     OW 2328   0.367   1.100   0.501
  141SOL    HW1 2329   0.360   1.183   0.445
  141SOL    HW2 2330   0.371   1.020   0.441
  142SOL     OW 2331   1.252   1.348   0.388
  142SOL    HW1 2332   1.302   1.425   0.428
  142SOL    HW2 2333   1.157   1.350   0.420
  143SOL     OW 2334   1.272   1.445   1.142
  143SOL    HW1 2335   1.319   1.458   1.229
  143SOL    HW2 2336   1.206   1.371   1.151
  144SOL     OW 2337   1.587   0.779   1.670
  144SOL    HW1 2338   1.495   0.817   1.665
  144SOL    HW2 2339   1.647   0.826   1.605
  145SOL     OW 2340   1.013   0.105   1.770
  145SOL    HW1 2341   1.019   0.190   1.718
  145SOL    HW2 2342   1.045   0.029   1.713
  146SOL     OW 2343   0.504   0.050   1.740
  146SOL    HW1 2344   0.462  -0.007   1.670
  146SOL    HW2 2345   0.438   0.119   1.772
  147SOL     OW 2346   1.360   0.862   1.045
  147SOL    HW1 2347   1.285   0.862   0.979
  147SOL    HW2 2348   1.397   0.770   1.054
  148SOL     OW 2349   0.307   0.213   1.231
  148SOL    HW1 2350   0.284   0.250   1.321
  148SOL    HW2 2351   0.277   0.118   1.225
  149SOL     OW 2352   0.037   1.310   1.282
  149SOL    HW1 2353   0.090   1.261   1.350
  149SOL    HW2 2354   0.059   1.408   1.287
  150SOL     OW 2355   1.728   0.935   1.854
  150SOL    HW1 2356   1.682   0.928   1.765
  150SOL    HW2 2357   1.666   0.979   1.920
  151SOL     OW 2358   0.307   0.063   0.618
  151SOL    HW1 2359   0.296   0.157   0.651
  151SOL    HW2 2360   0.302   0.000   0.695
  152SOL     OW 2361   1.023   0.766   0.966
  152SOL    HW1 2362   1.038   0.787   1.062
  152SOL    HW2 2363   0.993   0.671   0.957
  153SOL     OW 2364   1.859   1.518   1.605
  153SOL    HW1 2365   1.873   1.545   1.510
  153SOL    HW2 2366   1.942   1.540   1.658
  154SOL     OW 2367   0.350   0.898   1.804
  154SOL    HW1 2368   0.426   0.942   1.852
  154SOL    HW2 2369   0.385   0.851   1.722
  155SOL     OW 2370   1.303   0.838   0.042
  155SOL    HW1 2371   1.337   0.745   0.057
  155SOL    HW2 2372   1.321   0.865  -0.053
  156SOL     OW 2373   1.068   1.333   0.849
  156SOL    HW1 2374   1.075   1.249   0.794
  156SOL    HW2 2375   1.130   1.402   0.813
  157SOL     OW 2376   1.138   0.380   1.678
  157SOL    HW1 2377   1.093   0.443   1.742
  157SOL    HW2 2378   1.231   0.411   1.661
  158SOL     OW 2379   0.008   1.326   0.200
  158SOL    HW1 2380  -0.085   1.347   0.169
  158SOL    HW2 2381   0.018   1.227   0.213
  159SOL     OW 2382   1.002   0.796   1.238
  159SOL    HW1 2383   1.043   0.764   1.324
  159SOL    HW2 2384   0.906   0.769   1.235
  160SOL     OW 2385   0.040   0.544   1.114
  160SOL    HW1 2386   0.125   0.511   1.073
  160SOL    HW2 2387   0.053   0.559   1.212
  161SOL     OW 2388   0.189   0.520   1.722
  161SOL    HW1 2389   0.248   0.480   1.652
  161SOL    HW2 2390   0.131   0.591   1.681
  162SOL     OW 2391   0.815   0.572   0.325
  162SOL    HW1 2392   0.822   0.483   0.279
  162SOL    HW2 2393   0.721   0.606   0.317
  163SOL     OW 2394   1.657   0.604   1.206
  163SOL    HW1 2395   1.619   0.535   1.268
  163SOL    HW2 2396   1.739   0.568   1.162
  164SOL     OW 2397   0.252   1.564   1.744
  164SOL    HW1 2398   0.222   1.621   1.820
  164SOL    HW2 2399   0.245   1.467   1.770
  165SOL     OW 2400   0.671   0.464   1.269
  165SOL    HW1 2401   0.637   0.375   1.239
  165SOL    HW2 2402   0.697   0.518   1.189
  166SOL     OW 2403   0.473   0.500   0.191
  166SOL    HW1 2404   0.534   0.580   0.195
  166SOL    HW2 2405   0.378   0.531   0.198
  167SOL     OW 2406   0.159   1.137   1.466
  167SOL    HW1 2407   0.181   1.076   1.542
  167SOL    HW2 2408   0.169   1.088   1.380
  168SOL     OW 2409   1.347   1.059   1.234
  168SOL    HW1 2410   1.371   0.996   1.160
  168SOL    HW2 2411   1.257   1.099   1.216
  169SOL     OW 2412   1.302   0.855   0.309
  169SOL    HW1 2413   1.216   0.824   0.351
  169SOL    HW2 2414   1.298   0.841   0.210
  170SOL     OW 2415   0.083   1.258   1.022
  170SOL    HW1 2416   0.078   1.257   1.122
  170SOL    HW2 2417   0.000   1.217   0.984
  171SOL     OW 2418   0.903   0.086   0.133
  171SOL    HW1 2419   0.954   0.087   0.047
  171SOL    HW2 2420   0.959   0.044   0.204
  172SOL     OW 2421   1.726   0.135   0.523
  172SOL    HW1 2422   1.799   0.118   0.456
  172SOL    HW2 2423   1.695   0.048   0.561
  173SOL     OW 2424   1.388   1.573   0.477
  173SOL    HW1 2425   1.455   1.585   0.403
  173SOL    HW2 2426   1.348   1.662   0.500
  174SOL     OW 2427   0.130   1.794   1.851
  174SOL    HW1 2428   0.089   1.720   1.904
  174SOL    HW2 2429   0.194   1.845   1.909
  175SOL     OW 2430   1.280   0.927   0.672
  175SOL    HW1 2431   1.340   0.846   0.674
  175SOL    HW2 2432   1.320   0.996   0.612
  176SOL     OW 2433   0.830   1.273   1.422
  176SOL    HW1 2434   0.825   1.306   1.517
  176SOL    HW2 2435   0.744   1.292   1.376
  177SOL     OW 2436   0.672   1.616   0.154
  177SOL    HW1 2437   0.681   1.626   0.055
  177SOL    HW2 2438   0.632   1.527   0.175
  178SOL     OW 2439   1.841   0.175   0.963
  178SOL    HW1 2440   1.880   0.090   0.927
  178SOL    HW2 2441   1.743   0.177   0.944
  179SOL     OW 2442   0.263   0.326   0.720
  179SOL    HW1 2443   0.184   0.377   0.686
  179SOL    HW2 2444   0.254   0.311   0.818
  180SOL     OW 2445   1.194   1.612   0.031
  180SOL    HW1 2446   1.200   1.519   0.068
  180SOL    HW2 2447   1.135   1.612  -0.049
  181SOL     OW 2448   0.822   1.002   1.372
  181SOL    HW1 2449   0.862   1.001   1.280
  181SOL    HW2 2450   0.832   1.094   1.412
  182SOL     OW 2451   0.916   0.910   0.291
  182SOL    HW1 2452   0.979   0.948   0.223
  182SOL    HW2 2453   0.956   0.827   0.330
  183SOL     OW 2454   1.504   1.607   0.044
  183SOL    HW1 2455   1.412   1.644   0.051
  183SOL    HW2 2456   1.542   1.627  -0.046
  184SOL     OW 2457   1.039   1.098   0.696
  184SOL    HW1 2458   0.969   1.051   0.750
  184SOL    HW2 2459   1.098   1.030   0.653
  185SOL     OW 2460   1.709   0.385   1.381
  185SOL    HW1 2461   1.782   0.454   1.385
  185SOL    HW2 2462   1.737   0.310   1.322
  186SOL     OW 2463   0.105   1.013   1.726
  186SOL    HW1 2464   0.028   0.980   1.780
  186SOL    HW2 2465   0.190   0.983   1.768
  187SOL     OW 2466   0.672   0.203   1.489
  187SOL    HW1 2467   0.762   0.187   1.449
  187SOL    HW2 2468   0.680   0.208   1.588
  188SOL     OW 2469   0.075   0.345   0.033
  188SOL    HW1 2470  -0.017   0.317   0.004
  188SOL    HW2 2471   0.106   0.422  -0.023
  189SOL     OW 2472   1.440   0.856   1.398
  189SOL    HW1 2473   1.383   0.908   1.335
  189SOL    HW2 2474   1.536   0.868   1.374
  190SOL     OW 2475   0.072   0.166   0.318
  190SOL    HW1 2476   0.055   0.249   0.264
  190SOL    HW2 2477   0.162   0.129   0.296
  191SOL     OW 2478   1.183   1.335   0.119
  191SOL    HW1 2479   1.084   1.324   0.121
  191SOL    HW2 2480   1.217   1.350   0.212
  192SOL     OW 2481   0.613   0.842   1.431
  192SOL    HW1 2482   0.669   0.923   1.414
  192SOL    HW2 2483   0.672   0.762   1.434
  193SOL     OW 2484   0.716   0.565   1.708
  193SOL    HW1 2485   0.735   0.630   1.782
  193SOL    HW2 2486   0.776   0.485   1.717
  194SOL     OW 2487   1.674   0.883   1.254
  194SOL    HW1 2488   1.647   0.794   1.217
  194SOL    HW2 2489   1.675   0.951   1.181
  195SOL     OW 2490   1.777   0.342   1.642
  195SOL    HW1 2491   1.760   0.373   1.548
  195SOL    HW2 2492   1.693   0.305   1.680
  196SOL     OW 2493   0.859   1.374   0.016
  196SOL    HW1 2494   0.813   1.389   0.104
  196SOL    HW2 2495   0.903   1.459  -0.014
  197SOL     OW 2496   0.661   1.790   0.953
  197SOL    HW1 2497   0.615   1.878   0.940
  197SOL    HW2 2498   0.760   1.802   0.946
  198SOL     OW 2499   0.859   0.956   0.861
  198SOL    HW1 2500   0.913   0.887   0.909
  198SOL    HW2 2501   0.827   1.025   0.927
  199SOL     OW 2502   1.083   0.984   0.087
  199SOL    HW1 2503   1.060   1.037   0.005
  199SOL    HW2 2504   1.164   0.928   0.068
  200SOL     OW 2505   0.221   1.314   1.844
  200SOL    HW1 2506   0.156   1.241   1.823
  200SOL    HW2 2507   0.225   1.328   1.942
  201SOL     OW 2508   0.672   1.391   1.624
  201SOL    HW1 2509   0.594   1.341   1.662
  201SOL    HW2 2510   0.669   1.486   1.655
  202SOL     OW 2511   1.824   0.192   1.227
  202SOL    HW1 2512   1.820   0.102   1.271
  202SOL    HW2 2513   1.827   0.181   1.128
  203SOL     OW 2514   0.428   0.424   0.520
  203SOL    HW1 2515   0.458   0.352   0.458
  203SOL    HW2 2516   0.389   0.384   0.603
  204SOL     OW 2517   1.705   1.487   1.104
  204SOL    HW1 2518   1.612   1.462   1.077
  204SOL    HW2 2519   1.731   1.437   1.186
  205SOL     OW 2520   0.770   1.330   0.301
  205SOL    HW1 2521   0.724   1.243   0.318
  205SOL    HW2 2522   0.861   1.327   0.342
  206SOL     OW 2523   1.352   0.052   0.168
  206SOL    HW1 2524   1.387   0.011   0.084
  206SOL    HW2 2525   1.262   0.014   0.188
  207SOL     OW 2526   1.300   0.453   0.691
  207SOL    HW1 2527   1.241   0.533   0.695
  207SOL    HW2 2528   1.315   0.418   0.784
  208SOL     OW 2529   0.039   1.077   0.300
  208SOL    HW1 2530   0.138   1.066   0.291
  208SOL    HW2 2531  -0.001   0.991   0.332
  209SOL     OW 2532   0.875   1.646   0.337
  209SOL    HW1 2533   0.798   1.611   0.283
  209SOL    HW2 2534   0.843   1.717   0.399
  210SOL     OW 2535   0.230   0.628   1.975
  210SOL    HW1 2536   0.137   0.626   2.012
  210SOL    HW2 2537   0.231   0.589   1.883
  211SOL     OW 2538   0.225   0.275   2.858
  211SOL    HW1 2539   0.260   0.258   2.950
  211SOL    HW2 2540   0.137   0.230   2.846
  212SOL     OW 2541   0.019   0.368   2.509
  212SOL    HW1 2542  -0.063   0.411   2.548
  212SOL    HW2 2543  -0.009   0.295   2.446
  213SOL     OW 2544   0.569   1.275   3.027
  213SOL    HW1 2545   0.476   1.268   2.990
  213SOL    HW2 2546   0.580   1.364   3.071
  214SOL     OW 2547   1.135   0.703   2.579
  214SOL    HW1 2548   1.192   0.781   2.554
  214SOL    HW2 2549   1.075   0.729   2.655
  215SOL     OW 2550   1.755   0.607   2.093
  215SOL    HW1 2551   1.743   0.594   1.994
  215SOL    HW2 2552   1.725   0.526   2.142
  216SOL     OW 2553   0.768   1.144   2.885
  216SOL    HW1 2554   0.690   1.161   2.945
  216SOL    HW2 2555   0.802   1.231   2.849
  217SOL     OW 2556   0.686   1.161   3.665
  217SOL    HW1 2557   0.746   1.240   3.679
  217SOL    HW2 2558   0.600   1.192   3.624
  218SOL     OW 2559   0.335   1.435   2.923
  218SOL    HW1 2560   0.257   1.404   2.870
  218SOL    HW2 2561   0.393   1.493   2.866
  219SOL     OW 2562   1.460   1.505   3.201
  219SOL    HW1 2563   1.484   1.599   3.227
  219SOL    HW2 2564   1.444   1.451   3.283
  220SOL     OW 2565   1.603   0.447   2.599
  220SOL    HW1 2566   1.529   0.493   2.549
  220SOL    HW2 2567   1.654   0.515   2.652
  221SOL     OW 2568   0.231   1.713   2.345
  221SOL    HW1 2569   0.265   1.790   2.399
  221SOL    HW2 2570   0.275   1.713   2.255
  222SOL     OW 2571   1.127   1.341   3.552
  222SOL    HW1 2572   1.174   1.341   3.640
  222SOL    HW2 2573   1.079   1.254   3.541
  223SOL     OW 2574   0.230   1.434   2.400
  223SOL    HW1 2575   0.204   1.530   2.400
  223SOL    HW2 2576   0.159   1.380   2.445
  224SOL     OW 2577   0.240   1.091   2.748
  224SOL    HW1 2578   0.254   1.007   2.800
  224SOL    HW2 2579   0.185   1.155   2.803
  225SOL     OW 2580   0.620   1.786   3.301
  225SOL    HW1 2581   0.528   1.769   3.336
  225SOL    HW2 2582   0.648   1.878   3.327
  226SOL     OW 2583   1.594   0.114   3.342
  226SOL    HW1 2584   1.576   0.181   3.270
  226SOL    HW2 2585   1.591   0.160   3.431
  227SOL     OW 2586   0.122   0.643   2.425
  227SOL    HW1 2587   0.077   0.555   2.442
  227SOL    HW2 2588   0.121   0.697   2.509
  228SOL     OW 2589   1.842   1.767   2.221
  228SOL    HW1 2590   1.896   1.738   2.301
  228SOL    HW2 2591   1.872   1.857   2.192
  229SOL     OW 2592   0.027   1.596   1.979
  229SOL    HW1 2593   0.008   1.500   2.000
  229SOL    HW2 2594  -0.006   1.654   2.054
  230SOL     OW 2595   1.689   0.922   2.474
  230SOL    HW1 2596   1.784   0.893   2.482
  230SOL    HW2 2597   1.681   0.987   2.399
  231SOL     OW 2598   1.641   1.108   2.294
  231SOL    HW1 2599   1.727   1.110   2.242
  231SOL    HW2 2600   1.655   1.155   2.382
  232SOL     OW 2601   0.113   0.737   3.459
  232SOL    HW1 2602   0.201   0.724   3.504
  232SOL    HW2 2603   0.100   0.834   3.437
  233SOL     OW 2604   0.613   1.365   2.588
  233SOL    HW1 2605   0.564   1.278   2.597
  233SOL    HW2 2606   0.590   1.408   2.501
  234SOL     OW 2607   0.809   0.004   2.364
  234SOL    HW1 2608   0.849   0.095   2.355
  234SOL    HW2 2609   0.709   0.012   2.370
  235SOL     OW 2610   0.197   0.976   3.126
  235SOL    HW1 2611   0.286   0.931   3.112
  235SOL    HW2 2612   0.124   0.911   3.107
  236SOL     OW 2613   1.187   1.792   3.478
  236SOL    HW1 2614   1.211   1.852   3.402
  236SOL    HW2 2615   1.194   1.697   3.448
  237SOL     OW 2616   0.317   0.251   3.663
  237SOL    HW1 2617   0.388   0.322   3.669
  237SOL    HW2 2618   0.229   0.290   3.691
  238SOL     OW 2619   1.466   1.417   2.815
  238SOL    HW1 2620   1.407   1.423   2.895
  238SOL    HW2 2621   1.451   1.329   2.769
  239SOL     OW 2622   1.281   0.345   2.806
  239SOL    HW1 2623   1.195   0.295   2.793
  239SOL    HW2 2624   1.343   0.291   2.862
  240SOL     OW 2625   0.807   0.605   3.327
  240SOL    HW1 2626   0.760   0.602   3.416
  240SOL    HW2 2627   0.756   0.550   3.261
  241SOL     OW 2628   1.394   0.469   3.536
  241SOL    HW1 2629   1.374   0.512   3.624
  241SOL    HW2 2630   1.472   0.407   3.545
  242SOL     OW 2631   0.991   0.410   3.104
  242SOL    HW1 2632   0.914   0.444   3.158
  242SOL    HW2 2633   0.957   0.359   3.025
  243SOL     OW 2634   1.041   0.701   2.291
  243SOL    HW1 2635   1.067   0.697   2.387
  243SOL    HW2 2636   0.956   0.650   2.277
  244SOL     OW 2637   0.130   1.821   3.433
  244SOL    HW1 2638   0.120   1.806   3.532
  244SOL    HW2 2639   0.044   1.857   3.397
  245SOL     OW 2640   0.865   0.348   2.057
  245SOL    HW1 2641   0.924   0.411   2.008
  245SOL    HW2 2642   0.884   0.254   2.028
  246SOL     OW 2643   1.719   0.585   3.693
  246SOL    HW1 2644   1.693   0.674   3.657
  246SOL    HW2 2645   1.717   0.517   3.620
  247SOL     OW 2646   1.362   1.144   2.407
  247SOL    HW1 2647   1.445   1.115   2.359
  247SOL    HW2 2648   1.313   1.211   2.351
  248SOL     OW 2649   0.550   0.196   2.747
  248SOL    HW1 2650   0.545   0.191   2.847
  248SOL    HW2 2651   0.552   0.292   2.718
  249SOL     OW 2652   0.351   1.801   2.715
  249SOL    HW1 2653   0.401   1.715   2.721
  249SOL    HW2 2654   0.416   1.878   2.712
  250SOL     OW 2655   1.795   1.066   2.735
  250SOL    HW1 2656   1.733   1.051   2.659
  250SOL    HW2 2657   1.743   1.077   2.820
  251SOL     OW 2658   1.227   1.550   3.368
  251SOL    HW1 2659   1.233   1.473   3.432
  251SOL    HW2 2660   1.175   1.524   3.288
  252SOL     OW 2661   1.458   0.735   2.590
  252SOL    HW1 2662   1.453   0.670   2.665
  252SOL    HW2 2663   1.538   0.794   2.603
  253SOL     OW 2664   0.202   0.285   3.360
  253SOL    HW1 2665   0.122   0.345   3.347
  253SOL    HW2 2666   0.192   0.236   3.446
  254SOL     OW 2667   0.464   1.743   2.185
  254SOL    HW1 2668   0.497   1.782   2.271
  254SOL    HW2 2669   0.540   1.736   2.120
  255SOL     OW 2670   1.400   0.107   2.288
  255SOL    HW1 2671   1.376   0.070   2.198
  255SOL    HW2 2672   1.499   0.123   2.292
  256SOL     OW 2673   0.249   1.785   3.103
  256SOL    HW1 2674   0.306   1.720   3.153
  256SOL    HW2 2675   0.233   1.752   3.010
  257SOL     OW 2676   0.940   1.698   2.766
  257SOL    HW1 2677   1.020   1.641   2.787
  257SOL    HW2 2678   0.891   1.658   2.689
  258SOL     OW 2679   1.547   0.222   3.591
  258SOL    HW1 2680   1.542   0.259   3.683
  258SOL    HW2 2681   1.475   0.153   3.579
  259SOL     OW 2682   0.614   0.122   1.979
  259SOL    HW1 2683   0.712   0.100   1.986
  259SOL    HW2 2684   0.583   0.105   1.886
  260SOL     OW 2685   0.781   0.264   3.611
  260SOL    HW1 2686   0.848   0.203   3.654
  260SOL    HW2 2687   0.708   0.283   3.676
  261SOL     OW 2688   0.888   1.514   3.057
  261SOL    HW1 2689   0.865   1.489   2.963
  261SOL    HW2 2690   0.949   1.445   3.096
  262SOL     OW 2691   1.351   0.590   3.295
  262SOL    HW1 2692   1.379   0.547   3.380
  262SOL    HW2 2693   1.376   0.686   3.296
  263SOL     OW 2694   0.803   1.402   2.786
  263SOL    HW1 2695   0.893   1.416   2.744
  263SOL    HW2 2696   0.732   1.404   2.715
  264SOL     OW 2697   0.922   0.503   2.761
  264SOL    HW1 2698   0.897   0.494   2.665
  264SOL    HW2 2699   0.970   0.421   2.792
  265SOL     OW 2700   0.539   0.064   2.374
  265SOL    HW1 2701   0.458   0.065   2.432
  265SOL    HW2 2702   0.542   0.147   2.319
  266SOL     OW 2703   0.297   0.035   2.033
  266SOL    HW1 2704   0.346   0.119   2.012
  266SOL    HW2 2705   0.359  -0.030   2.078
  267SOL     OW 2706   0.935   0.236   2.342
  267SOL    HW1 2707   0.887   0.277   2.264
  267SOL    HW2 2708   1.034   0.234   2.323
  268SOL     OW 2709   1.076   0.683   3.326
  268SOL    HW1 2710   0.996   0.622   3.329
  268SOL    HW2 2711   1.157   0.630   3.302
  269SOL     OW 2712   1.227   1.570   2.655
  269SOL    HW1 2713   1.248   1.644   2.590
  269SOL    HW2 2714   1.295   1.570   2.728
  270SOL     OW 2715   1.271   1.797   2.453
  270SOL    HW1 2716   1.315   1.861   2.389
  270SOL    HW2 2717   1.221   1.849   2.523
  271SOL     OW 2718   1.032   0.549   1.878
  271SOL    HW1 2719   0.991   0.631   1.839
  271SOL    HW2 2720   1.096   0.575   1.951
  272SOL     OW 2721   0.078   0.556   3.248
  272SOL    HW1 2722   0.170   0.555   3.207
  272SOL    HW2 2723   0.072   0.630   3.315
  273SOL     OW 2724   0.561   0.222   3.009
  273SOL    HW1 2725   0.599   0.138   3.046
  273SOL    HW2 2726   0.473   0.241   3.053
  274SOL     OW 2727   0.866   0.454   2.504
  274SOL    HW1 2728   0.834   0.526   2.442
  274SOL    HW2 2729   0.890   0.373   2.451
  275SOL     OW 2730   1.429   1.173   2.729
  275SOL    HW1 2731   1.374   1.089   2.722
  275SOL    HW2 2732   1.455   1.202   2.637
  276SOL     OW 2733   1.466   0.590   2.854
  276SOL    HW1 2734   1.436   0.495   2.861
  276SOL    HW2 2735   1.539   0.606   2.920
  277SOL     OW 2736   1.390   0.575   1.940
  277SOL    HW1 2737   1.336   0.554   2.021
  277SOL    HW2 2738   1.481   0.534   1.949
  278SOL     OW 2739   0.527   0.256   2.190
  278SOL    HW1 2740   0.554   0.197   2.115
  278SOL    HW2 2741   0.527   0.351   2.159
  279SOL     OW 2742   1.064   1.347   3.202
  279SOL    HW1 2743   0.984   1.324   3.257
  279SOL    HW2 2744   1.147   1.321   3.251
  280SOL     OW 2745   1.592   1.629   3.487
  280SOL    HW1 2746   1.619   1.663   3.397
  280SOL    HW2 2747   1.671   1.591   3.533
  281SOL     OW 2748   1.111   1.195   2.962
  281SOL    HW1 2749   1.071   1.239   3.043
  281SOL    HW2 2750   1.070   1.232   2.879
  282SOL     OW 2751   1.638   1.099   2.941
  282SOL    HW1 2752   1.643   1.180   3.000
  282SOL    HW2 2753   1.552   1.101   2.890
  283SOL     OW 2754   0.915   0.089   3.264
  283SOL    HW1 2755   0.940   0.069   3.169
  283SOL    HW2 2756   0.987   0.145   3.306
  284SOL     OW 2757   1.274   0.386   3.124
  284SOL    HW1 2758   1.295   0.460   3.188
  284SOL    HW2 2759   1.185   0.403   3.081
  285SOL     OW 2760   0.064   1.564   3.193
  285SOL    HW1 2761   0.018   1.646   3.159
  285SOL    HW2 2762   0.162   1.583   3.202
  286SOL     OW 2763   0.566   0.537   2.727
  286SOL    HW1 2764   0.578   0.603   2.653
  286SOL    HW2 2765   0.612   0.571   2.810
  287SOL     OW 2766   1.252   1.348   2.250
  287SOL    HW1 2767   1.302   1.425   2.290
  287SOL    HW2 2768   1.157   1.350   2.282
  288SOL     OW 2769   1.272   1.445   3.004
  288SOL    HW1 2770   1.319   1.458   3.091
  288SOL    HW2 2771   1.206   1.371   3.013
  289SOL     OW 2772   1.582   0.639   2.334
  289SOL    HW1 2773   1.551   0.700   2.407
  289SOL    HW2 2774   1.632   0.691   2.265
  290SOL     OW 2775   0.354   1.510   3.191
  290SOL    HW1 2776   0.333   1.466   3.104
  290SOL    HW2 2777   0.451   1.536   3.194
  291SOL     OW 2778   1.587   0.779   3.532
  291SOL    HW1 2779   1.495   0.817   3.527
  291SOL    HW2 2780   1.647   0.826   3.467
  292SOL     OW 2781   1.013   0.105   3.632
  292SOL    HW1 2782   1.019   0.190   3.580
  292SOL    HW2 2783   1.045   0.029   3.575
  293SOL     OW 2784   0.504   0.050   3.602
  293SOL    HW1 2785   0.462  -0.007   3.532
  293SOL    HW2 2786   0.438   0.119   3.634
  294SOL     OW 2787   0.573   0.870   2.891
  294SOL    HW1 2788   0.617   0.959   2.882
  294SOL    HW2 2789   0.510   0.870   2.968
  295SOL     OW 2790   1.360   0.862   2.907
  295SOL    HW1 2791   1.285   0.862   2.841
  295SOL    HW2 2792   1.397   0.770   2.916
  296SOL     OW 2793   1.209   0.525   2.137
  296SOL    HW1 2794   1.222   0.441   2.191
  296SOL    HW2 2795   1.180   0.599   2.197
  297SOL     OW 2796   0.307   0.213   3.093
  297SOL    HW1 2797   0.284   0.250   3.183
  297SOL    HW2 2798   0.277   0.118   3.087
  298SOL     OW 2799   0.037   1.310   3.144
  298SOL    HW1 2800   0.090   1.261   3.212
  298SOL    HW2 2801   0.059   1.408   3.149
  299SOL     OW 2802   0.732   0.634   2.926
  299SOL    HW1 2803   0.791   0.608   2.850
  299SOL    HW2 2804   0.704   0.730   2.915
  300SOL     OW 2805   1.728   0.935   3.716
  300SOL    HW1 2806   1.682   0.928   3.627
  300SOL    HW2 2807   1.666   0.979   3.782
  301SOL     OW 2808   0.307   0.063   2.480
  301SOL    HW1 2809   0.296   0.157   2.513
  301SOL    HW2 2810   0.302   0.000   2.557
  302SOL     OW 2811   1.622   0.367   2.236
  302SOL    HW1 2812   1.624   0.291   2.300
  302SOL    HW2 2813   1.574   0.444   2.276
  303SOL     OW 2814   1.023   0.766   2.828
  303SOL    HW1 2815   1.038   0.787   2.924
  303SOL    HW2 2816   0.993   0.671   2.819
  304SOL     OW 2817   0.980   1.573   3.562
  304SOL    HW1 2818   0.960   1.617   3.474
  304SOL    HW2 2819   1.019   1.482   3.546
  305SOL     OW 2820   1.859   1.518   3.467
  305SOL    HW1 2821   1.873   1.545   3.372
  305SOL    HW2 2822   1.942   1.540   3.520
  306SOL     OW 2823   0.350   0.898   3.666
  306SOL    HW1 2824   0.426   0.942   3.714
  306SOL    HW2 2825   0.385   0.851   3.584
  307SOL     OW 2826   1.540   0.274   1.987
  307SOL    HW1 2827   1.479   0.199   2.010
  307SOL    HW2 2828   1.562   0.326   2.070
  308SOL     OW 2829   1.068   1.333   2.711
  308SOL    HW1 2830   1.075   1.249   2.656
  308SOL    HW2 2831   1.130   1.402   2.675
  309SOL     OW 2832   0.319   0.810   2.811
  309SOL    HW1 2833   0.412   0.846   2.816
  309SOL    HW2 2834   0.313   0.725   2.863
  310SOL     OW 2835   0.339   0.509   2.868
  310SOL    HW1 2836   0.287   0.426   2.851
  310SOL    HW2 2837   0.416   0.514   2.804
  311SOL     OW 2838   1.138   0.380   3.540
  311SOL    HW1 2839   1.093   0.443   3.604
  311SOL    HW2 2840   1.231   0.411   3.523
  312SOL     OW 2841   1.160   0.207   3.339
  312SOL    HW1 2842   1.160   0.271   3.416
  312SOL    HW2 2843   1.188   0.255   3.256
  313SOL     OW 2844   0.008   1.326   2.062
  313SOL    HW1 2845  -0.085   1.347   2.031
  313SOL    HW2 2846   0.018   1.227   2.075
  314SOL     OW 2847   0.088   1.801   2.789
  314SOL    HW1 2848   0.046   1.715   2.762
  314SOL    HW2 2849   0.182   1.804   2.755
  315SOL     OW 2850   0.504   1.568   2.772
  315SOL    HW1 2851   0.570   1.642   2.781
  315SOL    HW2 2852   0.548   1.489   2.730
  316SOL     OW 2853   1.002   0.796   3.100
  316SOL    HW1 2854   1.043   0.764   3.186
  316SOL    HW2 2855   0.906   0.769   3.097
  317SOL     OW 2856   0.040   0.544   2.976
  317SOL    HW1 2857   0.125   0.511   2.935
  317SOL    HW2 2858   0.053   0.559   3.074
  318SOL     OW 2859   0.189   0.520   3.584
  318SOL    HW1 2860   0.248   0.480   3.514
  318SOL    HW2 2861   0.131   0.591   3.543
  319SOL     OW 2862   0.815   0.572   2.187
  319SOL    HW1 2863   0.822   0.483   2.141
  319SOL    HW2 2864   0.721   0.606   2.179
  320SOL     OW 2865   1.657   0.604   3.068
  320SOL    HW1 2866   1.619   0.535   3.130
  320SOL    HW2 2867   1.739   0.568   3.024
  321SOL     OW 2868   0.671   0.464   3.131
  321SOL    HW1 2869   0.637   0.375   3.101
  321SOL    HW2 2870   0.697   0.518   3.051
  322SOL     OW 2871   0.930   1.678   3.327
  322SOL    HW1 2872   0.906   1.660   3.232
  322SOL    HW2 2873   0.960   1.772   3.337
  323SOL     OW 2874   0.159   1.137   3.328
  323SOL    HW1 2875   0.181   1.076   3.404
  323SOL    HW2 2876   0.169   1.088   3.242
  324SOL     OW 2877   1.252   1.731   2.990
  324SOL    HW1 2878   1.336   1.736   2.936
  324SOL    HW2 2879   1.229   1.635   3.008
  325SOL     OW 2880   0.083   1.258   2.884
  325SOL    HW1 2881   0.078   1.257   2.984
  325SOL    HW2 2882   0.000   1.217   2.846
  326SOL     OW 2883   0.688   1.662   3.578
  326SOL    HW1 2884   0.632   1.743   3.587
  326SOL    HW2 2885   0.740   1.666   3.492
  327SOL     OW 2886   1.726   0.135   2.385
  327SOL    HW1 2887   1.799   0.118   2.318
  327SOL    HW2 2888   1.695   0.048   2.423
  328SOL     OW 2889   0.130   1.794   3.713
  328SOL    HW1 2890   0.089   1.720   3.766
  328SOL    HW2 2891   0.194   1.845   3.771
  329SOL     OW 2892   1.280   0.927   2.534
  329SOL    HW1 2893   1.340   0.846   2.536
  329SOL    HW2 2894   1.320   0.996   2.474
  330SOL     OW 2895   0.830   1.273   3.284
  330SOL    HW1 2896   0.825   1.306   3.379
  330SOL    HW2 2897   0.744   1.292   3.238
  331SOL     OW 2898   0.263   0.326   2.582
  331SOL    HW1 2899   0.184   0.377   2.548
  331SOL    HW2 2900   0.254   0.311   2.680
  332SOL     OW 2901   0.822   1.002   3.234
  332SOL    HW1 2902   0.862   1.001   3.142
  332SOL    HW2 2903   0.832   1.094   3.274
  333SOL     OW 2904   0.372   1.288   3.352
  333SOL    HW1 2905   0.359   1.381   3.318
  333SOL    HW2 2906   0.288   1.236   3.339
  334SOL     OW 2907   1.039   1.098   2.558
  334SOL    HW1 2908   0.969   1.051   2.612
  334SOL    HW2 2909   1.098   1.030   2.515
  335SOL     OW 2910   1.014   0.236   2.833
  335SOL    HW1 2911   1.006   0.200   2.740
  335SOL    HW2 2912   1.012   0.160   2.898
  336SOL     OW 2913   1.709   0.385   3.243
  336SOL    HW1 2914   1.782   0.454   3.247
  336SOL    HW2 2915   1.737   0.310   3.184
  337SOL     OW 2916   0.255   1.348   2.152
  337SOL    HW1 2917   0.159   1.349   2.125
  337SOL    HW2 2918   0.267   1.401   2.236
  338SOL     OW 2919   0.105   1.013   3.588
  338SOL    HW1 2920   0.028   0.980   3.642
  338SOL    HW2 2921   0.190   0.983   3.630
  339SOL     OW 2922   0.672   0.203   3.351
  339SOL    HW1 2923   0.762   0.187   3.311
  339SOL    HW2 2924   0.680   0.208   3.450
  340SOL     OW 2925   0.075   0.345   1.895
  340SOL    HW1 2926  -0.017   0.317   1.866
  340SOL    HW2 2927   0.106   0.422   1.839
  341SOL     OW 2928   0.072   0.166   2.180
  341SOL    HW1 2929   0.055   0.249   2.126
  341SOL    HW2 2930   0.162   0.129   2.158
  342SOL     OW 2931   0.716   0.565   3.570
  342SOL    HW1 2932   0.735   0.630   3.644
  342SOL    HW2 2933   0.776   0.485   3.579
  343SOL     OW 2934   0.390   1.741   3.422
  343SOL    HW1 2935   0.299   1.782   3.420
  343SOL    HW2 2936   0.383   1.647   3.454
  344SOL     OW 2937   1.225   0.325   2.311
  344SOL    HW1 2938   1.290   0.251   2.300
  344SOL    HW2 2939   1.245   0.375   2.395
  345SOL     OW 2940   0.594   0.745   2.514
  345SOL    HW1 2941   0.644   0.830   2.495
  345SOL    HW2 2942   0.506   0.747   2.466
  346SOL     OW 2943   1.777   0.342   3.504
  346SOL    HW1 2944   1.760   0.373   3.410
  346SOL    HW2 2945   1.693   0.305   3.542
  347SOL     OW 2946   0.859   1.374   1.878
  347SOL    HW1 2947   0.813   1.389   1.966
  347SOL    HW2 2948   0.903   1.459   1.848
  348SOL     OW 2949   0.661   1.790   2.815
  348SOL    HW1 2950   0.615   1.878   2.802
  348SOL    HW2 2951   0.760   1.802   2.808
  349SOL     OW 2952   0.859   0.956   2.723
  349SOL    HW1 2953   0.913   0.887   2.771
  349SOL    HW2 2954   0.827   1.025   2.789
  350SOL     OW 2955   0.672   1.391   3.486
  350SOL    HW1 2956   0.594   1.341   3.524
  350SOL    HW2 2957   0.669   1.486   3.517
  351SOL     OW 2958   1.824   0.192   3.089
  351SOL    HW1 2959   1.820   0.102   3.133
  351SOL    HW2 2960   1.827   0.181   2.990
  352SOL     OW 2961   0.428   0.424   2.382
  352SOL    HW1 2962   0.458   0.352   2.320
  352SOL    HW2 2963   0.389   0.384   2.465
  353SOL     OW 2964   0.812   1.586   2.549
  353SOL    HW1 2965   0.844   1.596   2.455
  353SOL    HW2 2966   0.733   1.524   2.551
  354SOL     OW 2967   1.424   0.214   2.974
  354SOL    HW1 2968   1.476   0.149   3.029
  354SOL    HW2 2969   1.375   0.277   3.035
  355SOL     OW 2970   1.001   0.034   3.016
  355SOL    HW1 2971   0.938  -0.038   2.985
  355SOL    HW2 2972   1.094  -0.002   3.016
  356SOL     OW 2973   0.770   1.330   2.163
  356SOL    HW1 2974   0.724   1.243   2.180
  356SOL    HW2 2975   0.861   1.327   2.204
  357SOL     OW 2976   0.618   1.567   3.146
  357SOL    HW1 2977   0.613   1.649   3.203
  357SOL    HW2 2978   0.707   1.564   3.101
  358SOL     OW 2979   1.352   0.052   2.030
  358SOL    HW1 2980   1.387   0.011   1.946
  358SOL    HW2 2981   1.262   0.014   2.050
  359SOL     OW 2982   1.300   0.453   2.553
  359SOL    HW1 2983   1.241   0.533   2.557
  359SOL    HW2 2984   1.315   0.418   2.646
  360SOL     OW 2985   1.593   0.221   2.744
  360SOL    HW1 2986   1.509   0.220   2.798
  360SOL    HW2 2987   1.595   0.304   2.688
  361SOL     OW 2988   0.039   1.077   2.162
  361SOL    HW1 2989   0.138   1.066   2.153
  361SOL    HW2 2990  -0.001   0.991   2.194
  362SOL     OW 2991   0.875   1.646   2.199
  362SOL    HW1 2992   0.798   1.611   2.145
  362SOL    HW2 2993   0.843   1.717   2.261
  363SOL     OW 2994   0.230   0.628   3.837
  363SOL    HW1 2995   0.137   0.626   3.874
  363SOL    HW2 2996   0.231   0.589   3.745
  364SOL     OW 2997   0.019   0.368   4.371
  364SOL    HW1 2998  -0.063   0.411   4.410
  364SOL    HW2 2999  -0.009   0.295   4.308
  365SOL     OW 3000   0.569   1.275   4.889
  365SOL    HW1 3001   0.476   1.268   4.852
  365SOL    HW2 3002   0.580   1.364   4.933
  366SOL     OW 3003   1.555   1.511   4.427
  366SOL    HW1 3004   1.498   1.495   4.508
  366SOL    HW2 3005   1.496   1.521   4.347
  367SOL     OW 3006   1.135   0.703   4.441
  367SOL    HW1 3007   1.192   0.781   4.416
  367SOL    HW2 3008   1.075   0.729   4.517
  368SOL     OW 3009   1.755   0.607   3.955
  368SOL    HW1 3010   1.743   0.594   3.856
  368SOL    HW2 3011   1.725   0.526   4.004
  369SOL     OW 3012   0.768   1.144   4.747
  369SOL    HW1 3013   0.690   1.161   4.807
  369SOL    HW2 3014   0.802   1.231   4.711
  370SOL     OW 3015   0.685   1.012   4.389
  370SOL    HW1 3016   0.754   0.996   4.459
  370SOL    HW2 3017   0.612   1.069   4.427
  371SOL     OW 3018   0.335   1.435   4.785
  371SOL    HW1 3019   0.257   1.404   4.732
  371SOL    HW2 3020   0.393   1.493   4.728
  372SOL     OW 3021   1.603   0.447   4.461
  372SOL    HW1 3022   1.529   0.493   4.411
  372SOL    HW2 3023   1.654   0.515   4.514
  373SOL     OW 3024   0.231   1.713   4.207
  373SOL    HW1 3025   0.265   1.790   4.261
  373SOL    HW2 3026   0.275   1.713   4.117
  374SOL     OW 3027   0.230   1.434   4.262
  374SOL    HW1 3028   0.204   1.530   4.262
  374SOL    HW2 3029   0.159   1.380   4.307
  375SOL     OW 3030   0.620   1.786   5.163
  375SOL    HW1 3031   0.528   1.769   5.198
  375SOL    HW2 3032   0.648   1.878   5.189
  376SOL     OW 3033   0.122   0.643   4.287
  376SOL    HW1 3034   0.077   0.555   4.304
  376SOL    HW2 3035   0.121   0.697   4.371
  377SOL     OW 3036   1.842   1.767   4.083
  377SOL    HW1 3037   1.896   1.738   4.163
  377SOL    HW2 3038   1.872   1.857   4.054
  378SOL     OW 3039   0.027   1.596   3.841
  378SOL    HW1 3040   0.008   1.500   3.862
  378SOL    HW2 3041  -0.006   1.654   3.916
  379SOL     OW 3042   1.689   0.922   4.336
  379SOL    HW1 3043   1.784   0.893   4.344
  379SOL    HW2 3044   1.681   0.987   4.261
  380SOL     OW 3045   1.641   1.108   4.156
  380SOL    HW1 3046   1.727   1.110   4.104
  380SOL    HW2 3047   1.655   1.155   4.244
  381SOL     OW 3048   0.809   0.004   4.226
  381SOL    HW1 3049   0.849   0.095   4.217
  381SOL    HW2 3050   0.709   0.012   4.232
  382SOL     OW 3051   0.197   0.976   4.988
  382SOL    HW1 3052   0.286   0.931   4.974
  382SOL    HW2 3053   0.124   0.911   4.969
  383SOL     OW 3054   1.525   0.999   3.914
  383SOL    HW1 3055   1.462   0.923   3.927
  383SOL    HW2 3056   1.573   1.017   4.000
  384SOL     OW 3057   1.466   1.417   4.677
  384SOL    HW1 3058   1.407   1.423   4.757
  384SOL    HW2 3059   1.451   1.329   4.631
  385SOL     OW 3060   1.667   1.714   4.296
  385SOL    HW1 3061   1.626   1.691   4.208
  385SOL    HW2 3062   1.649   1.640   4.361
  386SOL     OW 3063   1.281   0.345   4.668
  386SOL    HW1 3064   1.195   0.295   4.655
  386SOL    HW2 3065   1.343   0.291   4.724
  387SOL     OW 3066   1.576   1.662   4.031
  387SOL    HW1 3067   1.665   1.708   4.034
  387SOL    HW2 3068   1.555   1.638   3.936
  388SOL     OW 3069   0.991   0.410   4.966
  388SOL    HW1 3070   0.914   0.444   5.020
  388SOL    HW2 3071   0.957   0.359   4.887
  389SOL     OW 3072   1.041   0.701   4.153
  389SOL    HW1 3073   1.067   0.697   4.249
  389SOL    HW2 3074   0.956   0.650   4.139
  390SOL     OW 3075   0.076   0.811   4.513
  390SOL    HW1 3076   0.175   0.799   4.522
  390SOL    HW2 3077   0.052   0.906   4.534
  391SOL     OW 3078   0.130   1.821   5.295
  391SOL    HW1 3079   0.120   1.806   5.394
  391SOL    HW2 3080   0.044   1.857   5.259
  392SOL     OW 3081   0.865   0.348   3.919
  392SOL    HW1 3082   0.924   0.411   3.870
  392SOL    HW2 3083   0.884   0.254   3.890
  393SOL     OW 3084   1.362   1.144   4.269
  393SOL    HW1 3085   1.445   1.115   4.221
  393SOL    HW2 3086   1.313   1.211   4.213
  394SOL     OW 3087   0.550   0.196   4.609
  394SOL    HW1 3088   0.545   0.191   4.709
  394SOL    HW2 3089   0.552   0.292   4.580
  395SOL     OW 3090   1.008   1.456   4.201
  395SOL    HW1 3091   0.962   1.528   4.149
  395SOL    HW2 3092   1.004   1.476   4.299
  396SOL     OW 3093   0.351   1.801   4.577
  396SOL    HW1 3094   0.401   1.715   4.583
  396SOL    HW2 3095   0.416   1.878   4.574
  397SOL     OW 3096   1.795   1.066   4.597
  397SOL    HW1 3097   1.733   1.051   4.521
  397SOL    HW2 3098   1.743   1.077   4.682
  398SOL     OW 3099   1.458   0.735   4.452
  398SOL    HW1 3100   1.453   0.670   4.527
  398SOL    HW2 3101   1.538   0.794   4.465
  399SOL     OW 3102   1.111   1.776   3.961
  399SOL    HW1 3103   1.051   1.714   4.011
  399SOL    HW2 3104   1.142   1.732   3.876
  400SOL     OW 3105   1.632   1.377   3.805
  400SOL    HW1 3106   1.600   1.471   3.795
  400SOL    HW2 3107   1.556   1.314   3.793
  401SOL     OW 3108   1.400   0.107   4.150
  401SOL    HW1 3109   1.376   0.070   4.060
  401SOL    HW2 3110   1.499   0.123   4.154
  402SOL     OW 3111   0.249   1.785   4.965
  402SOL    HW1 3112   0.306   1.720   5.015
  402SOL    HW2 3113   0.233   1.752   4.872
  403SOL     OW 3114   0.940   1.698   4.628
  403SOL    HW1 3115   1.020   1.641   4.649
  403SOL    HW2 3116   0.891   1.658   4.551
  404SOL     OW 3117   0.382   0.700   4.204
  404SOL    HW1 3118   0.427   0.610   4.201
  404SOL    HW2 3119   0.288   0.689   4.237
  405SOL     OW 3120   0.614   0.122   3.841
  405SOL    HW1 3121   0.712   0.100   3.848
  405SOL    HW2 3122   0.583   0.105   3.748
  406SOL     OW 3123   0.922   0.503   4.623
  406SOL    HW1 3124   0.897   0.494   4.527
  406SOL    HW2 3125   0.970   0.421   4.654
  407SOL     OW 3126   0.539   0.064   4.236
  407SOL    HW1 3127   0.458   0.065   4.294
  407SOL    HW2 3128   0.542   0.147   4.181
  408SOL     OW 3129   0.297   0.035   3.895
  408SOL    HW1 3130   0.346   0.119   3.874
  408SOL    HW2 3131   0.359  -0.030   3.940
  409SOL     OW 3132   0.935   0.236   4.204
  409SOL    HW1 3133   0.887   0.277   4.126
  409SOL    HW2 3134   1.034   0.234   4.185
  410SOL     OW 3135   1.227   1.570   4.517
  410SOL    HW1 3136   1.248   1.644   4.452
  410SOL    HW2 3137   1.295   1.570   4.590
  411SOL     OW 3138   1.271   1.797   4.315
  411SOL    HW1 3139   1.315   1.861   4.251
  411SOL    HW2 3140   1.221   1.849   4.385
  412SOL     OW 3141   1.032   0.549   3.740
  412SOL    HW1 3142   0.991   0.631   3.701
  412SOL    HW2 3143   1.096   0.575   3.813
  413SOL     OW 3144   0.866   0.454   4.366
  413SOL    HW1 3145   0.834   0.526   4.304
  413SOL    HW2 3146   0.890   0.373   4.313
  414SOL     OW 3147   1.017   0.039   4.477
  414SOL    HW1 3148   0.945   0.044   4.408
  414SOL    HW2 3149   0.993  -0.030   4.546
  415SOL     OW 3150   1.429   1.173   4.591
  415SOL    HW1 3151   1.374   1.089   4.584
  415SOL    HW2 3152   1.455   1.202   4.499
  416SOL     OW 3153   1.466   0.590   4.716
  416SOL    HW1 3154   1.436   0.495   4.723
  416SOL    HW2 3155   1.539   0.606   4.782
  417SOL     OW 3156   1.857   0.833   4.101
  417SOL    HW1 3157   1.899   0.769   4.165
  417SOL    HW2 3158   1.819   0.782   4.023
  418SOL     OW 3159   1.664   1.280   4.381
  418SOL    HW1 3160   1.763   1.288   4.395
  418SOL    HW2 3161   1.619   1.364   4.412
  419SOL     OW 3162   1.390   0.575   3.802
  419SOL    HW1 3163   1.336   0.554   3.883
  419SOL    HW2 3164   1.481   0.534   3.811
  420SOL     OW 3165   1.111   1.195   4.824
  420SOL    HW1 3166   1.071   1.239   4.905
  420SOL    HW2 3167   1.070   1.232   4.741
  421SOL     OW 3168   1.638   1.099   4.803
  421SOL    HW1 3169   1.643   1.180   4.862
  421SOL    HW2 3170   1.552   1.101   4.752
  422SOL     OW 3171   0.705   1.050   4.092
  422SOL    HW1 3172   0.691   1.057   4.191
  422SOL    HW2 3173   0.789   0.999   4.074
  423SOL     OW 3174   0.410   0.813   4.975
  423SOL    HW1 3175   0.496   0.825   5.025
  423SOL    HW2 3176   0.368   0.726   5.002
  424SOL     OW 3177   0.566   0.537   4.589
  424SOL    HW1 3178   0.578   0.603   4.515
  424SOL    HW2 3179   0.612   0.571   4.672
  425SOL     OW 3180   1.252   1.348   4.112
  425SOL    HW1 3181   1.302   1.425   4.152
  425SOL    HW2 3182   1.157   1.350   4.144
  426SOL     OW 3183   1.272   1.445   4.866
  426SOL    HW1 3184   1.319   1.458   4.953
  426SOL    HW2 3185   1.206   1.371   4.875
  427SOL     OW 3186   1.582   0.639   4.196
  427SOL    HW1 3187   1.551   0.700   4.269
  427SOL    HW2 3188   1.632   0.691   4.127
  428SOL     OW 3189   0.354   1.510   5.053
  428SOL    HW1 3190   0.333   1.466   4.966
  428SOL    HW2 3191   0.451   1.536   5.056
  429SOL     OW 3192   0.573   0.870   4.753
  429SOL    HW1 3193   0.617   0.959   4.744
  429SOL    HW2 3194   0.510   0.870   4.830
  430SOL     OW 3195   1.360   0.862   4.769
  430SOL    HW1 3196   1.285   0.862   4.703
  430SOL    HW2 3197   1.397   0.770   4.778
  431SOL     OW 3198   1.209   0.525   3.999
  431SOL    HW1 3199   1.222   0.441   4.053
  431SOL    HW2 3200   1.180   0.599   4.059
  432SOL     OW 3201   0.037   1.310   5.006
  432SOL    HW1 3202   0.090   1.261   5.074
  432SOL    HW2 3203   0.059   1.408   5.011
  433SOL     OW 3204   0.732   0.634   4.788
  433SOL    HW1 3205   0.791   0.608   4.712
  433SOL    HW2 3206   0.704   0.730   4.777
  434SOL     OW 3207   1.622   0.367   4.098
  434SOL    HW1 3208   1.624   0.291   4.162
  434SOL    HW2 3209   1.574   0.444   4.138
  435SOL     OW 3210   1.023   0.766   4.690
  435SOL    HW1 3211   1.038   0.787   4.786
  435SOL    HW2 3212   0.993   0.671   4.681
  436SOL     OW 3213   1.540   0.274   3.849
  436SOL    HW1 3214   1.479   0.199   3.872
  436SOL    HW2 3215   1.562   0.326   3.932
  437SOL     OW 3216   1.303   0.838   3.766
  437SOL    HW1 3217   1.337   0.745   3.781
  437SOL    HW2 3218   1.321   0.865   3.671
  438SOL     OW 3219   1.068   1.333   4.573
  438SOL    HW1 3220   1.075   1.249   4.518
  438SOL    HW2 3221   1.130   1.402   4.537
  439SOL     OW 3222   0.319   0.810   4.673
  439SOL    HW1 3223   0.412   0.846   4.678
  439SOL    HW2 3224   0.313   0.725   4.725
  440SOL     OW 3225   0.339   0.509   4.730
  440SOL    HW1 3226   0.287   0.426   4.713
  440SOL    HW2 3227   0.416   0.514   4.666
  441SOL     OW 3228   1.160   0.207   5.201
  441SOL    HW1 3229   1.160   0.271   5.278
  441SOL    HW2 3230   1.188   0.255   5.118
  442SOL     OW 3231   0.008   1.326   3.924
  442SOL    HW1 3232  -0.085   1.347   3.893
  442SOL    HW2 3233   0.018   1.227   3.937
  443SOL     OW 3234   0.088   1.801   4.651
  443SOL    HW1 3235   0.046   1.715   4.624
  443SOL    HW2 3236   0.182   1.804   4.617
  444SOL     OW 3237   1.002   0.796   4.962
  444SOL    HW1 3238   1.043   0.764   5.048
  444SOL    HW2 3239   0.906   0.769   4.959
  445SOL     OW 3240   0.040   0.544   4.838
  445SOL    HW1 3241   0.125   0.511   4.797
  445SOL    HW2 3242   0.053   0.559   4.936
  446SOL     OW 3243   0.815   0.572   4.049
  446SOL    HW1 3244   0.822   0.483   4.003
  446SOL    HW2 3245   0.721   0.606   4.041
  447SOL     OW 3246   0.671   0.464   4.993
  447SOL    HW1 3247   0.637   0.375   4.963
  447SOL    HW2 3248   0.697   0.518   4.913
  448SOL     OW 3249   0.930   1.678   5.189
  448SOL    HW1 3250   0.906   1.660   5.094
  448SOL    HW2 3251   0.960   1.772   5.199
  449SOL     OW 3252   1.347   1.059   4.958
  449SOL    HW1 3253   1.371   0.996   4.884
  449SOL    HW2 3254   1.257   1.099   4.940
  450SOL     OW 3255   1.302   0.855   4.033
  450SOL    HW1 3256   1.216   0.824   4.075
  450SOL    HW2 3257   1.298   0.841   3.934
  451SOL     OW 3258   1.759   1.747   4.878
  451SOL    HW1 3259   1.820   1.777   4.805
  451SOL    HW2 3260   1.721   1.658   4.856
  452SOL     OW 3261   1.252   1.731   4.852
  452SOL    HW1 3262   1.336   1.736   4.798
  452SOL    HW2 3263   1.229   1.635   4.870
  453SOL     OW 3264   0.083   1.258   4.746
  453SOL    HW1 3265   0.078   1.257   4.846
  453SOL    HW2 3266   0.000   1.217   4.708
  454SOL     OW 3267   1.726   0.135   4.247
  454SOL    HW1 3268   1.799   0.118   4.180
  454SOL    HW2 3269   1.695   0.048   4.285
  455SOL     OW 3270   1.388   1.573   4.201
  455SOL    HW1 3271   1.455   1.585   4.127
  455SOL    HW2 3272   1.348   1.662   4.224
  456SOL     OW 3273   1.280   0.927   4.396
  456SOL    HW1 3274   1.340   0.846   4.398
  456SOL    HW2 3275   1.320   0.996   4.336
  457SOL     OW 3276   1.650   1.720   5.118
  457SOL    HW1 3277   1.703   1.730   5.034
  457SOL    HW2 3278   1.623   1.810   5.152
  458SOL     OW 3279   1.841   0.175   4.687
  458SOL    HW1 3280   1.880   0.090   4.651
  458SOL    HW2 3281   1.743   0.177   4.668
  459SOL     OW 3282   0.263   0.326   4.444
  459SOL    HW1 3283   0.184   0.377   4.410
  459SOL    HW2 3284   0.254   0.311   4.542
  460SOL     OW 3285   1.194   1.612   3.755
  460SOL    HW1 3286   1.200   1.519   3.792
  460SOL    HW2 3287   1.135   1.612   3.675
  461SOL     OW 3288   0.822   1.002   5.096
  461SOL    HW1 3289   0.862   1.001   5.004
  461SOL    HW2 3290   0.832   1.094   5.136
  462SOL     OW 3291   0.916   0.910   4.015
  462SOL    HW1 3292   0.979   0.948   3.947
  462SOL    HW2 3293   0.956   0.827   4.054
  463SOL     OW 3294   1.504   1.607   3.768
  463SOL    HW1 3295   1.412   1.644   3.775
  463SOL    HW2 3296   1.542   1.627   3.678
  464SOL     OW 3297   1.039   1.098   4.420
  464SOL    HW1 3298   0.969   1.051   4.474
  464SOL    HW2 3299   1.098   1.030   4.377
  465SOL     OW 3300   1.014   0.236   4.695
  465SOL    HW1 3301   1.006   0.200   4.602
  465SOL    HW2 3302   1.012   0.160   4.760
  466SOL     OW 3303   1.709   0.385   5.105
  466SOL    HW1 3304   1.782   0.454   5.109
  466SOL    HW2 3305   1.737   0.310   5.046
  467SOL     OW 3306   0.075   0.345   3.757
  467SOL    HW1 3307  -0.017   0.317   3.728
  467SOL    HW2 3308   0.106   0.422   3.701
  468SOL     OW 3309   0.072   0.166   4.042
  468SOL    HW1 3310   0.055   0.249   3.988
  468SOL    HW2 3311   0.162   0.129   4.020
  469SOL     OW 3312   1.183   1.335   3.843
  469SOL    HW1 3313   1.084   1.324   3.845
  469SOL    HW2 3314   1.217   1.350   3.936
  470SOL     OW 3315   1.493   1.767   4.683
  470SOL    HW1 3316   1.526   1.831   4.614
  470SOL    HW2 3317   1.559   1.761   4.758
  471SOL     OW 3318   1.450   1.220   5.357
  471SOL    HW1 3319   1.441   1.210   5.456
  471SOL    HW2 3320   1.546   1.213   5.331
  472SOL     OW 3321   1.674   0.883   4.978
  472SOL    HW1 3322   1.647   0.794   4.941
  472SOL    HW2 3323   1.675   0.951   4.905
  473SOL     OW 3324   1.225   0.325   4.173
  473SOL    HW1 3325   1.290   0.251   4.162
  473SOL    HW2 3326   1.245   0.375   4.257
  474SOL     OW 3327   0.594   0.745   4.376
  474SOL    HW1 3328   0.644   0.830   4.357
  474SOL    HW2 3329   0.506   0.747   4.328
  475SOL     OW 3330   0.859   1.374   3.740
  475SOL    HW1 3331   0.813   1.389   3.828
  475SOL    HW2 3332   0.903   1.459   3.710
  476SOL     OW 3333   0.661   1.790   4.677
  476SOL    HW1 3334   0.615   1.878   4.664
  476SOL    HW2 3335   0.760   1.802   4.670
  477SOL     OW 3336   0.859   0.956   4.585
  477SOL    HW1 3337   0.913   0.887   4.633
  477SOL    HW2 3338   0.827   1.025   4.651
  478SOL     OW 3339   1.861   1.569   4.575
  478SOL    HW1 3340   1.790   1.557   4.505
  478SOL    HW2 3341   1.862   1.490   4.635
  479SOL     OW 3342   0.079   1.240   4.377
  479SOL    HW1 3343   0.078   1.193   4.465
  479SOL    HW2 3344   0.161   1.212   4.326
  480SOL     OW 3345   1.824   0.192   4.951
  480SOL    HW1 3346   1.820   0.102   4.995
  480SOL    HW2 3347   1.827   0.181   4.852
  481SOL     OW 3348   1.705   1.487   4.828
  481SOL    HW1 3349   1.612   1.462   4.801
  481SOL    HW2 3350   1.731   1.437   4.910
  482SOL     OW 3351   1.001   0.034   4.878
  482SOL    HW1 3352   0.938  -0.038   4.847
  482SOL    HW2 3353   1.094  -0.002   4.878
  483SOL     OW 3354   1.352   0.052   3.892
  483SOL    HW1 3355   1.387   0.011   3.808
  483SOL    HW2 3356   1.262   0.014   3.912
  484SOL     OW 3357   1.300   0.453   4.415
  484SOL    HW1 3358   1.241   0.533   4.419
  484SOL    HW2 3359   1.315   0.418   4.508
  485SOL     OW 3360   1.593   0.221   4.606
  485SOL    HW1 3361   1.509   0.220   4.660
  485SOL    HW2 3362   1.595   0.304   4.550
  486SOL     OW 3363   0.039   1.077   4.024
  486SOL    HW1 3364   0.138   1.066   4.015
  486SOL    HW2 3365  -0.001   0.991   4.056
  487SOL     OW 3366   0.230   2.490   0.113
  487SOL    HW1 3367   0.137   2.488   0.150
  487SOL    HW2 3368   0.231   2.451   0.021
  488SOL     OW 3369   0.225   2.137   0.996
  488SOL    HW1 3370   0.260   2.120   1.088
  488SOL    HW2 3371   0.137   2.092   0.984
  489SOL     OW 3372   0.019   2.230   0.647
  489SOL    HW1 3373  -0.063   2.273   0.686
  489SOL    HW2 3374  -0.009   2.157   0.584
  490SOL     OW 3375   0.569   3.137   1.165
  490SOL    HW1 3376   0.476   3.130   1.128
  490SOL    HW2 3377   0.580   3.226   1.209
  491SOL     OW 3378   1.555   3.373   0.703
  491SOL    HW1 3379   1.498   3.357   0.784
  491SOL    HW2 3380   1.496   3.383   0.623
  492SOL     OW 3381   1.135   2.565   0.717
  492SOL    HW1 3382   1.192   2.643   0.692
  492SOL    HW2 3383   1.075   2.591   0.793
  493SOL     OW 3384   1.755   2.469   0.231
  493SOL    HW1 3385   1.743   2.456   0.132
  493SOL    HW2 3386   1.725   2.388   0.280
  494SOL     OW 3387   0.768   3.006   1.023
  494SOL    HW1 3388   0.690   3.023   1.083
  494SOL    HW2 3389   0.802   3.093   0.987
  495SOL     OW 3390   0.850   2.660   1.823
  495SOL    HW1 3391   0.846   2.736   1.888
  495SOL    HW2 3392   0.872   2.696   1.732
  496SOL     OW 3393   0.685   2.874   0.665
  496SOL    HW1 3394   0.754   2.858   0.735
  496SOL    HW2 3395   0.612   2.931   0.703
  497SOL     OW 3396   0.686   3.023   1.803
  497SOL    HW1 3397   0.746   3.102   1.817
  497SOL    HW2 3398   0.600   3.054   1.762
  498SOL     OW 3399   0.335   3.297   1.061
  498SOL    HW1 3400   0.257   3.266   1.008
  498SOL    HW2 3401   0.393   3.355   1.004
  499SOL     OW 3402   1.460   3.367   1.339
  499SOL    HW1 3403   1.484   3.461   1.365
  499SOL    HW2 3404   1.444   3.313   1.421
  500SOL     OW 3405   1.603   2.309   0.737
  500SOL    HW1 3406   1.529   2.355   0.687
  500SOL    HW2 3407   1.654   2.377   0.790
  501SOL     OW 3408   0.231   3.575   0.483
  501SOL    HW1 3409   0.265   3.652   0.537
  501SOL    HW2 3410   0.275   3.575   0.393
  502SOL     OW 3411   1.127   3.203   1.690
  502SOL    HW1 3412   1.174   3.203   1.778
  502SOL    HW2 3413   1.079   3.116   1.679
  503SOL     OW 3414   0.230   3.296   0.538
  503SOL    HW1 3415   0.204   3.392   0.538
  503SOL    HW2 3416   0.159   3.242   0.583
  504SOL     OW 3417   0.240   2.953   0.886
  504SOL    HW1 3418   0.254   2.869   0.938
  504SOL    HW2 3419   0.185   3.017   0.941
  505SOL     OW 3420   0.620   3.648   1.439
  505SOL    HW1 3421   0.528   3.631   1.474
  505SOL    HW2 3422   0.648   3.740   1.465
  506SOL     OW 3423   0.606   2.826   0.123
  506SOL    HW1 3424   0.613   2.910   0.069
  506SOL    HW2 3425   0.652   2.839   0.211
  507SOL     OW 3426   1.594   1.976   1.480
  507SOL    HW1 3427   1.576   2.043   1.408
  507SOL    HW2 3428   1.591   2.022   1.569
  508SOL     OW 3429   0.122   2.505   0.563
  508SOL    HW1 3430   0.077   2.417   0.580
  508SOL    HW2 3431   0.121   2.559   0.647
  509SOL     OW 3432   1.842   3.629   0.359
  509SOL    HW1 3433   1.896   3.600   0.439
  509SOL    HW2 3434   1.872   3.719   0.330
  510SOL     OW 3435   0.027   3.458   0.117
  510SOL    HW1 3436   0.008   3.362   0.138
  510SOL    HW2 3437  -0.006   3.516   0.192
  511SOL     OW 3438   1.689   2.784   0.612
  511SOL    HW1 3439   1.784   2.755   0.620
  511SOL    HW2 3440   1.681   2.849   0.537
  512SOL     OW 3441   1.641   2.970   0.432
  512SOL    HW1 3442   1.727   2.972   0.380
  512SOL    HW2 3443   1.655   3.017   0.520
  513SOL     OW 3444   0.113   2.599   1.597
  513SOL    HW1 3445   0.201   2.586   1.642
  513SOL    HW2 3446   0.100   2.696   1.575
  514SOL     OW 3447   0.613   3.227   0.726
  514SOL    HW1 3448   0.564   3.140   0.735
  514SOL    HW2 3449   0.590   3.270   0.639
  515SOL     OW 3450   1.293   3.090   1.423
  515SOL    HW1 3451   1.330   3.017   1.365
  515SOL    HW2 3452   1.345   3.095   1.508
  516SOL     OW 3453   0.809   1.866   0.502
  516SOL    HW1 3454   0.849   1.957   0.493
  516SOL    HW2 3455   0.709   1.874   0.508
  517SOL     OW 3456   0.197   2.838   1.264
  517SOL    HW1 3457   0.286   2.793   1.250
  517SOL    HW2 3458   0.124   2.773   1.245
  518SOL     OW 3459   1.525   2.861   0.190
  518SOL    HW1 3460   1.462   2.785   0.203
  518SOL    HW2 3461   1.573   2.879   0.276
  519SOL     OW 3462   1.187   3.654   1.616
  519SOL    HW1 3463   1.211   3.714   1.540
  519SOL    HW2 3464   1.194   3.559   1.586
  520SOL     OW 3465   1.466   3.279   0.953
  520SOL    HW1 3466   1.407   3.285   1.033
  520SOL    HW2 3467   1.451   3.191   0.907
  521SOL     OW 3468   1.667   3.576   0.572
  521SOL    HW1 3469   1.626   3.553   0.484
  521SOL    HW2 3470   1.649   3.502   0.637
  522SOL     OW 3471   0.598   2.591   0.270
  522SOL    HW1 3472   0.622   2.660   0.202
  522SOL    HW2 3473   0.520   2.624   0.324
  523SOL     OW 3474   1.576   3.524   0.307
  523SOL    HW1 3475   1.665   3.570   0.310
  523SOL    HW2 3476   1.555   3.500   0.212
  524SOL     OW 3477   0.807   2.467   1.465
  524SOL    HW1 3478   0.760   2.464   1.554
  524SOL    HW2 3479   0.756   2.412   1.399
  525SOL     OW 3480   1.394   2.331   1.674
  525SOL    HW1 3481   1.374   2.374   1.762
  525SOL    HW2 3482   1.472   2.269   1.683
  526SOL     OW 3483   0.973   2.752   1.572
  526SOL    HW1 3484   1.019   2.668   1.543
  526SOL    HW2 3485   0.917   2.786   1.497
  527SOL     OW 3486   0.991   2.272   1.242
  527SOL    HW1 3487   0.914   2.306   1.296
  527SOL    HW2 3488   0.957   2.221   1.163
  528SOL     OW 3489   1.041   2.563   0.429
  528SOL    HW1 3490   1.067   2.559   0.525
  528SOL    HW2 3491   0.956   2.512   0.415
  529SOL     OW 3492   0.076   2.673   0.789
  529SOL    HW1 3493   0.175   2.661   0.798
  529SOL    HW2 3494   0.052   2.768   0.810
  530SOL     OW 3495   0.130   3.683   1.571
  530SOL    HW1 3496   0.120   3.668   1.670
  530SOL    HW2 3497   0.044   3.719   1.535
  531SOL     OW 3498   0.865   2.210   0.195
  531SOL    HW1 3499   0.924   2.273   0.146
  531SOL    HW2 3500   0.884   2.116   0.166
  532SOL     OW 3501   1.719   2.447   1.831
  532SOL    HW1 3502   1.693   2.536   1.795
  532SOL    HW2 3503   1.717   2.379   1.758
  533SOL     OW 3504   1.362   3.006   0.545
  533SOL    HW1 3505   1.445   2.977   0.497
  533SOL    HW2 3506   1.313   3.073   0.489
  534SOL     OW 3507   0.550   2.058   0.885
  534SOL    HW1 3508   0.545   2.053   0.985
  534SOL    HW2 3509   0.552   2.154   0.856
  535SOL     OW 3510   1.008   3.318   0.477
  535SOL    HW1 3511   0.962   3.390   0.425
  535SOL    HW2 3512   1.004   3.338   0.575
  536SOL     OW 3513   0.351   3.663   0.853
  536SOL    HW1 3514   0.401   3.577   0.859
  536SOL    HW2 3515   0.416   3.740   0.850
  537SOL     OW 3516   1.795   2.928   0.873
  537SOL    HW1 3517   1.733   2.913   0.797
  537SOL    HW2 3518   1.743   2.939   0.958
  538SOL     OW 3519   1.227   3.412   1.506
  538SOL    HW1 3520   1.233   3.335   1.570
  538SOL    HW2 3521   1.175   3.386   1.426
  539SOL     OW 3522   0.321   2.805   0.242
  539SOL    HW1 3523   0.403   2.844   0.200
  539SOL    HW2 3524   0.294   2.723   0.193
  540SOL     OW 3525   0.461   3.128   1.727
  540SOL    HW1 3526   0.411   3.129   1.641
  540SOL    HW2 3527   0.398   3.110   1.803
  541SOL     OW 3528   1.111   3.638   0.237
  541SOL    HW1 3529   1.051   3.576   0.287
  541SOL    HW2 3530   1.142   3.594   0.152
  542SOL     OW 3531   0.202   2.147   1.498
  542SOL    HW1 3532   0.122   2.207   1.485
  542SOL    HW2 3533   0.192   2.098   1.584
  543SOL     OW 3534   1.632   3.239   0.081
  543SOL    HW1 3535   1.600   3.333   0.071
  543SOL    HW2 3536   1.556   3.176   0.069
  544SOL     OW 3537   0.464   3.605   0.323
  544SOL    HW1 3538   0.497   3.644   0.409
  544SOL    HW2 3539   0.540   3.598   0.258
  545SOL     OW 3540   0.249   3.647   1.241
  545SOL    HW1 3541   0.306   3.582   1.291
  545SOL    HW2 3542   0.233   3.614   1.148
  546SOL     OW 3543   0.382   2.562   0.480
  546SOL    HW1 3544   0.427   2.472   0.477
  546SOL    HW2 3545   0.288   2.551   0.513
  547SOL     OW 3546   1.547   2.084   1.729
  547SOL    HW1 3547   1.542   2.121   1.821
  547SOL    HW2 3548   1.475   2.015   1.717
  548SOL     OW 3549   0.781   2.126   1.749
  548SOL    HW1 3550   0.848   2.065   1.792
  548SOL    HW2 3551   0.708   2.145   1.814
  549SOL     OW 3552   1.351   2.452   1.433
  549SOL    HW1 3553   1.379   2.409   1.518
  549SOL    HW2 3554   1.376   2.548   1.434
  550SOL     OW 3555   0.803   3.264   0.924
  550SOL    HW1 3556   0.893   3.278   0.882
  550SOL    HW2 3557   0.732   3.266   0.853
  551SOL     OW 3558   0.922   2.365   0.899
  551SOL    HW1 3559   0.897   2.356   0.803
  551SOL    HW2 3560   0.970   2.283   0.930
  552SOL     OW 3561   0.539   1.926   0.512
  552SOL    HW1 3562   0.458   1.927   0.570
  552SOL    HW2 3563   0.542   2.009   0.457
  553SOL     OW 3564   1.434   3.050   0.041
  553SOL    HW1 3565   1.466   2.974   0.098
  553SOL    HW2 3566   1.342   3.077   0.071
  554SOL     OW 3567   0.297   1.897   0.171
  554SOL    HW1 3568   0.346   1.981   0.150
  554SOL    HW2 3569   0.359   1.832   0.216
  555SOL     OW 3570   1.076   2.545   1.464
  555SOL    HW1 3571   0.996   2.484   1.467
  555SOL    HW2 3572   1.157   2.492   1.440
  556SOL     OW 3573   0.459   3.014   0.741
  556SOL    HW1 3574   0.388   2.987   0.806
  556SOL    HW2 3575   0.433   2.986   0.648
  557SOL     OW 3576   1.032   2.411   0.016
  557SOL    HW1 3577   0.991   2.493  -0.023
  557SOL    HW2 3578   1.096   2.437   0.089
  558SOL     OW 3579   0.078   2.418   1.386
  558SOL    HW1 3580   0.170   2.417   1.345
  558SOL    HW2 3581   0.072   2.492   1.453
  559SOL     OW 3582   0.561   2.084   1.147
  559SOL    HW1 3583   0.599   2.000   1.184
  559SOL    HW2 3584   0.473   2.103   1.191
  560SOL     OW 3585   1.017   1.901   0.753
  560SOL    HW1 3586   0.945   1.906   0.684
  560SOL    HW2 3587   0.993   1.832   0.822
  561SOL     OW 3588   1.429   3.035   0.867
  561SOL    HW1 3589   1.374   2.951   0.860
  561SOL    HW2 3590   1.455   3.064   0.775
  562SOL     OW 3591   1.857   2.695   0.377
  562SOL    HW1 3592   1.899   2.631   0.441
  562SOL    HW2 3593   1.819   2.644   0.299
  563SOL     OW 3594   0.488   3.247   0.174
  563SOL    HW1 3595   0.401   3.232   0.221
  563SOL    HW2 3596   0.471   3.273   0.079
  564SOL     OW 3597   1.664   3.142   0.657
  564SOL    HW1 3598   1.763   3.150   0.671
  564SOL    HW2 3599   1.619   3.226   0.688
  565SOL     OW 3600   0.527   2.118   0.328
  565SOL    HW1 3601   0.554   2.059   0.253
  565SOL    HW2 3602   0.527   2.213   0.297
  566SOL     OW 3603   1.064   3.209   1.340
  566SOL    HW1 3604   0.984   3.186   1.395
  566SOL    HW2 3605   1.147   3.183   1.389
  567SOL     OW 3606   1.111   3.057   1.100
  567SOL    HW1 3607   1.071   3.101   1.181
  567SOL    HW2 3608   1.070   3.094   1.017
  568SOL     OW 3609   0.980   2.978   1.719
  568SOL    HW1 3610   0.881   2.984   1.729
  568SOL    HW2 3611   1.003   2.898   1.663
  569SOL     OW 3612   0.705   2.912   0.368
  569SOL    HW1 3613   0.691   2.919   0.467
  569SOL    HW2 3614   0.789   2.861   0.350
  570SOL     OW 3615   0.410   2.675   1.251
  570SOL    HW1 3616   0.496   2.687   1.301
  570SOL    HW2 3617   0.368   2.588   1.278
  571SOL     OW 3618   0.064   3.426   1.331
  571SOL    HW1 3619   0.018   3.508   1.297
  571SOL    HW2 3620   0.162   3.445   1.340
  572SOL     OW 3621   0.367   2.962   0.501
  572SOL    HW1 3622   0.360   3.045   0.445
  572SOL    HW2 3623   0.371   2.882   0.441
  573SOL     OW 3624   0.566   2.399   0.865
  573SOL    HW1 3625   0.578   2.465   0.791
  573SOL    HW2 3626   0.612   2.433   0.948
  574SOL     OW 3627   1.252   3.210   0.388
  574SOL    HW1 3628   1.302   3.287   0.428
  574SOL    HW2 3629   1.157   3.212   0.420
  575SOL     OW 3630   1.272   3.307   1.142
  575SOL    HW1 3631   1.319   3.320   1.229
  575SOL    HW2 3632   1.206   3.233   1.151
  576SOL     OW 3633   1.582   2.501   0.472
  576SOL    HW1 3634   1.551   2.562   0.545
  576SOL    HW2 3635   1.632   2.553   0.403
  577SOL     OW 3636   0.354   3.372   1.329
  577SOL    HW1 3637   0.333   3.328   1.242
  577SOL    HW2 3638   0.451   3.398   1.332
  578SOL     OW 3639   0.402   2.613   1.598
  578SOL    HW1 3640   0.470   2.668   1.551
  578SOL    HW2 3641   0.442   2.525   1.625
  579SOL     OW 3642   1.587   2.641   1.670
  579SOL    HW1 3643   1.495   2.679   1.665
  579SOL    HW2 3644   1.647   2.688   1.605
  580SOL     OW 3645   1.013   1.967   1.770
  580SOL    HW1 3646   1.019   2.052   1.718
  580SOL    HW2 3647   1.045   1.891   1.713
  581SOL     OW 3648   0.573   2.732   1.029
  581SOL    HW1 3649   0.617   2.821   1.020
  581SOL    HW2 3650   0.510   2.732   1.106
  582SOL     OW 3651   0.307   2.075   1.231
  582SOL    HW1 3652   0.284   2.112   1.321
  582SOL    HW2 3653   0.277   1.980   1.225
  583SOL     OW 3654   0.037   3.172   1.282
  583SOL    HW1 3655   0.090   3.123   1.350
  583SOL    HW2 3656   0.059   3.270   1.287
  584SOL     OW 3657   0.732   2.496   1.064
  584SOL    HW1 3658   0.791   2.470   0.988
  584SOL    HW2 3659   0.704   2.592   1.053
  585SOL     OW 3660   1.728   2.797   1.854
  585SOL    HW1 3661   1.682   2.790   1.765
  585SOL    HW2 3662   1.666   2.841   1.920
  586SOL     OW 3663   0.307   1.925   0.618
  586SOL    HW1 3664   0.296   2.019   0.651
  586SOL    HW2 3665   0.302   1.862   0.695
  587SOL     OW 3666   1.622   2.229   0.374
  587SOL    HW1 3667   1.624   2.153   0.438
  587SOL    HW2 3668   1.574   2.306   0.414
  588SOL     OW 3669   1.023   2.628   0.966
  588SOL    HW1 3670   1.038   2.649   1.062
  588SOL    HW2 3671   0.993   2.533   0.957
  589SOL     OW 3672   0.980   3.435   1.700
  589SOL    HW1 3673   0.960   3.479   1.612
  589SOL    HW2 3674   1.019   3.344   1.684
  590SOL     OW 3675   1.859   3.380   1.605
  590SOL    HW1 3676   1.873   3.407   1.510
  590SOL    HW2 3677   1.942   3.402   1.658
  591SOL     OW 3678   0.350   2.760   1.804
  591SOL    HW1 3679   0.426   2.804   1.852
  591SOL    HW2 3680   0.385   2.713   1.722
  592SOL     OW 3681   1.540   2.136   0.125
  592SOL    HW1 3682   1.479   2.061   0.148
  592SOL    HW2 3683   1.562   2.188   0.208
  593SOL     OW 3684   1.068   3.195   0.849
  593SOL    HW1 3685   1.075   3.111   0.794
  593SOL    HW2 3686   1.130   3.264   0.813
  594SOL     OW 3687   0.319   2.672   0.949
  594SOL    HW1 3688   0.412   2.708   0.954
  594SOL    HW2 3689   0.313   2.587   1.001
  595SOL     OW 3690   0.339   2.371   1.006
  595SOL    HW1 3691   0.287   2.288   0.989
  595SOL    HW2 3692   0.416   2.376   0.942
  596SOL     OW 3693   1.138   2.242   1.678
  596SOL    HW1 3694   1.093   2.305   1.742
  596SOL    HW2 3695   1.231   2.273   1.661
  597SOL     OW 3696   1.160   2.069   1.477
  597SOL    HW1 3697   1.160   2.133   1.554
  597SOL    HW2 3698   1.188   2.117   1.394
  598SOL     OW 3699   0.008   3.188   0.200
  598SOL    HW1 3700  -0.085   3.209   0.169
  598SOL    HW2 3701   0.018   3.089   0.213
  599SOL     OW 3702   0.088   3.663   0.927
  599SOL    HW1 3703   0.046   3.577   0.900
  599SOL    HW2 3704   0.182   3.666   0.893
  600SOL     OW 3705   0.504   3.430   0.910
  600SOL    HW1 3706   0.570   3.504   0.919
  600SOL    HW2 3707   0.548   3.351   0.868
  601SOL     OW 3708   1.002   2.658   1.238
  601SOL    HW1 3709   1.043   2.626   1.324
  601SOL    HW2 3710   0.906   2.631   1.235
  602SOL     OW 3711   0.040   2.406   1.114
  602SOL    HW1 3712   0.125   2.373   1.073
  602SOL    HW2 3713   0.053   2.421   1.212
  603SOL     OW 3714   1.369   2.812   1.660
  603SOL    HW1 3715   1.408   2.901   1.680
  603SOL    HW2 3716   1.379   2.792   1.563
  604SOL     OW 3717   0.815   2.434   0.325
  604SOL    HW1 3718   0.822   2.345   0.279
  604SOL    HW2 3719   0.721   2.468   0.317
  605SOL     OW 3720   1.657   2.466   1.206
  605SOL    HW1 3721   1.619   2.397   1.268
  605SOL    HW2 3722   1.739   2.430   1.162
  606SOL     OW 3723   0.671   2.326   1.269
  606SOL    HW1 3724   0.637   2.237   1.239
  606SOL    HW2 3725   0.697   2.380   1.189
  607SOL     OW 3726   0.930   3.540   1.465
  607SOL    HW1 3727   0.906   3.522   1.370
  607SOL    HW2 3728   0.960   3.634   1.475
  608SOL     OW 3729   0.473   2.362   0.191
  608SOL    HW1 3730   0.534   2.442   0.195
  608SOL    HW2 3731   0.378   2.393   0.198
  609SOL     OW 3732   1.759   3.609   1.154
  609SOL    HW1 3733   1.820   3.639   1.081
  609SOL    HW2 3734   1.721   3.520   1.132
  610SOL     OW 3735   1.252   3.593   1.128
  610SOL    HW1 3736   1.336   3.598   1.074
  610SOL    HW2 3737   1.229   3.497   1.146
  611SOL     OW 3738   0.083   3.120   1.022
  611SOL    HW1 3739   0.078   3.119   1.122
  611SOL    HW2 3740   0.000   3.079   0.984
  612SOL     OW 3741   0.688   3.524   1.716
  612SOL    HW1 3742   0.632   3.605   1.725
  612SOL    HW2 3743   0.740   3.528   1.630
  613SOL     OW 3744   0.903   1.948   0.133
  613SOL    HW1 3745   0.954   1.949   0.047
  613SOL    HW2 3746   0.959   1.906   0.204
  614SOL     OW 3747   1.726   1.997   0.523
  614SOL    HW1 3748   1.799   1.980   0.456
  614SOL    HW2 3749   1.695   1.910   0.561
  615SOL     OW 3750   1.388   3.435   0.477
  615SOL    HW1 3751   1.455   3.447   0.403
  615SOL    HW2 3752   1.348   3.524   0.500
  616SOL     OW 3753   0.130   3.656   1.851
  616SOL    HW1 3754   0.089   3.582   1.904
  616SOL    HW2 3755   0.194   3.707   1.909
  617SOL     OW 3756   1.280   2.789   0.672
  617SOL    HW1 3757   1.340   2.708   0.674
  617SOL    HW2 3758   1.320   2.858   0.612
  618SOL     OW 3759   0.830   3.135   1.422
  618SOL    HW1 3760   0.825   3.168   1.517
  618SOL    HW2 3761   0.744   3.154   1.376
  619SOL     OW 3762   0.672   3.478   0.154
  619SOL    HW1 3763   0.681   3.488   0.055
  619SOL    HW2 3764   0.632   3.389   0.175
  620SOL     OW 3765   1.650   3.582   1.394
  620SOL    HW1 3766   1.703   3.592   1.310
  620SOL    HW2 3767   1.623   3.672   1.428
  621SOL     OW 3768   1.841   2.037   0.963
  621SOL    HW1 3769   1.880   1.952   0.927
  621SOL    HW2 3770   1.743   2.039   0.944
  622SOL     OW 3771   0.263   2.188   0.720
  622SOL    HW1 3772   0.184   2.239   0.686
  622SOL    HW2 3773   0.254   2.173   0.818
  623SOL     OW 3774   0.822   2.864   1.372
  623SOL    HW1 3775   0.862   2.863   1.280
  623SOL    HW2 3776   0.832   2.956   1.412
  624SOL     OW 3777   0.916   2.772   0.291
  624SOL    HW1 3778   0.979   2.810   0.223
  624SOL    HW2 3779   0.956   2.689   0.330
  625SOL     OW 3780   1.504   3.469   0.044
  625SOL    HW1 3781   1.412   3.506   0.051
  625SOL    HW2 3782   1.542   3.489  -0.046
  626SOL     OW 3783   0.372   3.150   1.490
  626SOL    HW1 3784   0.359   3.243   1.456
  626SOL    HW2 3785   0.288   3.098   1.477
  627SOL     OW 3786   1.614   3.154   1.289
  627SOL    HW1 3787   1.674   3.157   1.369
  627SOL    HW2 3788   1.539   3.218   1.302
  628SOL     OW 3789   1.039   2.960   0.696
  628SOL    HW1 3790   0.969   2.913   0.750
  628SOL    HW2 3791   1.098   2.892   0.653
  629SOL     OW 3792   0.590   3.349   0.491
  629SOL    HW1 3793   0.632   3.291   0.421
  629SOL    HW2 3794   0.546   3.428   0.447
  630SOL     OW 3795   1.709   2.247   1.381
  630SOL    HW1 3796   1.782   2.316   1.385
  630SOL    HW2 3797   1.737   2.172   1.322
  631SOL     OW 3798   0.255   3.210   0.290
  631SOL    HW1 3799   0.159   3.211   0.263
  631SOL    HW2 3800   0.267   3.263   0.374
  632SOL     OW 3801   0.672   2.065   1.489
  632SOL    HW1 3802   0.762   2.049   1.449
  632SOL    HW2 3803   0.680   2.070   1.588
  633SOL     OW 3804   0.075   2.207   0.033
  633SOL    HW1 3805  -0.017   2.179   0.004
  633SOL    HW2 3806   0.106   2.284  -0.023
  634SOL     OW 3807   1.440   2.718   1.398
  634SOL    HW1 3808   1.383   2.770   1.335
  634SOL    HW2 3809   1.536   2.730   1.374
  635SOL     OW 3810   0.072   2.028   0.318
  635SOL    HW1 3811   0.055   2.111   0.264
  635SOL    HW2 3812   0.162   1.991   0.296
  636SOL     OW 3813   0.613   2.704   1.431
  636SOL    HW1 3814   0.669   2.785   1.414
  636SOL    HW2 3815   0.672   2.624   1.434
  637SOL     OW 3816   1.493   3.629   0.959
  637SOL    HW1 3817   1.526   3.693   0.890
  637SOL    HW2 3818   1.559   3.623   1.034
  638SOL     OW 3819   0.716   2.427   1.708
  638SOL    HW1 3820   0.735   2.492   1.782
  638SOL    HW2 3821   0.776   2.347   1.717
  639SOL     OW 3822   1.450   3.082   1.633
  639SOL    HW1 3823   1.441   3.072   1.732
  639SOL    HW2 3824   1.546   3.075   1.607
  640SOL     OW 3825   0.390   3.603   1.560
  640SOL    HW1 3826   0.299   3.644   1.558
  640SOL    HW2 3827   0.383   3.509   1.592
  641SOL     OW 3828   1.674   2.745   1.254
  641SOL    HW1 3829   1.647   2.656   1.217
  641SOL    HW2 3830   1.675   2.813   1.181
  642SOL     OW 3831   0.594   2.607   0.652
  642SOL    HW1 3832   0.644   2.692   0.633
  642SOL    HW2 3833   0.506   2.609   0.604
  643SOL     OW 3834   1.777   2.204   1.642
  643SOL    HW1 3835   1.760   2.235   1.548
  643SOL    HW2 3836   1.693   2.167   1.680
  644SOL     OW 3837   1.730   2.796   1.517
  644SOL    HW1 3838   1.768   2.887   1.532
  644SOL    HW2 3839   1.722   2.779   1.418
  645SOL     OW 3840   0.859   3.236   0.016
  645SOL    HW1 3841   0.813   3.251   0.104
  645SOL    HW2 3842   0.903   3.321  -0.014
  646SOL     OW 3843   0.859   2.818   0.861
  646SOL    HW1 3844   0.913   2.749   0.909
  646SOL    HW2 3845   0.827   2.887   0.927
  647SOL     OW 3846   1.861   3.431   0.851
  647SOL    HW1 3847   1.790   3.419   0.781
  647SOL    HW2 3848   1.862   3.352   0.911
  648SOL     OW 3849   0.079   3.102   0.653
  648SOL    HW1 3850   0.078   3.055   0.741
  648SOL    HW2 3851   0.161   3.074   0.602
  649SOL     OW 3852   0.672   3.253   1.624
  649SOL    HW1 3853   0.594   3.203   1.662
  649SOL    HW2 3854   0.669   3.348   1.655
  650SOL     OW 3855   0.428   2.286   0.520
  650SOL    HW1 3856   0.458   2.214   0.458
  650SOL    HW2 3857   0.389   2.246   0.603
  651SOL     OW 3858   1.705   3.349   1.104
  651SOL    HW1 3859   1.612   3.324   1.077
  651SOL    HW2 3860   1.731   3.299   1.186
  652SOL     OW 3861   0.317   2.409   1.280
  652SOL    HW1 3862   0.355   2.350   1.352
  652SOL    HW2 3863   0.357   2.383   1.192
  653SOL     OW 3864   0.812   3.448   0.687
  653SOL    HW1 3865   0.844   3.458   0.593
  653SOL    HW2 3866   0.733   3.386   0.689
  654SOL     OW 3867   1.424   2.076   1.112
  654SOL    HW1 3868   1.476   2.011   1.167
  654SOL    HW2 3869   1.375   2.139   1.173
  655SOL     OW 3870   0.770   3.192   0.301
  655SOL    HW1 3871   0.724   3.105   0.318
  655SOL    HW2 3872   0.861   3.189   0.342
  656SOL     OW 3873   1.352   1.914   0.168
  656SOL    HW1 3874   1.387   1.873   0.084
  656SOL    HW2 3875   1.262   1.876   0.188
  657SOL     OW 3876   1.593   2.083   0.882
  657SOL    HW1 3877   1.509   2.082   0.936
  657SOL    HW2 3878   1.595   2.166   0.826
  658SOL     OW 3879   0.039   2.939   0.300
  658SOL    HW1 3880   0.138   2.928   0.291
  658SOL    HW2 3881  -0.001   2.853   0.332
  659SOL     OW 3882   0.875   3.508   0.337
  659SOL    HW1 3883   0.798   3.473   0.283
  659SOL    HW2 3884   0.843   3.579   0.399
  660SOL     OW 3885   0.019   2.230   2.509
  660SOL    HW1 3886  -0.063   2.273   2.548
  660SOL    HW2 3887  -0.009   2.157   2.446
  661SOL     OW 3888   0.569   3.137   3.027
  661SOL    HW1 3889   0.476   3.130   2.990
  661SOL    HW2 3890   0.580   3.226   3.071
  662SOL     OW 3891   1.555   3.373   2.565
  662SOL    HW1 3892   1.498   3.357   2.646
  662SOL    HW2 3893   1.496   3.383   2.485
  663SOL     OW 3894   0.850   2.660   3.685
  663SOL    HW1 3895   0.846   2.736   3.750
  663SOL    HW2 3896   0.872   2.696   3.594
  664SOL     OW 3897   0.686   3.023   3.665
  664SOL    HW1 3898   0.746   3.102   3.679
  664SOL    HW2 3899   0.600   3.054   3.624
  665SOL     OW 3900   0.335   3.297   2.923
  665SOL    HW1 3901   0.257   3.266   2.870
  665SOL    HW2 3902   0.393   3.355   2.866
  666SOL     OW 3903   1.460   3.367   3.201
  666SOL    HW1 3904   1.484   3.461   3.227
  666SOL    HW2 3905   1.444   3.313   3.283
  667SOL     OW 3906   0.438   2.254   3.361
  667SOL    HW1 3907   0.520   2.198   3.370
  667SOL    HW2 3908   0.357   2.196   3.365
  668SOL     OW 3909   1.603   2.309   2.599
  668SOL    HW1 3910   1.529   2.355   2.549
  668SOL    HW2 3911   1.654   2.377   2.652
  669SOL     OW 3912   1.127   3.203   3.552
  669SOL    HW1 3913   1.174   3.203   3.640
  669SOL    HW2 3914   1.079   3.116   3.541
  670SOL     OW 3915   0.240   2.953   2.748
  670SOL    HW1 3916   0.254   2.869   2.800
  670SOL    HW2 3917   0.185   3.017   2.803
  671SOL     OW 3918   0.620   3.648   3.301
  671SOL    HW1 3919   0.528   3.631   3.336
  671SOL    HW2 3920   0.648   3.740   3.327
  672SOL     OW 3921   0.606   2.826   1.985
  672SOL    HW1 3922   0.613   2.910   1.931
  672SOL    HW2 3923   0.652   2.839   2.073
  673SOL     OW 3924   1.689   2.784   2.474
  673SOL    HW1 3925   1.784   2.755   2.482
  673SOL    HW2 3926   1.681   2.849   2.399
  674SOL     OW 3927   1.641   2.970   2.294
  674SOL    HW1 3928   1.727   2.972   2.242
  674SOL    HW2 3929   1.655   3.017   2.382
  675SOL     OW 3930   0.113   2.599   3.459
  675SOL    HW1 3931   0.201   2.586   3.504
  675SOL    HW2 3932   0.100   2.696   3.437
  676SOL     OW 3933   0.613   3.227   2.588
  676SOL    HW1 3934   0.564   3.140   2.597
  676SOL    HW2 3935   0.590   3.270   2.501
  677SOL     OW 3936   0.809   1.866   2.364
  677SOL    HW1 3937   0.849   1.957   2.355
  677SOL    HW2 3938   0.709   1.874   2.370
  678SOL     OW 3939   0.197   2.838   3.126
  678SOL    HW1 3940   0.286   2.793   3.112
  678SOL    HW2 3941   0.124   2.773   3.107
  679SOL     OW 3942   1.187   3.654   3.478
  679SOL    HW1 3943   1.211   3.714   3.402
  679SOL    HW2 3944   1.194   3.559   3.448
  680SOL     OW 3945   0.317   2.113   3.663
  680SOL    HW1 3946   0.388   2.184   3.669
  680SOL    HW2 3947   0.229   2.152   3.691
  681SOL     OW 3948   1.466   3.279   2.815
  681SOL    HW1 3949   1.407   3.285   2.895
  681SOL    HW2 3950   1.451   3.191   2.769
  682SOL     OW 3951   1.667   3.576   2.434
  682SOL    HW1 3952   1.626   3.553   2.346
  682SOL    HW2 3953   1.649   3.502   2.499
  683SOL     OW 3954   1.281   2.207   2.806
  683SOL    HW1 3955   1.195   2.157   2.793
  683SOL    HW2 3956   1.343   2.153   2.862
  684SOL     OW 3957   0.807   2.467   3.327
  684SOL    HW1 3958   0.760   2.464   3.416
  684SOL    HW2 3959   0.756   2.412   3.261
  685SOL     OW 3960   0.973   2.752   3.434
  685SOL    HW1 3961   1.019   2.668   3.405
  685SOL    HW2 3962   0.917   2.786   3.359
  686SOL     OW 3963   0.991   2.272   3.104
  686SOL    HW1 3964   0.914   2.306   3.158
  686SOL    HW2 3965   0.957   2.221   3.025
  687SOL     OW 3966   1.041   2.563   2.291
  687SOL    HW1 3967   1.067   2.559   2.387
  687SOL    HW2 3968   0.956   2.512   2.277
  688SOL     OW 3969   0.130   3.683   3.433
  688SOL    HW1 3970   0.120   3.668   3.532
  688SOL    HW2 3971   0.044   3.719   3.397
  689SOL     OW 3972   0.865   2.210   2.057
  689SOL    HW1 3973   0.924   2.273   2.008
  689SOL    HW2 3974   0.884   2.116   2.028
  690SOL     OW 3975   1.719   2.447   3.693
  690SOL    HW1 3976   1.693   2.536   3.657
  690SOL    HW2 3977   1.717   2.379   3.620
  691SOL     OW 3978   1.362   3.006   2.407
  691SOL    HW1 3979   1.445   2.977   2.359
  691SOL    HW2 3980   1.313   3.073   2.351
  692SOL     OW 3981   0.550   2.058   2.747
  692SOL    HW1 3982   0.545   2.053   2.847
  692SOL    HW2 3983   0.552   2.154   2.718
  693SOL     OW 3984   1.008   3.318   2.339
  693SOL    HW1 3985   0.962   3.390   2.287
  693SOL    HW2 3986   1.004   3.338   2.437
  694SOL     OW 3987   0.351   3.663   2.715
  694SOL    HW1 3988   0.401   3.577   2.721
  694SOL    HW2 3989   0.416   3.740   2.712
  695SOL     OW 3990   1.795   2.928   2.735
  695SOL    HW1 3991   1.733   2.913   2.659
  695SOL    HW2 3992   1.743   2.939   2.820
  696SOL     OW 3993   1.227   3.412   3.368
  696SOL    HW1 3994   1.233   3.335   3.432
  696SOL    HW2 3995   1.175   3.386   3.288
  697SOL     OW 3996   0.321   2.805   2.104
  697SOL    HW1 3997   0.403   2.844   2.062
  697SOL    HW2 3998   0.294   2.723   2.055
  698SOL     OW 3999   1.458   2.597   2.590
  698SOL    HW1 4000   1.453   2.532   2.665
  698SOL    HW2 4001   1.538   2.656   2.603
  699SOL     OW 4002   0.461   3.128   3.589
  699SOL    HW1 4003   0.411   3.129   3.503
  699SOL    HW2 4004   0.398   3.110   3.665
  700SOL     OW 4005   1.111   3.638   2.099
  700SOL    HW1 4006   1.051   3.576   2.149
  700SOL    HW2 4007   1.142   3.594   2.014
  701SOL     OW 4008   0.202   2.147   3.360
  701SOL    HW1 4009   0.122   2.207   3.347
  701SOL    HW2 4010   0.192   2.098   3.446
  702SOL     OW 4011   1.632   3.239   1.943
  702SOL    HW1 4012   1.600   3.333   1.933
  702SOL    HW2 4013   1.556   3.176   1.931
  703SOL     OW 4014   0.464   3.605   2.185
  703SOL    HW1 4015   0.497   3.644   2.271
  703SOL    HW2 4016   0.540   3.598   2.120
  704SOL     OW 4017   0.249   3.647   3.103
  704SOL    HW1 4018   0.306   3.582   3.153
  704SOL    HW2 4019   0.233   3.614   3.010
  705SOL     OW 4020   0.940   3.560   2.766
  705SOL    HW1 4021   1.020   3.503   2.787
  705SOL    HW2 4022   0.891   3.520   2.689
  706SOL     OW 4023   0.614   1.984   1.979
  706SOL    HW1 4024   0.712   1.962   1.986
  706SOL    HW2 4025   0.583   1.967   1.886
  707SOL     OW 4026   0.781   2.126   3.611
  707SOL    HW1 4027   0.848   2.065   3.654
  707SOL    HW2 4028   0.708   2.145   3.676
  708SOL     OW 4029   0.922   2.365   2.761
  708SOL    HW1 4030   0.897   2.356   2.665
  708SOL    HW2 4031   0.970   2.283   2.792
  709SOL     OW 4032   0.539   1.926   2.374
  709SOL    HW1 4033   0.458   1.927   2.432
  709SOL    HW2 4034   0.542   2.009   2.319
  710SOL     OW 4035   1.434   3.050   1.903
  710SOL    HW1 4036   1.466   2.974   1.960
  710SOL    HW2 4037   1.342   3.077   1.933
  711SOL     OW 4038   0.297   1.897   2.033
  711SOL    HW1 4039   0.346   1.981   2.012
  711SOL    HW2 4040   0.359   1.832   2.078
  712SOL     OW 4041   0.935   2.098   2.342
  712SOL    HW1 4042   0.887   2.139   2.264
  712SOL    HW2 4043   1.034   2.096   2.323
  713SOL     OW 4044   1.076   2.545   3.326
  713SOL    HW1 4045   0.996   2.484   3.329
  713SOL    HW2 4046   1.157   2.492   3.302
  714SOL     OW 4047   1.227   3.432   2.655
  714SOL    HW1 4048   1.248   3.506   2.590
  714SOL    HW2 4049   1.295   3.432   2.728
  715SOL     OW 4050   0.459   3.014   2.603
  715SOL    HW1 4051   0.388   2.987   2.668
  715SOL    HW2 4052   0.433   2.986   2.510
  716SOL     OW 4053   1.271   3.659   2.453
  716SOL    HW1 4054   1.315   3.723   2.389
  716SOL    HW2 4055   1.221   3.711   2.523
  717SOL     OW 4056   0.078   2.418   3.248
  717SOL    HW1 4057   0.170   2.417   3.207
  717SOL    HW2 4058   0.072   2.492   3.315
  718SOL     OW 4059   0.561   2.084   3.009
  718SOL    HW1 4060   0.599   2.000   3.046
  718SOL    HW2 4061   0.473   2.103   3.053
  719SOL     OW 4062   0.866   2.316   2.504
  719SOL    HW1 4063   0.834   2.388   2.442
  719SOL    HW2 4064   0.890   2.235   2.451
  720SOL     OW 4065   1.017   1.901   2.615
  720SOL    HW1 4066   0.945   1.906   2.546
  720SOL    HW2 4067   0.993   1.832   2.684
  721SOL     OW 4068   1.429   3.035   2.729
  721SOL    HW1 4069   1.374   2.951   2.722
  721SOL    HW2 4070   1.455   3.064   2.637
  722SOL     OW 4071   1.466   2.452   2.854
  722SOL    HW1 4072   1.436   2.357   2.861
  722SOL    HW2 4073   1.539   2.468   2.920
  723SOL     OW 4074   1.857   2.695   2.239
  723SOL    HW1 4075   1.899   2.631   2.303
  723SOL    HW2 4076   1.819   2.644   2.161
  724SOL     OW 4077   1.664   3.142   2.519
  724SOL    HW1 4078   1.763   3.150   2.533
  724SOL    HW2 4079   1.619   3.226   2.550
  725SOL     OW 4080   0.527   2.118   2.190
  725SOL    HW1 4081   0.554   2.059   2.115
  725SOL    HW2 4082   0.527   2.213   2.159
  726SOL     OW 4083   1.754   3.085   3.450
  726SOL    HW1 4084   1.845   3.046   3.437
  726SOL    HW2 4085   1.762   3.181   3.474
  727SOL     OW 4086   1.592   3.491   3.487
  727SOL    HW1 4087   1.619   3.525   3.397
  727SOL    HW2 4088   1.671   3.453   3.533
  728SOL     OW 4089   1.638   2.961   2.941
  728SOL    HW1 4090   1.643   3.042   3.000
  728SOL    HW2 4091   1.552   2.963   2.890
  729SOL     OW 4092   0.915   1.951   3.264
  729SOL    HW1 4093   0.940   1.931   3.169
  729SOL    HW2 4094   0.987   2.007   3.306
  730SOL     OW 4095   0.980   2.978   3.581
  730SOL    HW1 4096   0.881   2.984   3.591
  730SOL    HW2 4097   1.003   2.898   3.525
  731SOL     OW 4098   0.705   2.912   2.230
  731SOL    HW1 4099   0.691   2.919   2.329
  731SOL    HW2 4100   0.789   2.861   2.212
  732SOL     OW 4101   0.410   2.675   3.113
  732SOL    HW1 4102   0.496   2.687   3.163
  732SOL    HW2 4103   0.368   2.588   3.140
  733SOL     OW 4104   0.064   3.426   3.193
  733SOL    HW1 4105   0.018   3.508   3.159
  733SOL    HW2 4106   0.162   3.445   3.202
  734SOL     OW 4107   0.367   2.962   2.363
  734SOL    HW1 4108   0.360   3.045   2.307
  734SOL    HW2 4109   0.371   2.882   2.303
  735SOL     OW 4110   1.252   3.210   2.250
  735SOL    HW1 4111   1.302   3.287   2.290
  735SOL    HW2 4112   1.157   3.212   2.282
  736SOL     OW 4113   1.272   3.307   3.004
  736SOL    HW1 4114   1.319   3.320   3.091
  736SOL    HW2 4115   1.206   3.233   3.013
  737SOL     OW 4116   0.354   3.372   3.191
  737SOL    HW1 4117   0.333   3.328   3.104
  737SOL    HW2 4118   0.451   3.398   3.194
  738SOL     OW 4119   0.402   2.613   3.460
  738SOL    HW1 4120   0.470   2.668   3.413
  738SOL    HW2 4121   0.442   2.525   3.487
  739SOL     OW 4122   1.013   1.967   3.632
  739SOL    HW1 4123   1.019   2.052   3.580
  739SOL    HW2 4124   1.045   1.891   3.575
  740SOL     OW 4125   0.504   1.912   3.602
  740SOL    HW1 4126   0.462   1.855   3.532
  740SOL    HW2 4127   0.438   1.981   3.634
  741SOL     OW 4128   1.360   2.724   2.907
  741SOL    HW1 4129   1.285   2.724   2.841
  741SOL    HW2 4130   1.397   2.632   2.916
  742SOL     OW 4131   0.307   2.075   3.093
  742SOL    HW1 4132   0.284   2.112   3.183
  742SOL    HW2 4133   0.277   1.980   3.087
  743SOL     OW 4134   0.037   3.172   3.144
  743SOL    HW1 4135   0.090   3.123   3.212
  743SOL    HW2 4136   0.059   3.270   3.149
  744SOL     OW 4137   0.732   2.496   2.926
  744SOL    HW1 4138   0.791   2.470   2.850
  744SOL    HW2 4139   0.704   2.592   2.915
  745SOL     OW 4140   1.728   2.797   3.716
  745SOL    HW1 4141   1.682   2.790   3.627
  745SOL    HW2 4142   1.666   2.841   3.782
  746SOL     OW 4143   0.307   1.925   2.480
  746SOL    HW1 4144   0.296   2.019   2.513
  746SOL    HW2 4145   0.302   1.862   2.557
  747SOL     OW 4146   0.980   3.435   3.562
  747SOL    HW1 4147   0.960   3.479   3.474
  747SOL    HW2 4148   1.019   3.344   3.546
  748SOL     OW 4149   1.859   3.380   3.467
  748SOL    HW1 4150   1.873   3.407   3.372
  748SOL    HW2 4151   1.942   3.402   3.520
  749SOL     OW 4152   0.350   2.760   3.666
  749SOL    HW1 4153   0.426   2.804   3.714
  749SOL    HW2 4154   0.385   2.713   3.584
  750SOL     OW 4155   0.319   2.672   2.811
  750SOL    HW1 4156   0.412   2.708   2.816
  750SOL    HW2 4157   0.313   2.587   2.863
  751SOL     OW 4158   1.138   2.242   3.540
  751SOL    HW1 4159   1.093   2.305   3.604
  751SOL    HW2 4160   1.231   2.273   3.523
  752SOL     OW 4161   1.160   2.069   3.339
  752SOL    HW1 4162   1.160   2.133   3.416
  752SOL    HW2 4163   1.188   2.117   3.256
  753SOL     OW 4164   0.088   3.663   2.789
  753SOL    HW1 4165   0.046   3.577   2.762
  753SOL    HW2 4166   0.182   3.666   2.755
  754SOL     OW 4167   0.504   3.430   2.772
  754SOL    HW1 4168   0.570   3.504   2.781
  754SOL    HW2 4169   0.548   3.351   2.730
  755SOL     OW 4170   1.002   2.658   3.100
  755SOL    HW1 4171   1.043   2.626   3.186
  755SOL    HW2 4172   0.906   2.631   3.097
  756SOL     OW 4173   0.040   2.406   2.976
  756SOL    HW1 4174   0.125   2.373   2.935
  756SOL    HW2 4175   0.053   2.421   3.074
  757SOL     OW 4176   0.189   2.382   3.584
  757SOL    HW1 4177   0.248   2.342   3.514
  757SOL    HW2 4178   0.131   2.453   3.543
  758SOL     OW 4179   0.815   2.434   2.187
  758SOL    HW1 4180   0.822   2.345   2.141
  758SOL    HW2 4181   0.721   2.468   2.179
  759SOL     OW 4182   0.252   3.426   3.606
  759SOL    HW1 4183   0.222   3.483   3.682
  759SOL    HW2 4184   0.245   3.329   3.632
  760SOL     OW 4185   0.671   2.326   3.131
  760SOL    HW1 4186   0.637   2.237   3.101
  760SOL    HW2 4187   0.697   2.380   3.051
  761SOL     OW 4188   0.930   3.540   3.327
  761SOL    HW1 4189   0.906   3.522   3.232
  761SOL    HW2 4190   0.960   3.634   3.337
  762SOL     OW 4191   0.159   2.999   3.328
  762SOL    HW1 4192   0.181   2.938   3.404
  762SOL    HW2 4193   0.169   2.950   3.242
  763SOL     OW 4194   1.759   3.609   3.016
  763SOL    HW1 4195   1.820   3.639   2.943
  763SOL    HW2 4196   1.721   3.520   2.994
  764SOL     OW 4197   1.252   3.593   2.990
  764SOL    HW1 4198   1.336   3.598   2.936
  764SOL    HW2 4199   1.229   3.497   3.008
  765SOL     OW 4200   0.083   3.120   2.884
  765SOL    HW1 4201   0.078   3.119   2.984
  765SOL    HW2 4202   0.000   3.079   2.846
  766SOL     OW 4203   0.688   3.524   3.578
  766SOL    HW1 4204   0.632   3.605   3.587
  766SOL    HW2 4205   0.740   3.528   3.492
  767SOL     OW 4206   1.726   1.997   2.385
  767SOL    HW1 4207   1.799   1.980   2.318
  767SOL    HW2 4208   1.695   1.910   2.423
  768SOL     OW 4209   0.130   3.656   3.713
  768SOL    HW1 4210   0.089   3.582   3.766
  768SOL    HW2 4211   0.194   3.707   3.771
  769SOL     OW 4212   1.280   2.789   2.534
  769SOL    HW1 4213   1.340   2.708   2.536
  769SOL    HW2 4214   1.320   2.858   2.474
  770SOL     OW 4215   0.830   3.135   3.284
  770SOL    HW1 4216   0.825   3.168   3.379
  770SOL    HW2 4217   0.744   3.154   3.238
  771SOL     OW 4218   0.672   3.478   2.016
  771SOL    HW1 4219   0.681   3.488   1.917
  771SOL    HW2 4220   0.632   3.389   2.037
  772SOL     OW 4221   1.650   3.582   3.256
  772SOL    HW1 4222   1.703   3.592   3.172
  772SOL    HW2 4223   1.623   3.672   3.290
  773SOL     OW 4224   1.841   2.037   2.825
  773SOL    HW1 4225   1.880   1.952   2.789
  773SOL    HW2 4226   1.743   2.039   2.806
  774SOL     OW 4227   0.822   2.864   3.234
  774SOL    HW1 4228   0.862   2.863   3.142
  774SOL    HW2 4229   0.832   2.956   3.274
  775SOL     OW 4230   0.916   2.772   2.153
  775SOL    HW1 4231   0.979   2.810   2.085
  775SOL    HW2 4232   0.956   2.689   2.192
  776SOL     OW 4233   0.372   3.150   3.352
  776SOL    HW1 4234   0.359   3.243   3.318
  776SOL    HW2 4235   0.288   3.098   3.339
  777SOL     OW 4236   1.614   3.154   3.151
  777SOL    HW1 4237   1.674   3.157   3.231
  777SOL    HW2 4238   1.539   3.218   3.164
  778SOL     OW 4239   1.014   2.098   2.833
  778SOL    HW1 4240   1.006   2.062   2.740
  778SOL    HW2 4241   1.012   2.022   2.898
  779SOL     OW 4242   0.590   3.349   2.353
  779SOL    HW1 4243   0.632   3.291   2.283
  779SOL    HW2 4244   0.546   3.428   2.309
  780SOL     OW 4245   0.105   2.875   3.588
  780SOL    HW1 4246   0.028   2.842   3.642
  780SOL    HW2 4247   0.190   2.845   3.630
  781SOL     OW 4248   0.672   2.065   3.351
  781SOL    HW1 4249   0.762   2.049   3.311
  781SOL    HW2 4250   0.680   2.070   3.450
  782SOL     OW 4251   0.613   2.704   3.293
  782SOL    HW1 4252   0.669   2.785   3.276
  782SOL    HW2 4253   0.672   2.624   3.296
  783SOL     OW 4254   1.493   3.629   2.821
  783SOL    HW1 4255   1.526   3.693   2.752
  783SOL    HW2 4256   1.559   3.623   2.896
  784SOL     OW 4257   0.716   2.427   3.570
  784SOL    HW1 4258   0.735   2.492   3.644
  784SOL    HW2 4259   0.776   2.347   3.579
  785SOL     OW 4260   1.450   3.082   3.495
  785SOL    HW1 4261   1.441   3.072   3.594
  785SOL    HW2 4262   1.546   3.075   3.469
  786SOL     OW 4263   0.390   3.603   3.422
  786SOL    HW1 4264   0.299   3.644   3.420
  786SOL    HW2 4265   0.383   3.509   3.454
  787SOL     OW 4266   1.730   2.796   3.379
  787SOL    HW1 4267   1.768   2.887   3.394
  787SOL    HW2 4268   1.722   2.779   3.280
  788SOL     OW 4269   0.859   3.236   1.878
  788SOL    HW1 4270   0.813   3.251   1.966
  788SOL    HW2 4271   0.903   3.321   1.848
  789SOL     OW 4272   0.661   3.652   2.815
  789SOL    HW1 4273   0.615   3.740   2.802
  789SOL    HW2 4274   0.760   3.664   2.808
  790SOL     OW 4275   1.861   3.431   2.713
  790SOL    HW1 4276   1.790   3.419   2.643
  790SOL    HW2 4277   1.862   3.352   2.773
  791SOL     OW 4278   0.221   3.176   3.706
  791SOL    HW1 4279   0.156   3.103   3.685
  791SOL    HW2 4280   0.225   3.190   3.804
  792SOL     OW 4281   0.079   3.102   2.515
  792SOL    HW1 4282   0.078   3.055   2.603
  792SOL    HW2 4283   0.161   3.074   2.464
  793SOL     OW 4284   0.672   3.253   3.486
  793SOL    HW1 4285   0.594   3.203   3.524
  793SOL    HW2 4286   0.669   3.348   3.517
  794SOL     OW 4287   1.705   3.349   2.966
  794SOL    HW1 4288   1.612   3.324   2.939
  794SOL    HW2 4289   1.731   3.299   3.048
  795SOL     OW 4290   0.317   2.409   3.142
  795SOL    HW1 4291   0.355   2.350   3.214
  795SOL    HW2 4292   0.357   2.383   3.054
  796SOL     OW 4293   0.812   3.448   2.549
  796SOL    HW1 4294   0.844   3.458   2.455
  796SOL    HW2 4295   0.733   3.386   2.551
  797SOL     OW 4296   1.424   2.076   2.974
  797SOL    HW1 4297   1.476   2.011   3.029
  797SOL    HW2 4298   1.375   2.139   3.035
  798SOL     OW 4299   1.001   1.896   3.016
  798SOL    HW1 4300   0.938   1.824   2.985
  798SOL    HW2 4301   1.094   1.860   3.016
  799SOL     OW 4302   0.770   3.192   2.163
  799SOL    HW1 4303   0.724   3.105   2.180
  799SOL    HW2 4304   0.861   3.189   2.204
  800SOL     OW 4305   0.618   3.429   3.146
  800SOL    HW1 4306   0.613   3.511   3.203
  800SOL    HW2 4307   0.707   3.426   3.101
  801SOL     OW 4308   0.875   3.508   2.199
  801SOL    HW1 4309   0.798   3.473   2.145
  801SOL    HW2 4310   0.843   3.579   2.261
  802SOL     OW 4311   0.230   2.490   3.837
  802SOL    HW1 4312   0.137   2.488   3.874
  802SOL    HW2 4313   0.231   2.451   3.745
  803SOL     OW 4314   0.225   2.137   4.720
  803SOL    HW1 4315   0.260   2.120   4.812
  803SOL    HW2 4316   0.137   2.092   4.708
  804SOL     OW 4317   0.019   2.230   4.371
  804SOL    HW1 4318  -0.063   2.273   4.410
  804SOL    HW2 4319  -0.009   2.157   4.308
  805SOL     OW 4320   0.569   3.137   4.889
  805SOL    HW1 4321   0.476   3.130   4.852
  805SOL    HW2 4322   0.580   3.226   4.933
  806SOL     OW 4323   1.555   3.373   4.427
  806SOL    HW1 4324   1.498   3.357   4.508
  806SOL    HW2 4325   1.496   3.383   4.347
  807SOL     OW 4326   1.135   2.565   4.441
  807SOL    HW1 4327   1.192   2.643   4.416
  807SOL    HW2 4328   1.075   2.591   4.517
  808SOL     OW 4329   1.755   2.469   3.955
  808SOL    HW1 4330   1.743   2.456   3.856
  808SOL    HW2 4331   1.725   2.388   4.004
  809SOL     OW 4332   0.768   3.006   4.747
  809SOL    HW1 4333   0.690   3.023   4.807
  809SOL    HW2 4334   0.802   3.093   4.711
  810SOL     OW 4335   0.685   2.874   4.389
  810SOL    HW1 4336   0.754   2.858   4.459
  810SOL    HW2 4337   0.612   2.931   4.427
  811SOL     OW 4338   0.335   3.297   4.785
  811SOL    HW1 4339   0.257   3.266   4.732
  811SOL    HW2 4340   0.393   3.355   4.728
  812SOL     OW 4341   1.603   2.309   4.461
  812SOL    HW1 4342   1.529   2.355   4.411
  812SOL    HW2 4343   1.654   2.377   4.514
  813SOL     OW 4344   0.240   2.953   4.610
  813SOL    HW1 4345   0.254   2.869   4.662
  813SOL    HW2 4346   0.185   3.017   4.665
  814SOL     OW 4347   0.620   3.648   5.163
  814SOL    HW1 4348   0.528   3.631   5.198
  814SOL    HW2 4349   0.648   3.740   5.189
  815SOL     OW 4350   0.606   2.826   3.847
  815SOL    HW1 4351   0.613   2.910   3.793
  815SOL    HW2 4352   0.652   2.839   3.935
  816SOL     OW 4353   0.122   2.505   4.287
  816SOL    HW1 4354   0.077   2.417   4.304
  816SOL    HW2 4355   0.121   2.559   4.371
  817SOL     OW 4356   1.842   3.629   4.083
  817SOL    HW1 4357   1.896   3.600   4.163
  817SOL    HW2 4358   1.872   3.719   4.054
  818SOL     OW 4359   0.027   3.458   3.841
  818SOL    HW1 4360   0.008   3.362   3.862
  818SOL    HW2 4361  -0.006   3.516   3.916
  819SOL     OW 4362   1.689   2.784   4.336
  819SOL    HW1 4363   1.784   2.755   4.344
  819SOL    HW2 4364   1.681   2.849   4.261
  820SOL     OW 4365   1.641   2.970   4.156
  820SOL    HW1 4366   1.727   2.972   4.104
  820SOL    HW2 4367   1.655   3.017   4.244
  821SOL     OW 4368   0.613   3.227   4.450
  821SOL    HW1 4369   0.564   3.140   4.459
  821SOL    HW2 4370   0.590   3.270   4.363
  822SOL     OW 4371   0.809   1.866   4.226
  822SOL    HW1 4372   0.849   1.957   4.217
  822SOL    HW2 4373   0.709   1.874   4.232
  823SOL     OW 4374   0.197   2.838   4.988
  823SOL    HW1 4375   0.286   2.793   4.974
  823SOL    HW2 4376   0.124   2.773   4.969
  824SOL     OW 4377   1.525   2.861   3.914
  824SOL    HW1 4378   1.462   2.785   3.927
  824SOL    HW2 4379   1.573   2.879   4.000
  825SOL     OW 4380   1.667   3.576   4.296
  825SOL    HW1 4381   1.626   3.553   4.208
  825SOL    HW2 4382   1.649   3.502   4.361
  826SOL     OW 4383   0.598   2.591   3.994
  826SOL    HW1 4384   0.622   2.660   3.926
  826SOL    HW2 4385   0.520   2.624   4.048
  827SOL     OW 4386   1.281   2.207   4.668
  827SOL    HW1 4387   1.195   2.157   4.655
  827SOL    HW2 4388   1.343   2.153   4.724
  828SOL     OW 4389   1.576   3.524   4.031
  828SOL    HW1 4390   1.665   3.570   4.034
  828SOL    HW2 4391   1.555   3.500   3.936
  829SOL     OW 4392   0.991   2.272   4.966
  829SOL    HW1 4393   0.914   2.306   5.020
  829SOL    HW2 4394   0.957   2.221   4.887
  830SOL     OW 4395   1.041   2.563   4.153
  830SOL    HW1 4396   1.067   2.559   4.249
  830SOL    HW2 4397   0.956   2.512   4.139
  831SOL     OW 4398   0.076   2.673   4.513
  831SOL    HW1 4399   0.175   2.661   4.522
  831SOL    HW2 4400   0.052   2.768   4.534
  832SOL     OW 4401   0.130   3.683   5.295
  832SOL    HW1 4402   0.120   3.668   5.394
  832SOL    HW2 4403   0.044   3.719   5.259
  833SOL     OW 4404   0.865   2.210   3.919
  833SOL    HW1 4405   0.924   2.273   3.870
  833SOL    HW2 4406   0.884   2.116   3.890
  834SOL     OW 4407   1.362   3.006   4.269
  834SOL    HW1 4408   1.445   2.977   4.221
  834SOL    HW2 4409   1.313   3.073   4.213
  835SOL     OW 4410   0.550   2.058   4.609
  835SOL    HW1 4411   0.545   2.053   4.709
  835SOL    HW2 4412   0.552   2.154   4.580
  836SOL     OW 4413   1.008   3.318   4.201
  836SOL    HW1 4414   0.962   3.390   4.149
  836SOL    HW2 4415   1.004   3.338   4.299
  837SOL     OW 4416   0.351   3.663   4.577
  837SOL    HW1 4417   0.401   3.577   4.583
  837SOL    HW2 4418   0.416   3.740   4.574
  838SOL     OW 4419   1.795   2.928   4.597
  838SOL    HW1 4420   1.733   2.913   4.521
  838SOL    HW2 4421   1.743   2.939   4.682
  839SOL     OW 4422   0.321   2.805   3.966
  839SOL    HW1 4423   0.403   2.844   3.924
  839SOL    HW2 4424   0.294   2.723   3.917
  840SOL     OW 4425   1.458   2.597   4.452
  840SOL    HW1 4426   1.453   2.532   4.527
  840SOL    HW2 4427   1.538   2.656   4.465
  841SOL     OW 4428   1.111   3.638   3.961
  841SOL    HW1 4429   1.051   3.576   4.011
  841SOL    HW2 4430   1.142   3.594   3.876
  842SOL     OW 4431   1.632   3.239   3.805
  842SOL    HW1 4432   1.600   3.333   3.795
  842SOL    HW2 4433   1.556   3.176   3.793
  843SOL     OW 4434   1.400   1.969   4.150
  843SOL    HW1 4435   1.376   1.932   4.060
  843SOL    HW2 4436   1.499   1.985   4.154
  844SOL     OW 4437   0.249   3.647   4.965
  844SOL    HW1 4438   0.306   3.582   5.015
  844SOL    HW2 4439   0.233   3.614   4.872
  845SOL     OW 4440   0.940   3.560   4.628
  845SOL    HW1 4441   1.020   3.503   4.649
  845SOL    HW2 4442   0.891   3.520   4.551
  846SOL     OW 4443   0.382   2.562   4.204
  846SOL    HW1 4444   0.427   2.472   4.201
  846SOL    HW2 4445   0.288   2.551   4.237
  847SOL     OW 4446   0.614   1.984   3.841
  847SOL    HW1 4447   0.712   1.962   3.848
  847SOL    HW2 4448   0.583   1.967   3.748
  848SOL     OW 4449   0.803   3.264   4.648
  848SOL    HW1 4450   0.893   3.278   4.606
  848SOL    HW2 4451   0.732   3.266   4.577
  849SOL     OW 4452   0.922   2.365   4.623
  849SOL    HW1 4453   0.897   2.356   4.527
  849SOL    HW2 4454   0.970   2.283   4.654
  850SOL     OW 4455   0.539   1.926   4.236
  850SOL    HW1 4456   0.458   1.927   4.294
  850SOL    HW2 4457   0.542   2.009   4.181
  851SOL     OW 4458   1.434   3.050   3.765
  851SOL    HW1 4459   1.466   2.974   3.822
  851SOL    HW2 4460   1.342   3.077   3.795
  852SOL     OW 4461   0.297   1.897   3.895
  852SOL    HW1 4462   0.346   1.981   3.874
  852SOL    HW2 4463   0.359   1.832   3.940
  853SOL     OW 4464   0.935   2.098   4.204
  853SOL    HW1 4465   0.887   2.139   4.126
  853SOL    HW2 4466   1.034   2.096   4.185
  854SOL     OW 4467   1.227   3.432   4.517
  854SOL    HW1 4468   1.248   3.506   4.452
  854SOL    HW2 4469   1.295   3.432   4.590
  855SOL     OW 4470   0.459   3.014   4.465
  855SOL    HW1 4471   0.388   2.987   4.530
  855SOL    HW2 4472   0.433   2.986   4.372
  856SOL     OW 4473   1.032   2.411   3.740
  856SOL    HW1 4474   0.991   2.493   3.701
  856SOL    HW2 4475   1.096   2.437   3.813
  857SOL     OW 4476   0.561   2.084   4.871
  857SOL    HW1 4477   0.599   2.000   4.908
  857SOL    HW2 4478   0.473   2.103   4.915
  858SOL     OW 4479   0.866   2.316   4.366
  858SOL    HW1 4480   0.834   2.388   4.304
  858SOL    HW2 4481   0.890   2.235   4.313
  859SOL     OW 4482   1.017   1.901   4.477
  859SOL    HW1 4483   0.945   1.906   4.408
  859SOL    HW2 4484   0.993   1.832   4.546
  860SOL     OW 4485   1.466   2.452   4.716
  860SOL    HW1 4486   1.436   2.357   4.723
  860SOL    HW2 4487   1.539   2.468   4.782
  861SOL     OW 4488   1.857   2.695   4.101
  861SOL    HW1 4489   1.899   2.631   4.165
  861SOL    HW2 4490   1.819   2.644   4.023
  862SOL     OW 4491   1.664   3.142   4.381
  862SOL    HW1 4492   1.763   3.150   4.395
  862SOL    HW2 4493   1.619   3.226   4.412
  863SOL     OW 4494   1.390   2.437   3.802
  863SOL    HW1 4495   1.336   2.416   3.883
  863SOL    HW2 4496   1.481   2.396   3.811
  864SOL     OW 4497   0.527   2.118   4.052
  864SOL    HW1 4498   0.554   2.059   3.977
  864SOL    HW2 4499   0.527   2.213   4.021
  865SOL     OW 4500   0.705   2.912   4.092
  865SOL    HW1 4501   0.691   2.919   4.191
  865SOL    HW2 4502   0.789   2.861   4.074
  866SOL     OW 4503   0.410   2.675   4.975
  866SOL    HW1 4504   0.496   2.687   5.025
  866SOL    HW2 4505   0.368   2.588   5.002
  867SOL     OW 4506   0.367   2.962   4.225
  867SOL    HW1 4507   0.360   3.045   4.169
  867SOL    HW2 4508   0.371   2.882   4.165
  868SOL     OW 4509   0.566   2.399   4.589
  868SOL    HW1 4510   0.578   2.465   4.515
  868SOL    HW2 4511   0.612   2.433   4.672
  869SOL     OW 4512   1.252   3.210   4.112
  869SOL    HW1 4513   1.302   3.287   4.152
  869SOL    HW2 4514   1.157   3.212   4.144
  870SOL     OW 4515   1.582   2.501   4.196
  870SOL    HW1 4516   1.551   2.562   4.269
  870SOL    HW2 4517   1.632   2.553   4.127
  871SOL     OW 4518   0.354   3.372   5.053
  871SOL    HW1 4519   0.333   3.328   4.966
  871SOL    HW2 4520   0.451   3.398   5.056
  872SOL     OW 4521   0.573   2.732   4.753
  872SOL    HW1 4522   0.617   2.821   4.744
  872SOL    HW2 4523   0.510   2.732   4.830
  873SOL     OW 4524   1.209   2.387   3.999
  873SOL    HW1 4525   1.222   2.303   4.053
  873SOL    HW2 4526   1.180   2.461   4.059
  874SOL     OW 4527   0.307   2.075   4.955
  874SOL    HW1 4528   0.284   2.112   5.045
  874SOL    HW2 4529   0.277   1.980   4.949
  875SOL     OW 4530   0.037   3.172   5.006
  875SOL    HW1 4531   0.090   3.123   5.074
  875SOL    HW2 4532   0.059   3.270   5.011
  876SOL     OW 4533   0.732   2.496   4.788
  876SOL    HW1 4534   0.791   2.470   4.712
  876SOL    HW2 4535   0.704   2.592   4.777
  877SOL     OW 4536   0.307   1.925   4.342
  877SOL    HW1 4537   0.296   2.019   4.375
  877SOL    HW2 4538   0.302   1.862   4.419
  878SOL     OW 4539   1.622   2.229   4.098
  878SOL    HW1 4540   1.624   2.153   4.162
  878SOL    HW2 4541   1.574   2.306   4.138
  879SOL     OW 4542   1.023   2.628   4.690
  879SOL    HW1 4543   1.038   2.649   4.786
  879SOL    HW2 4544   0.993   2.533   4.681
  880SOL     OW 4545   1.540   2.136   3.849
  880SOL    HW1 4546   1.479   2.061   3.872
  880SOL    HW2 4547   1.562   2.188   3.932
  881SOL     OW 4548   1.068   3.195   4.573
  881SOL    HW1 4549   1.075   3.111   4.518
  881SOL    HW2 4550   1.130   3.264   4.537
  882SOL     OW 4551   0.319   2.672   4.673
  882SOL    HW1 4552   0.412   2.708   4.678
  882SOL    HW2 4553   0.313   2.587   4.725
  883SOL     OW 4554   0.339   2.371   4.730
  883SOL    HW1 4555   0.287   2.288   4.713
  883SOL    HW2 4556   0.416   2.376   4.666
  884SOL     OW 4557   1.160   2.069   5.201
  884SOL    HW1 4558   1.160   2.133   5.278
  884SOL    HW2 4559   1.188   2.117   5.118
  885SOL     OW 4560   0.088   3.663   4.651
  885SOL    HW1 4561   0.046   3.577   4.624
  885SOL    HW2 4562   0.182   3.666   4.617
  886SOL     OW 4563   0.504   3.430   4.634
  886SOL    HW1 4564   0.570   3.504   4.643
  886SOL    HW2 4565   0.548   3.351   4.592
  887SOL     OW 4566   1.002   2.658   4.962
  887SOL    HW1 4567   1.043   2.626   5.048
  887SOL    HW2 4568   0.906   2.631   4.959
  888SOL     OW 4569   0.040   2.406   4.838
  888SOL    HW1 4570   0.125   2.373   4.797
  888SOL    HW2 4571   0.053   2.421   4.936
  889SOL     OW 4572   0.815   2.434   4.049
  889SOL    HW1 4573   0.822   2.345   4.003
  889SOL    HW2 4574   0.721   2.468   4.041
  890SOL     OW 4575   1.657   2.466   4.930
  890SOL    HW1 4576   1.619   2.397   4.992
  890SOL    HW2 4577   1.739   2.430   4.886
  891SOL     OW 4578   0.671   2.326   4.993
  891SOL    HW1 4579   0.637   2.237   4.963
  891SOL    HW2 4580   0.697   2.380   4.913
  892SOL     OW 4581   0.930   3.540   5.189
  892SOL    HW1 4582   0.906   3.522   5.094
  892SOL    HW2 4583   0.960   3.634   5.199
  893SOL     OW 4584   0.473   2.362   3.915
  893SOL    HW1 4585   0.534   2.442   3.919
  893SOL    HW2 4586   0.378   2.393   3.922
  894SOL     OW 4587   1.302   2.717   4.033
  894SOL    HW1 4588   1.216   2.686   4.075
  894SOL    HW2 4589   1.298   2.703   3.934
  895SOL     OW 4590   1.759   3.609   4.878
  895SOL    HW1 4591   1.820   3.639   4.805
  895SOL    HW2 4592   1.721   3.520   4.856
  896SOL     OW 4593   0.083   3.120   4.746
  896SOL    HW1 4594   0.078   3.119   4.846
  896SOL    HW2 4595   0.000   3.079   4.708
  897SOL     OW 4596   1.726   1.997   4.247
  897SOL    HW1 4597   1.799   1.980   4.180
  897SOL    HW2 4598   1.695   1.910   4.285
  898SOL     OW 4599   1.388   3.435   4.201
  898SOL    HW1 4600   1.455   3.447   4.127
  898SOL    HW2 4601   1.348   3.524   4.224
  899SOL     OW 4602   0.672   3.478   3.878
  899SOL    HW1 4603   0.681   3.488   3.779
  899SOL    HW2 4604   0.632   3.389   3.899
  900SOL     OW 4605   1.650   3.582   5.118
  900SOL    HW1 4606   1.703   3.592   5.034
  900SOL    HW2 4607   1.623   3.672   5.152
  901SOL     OW 4608   1.841   2.037   4.687
  901SOL    HW1 4609   1.880   1.952   4.651
  901SOL    HW2 4610   1.743   2.039   4.668
  902SOL     OW 4611   0.263   2.188   4.444
  902SOL    HW1 4612   0.184   2.239   4.410
  902SOL    HW2 4613   0.254   2.173   4.542
  903SOL     OW 4614   1.194   3.474   3.755
  903SOL    HW1 4615   1.200   3.381   3.792
  903SOL    HW2 4616   1.135   3.474   3.675
  904SOL     OW 4617   0.822   2.864   5.096
  904SOL    HW1 4618   0.862   2.863   5.004
  904SOL    HW2 4619   0.832   2.956   5.136
  905SOL     OW 4620   0.916   2.772   4.015
  905SOL    HW1 4621   0.979   2.810   3.947
  905SOL    HW2 4622   0.956   2.689   4.054
  906SOL     OW 4623   1.504   3.469   3.768
  906SOL    HW1 4624   1.412   3.506   3.775
  906SOL    HW2 4625   1.542   3.489   3.678
  907SOL     OW 4626   1.039   2.960   4.420
  907SOL    HW1 4627   0.969   2.913   4.474
  907SOL    HW2 4628   1.098   2.892   4.377
  908SOL     OW 4629   1.014   2.098   4.695
  908SOL    HW1 4630   1.006   2.062   4.602
  908SOL    HW2 4631   1.012   2.022   4.760
  909SOL     OW 4632   1.709   2.247   5.105
  909SOL    HW1 4633   1.782   2.316   5.109
  909SOL    HW2 4634   1.737   2.172   5.046
  910SOL     OW 4635   0.075   2.207   3.757
  910SOL    HW1 4636  -0.017   2.179   3.728
  910SOL    HW2 4637   0.106   2.284   3.701
  911SOL     OW 4638   0.072   2.028   4.042
  911SOL    HW1 4639   0.055   2.111   3.988
  911SOL    HW2 4640   0.162   1.991   4.020
  912SOL     OW 4641   1.183   3.197   3.843
  912SOL    HW1 4642   1.084   3.186   3.845
  912SOL    HW2 4643   1.217   3.212   3.936
  913SOL     OW 4644   1.493   3.629   4.683
  913SOL    HW1 4645   1.526   3.693   4.614
  913SOL    HW2 4646   1.559   3.623   4.758
  914SOL     OW 4647   1.450   3.082   5.357
  914SOL    HW1 4648   1.441   3.072   5.456
  914SOL    HW2 4649   1.546   3.075   5.331
  915SOL     OW 4650   1.225   2.187   4.173
  915SOL    HW1 4651   1.290   2.113   4.162
  915SOL    HW2 4652   1.245   2.237   4.257
  916SOL     OW 4653   0.594   2.607   4.376
  916SOL    HW1 4654   0.644   2.692   4.357
  916SOL    HW2 4655   0.506   2.609   4.328
  917SOL     OW 4656   1.730   2.796   5.241
  917SOL    HW1 4657   1.768   2.887   5.256
  917SOL    HW2 4658   1.722   2.779   5.142
  918SOL     OW 4659   0.859   3.236   3.740
  918SOL    HW1 4660   0.813   3.251   3.828
  918SOL    HW2 4661   0.903   3.321   3.710
  919SOL     OW 4662   0.661   3.652   4.677
  919SOL    HW1 4663   0.615   3.740   4.664
  919SOL    HW2 4664   0.760   3.664   4.670
  920SOL     OW 4665   0.859   2.818   4.585
  920SOL    HW1 4666   0.913   2.749   4.633
  920SOL    HW2 4667   0.827   2.887   4.651
  921SOL     OW 4668   1.083   2.846   3.811
  921SOL    HW1 4669   1.060   2.899   3.729
  921SOL    HW2 4670   1.164   2.790   3.792
  922SOL     OW 4671   1.861   3.431   4.575
  922SOL    HW1 4672   1.790   3.419   4.505
  922SOL    HW2 4673   1.862   3.352   4.635
  923SOL     OW 4674   1.824   2.054   4.951
  923SOL    HW1 4675   1.820   1.964   4.995
  923SOL    HW2 4676   1.827   2.043   4.852
  924SOL     OW 4677   0.428   2.286   4.244
  924SOL    HW1 4678   0.458   2.214   4.182
  924SOL    HW2 4679   0.389   2.246   4.327
  925SOL     OW 4680   1.705   3.349   4.828
  925SOL    HW1 4681   1.612   3.324   4.801
  925SOL    HW2 4682   1.731   3.299   4.910
  926SOL     OW 4683   0.812   3.448   4.411
  926SOL    HW1 4684   0.844   3.458   4.317
  926SOL    HW2 4685   0.733   3.386   4.413
  927SOL     OW 4686   1.424   2.076   4.836
  927SOL    HW1 4687   1.476   2.011   4.891
  927SOL    HW2 4688   1.375   2.139   4.897
  928SOL     OW 4689   1.001   1.896   4.878
  928SOL    HW1 4690   0.938   1.824   4.847
  928SOL    HW2 4691   1.094   1.860   4.878
  929SOL     OW 4692   0.770   3.192   4.025
  929SOL    HW1 4693   0.724   3.105   4.042
  929SOL    HW2 4694   0.861   3.189   4.066
  930SOL     OW 4695   1.352   1.914   3.892
  930SOL    HW1 4696   1.387   1.873   3.808
  930SOL    HW2 4697   1.262   1.876   3.912
  931SOL     OW 4698   1.300   2.315   4.415
  931SOL    HW1 4699   1.241   2.395   4.419
  931SOL    HW2 4700   1.315   2.280   4.508
  932SOL     OW 4701   1.593   2.083   4.606
  932SOL    HW1 4702   1.509   2.082   4.660
  932SOL    HW2 4703   1.595   2.166   4.550
  933SOL     OW 4704   0.039   2.939   4.024
  933SOL    HW1 4705   0.138   2.928   4.015
  933SOL    HW2 4706  -0.001   2.853   4.056
  934SOL     OW 4707   0.875   3.508   4.061
  934SOL    HW1 4708   0.798   3.473   4.007
  934SOL    HW2 4709   0.843   3.579   4.123
  935SOL     OW 4710   0.230   4.352   0.113
  935SOL    HW1 4711   0.137   4.350   0.150
  935SOL    HW2 4712   0.231   4.313   0.021
  936SOL     OW 4713   0.225   3.999   0.996
  936SOL    HW1 4714   0.260   3.982   1.088
  936SOL    HW2 4715   0.137   3.954   0.984
  937SOL     OW 4716   0.019   4.092   0.647
  937SOL    HW1 4717  -0.063   4.135   0.686
  937SOL    HW2 4718  -0.009   4.019   0.584
  938SOL     OW 4719   0.569   4.999   1.165
  938SOL    HW1 4720   0.476   4.992   1.128
  938SOL    HW2 4721   0.580   5.088   1.209
  939SOL     OW 4722   1.555   5.235   0.703
  939SOL    HW1 4723   1.498   5.219   0.784
  939SOL    HW2 4724   1.496   5.245   0.623
  940SOL     OW 4725   1.135   4.427   0.717
  940SOL    HW1 4726   1.192   4.505   0.692
  940SOL    HW2 4727   1.075   4.453   0.793
  941SOL     OW 4728   0.768   4.868   1.023
  941SOL    HW1 4729   0.690   4.885   1.083
  941SOL    HW2 4730   0.802   4.955   0.987
  942SOL     OW 4731   0.850   4.522   1.823
  942SOL    HW1 4732   0.846   4.598   1.888
  942SOL    HW2 4733   0.872   4.558   1.732
  943SOL     OW 4734   0.685   4.736   0.665
  943SOL    HW1 4735   0.754   4.720   0.735
  943SOL    HW2 4736   0.612   4.793   0.703
  944SOL     OW 4737   0.686   4.885   1.803
  944SOL    HW1 4738   0.746   4.964   1.817
  944SOL    HW2 4739   0.600   4.916   1.762
  945SOL     OW 4740   0.335   5.159   1.061
  945SOL    HW1 4741   0.257   5.128   1.008
  945SOL    HW2 4742   0.393   5.217   1.004
  946SOL     OW 4743   0.438   4.116   1.499
  946SOL    HW1 4744   0.520   4.060   1.508
  946SOL    HW2 4745   0.357   4.058   1.503
  947SOL     OW 4746   1.603   4.171   0.737
  947SOL    HW1 4747   1.529   4.217   0.687
  947SOL    HW2 4748   1.654   4.239   0.790
  948SOL     OW 4749   0.240   4.815   0.886
  948SOL    HW1 4750   0.254   4.731   0.938
  948SOL    HW2 4751   0.185   4.879   0.941
  949SOL     OW 4752   0.606   4.688   0.123
  949SOL    HW1 4753   0.613   4.772   0.069
  949SOL    HW2 4754   0.652   4.701   0.211
  950SOL     OW 4755   1.594   3.838   1.480
  950SOL    HW1 4756   1.576   3.905   1.408
  950SOL    HW2 4757   1.591   3.884   1.569
  951SOL     OW 4758   0.122   4.367   0.563
  951SOL    HW1 4759   0.077   4.279   0.580
  951SOL    HW2 4760   0.121   4.421   0.647
  952SOL     OW 4761   1.689   4.646   0.612
  952SOL    HW1 4762   1.784   4.617   0.620
  952SOL    HW2 4763   1.681   4.711   0.537
  953SOL     OW 4764   0.197   4.700   1.264
  953SOL    HW1 4765   0.286   4.655   1.250
  953SOL    HW2 4766   0.124   4.635   1.245
  954SOL     OW 4767   1.525   4.723   0.190
  954SOL    HW1 4768   1.462   4.647   0.203
  954SOL    HW2 4769   1.573   4.741   0.276
  955SOL     OW 4770   0.317   3.975   1.801
  955SOL    HW1 4771   0.388   4.046   1.807
  955SOL    HW2 4772   0.229   4.014   1.829
  956SOL     OW 4773   0.598   4.453   0.270
  956SOL    HW1 4774   0.622   4.522   0.202
  956SOL    HW2 4775   0.520   4.486   0.324
  957SOL     OW 4776   0.807   4.329   1.465
  957SOL    HW1 4777   0.760   4.326   1.554
  957SOL    HW2 4778   0.756   4.274   1.399
  958SOL     OW 4779   1.394   4.193   1.674
  958SOL    HW1 4780   1.374   4.236   1.762
  958SOL    HW2 4781   1.472   4.131   1.683
  959SOL     OW 4782   0.973   4.614   1.572
  959SOL    HW1 4783   1.019   4.530   1.543
  959SOL    HW2 4784   0.917   4.648   1.497
  960SOL     OW 4785   0.991   4.134   1.242
  960SOL    HW1 4786   0.914   4.168   1.296
  960SOL    HW2 4787   0.957   4.083   1.163
  961SOL     OW 4788   1.041   4.425   0.429
  961SOL    HW1 4789   1.067   4.421   0.525
  961SOL    HW2 4790   0.956   4.374   0.415
  962SOL     OW 4791   0.076   4.535   0.789
  962SOL    HW1 4792   0.175   4.523   0.798
  962SOL    HW2 4793   0.052   4.630   0.810
  963SOL     OW 4794   0.865   4.072   0.195
  963SOL    HW1 4795   0.924   4.135   0.146
  963SOL    HW2 4796   0.884   3.978   0.166
  964SOL     OW 4797   1.719   4.309   1.831
  964SOL    HW1 4798   1.693   4.398   1.795
  964SOL    HW2 4799   1.717   4.241   1.758
  965SOL     OW 4800   0.550   3.920   0.885
  965SOL    HW1 4801   0.545   3.915   0.985
  965SOL    HW2 4802   0.552   4.016   0.856
  966SOL     OW 4803   1.795   4.790   0.873
  966SOL    HW1 4804   1.733   4.775   0.797
  966SOL    HW2 4805   1.743   4.801   0.958
  967SOL     OW 4806   1.458   4.459   0.728
  967SOL    HW1 4807   1.453   4.394   0.803
  967SOL    HW2 4808   1.538   4.518   0.741
  968SOL     OW 4809   0.202   4.009   1.498
  968SOL    HW1 4810   0.122   4.069   1.485
  968SOL    HW2 4811   0.192   3.960   1.584
  969SOL     OW 4812   1.632   5.101   0.081
  969SOL    HW1 4813   1.600   5.195   0.071
  969SOL    HW2 4814   1.556   5.038   0.069
  970SOL     OW 4815   0.382   4.424   0.480
  970SOL    HW1 4816   0.427   4.334   0.477
  970SOL    HW2 4817   0.288   4.413   0.513
  971SOL     OW 4818   0.781   3.988   1.749
  971SOL    HW1 4819   0.848   3.927   1.792
  971SOL    HW2 4820   0.708   4.007   1.814
  972SOL     OW 4821   1.351   4.314   1.433
  972SOL    HW1 4822   1.379   4.271   1.518
  972SOL    HW2 4823   1.376   4.410   1.434
  973SOL     OW 4824   0.922   4.227   0.899
  973SOL    HW1 4825   0.897   4.218   0.803
  973SOL    HW2 4826   0.970   4.145   0.930
  974SOL     OW 4827   0.539   3.788   0.512
  974SOL    HW1 4828   0.458   3.789   0.570
  974SOL    HW2 4829   0.542   3.871   0.457
  975SOL     OW 4830   1.434   4.912   0.041
  975SOL    HW1 4831   1.466   4.836   0.098
  975SOL    HW2 4832   1.342   4.939   0.071
  976SOL     OW 4833   0.297   3.759   0.171
  976SOL    HW1 4834   0.346   3.843   0.150
  976SOL    HW2 4835   0.359   3.694   0.216
  977SOL     OW 4836   1.076   4.407   1.464
  977SOL    HW1 4837   0.996   4.346   1.467
  977SOL    HW2 4838   1.157   4.354   1.440
  978SOL     OW 4839   0.459   4.876   0.741
  978SOL    HW1 4840   0.388   4.849   0.806
  978SOL    HW2 4841   0.433   4.848   0.648
  979SOL     OW 4842   1.032   4.273   0.016
  979SOL    HW1 4843   0.991   4.355  -0.023
  979SOL    HW2 4844   1.096   4.299   0.089
  980SOL     OW 4845   0.561   3.946   1.147
  980SOL    HW1 4846   0.599   3.862   1.184
  980SOL    HW2 4847   0.473   3.965   1.191
  981SOL     OW 4848   0.866   4.178   0.642
  981SOL    HW1 4849   0.834   4.250   0.580
  981SOL    HW2 4850   0.890   4.097   0.589
  982SOL     OW 4851   1.466   4.314   0.992
  982SOL    HW1 4852   1.436   4.219   0.999
  982SOL    HW2 4853   1.539   4.330   1.058
  983SOL     OW 4854   1.664   5.004   0.657
  983SOL    HW1 4855   1.763   5.012   0.671
  983SOL    HW2 4856   1.619   5.088   0.688
  984SOL     OW 4857   1.390   4.299   0.078
  984SOL    HW1 4858   1.336   4.278   0.159
  984SOL    HW2 4859   1.481   4.258   0.087
  985SOL     OW 4860   0.527   3.980   0.328
  985SOL    HW1 4861   0.554   3.921   0.253
  985SOL    HW2 4862   0.527   4.075   0.297
  986SOL     OW 4863   1.754   4.947   1.588
  986SOL    HW1 4864   1.845   4.908   1.575
  986SOL    HW2 4865   1.762   5.043   1.612
  987SOL     OW 4866   1.638   4.823   1.079
  987SOL    HW1 4867   1.643   4.904   1.138
  987SOL    HW2 4868   1.552   4.825   1.028
  988SOL     OW 4869   0.915   3.813   1.402
  988SOL    HW1 4870   0.940   3.793   1.307
  988SOL    HW2 4871   0.987   3.869   1.444
  989SOL     OW 4872   0.980   4.840   1.719
  989SOL    HW1 4873   0.881   4.846   1.729
  989SOL    HW2 4874   1.003   4.760   1.663
  990SOL     OW 4875   0.705   4.774   0.368
  990SOL    HW1 4876   0.691   4.781   0.467
  990SOL    HW2 4877   0.789   4.723   0.350
  991SOL     OW 4878   1.274   4.110   1.262
  991SOL    HW1 4879   1.295   4.184   1.326
  991SOL    HW2 4880   1.185   4.127   1.219
  992SOL     OW 4881   0.566   4.261   0.865
  992SOL    HW1 4882   0.578   4.327   0.791
  992SOL    HW2 4883   0.612   4.295   0.948
  993SOL     OW 4884   1.582   4.363   0.472
  993SOL    HW1 4885   1.551   4.424   0.545
  993SOL    HW2 4886   1.632   4.415   0.403
  994SOL     OW 4887   0.402   4.475   1.598
  994SOL    HW1 4888   0.470   4.530   1.551
  994SOL    HW2 4889   0.442   4.387   1.625
  995SOL     OW 4890   1.587   4.503   1.670
  995SOL    HW1 4891   1.495   4.541   1.665
  995SOL    HW2 4892   1.647   4.550   1.605
  996SOL     OW 4893   1.013   3.829   1.770
  996SOL    HW1 4894   1.019   3.914   1.718
  996SOL    HW2 4895   1.045   3.753   1.713
  997SOL     OW 4896   0.504   3.774   1.740
  997SOL    HW1 4897   0.462   3.717   1.670
  997SOL    HW2 4898   0.438   3.843   1.772
  998SOL     OW 4899   1.360   4.586   1.045
  998SOL    HW1 4900   1.285   4.586   0.979
  998SOL    HW2 4901   1.397   4.494   1.054
  999SOL     OW 4902   1.209   4.249   0.275
  999SOL    HW1 4903   1.222   4.165   0.329
  999SOL    HW2 4904   1.180   4.323   0.335
 1000SOL     OW 4905   0.307   3.937   1.231
 1000SOL    HW1 4906   0.284   3.974   1.321
 1000SOL    HW2 4907   0.277   3.842   1.225
 1001SOL     OW 4908   0.037   5.034   1.282
 1001SOL    HW1 4909   0.090   4.985   1.350
 1001SOL    HW2 4910   0.059   5.132   1.287
 1002SOL     OW 4911   0.732   4.358   1.064
 1002SOL    HW1 4912   0.791   4.332   0.988
 1002SOL    HW2 4913   0.704   4.454   1.053
 1003SOL     OW 4914   1.728   4.659   1.854
 1003SOL    HW1 4915   1.682   4.652   1.765
 1003SOL    HW2 4916   1.666   4.703   1.920
 1004SOL     OW 4917   0.307   3.787   0.618
 1004SOL    HW1 4918   0.296   3.881   0.651
 1004SOL    HW2 4919   0.302   3.724   0.695
 1005SOL     OW 4920   1.622   4.091   0.374
 1005SOL    HW1 4921   1.624   4.015   0.438
 1005SOL    HW2 4922   1.574   4.168   0.414
 1006SOL     OW 4923   1.023   4.490   0.966
 1006SOL    HW1 4924   1.038   4.511   1.062
 1006SOL    HW2 4925   0.993   4.395   0.957
 1007SOL     OW 4926   1.859   5.242   1.605
 1007SOL    HW1 4927   1.873   5.269   1.510
 1007SOL    HW2 4928   1.942   5.264   1.658
 1008SOL     OW 4929   0.350   4.622   1.804
 1008SOL    HW1 4930   0.426   4.666   1.852
 1008SOL    HW2 4931   0.385   4.575   1.722
 1009SOL     OW 4932   1.540   3.998   0.125
 1009SOL    HW1 4933   1.479   3.923   0.148
 1009SOL    HW2 4934   1.562   4.050   0.208
 1010SOL     OW 4935   1.303   4.562   0.042
 1010SOL    HW1 4936   1.337   4.469   0.057
 1010SOL    HW2 4937   1.321   4.589  -0.053
 1011SOL     OW 4938   1.138   4.104   1.678
 1011SOL    HW1 4939   1.093   4.167   1.742
 1011SOL    HW2 4940   1.231   4.135   1.661
 1012SOL     OW 4941   1.160   3.931   1.477
 1012SOL    HW1 4942   1.160   3.995   1.554
 1012SOL    HW2 4943   1.188   3.979   1.394
 1013SOL     OW 4944   0.008   5.050   0.200
 1013SOL    HW1 4945  -0.085   5.071   0.169
 1013SOL    HW2 4946   0.018   4.951   0.213
 1014SOL     OW 4947   1.002   4.520   1.238
 1014SOL    HW1 4948   1.043   4.488   1.324
 1014SOL    HW2 4949   0.906   4.493   1.235
 1015SOL     OW 4950   0.815   4.296   0.325
 1015SOL    HW1 4951   0.822   4.207   0.279
 1015SOL    HW2 4952   0.721   4.330   0.317
 1016SOL     OW 4953   1.657   4.328   1.206
 1016SOL    HW1 4954   1.619   4.259   1.268
 1016SOL    HW2 4955   1.739   4.292   1.162
 1017SOL     OW 4956   0.671   4.188   1.269
 1017SOL    HW1 4957   0.637   4.099   1.239
 1017SOL    HW2 4958   0.697   4.242   1.189
 1018SOL     OW 4959   0.473   4.224   0.191
 1018SOL    HW1 4960   0.534   4.304   0.195
 1018SOL    HW2 4961   0.378   4.255   0.198
 1019SOL     OW 4962   0.159   4.861   1.466
 1019SOL    HW1 4963   0.181   4.800   1.542
 1019SOL    HW2 4964   0.169   4.812   1.380
 1020SOL     OW 4965   1.302   4.579   0.309
 1020SOL    HW1 4966   1.216   4.548   0.351
 1020SOL    HW2 4967   1.298   4.565   0.210
 1021SOL     OW 4968   0.083   4.982   1.022
 1021SOL    HW1 4969   0.078   4.981   1.122
 1021SOL    HW2 4970   0.000   4.941   0.984
 1022SOL     OW 4971   0.903   3.810   0.133
 1022SOL    HW1 4972   0.954   3.811   0.047
 1022SOL    HW2 4973   0.959   3.768   0.204
 1023SOL     OW 4974   1.726   3.859   0.523
 1023SOL    HW1 4975   1.799   3.842   0.456
 1023SOL    HW2 4976   1.695   3.772   0.561
 1024SOL     OW 4977   1.280   4.651   0.672
 1024SOL    HW1 4978   1.340   4.570   0.674
 1024SOL    HW2 4979   1.320   4.720   0.612
 1025SOL     OW 4980   0.830   4.997   1.422
 1025SOL    HW1 4981   0.825   5.030   1.517
 1025SOL    HW2 4982   0.744   5.016   1.376
 1026SOL     OW 4983   1.841   3.899   0.963
 1026SOL    HW1 4984   1.880   3.814   0.927
 1026SOL    HW2 4985   1.743   3.901   0.944
 1027SOL     OW 4986   0.263   4.050   0.720
 1027SOL    HW1 4987   0.184   4.101   0.686
 1027SOL    HW2 4988   0.254   4.035   0.818
 1028SOL     OW 4989   0.822   4.726   1.372
 1028SOL    HW1 4990   0.862   4.725   1.280
 1028SOL    HW2 4991   0.832   4.818   1.412
 1029SOL     OW 4992   0.916   4.634   0.291
 1029SOL    HW1 4993   0.979   4.672   0.223
 1029SOL    HW2 4994   0.956   4.551   0.330
 1030SOL     OW 4995   0.372   5.012   1.490
 1030SOL    HW1 4996   0.359   5.105   1.456
 1030SOL    HW2 4997   0.288   4.960   1.477
 1031SOL     OW 4998   1.614   5.016   1.289
 1031SOL    HW1 4999   1.674   5.019   1.369
 1031SOL    HW2 5000   1.539   5.080   1.302
 1032SOL     OW 5001   1.039   4.822   0.696
 1032SOL    HW1 5002   0.969   4.775   0.750
 1032SOL    HW2 5003   1.098   4.754   0.653
 1033SOL     OW 5004   1.709   4.109   1.381
 1033SOL    HW1 5005   1.782   4.178   1.385
 1033SOL    HW2 5006   1.737   4.034   1.322
 1034SOL     OW 5007   0.105   4.737   1.726
 1034SOL    HW1 5008   0.028   4.704   1.780
 1034SOL    HW2 5009   0.190   4.707   1.768
 1035SOL     OW 5010   0.672   3.927   1.489
 1035SOL    HW1 5011   0.762   3.911   1.449
 1035SOL    HW2 5012   0.680   3.932   1.588
 1036SOL     OW 5013   0.075   4.069   0.033
 1036SOL    HW1 5014  -0.017   4.041   0.004
 1036SOL    HW2 5015   0.106   4.146  -0.023
 1037SOL     OW 5016   1.440   4.580   1.398
 1037SOL    HW1 5017   1.383   4.632   1.335
 1037SOL    HW2 5018   1.536   4.592   1.374
 1038SOL     OW 5019   0.072   3.890   0.318
 1038SOL    HW1 5020   0.055   3.973   0.264
 1038SOL    HW2 5021   0.162   3.853   0.296
 1039SOL     OW 5022   0.613   4.566   1.431
 1039SOL    HW1 5023   0.669   4.647   1.414
 1039SOL    HW2 5024   0.672   4.486   1.434
 1040SOL     OW 5025   0.716   4.289   1.708
 1040SOL    HW1 5026   0.735   4.354   1.782
 1040SOL    HW2 5027   0.776   4.209   1.717
 1041SOL     OW 5028   1.674   4.607   1.254
 1041SOL    HW1 5029   1.647   4.518   1.217
 1041SOL    HW2 5030   1.675   4.675   1.181
 1042SOL     OW 5031   1.225   4.049   0.449
 1042SOL    HW1 5032   1.290   3.975   0.438
 1042SOL    HW2 5033   1.245   4.099   0.533
 1043SOL     OW 5034   0.594   4.469   0.652
 1043SOL    HW1 5035   0.644   4.554   0.633
 1043SOL    HW2 5036   0.506   4.471   0.604
 1044SOL     OW 5037   1.777   4.066   1.642
 1044SOL    HW1 5038   1.760   4.097   1.548
 1044SOL    HW2 5039   1.693   4.029   1.680
 1045SOL     OW 5040   1.730   4.658   1.517
 1045SOL    HW1 5041   1.768   4.749   1.532
 1045SOL    HW2 5042   1.722   4.641   1.418
 1046SOL     OW 5043   0.859   4.680   0.861
 1046SOL    HW1 5044   0.913   4.611   0.909
 1046SOL    HW2 5045   0.827   4.749   0.927
 1047SOL     OW 5046   1.083   4.708   0.087
 1047SOL    HW1 5047   1.060   4.761   0.005
 1047SOL    HW2 5048   1.164   4.652   0.068
 1048SOL     OW 5049   0.079   4.964   0.653
 1048SOL    HW1 5050   0.078   4.917   0.741
 1048SOL    HW2 5051   0.161   4.936   0.602
 1049SOL     OW 5052   1.824   3.916   1.227
 1049SOL    HW1 5053   1.820   3.826   1.271
 1049SOL    HW2 5054   1.827   3.905   1.128
 1050SOL     OW 5055   0.428   4.148   0.520
 1050SOL    HW1 5056   0.458   4.076   0.458
 1050SOL    HW2 5057   0.389   4.108   0.603
 1051SOL     OW 5058   1.424   3.938   1.112
 1051SOL    HW1 5059   1.476   3.873   1.167
 1051SOL    HW2 5060   1.375   4.001   1.173
 1052SOL     OW 5061   0.770   5.054   0.301
 1052SOL    HW1 5062   0.724   4.967   0.318
 1052SOL    HW2 5063   0.861   5.051   0.342
 1053SOL     OW 5064   1.352   3.776   0.168
 1053SOL    HW1 5065   1.387   3.735   0.084
 1053SOL    HW2 5066   1.262   3.738   0.188
 1054SOL     OW 5067   1.300   4.177   0.691
 1054SOL    HW1 5068   1.241   4.257   0.695
 1054SOL    HW2 5069   1.315   4.142   0.784
 1055SOL     OW 5070   1.593   3.945   0.882
 1055SOL    HW1 5071   1.509   3.944   0.936
 1055SOL    HW2 5072   1.595   4.028   0.826
 1056SOL     OW 5073   0.039   4.801   0.300
 1056SOL    HW1 5074   0.138   4.790   0.291
 1056SOL    HW2 5075  -0.001   4.715   0.332
 1057SOL     OW 5076   0.230   4.352   1.975
 1057SOL    HW1 5077   0.137   4.350   2.012
 1057SOL    HW2 5078   0.231   4.313   1.883
 1058SOL     OW 5079   0.225   3.999   2.858
 1058SOL    HW1 5080   0.260   3.982   2.950
 1058SOL    HW2 5081   0.137   3.954   2.846
 1059SOL     OW 5082   0.019   4.092   2.509
 1059SOL    HW1 5083  -0.063   4.135   2.548
 1059SOL    HW2 5084  -0.009   4.019   2.446
 1060SOL     OW 5085   0.569   4.999   3.027
 1060SOL    HW1 5086   0.476   4.992   2.990
 1060SOL    HW2 5087   0.580   5.088   3.071
 1061SOL     OW 5088   1.755   4.331   2.093
 1061SOL    HW1 5089   1.743   4.318   1.994
 1061SOL    HW2 5090   1.725   4.250   2.142
 1062SOL     OW 5091   0.850   4.522   3.685
 1062SOL    HW1 5092   0.846   4.598   3.750
 1062SOL    HW2 5093   0.872   4.558   3.594
 1063SOL     OW 5094   0.686   4.885   3.665
 1063SOL    HW1 5095   0.746   4.964   3.679
 1063SOL    HW2 5096   0.600   4.916   3.624
 1064SOL     OW 5097   0.335   5.159   2.923
 1064SOL    HW1 5098   0.257   5.128   2.870
 1064SOL    HW2 5099   0.393   5.217   2.866
 1065SOL     OW 5100   0.438   4.116   3.361
 1065SOL    HW1 5101   0.520   4.060   3.370
 1065SOL    HW2 5102   0.357   4.058   3.365
 1066SOL     OW 5103   1.603   4.171   2.599
 1066SOL    HW1 5104   1.529   4.217   2.549
 1066SOL    HW2 5105   1.654   4.239   2.652
 1067SOL     OW 5106   0.240   4.815   2.748
 1067SOL    HW1 5107   0.254   4.731   2.800
 1067SOL    HW2 5108   0.185   4.879   2.803
 1068SOL     OW 5109   0.606   4.688   1.985
 1068SOL    HW1 5110   0.613   4.772   1.931
 1068SOL    HW2 5111   0.652   4.701   2.073
 1069SOL     OW 5112   1.594   3.838   3.342
 1069SOL    HW1 5113   1.576   3.905   3.270
 1069SOL    HW2 5114   1.591   3.884   3.431
 1070SOL     OW 5115   1.689   4.646   2.474
 1070SOL    HW1 5116   1.784   4.617   2.482
 1070SOL    HW2 5117   1.681   4.711   2.399
 1071SOL     OW 5118   1.641   4.832   2.294
 1071SOL    HW1 5119   1.727   4.834   2.242
 1071SOL    HW2 5120   1.655   4.879   2.382
 1072SOL     OW 5121   0.113   4.461   3.459
 1072SOL    HW1 5122   0.201   4.448   3.504
 1072SOL    HW2 5123   0.100   4.558   3.437
 1073SOL     OW 5124   1.293   4.952   3.285
 1073SOL    HW1 5125   1.330   4.879   3.227
 1073SOL    HW2 5126   1.345   4.957   3.370
 1074SOL     OW 5127   0.809   3.728   2.364
 1074SOL    HW1 5128   0.849   3.819   2.355
 1074SOL    HW2 5129   0.709   3.736   2.370
 1075SOL     OW 5130   1.525   4.723   2.052
 1075SOL    HW1 5131   1.462   4.647   2.065
 1075SOL    HW2 5132   1.573   4.741   2.138
 1076SOL     OW 5133   0.317   3.975   3.663
 1076SOL    HW1 5134   0.388   4.046   3.669
 1076SOL    HW2 5135   0.229   4.014   3.691
 1077SOL     OW 5136   1.466   5.141   2.815
 1077SOL    HW1 5137   1.407   5.147   2.895
 1077SOL    HW2 5138   1.451   5.053   2.769
 1078SOL     OW 5139   0.598   4.453   2.132
 1078SOL    HW1 5140   0.622   4.522   2.064
 1078SOL    HW2 5141   0.520   4.486   2.186
 1079SOL     OW 5142   1.281   4.069   2.806
 1079SOL    HW1 5143   1.195   4.019   2.793
 1079SOL    HW2 5144   1.343   4.015   2.862
 1080SOL     OW 5145   0.807   4.329   3.327
 1080SOL    HW1 5146   0.760   4.326   3.416
 1080SOL    HW2 5147   0.756   4.274   3.261
 1081SOL     OW 5148   1.394   4.193   3.536
 1081SOL    HW1 5149   1.374   4.236   3.624
 1081SOL    HW2 5150   1.472   4.131   3.545
 1082SOL     OW 5151   0.973   4.614   3.434
 1082SOL    HW1 5152   1.019   4.530   3.405
 1082SOL    HW2 5153   0.917   4.648   3.359
 1083SOL     OW 5154   0.991   4.134   3.104
 1083SOL    HW1 5155   0.914   4.168   3.158
 1083SOL    HW2 5156   0.957   4.083   3.025
 1084SOL     OW 5157   1.041   4.425   2.291
 1084SOL    HW1 5158   1.067   4.421   2.387
 1084SOL    HW2 5159   0.956   4.374   2.277
 1085SOL     OW 5160   0.865   4.072   2.057
 1085SOL    HW1 5161   0.924   4.135   2.008
 1085SOL    HW2 5162   0.884   3.978   2.028
 1086SOL     OW 5163   1.719   4.309   3.693
 1086SOL    HW1 5164   1.693   4.398   3.657
 1086SOL    HW2 5165   1.717   4.241   3.620
 1087SOL     OW 5166   1.362   4.868   2.407
 1087SOL    HW1 5167   1.445   4.839   2.359
 1087SOL    HW2 5168   1.313   4.935   2.351
 1088SOL     OW 5169   0.550   3.920   2.747
 1088SOL    HW1 5170   0.545   3.915   2.847
 1088SOL    HW2 5171   0.552   4.016   2.718
 1089SOL     OW 5172   1.795   4.790   2.735
 1089SOL    HW1 5173   1.733   4.775   2.659
 1089SOL    HW2 5174   1.743   4.801   2.820
 1090SOL     OW 5175   0.321   4.667   2.104
 1090SOL    HW1 5176   0.403   4.706   2.062
 1090SOL    HW2 5177   0.294   4.585   2.055
 1091SOL     OW 5178   0.202   4.009   3.360
 1091SOL    HW1 5179   0.122   4.069   3.347
 1091SOL    HW2 5180   0.192   3.960   3.446
 1092SOL     OW 5181   1.632   5.101   1.943
 1092SOL    HW1 5182   1.600   5.195   1.933
 1092SOL    HW2 5183   1.556   5.038   1.931
 1093SOL     OW 5184   0.382   4.424   2.342
 1093SOL    HW1 5185   0.427   4.334   2.339
 1093SOL    HW2 5186   0.288   4.413   2.375
 1094SOL     OW 5187   1.547   3.946   3.591
 1094SOL    HW1 5188   1.542   3.983   3.683
 1094SOL    HW2 5189   1.475   3.877   3.579
 1095SOL     OW 5190   0.614   3.846   1.979
 1095SOL    HW1 5191   0.712   3.824   1.986
 1095SOL    HW2 5192   0.583   3.829   1.886
 1096SOL     OW 5193   0.781   3.988   3.611
 1096SOL    HW1 5194   0.848   3.927   3.654
 1096SOL    HW2 5195   0.708   4.007   3.676
 1097SOL     OW 5196   1.351   4.314   3.295
 1097SOL    HW1 5197   1.379   4.271   3.380
 1097SOL    HW2 5198   1.376   4.410   3.296
 1098SOL     OW 5199   0.922   4.227   2.761
 1098SOL    HW1 5200   0.897   4.218   2.665
 1098SOL    HW2 5201   0.970   4.145   2.792
 1099SOL     OW 5202   0.539   3.788   2.374
 1099SOL    HW1 5203   0.458   3.789   2.432
 1099SOL    HW2 5204   0.542   3.871   2.319
 1100SOL     OW 5205   1.434   4.912   1.903
 1100SOL    HW1 5206   1.466   4.836   1.960
 1100SOL    HW2 5207   1.342   4.939   1.933
 1101SOL     OW 5208   0.297   3.759   2.033
 1101SOL    HW1 5209   0.346   3.843   2.012
 1101SOL    HW2 5210   0.359   3.694   2.078
 1102SOL     OW 5211   0.935   3.960   2.342
 1102SOL    HW1 5212   0.887   4.001   2.264
 1102SOL    HW2 5213   1.034   3.958   2.323
 1103SOL     OW 5214   1.076   4.407   3.326
 1103SOL    HW1 5215   0.996   4.346   3.329
 1103SOL    HW2 5216   1.157   4.354   3.302
 1104SOL     OW 5217   1.032   4.273   1.878
 1104SOL    HW1 5218   0.991   4.355   1.839
 1104SOL    HW2 5219   1.096   4.299   1.951
 1105SOL     OW 5220   0.561   3.946   3.009
 1105SOL    HW1 5221   0.599   3.862   3.046
 1105SOL    HW2 5222   0.473   3.965   3.053
 1106SOL     OW 5223   0.866   4.178   2.504
 1106SOL    HW1 5224   0.834   4.250   2.442
 1106SOL    HW2 5225   0.890   4.097   2.451
 1107SOL     OW 5226   1.017   3.763   2.615
 1107SOL    HW1 5227   0.945   3.768   2.546
 1107SOL    HW2 5228   0.993   3.694   2.684
 1108SOL     OW 5229   1.466   4.314   2.854
 1108SOL    HW1 5230   1.436   4.219   2.861
 1108SOL    HW2 5231   1.539   4.330   2.920
 1109SOL     OW 5232   1.857   4.557   2.239
 1109SOL    HW1 5233   1.899   4.493   2.303
 1109SOL    HW2 5234   1.819   4.506   2.161
 1110SOL     OW 5235   1.664   5.004   2.519
 1110SOL    HW1 5236   1.763   5.012   2.533
 1110SOL    HW2 5237   1.619   5.088   2.550
 1111SOL     OW 5238   1.390   4.299   1.940
 1111SOL    HW1 5239   1.336   4.278   2.021
 1111SOL    HW2 5240   1.481   4.258   1.949
 1112SOL     OW 5241   0.527   3.980   2.190
 1112SOL    HW1 5242   0.554   3.921   2.115
 1112SOL    HW2 5243   0.527   4.075   2.159
 1113SOL     OW 5244   1.754   4.947   3.450
 1113SOL    HW1 5245   1.845   4.908   3.437
 1113SOL    HW2 5246   1.762   5.043   3.474
 1114SOL     OW 5247   1.638   4.823   2.941
 1114SOL    HW1 5248   1.643   4.904   3.000
 1114SOL    HW2 5249   1.552   4.825   2.890
 1115SOL     OW 5250   0.915   3.813   3.264
 1115SOL    HW1 5251   0.940   3.793   3.169
 1115SOL    HW2 5252   0.987   3.869   3.306
 1116SOL     OW 5253   0.980   4.840   3.581
 1116SOL    HW1 5254   0.881   4.846   3.591
 1116SOL    HW2 5255   1.003   4.760   3.525
 1117SOL     OW 5256   0.705   4.774   2.230
 1117SOL    HW1 5257   0.691   4.781   2.329
 1117SOL    HW2 5258   0.789   4.723   2.212
 1118SOL     OW 5259   0.410   4.537   3.113
 1118SOL    HW1 5260   0.496   4.549   3.163
 1118SOL    HW2 5261   0.368   4.450   3.140
 1119SOL     OW 5262   1.274   4.110   3.124
 1119SOL    HW1 5263   1.295   4.184   3.188
 1119SOL    HW2 5264   1.185   4.127   3.081
 1120SOL     OW 5265   0.367   4.824   2.363
 1120SOL    HW1 5266   0.360   4.907   2.307
 1120SOL    HW2 5267   0.371   4.744   2.303
 1121SOL     OW 5268   1.582   4.363   2.334
 1121SOL    HW1 5269   1.551   4.424   2.407
 1121SOL    HW2 5270   1.632   4.415   2.265
 1122SOL     OW 5271   0.402   4.475   3.460
 1122SOL    HW1 5272   0.470   4.530   3.413
 1122SOL    HW2 5273   0.442   4.387   3.487
 1123SOL     OW 5274   1.587   4.503   3.532
 1123SOL    HW1 5275   1.495   4.541   3.527
 1123SOL    HW2 5276   1.647   4.550   3.467
 1124SOL     OW 5277   1.013   3.829   3.632
 1124SOL    HW1 5278   1.019   3.914   3.580
 1124SOL    HW2 5279   1.045   3.753   3.575
 1125SOL     OW 5280   0.504   3.774   3.602
 1125SOL    HW1 5281   0.462   3.717   3.532
 1125SOL    HW2 5282   0.438   3.843   3.634
 1126SOL     OW 5283   1.360   4.586   2.907
 1126SOL    HW1 5284   1.285   4.586   2.841
 1126SOL    HW2 5285   1.397   4.494   2.916
 1127SOL     OW 5286   1.209   4.249   2.137
 1127SOL    HW1 5287   1.222   4.165   2.191
 1127SOL    HW2 5288   1.180   4.323   2.197
 1128SOL     OW 5289   0.307   3.937   3.093
 1128SOL    HW1 5290   0.284   3.974   3.183
 1128SOL    HW2 5291   0.277   3.842   3.087
 1129SOL     OW 5292   0.037   5.034   3.144
 1129SOL    HW1 5293   0.090   4.985   3.212
 1129SOL    HW2 5294   0.059   5.132   3.149
 1130SOL     OW 5295   0.732   4.358   2.926
 1130SOL    HW1 5296   0.791   4.332   2.850
 1130SOL    HW2 5297   0.704   4.454   2.915
 1131SOL     OW 5298   1.728   4.659   3.716
 1131SOL    HW1 5299   1.682   4.652   3.627
 1131SOL    HW2 5300   1.666   4.703   3.782
 1132SOL     OW 5301   0.307   3.787   2.480
 1132SOL    HW1 5302   0.296   3.881   2.513
 1132SOL    HW2 5303   0.302   3.724   2.557
 1133SOL     OW 5304   1.859   5.242   3.467
 1133SOL    HW1 5305   1.873   5.269   3.372
 1133SOL    HW2 5306   1.942   5.264   3.520
 1134SOL     OW 5307   1.303   4.562   1.904
 1134SOL    HW1 5308   1.337   4.469   1.919
 1134SOL    HW2 5309   1.321   4.589   1.809
 1135SOL     OW 5310   1.138   4.104   3.540
 1135SOL    HW1 5311   1.093   4.167   3.604
 1135SOL    HW2 5312   1.231   4.135   3.523
 1136SOL     OW 5313   1.160   3.931   3.339
 1136SOL    HW1 5314   1.160   3.995   3.416
 1136SOL    HW2 5315   1.188   3.979   3.256
 1137SOL     OW 5316   0.008   5.050   2.062
 1137SOL    HW1 5317  -0.085   5.071   2.031
 1137SOL    HW2 5318   0.018   4.951   2.075
 1138SOL     OW 5319   1.002   4.520   3.100
 1138SOL    HW1 5320   1.043   4.488   3.186
 1138SOL    HW2 5321   0.906   4.493   3.097
 1139SOL     OW 5322   0.189   4.244   3.584
 1139SOL    HW1 5323   0.248   4.204   3.514
 1139SOL    HW2 5324   0.131   4.315   3.543
 1140SOL     OW 5325   1.369   4.674   3.522
 1140SOL    HW1 5326   1.408   4.763   3.542
 1140SOL    HW2 5327   1.379   4.654   3.425
 1141SOL     OW 5328   0.815   4.296   2.187
 1141SOL    HW1 5329   0.822   4.207   2.141
 1141SOL    HW2 5330   0.721   4.330   2.179
 1142SOL     OW 5331   1.657   4.328   3.068
 1142SOL    HW1 5332   1.619   4.259   3.130
 1142SOL    HW2 5333   1.739   4.292   3.024
 1143SOL     OW 5334   0.671   4.188   3.131
 1143SOL    HW1 5335   0.637   4.099   3.101
 1143SOL    HW2 5336   0.697   4.242   3.051
 1144SOL     OW 5337   0.473   4.224   2.053
 1144SOL    HW1 5338   0.534   4.304   2.057
 1144SOL    HW2 5339   0.378   4.255   2.060
 1145SOL     OW 5340   1.347   4.783   3.096
 1145SOL    HW1 5341   1.371   4.720   3.022
 1145SOL    HW2 5342   1.257   4.823   3.078
 1146SOL     OW 5343   1.302   4.579   2.171
 1146SOL    HW1 5344   1.216   4.548   2.213
 1146SOL    HW2 5345   1.298   4.565   2.072
 1147SOL     OW 5346   0.083   4.982   2.884
 1147SOL    HW1 5347   0.078   4.981   2.984
 1147SOL    HW2 5348   0.000   4.941   2.846
 1148SOL     OW 5349   1.726   3.859   2.385
 1148SOL    HW1 5350   1.799   3.842   2.318
 1148SOL    HW2 5351   1.695   3.772   2.423
 1149SOL     OW 5352   0.830   4.997   3.284
 1149SOL    HW1 5353   0.825   5.030   3.379
 1149SOL    HW2 5354   0.744   5.016   3.238
 1150SOL     OW 5355   1.841   3.899   2.825
 1150SOL    HW1 5356   1.880   3.814   2.789
 1150SOL    HW2 5357   1.743   3.901   2.806
 1151SOL     OW 5358   0.263   4.050   2.582
 1151SOL    HW1 5359   0.184   4.101   2.548
 1151SOL    HW2 5360   0.254   4.035   2.680
 1152SOL     OW 5361   1.194   5.336   1.893
 1152SOL    HW1 5362   1.200   5.243   1.930
 1152SOL    HW2 5363   1.135   5.336   1.813
 1153SOL     OW 5364   0.822   4.726   3.234
 1153SOL    HW1 5365   0.862   4.725   3.142
 1153SOL    HW2 5366   0.832   4.818   3.274
 1154SOL     OW 5367   0.916   4.634   2.153
 1154SOL    HW1 5368   0.979   4.672   2.085
 1154SOL    HW2 5369   0.956   4.551   2.192
 1155SOL     OW 5370   0.372   5.012   3.352
 1155SOL    HW1 5371   0.359   5.105   3.318
 1155SOL    HW2 5372   0.288   4.960   3.339
 1156SOL     OW 5373   1.614   5.016   3.151
 1156SOL    HW1 5374   1.674   5.019   3.231
 1156SOL    HW2 5375   1.539   5.080   3.164
 1157SOL     OW 5376   1.014   3.960   2.833
 1157SOL    HW1 5377   1.006   3.924   2.740
 1157SOL    HW2 5378   1.012   3.884   2.898
 1158SOL     OW 5379   1.709   4.109   3.243
 1158SOL    HW1 5380   1.782   4.178   3.247
 1158SOL    HW2 5381   1.737   4.034   3.184
 1159SOL     OW 5382   0.672   3.927   3.351
 1159SOL    HW1 5383   0.762   3.911   3.311
 1159SOL    HW2 5384   0.680   3.932   3.450
 1160SOL     OW 5385   0.075   4.069   1.895
 1160SOL    HW1 5386  -0.017   4.041   1.866
 1160SOL    HW2 5387   0.106   4.146   1.839
 1161SOL     OW 5388   1.440   4.580   3.260
 1161SOL    HW1 5389   1.383   4.632   3.197
 1161SOL    HW2 5390   1.536   4.592   3.236
 1162SOL     OW 5391   0.072   3.890   2.180
 1162SOL    HW1 5392   0.055   3.973   2.126
 1162SOL    HW2 5393   0.162   3.853   2.158
 1163SOL     OW 5394   0.613   4.566   3.293
 1163SOL    HW1 5395   0.669   4.647   3.276
 1163SOL    HW2 5396   0.672   4.486   3.296
 1164SOL     OW 5397   0.716   4.289   3.570
 1164SOL    HW1 5398   0.735   4.354   3.644
 1164SOL    HW2 5399   0.776   4.209   3.579
 1165SOL     OW 5400   1.450   4.944   3.495
 1165SOL    HW1 5401   1.441   4.934   3.594
 1165SOL    HW2 5402   1.546   4.937   3.469
 1166SOL     OW 5403   1.674   4.607   3.116
 1166SOL    HW1 5404   1.647   4.518   3.079
 1166SOL    HW2 5405   1.675   4.675   3.043
 1167SOL     OW 5406   1.225   4.049   2.311
 1167SOL    HW1 5407   1.290   3.975   2.300
 1167SOL    HW2 5408   1.245   4.099   2.395
 1168SOL     OW 5409   1.777   4.066   3.504
 1168SOL    HW1 5410   1.760   4.097   3.410
 1168SOL    HW2 5411   1.693   4.029   3.542
 1169SOL     OW 5412   1.730   4.658   3.379
 1169SOL    HW1 5413   1.768   4.749   3.394
 1169SOL    HW2 5414   1.722   4.641   3.280
 1170SOL     OW 5415   1.083   4.708   1.949
 1170SOL    HW1 5416   1.060   4.761   1.867
 1170SOL    HW2 5417   1.164   4.652   1.930
 1171SOL     OW 5418   0.079   4.964   2.515
 1171SOL    HW1 5419   0.078   4.917   2.603
 1171SOL    HW2 5420   0.161   4.936   2.464
 1172SOL     OW 5421   1.824   3.916   3.089
 1172SOL    HW1 5422   1.820   3.826   3.133
 1172SOL    HW2 5423   1.827   3.905   2.990
 1173SOL     OW 5424   0.428   4.148   2.382
 1173SOL    HW1 5425   0.458   4.076   2.320
 1173SOL    HW2 5426   0.389   4.108   2.465
 1174SOL     OW 5427   1.424   3.938   2.974
 1174SOL    HW1 5428   1.476   3.873   3.029
 1174SOL    HW2 5429   1.375   4.001   3.035
 1175SOL     OW 5430   1.001   3.758   3.016
 1175SOL    HW1 5431   0.938   3.686   2.985
 1175SOL    HW2 5432   1.094   3.722   3.016
 1176SOL     OW 5433   0.770   5.054   2.163
 1176SOL    HW1 5434   0.724   4.967   2.180
 1176SOL    HW2 5435   0.861   5.051   2.204
 1177SOL     OW 5436   1.352   3.776   2.030
 1177SOL    HW1 5437   1.387   3.735   1.946
 1177SOL    HW2 5438   1.262   3.738   2.050
 1178SOL     OW 5439   1.593   3.945   2.744
 1178SOL    HW1 5440   1.509   3.944   2.798
 1178SOL    HW2 5441   1.595   4.028   2.688
 1179SOL     OW 5442   0.039   4.801   2.162
 1179SOL    HW1 5443   0.138   4.790   2.153
 1179SOL    HW2 5444  -0.001   4.715   2.194
 1180SOL     OW 5445   0.230   4.352   3.837
 1180SOL    HW1 5446   0.137   4.350   3.874
 1180SOL    HW2 5447   0.231   4.313   3.745
 1181SOL     OW 5448   0.225   3.999   4.720
 1181SOL    HW1 5449   0.260   3.982   4.812
 1181SOL    HW2 5450   0.137   3.954   4.708
 1182SOL     OW 5451   0.019   4.092   4.371
 1182SOL    HW1 5452  -0.063   4.135   4.410
 1182SOL    HW2 5453  -0.009   4.019   4.308
 1183SOL     OW 5454   1.555   5.235   4.427
 1183SOL    HW1 5455   1.498   5.219   4.508
 1183SOL    HW2 5456   1.496   5.245   4.347
 1184SOL     OW 5457   1.135   4.427   4.441
 1184SOL    HW1 5458   1.192   4.505   4.416
 1184SOL    HW2 5459   1.075   4.453   4.517
 1185SOL     OW 5460   1.755   4.331   3.955
 1185SOL    HW1 5461   1.743   4.318   3.856
 1185SOL    HW2 5462   1.725   4.250   4.004
 1186SOL     OW 5463   0.768   4.868   4.747
 1186SOL    HW1 5464   0.690   4.885   4.807
 1186SOL    HW2 5465   0.802   4.955   4.711
 1187SOL     OW 5466   0.685   4.736   4.389
 1187SOL    HW1 5467   0.754   4.720   4.459
 1187SOL    HW2 5468   0.612   4.793   4.427
 1188SOL     OW 5469   1.603   4.171   4.461
 1188SOL    HW1 5470   1.529   4.217   4.411
 1188SOL    HW2 5471   1.654   4.239   4.514
 1189SOL     OW 5472   0.606   4.688   3.847
 1189SOL    HW1 5473   0.613   4.772   3.793
 1189SOL    HW2 5474   0.652   4.701   3.935
 1190SOL     OW 5475   1.689   4.646   4.336
 1190SOL    HW1 5476   1.784   4.617   4.344
 1190SOL    HW2 5477   1.681   4.711   4.261
 1191SOL     OW 5478   0.809   3.728   4.226
 1191SOL    HW1 5479   0.849   3.819   4.217
 1191SOL    HW2 5480   0.709   3.736   4.232
 1192SOL     OW 5481   0.197   4.700   4.988
 1192SOL    HW1 5482   0.286   4.655   4.974
 1192SOL    HW2 5483   0.124   4.635   4.969
 1193SOL     OW 5484   1.525   4.723   3.914
 1193SOL    HW1 5485   1.462   4.647   3.927
 1193SOL    HW2 5486   1.573   4.741   4.000
 1194SOL     OW 5487   0.598   4.453   3.994
 1194SOL    HW1 5488   0.622   4.522   3.926
 1194SOL    HW2 5489   0.520   4.486   4.048
 1195SOL     OW 5490   1.281   4.069   4.668
 1195SOL    HW1 5491   1.195   4.019   4.655
 1195SOL    HW2 5492   1.343   4.015   4.724
 1196SOL     OW 5493   0.991   4.134   4.966
 1196SOL    HW1 5494   0.914   4.168   5.020
 1196SOL    HW2 5495   0.957   4.083   4.887
 1197SOL     OW 5496   1.362   4.868   4.269
 1197SOL    HW1 5497   1.445   4.839   4.221
 1197SOL    HW2 5498   1.313   4.935   4.213
 1198SOL     OW 5499   0.550   3.920   4.609
 1198SOL    HW1 5500   0.545   3.915   4.709
 1198SOL    HW2 5501   0.552   4.016   4.580
 1199SOL     OW 5502   1.458   4.459   4.452
 1199SOL    HW1 5503   1.453   4.394   4.527
 1199SOL    HW2 5504   1.538   4.518   4.465
 1200SOL     OW 5505   1.632   5.101   3.805
 1200SOL    HW1 5506   1.600   5.195   3.795
 1200SOL    HW2 5507   1.556   5.038   3.793
 1201SOL     OW 5508   0.614   3.846   3.841
 1201SOL    HW1 5509   0.712   3.824   3.848
 1201SOL    HW2 5510   0.583   3.829   3.748
 1202SOL     OW 5511   0.803   5.126   4.648
 1202SOL    HW1 5512   0.893   5.140   4.606
 1202SOL    HW2 5513   0.732   5.128   4.577
 1203SOL     OW 5514   0.922   4.227   4.623
 1203SOL    HW1 5515   0.897   4.218   4.527
 1203SOL    HW2 5516   0.970   4.145   4.654
 1204SOL     OW 5517   0.539   3.788   4.236
 1204SOL    HW1 5518   0.458   3.789   4.294
 1204SOL    HW2 5519   0.542   3.871   4.181
 1205SOL     OW 5520   1.434   4.912   3.765
 1205SOL    HW1 5521   1.466   4.836   3.822
 1205SOL    HW2 5522   1.342   4.939   3.795
 1206SOL     OW 5523   0.297   3.759   3.895
 1206SOL    HW1 5524   0.346   3.843   3.874
 1206SOL    HW2 5525   0.359   3.694   3.940
 1207SOL     OW 5526   1.227   5.294   4.517
 1207SOL    HW1 5527   1.248   5.368   4.452
 1207SOL    HW2 5528   1.295   5.294   4.590
 1208SOL     OW 5529   1.032   4.273   3.740
 1208SOL    HW1 5530   0.991   4.355   3.701
 1208SOL    HW2 5531   1.096   4.299   3.813
 1209SOL     OW 5532   0.561   3.946   4.871
 1209SOL    HW1 5533   0.599   3.862   4.908
 1209SOL    HW2 5534   0.473   3.965   4.915
 1210SOL     OW 5535   0.866   4.178   4.366
 1210SOL    HW1 5536   0.834   4.250   4.304
 1210SOL    HW2 5537   0.890   4.097   4.313
 1211SOL     OW 5538   1.017   3.763   4.477
 1211SOL    HW1 5539   0.945   3.768   4.408
 1211SOL    HW2 5540   0.993   3.694   4.546
 1212SOL     OW 5541   1.466   4.314   4.716
 1212SOL    HW1 5542   1.436   4.219   4.723
 1212SOL    HW2 5543   1.539   4.330   4.782
 1213SOL     OW 5544   1.857   4.557   4.101
 1213SOL    HW1 5545   1.899   4.493   4.165
 1213SOL    HW2 5546   1.819   4.506   4.023
 1214SOL     OW 5547   0.527   3.980   4.052
 1214SOL    HW1 5548   0.554   3.921   3.977
 1214SOL    HW2 5549   0.527   4.075   4.021
 1215SOL     OW 5550   0.705   4.774   4.092
 1215SOL    HW1 5551   0.691   4.781   4.191
 1215SOL    HW2 5552   0.789   4.723   4.074
 1216SOL     OW 5553   0.410   4.537   4.975
 1216SOL    HW1 5554   0.496   4.549   5.025
 1216SOL    HW2 5555   0.368   4.450   5.002
 1217SOL     OW 5556   1.274   4.110   4.986
 1217SOL    HW1 5557   1.295   4.184   5.050
 1217SOL    HW2 5558   1.185   4.127   4.943
 1218SOL     OW 5559   0.566   4.261   4.589
 1218SOL    HW1 5560   0.578   4.327   4.515
 1218SOL    HW2 5561   0.612   4.295   4.672
 1219SOL     OW 5562   1.582   4.363   4.196
 1219SOL    HW1 5563   1.551   4.424   4.269
 1219SOL    HW2 5564   1.632   4.415   4.127
 1220SOL     OW 5565   0.573   4.594   4.753
 1220SOL    HW1 5566   0.617   4.683   4.744
 1220SOL    HW2 5567   0.510   4.594   4.830
 1221SOL     OW 5568   0.307   3.937   4.955
 1221SOL    HW1 5569   0.284   3.974   5.045
 1221SOL    HW2 5570   0.277   3.842   4.949
 1222SOL     OW 5571   0.037   5.034   5.006
 1222SOL    HW1 5572   0.090   4.985   5.074
 1222SOL    HW2 5573   0.059   5.132   5.011
 1223SOL     OW 5574   0.732   4.358   4.788
 1223SOL    HW1 5575   0.791   4.332   4.712
 1223SOL    HW2 5576   0.704   4.454   4.777
 1224SOL     OW 5577   0.307   3.787   4.342
 1224SOL    HW1 5578   0.296   3.881   4.375
 1224SOL    HW2 5579   0.302   3.724   4.419
 1225SOL     OW 5580   1.622   4.091   4.098
 1225SOL    HW1 5581   1.624   4.015   4.162
 1225SOL    HW2 5582   1.574   4.168   4.138
 1226SOL     OW 5583   1.023   4.490   4.690
 1226SOL    HW1 5584   1.038   4.511   4.786
 1226SOL    HW2 5585   0.993   4.395   4.681
 1227SOL     OW 5586   0.319   4.534   4.673
 1227SOL    HW1 5587   0.412   4.570   4.678
 1227SOL    HW2 5588   0.313   4.449   4.725
 1228SOL     OW 5589   0.339   4.233   4.730
 1228SOL    HW1 5590   0.287   4.150   4.713
 1228SOL    HW2 5591   0.416   4.238   4.666
 1229SOL     OW 5592   1.160   3.931   5.201
 1229SOL    HW1 5593   1.160   3.995   5.278
 1229SOL    HW2 5594   1.188   3.979   5.118
 1230SOL     OW 5595   0.008   5.050   3.924
 1230SOL    HW1 5596  -0.085   5.071   3.893
 1230SOL    HW2 5597   0.018   4.951   3.937
 1231SOL     OW 5598   1.002   4.520   4.962
 1231SOL    HW1 5599   1.043   4.488   5.048
 1231SOL    HW2 5600   0.906   4.493   4.959
 1232SOL     OW 5601   0.040   4.268   4.838
 1232SOL    HW1 5602   0.125   4.235   4.797
 1232SOL    HW2 5603   0.053   4.283   4.936
 1233SOL     OW 5604   0.815   4.296   4.049
 1233SOL    HW1 5605   0.822   4.207   4.003
 1233SOL    HW2 5606   0.721   4.330   4.041
 1234SOL     OW 5607   0.671   4.188   4.993
 1234SOL    HW1 5608   0.637   4.099   4.963
 1234SOL    HW2 5609   0.697   4.242   4.913
 1235SOL     OW 5610   0.473   4.224   3.915
 1235SOL    HW1 5611   0.534   4.304   3.919
 1235SOL    HW2 5612   0.378   4.255   3.922
 1236SOL     OW 5613   1.347   4.783   4.958
 1236SOL    HW1 5614   1.371   4.720   4.884
 1236SOL    HW2 5615   1.257   4.823   4.940
 1237SOL     OW 5616   0.083   4.982   4.746
 1237SOL    HW1 5617   0.078   4.981   4.846
 1237SOL    HW2 5618   0.000   4.941   4.708
 1238SOL     OW 5619   1.726   3.859   4.247
 1238SOL    HW1 5620   1.799   3.842   4.180
 1238SOL    HW2 5621   1.695   3.772   4.285
 1239SOL     OW 5622   1.280   4.651   4.396
 1239SOL    HW1 5623   1.340   4.570   4.398
 1239SOL    HW2 5624   1.320   4.720   4.336
 1240SOL     OW 5625   0.830   4.997   5.146
 1240SOL    HW1 5626   0.825   5.030   5.241
 1240SOL    HW2 5627   0.744   5.016   5.100
 1241SOL     OW 5628   1.841   3.899   4.687
 1241SOL    HW1 5629   1.880   3.814   4.651
 1241SOL    HW2 5630   1.743   3.901   4.668
 1242SOL     OW 5631   0.263   4.050   4.444
 1242SOL    HW1 5632   0.184   4.101   4.410
 1242SOL    HW2 5633   0.254   4.035   4.542
 1243SOL     OW 5634   1.194   5.336   3.755
 1243SOL    HW1 5635   1.200   5.243   3.792
 1243SOL    HW2 5636   1.135   5.336   3.675
 1244SOL     OW 5637   0.822   4.726   5.096
 1244SOL    HW1 5638   0.862   4.725   5.004
 1244SOL    HW2 5639   0.832   4.818   5.136
 1245SOL     OW 5640   0.916   4.634   4.015
 1245SOL    HW1 5641   0.979   4.672   3.947
 1245SOL    HW2 5642   0.956   4.551   4.054
 1246SOL     OW 5643   1.039   4.822   4.420
 1246SOL    HW1 5644   0.969   4.775   4.474
 1246SOL    HW2 5645   1.098   4.754   4.377
 1247SOL     OW 5646   1.014   3.960   4.695
 1247SOL    HW1 5647   1.006   3.924   4.602
 1247SOL    HW2 5648   1.012   3.884   4.760
 1248SOL     OW 5649   1.709   4.109   5.105
 1248SOL    HW1 5650   1.782   4.178   5.109
 1248SOL    HW2 5651   1.737   4.034   5.046
 1249SOL     OW 5652   0.075   4.069   3.757
 1249SOL    HW1 5653  -0.017   4.041   3.728
 1249SOL    HW2 5654   0.106   4.146   3.701
 1250SOL     OW 5655   0.072   3.890   4.042
 1250SOL    HW1 5656   0.055   3.973   3.988
 1250SOL    HW2 5657   0.162   3.853   4.020
 1251SOL     OW 5658   1.450   4.944   5.357
 1251SOL    HW1 5659   1.441   4.934   5.456
 1251SOL    HW2 5660   1.546   4.937   5.331
 1252SOL     OW 5661   0.594   4.469   4.376
 1252SOL    HW1 5662   0.644   4.554   4.357
 1252SOL    HW2 5663   0.506   4.471   4.328
 1253SOL     OW 5664   0.859   4.680   4.585
 1253SOL    HW1 5665   0.913   4.611   4.633
 1253SOL    HW2 5666   0.827   4.749   4.651
 1254SOL     OW 5667   1.083   4.708   3.811
 1254SOL    HW1 5668   1.060   4.761   3.729
 1254SOL    HW2 5669   1.164   4.652   3.792
 1255SOL     OW 5670   1.824   3.916   4.951
 1255SOL    HW1 5671   1.820   3.826   4.995
 1255SOL    HW2 5672   1.827   3.905   4.852
 1256SOL     OW 5673   0.428   4.148   4.244
 1256SOL    HW1 5674   0.458   4.076   4.182
 1256SOL    HW2 5675   0.389   4.108   4.327
 1257SOL     OW 5676   1.424   3.938   4.836
 1257SOL    HW1 5677   1.476   3.873   4.891
 1257SOL    HW2 5678   1.375   4.001   4.897
 1258SOL     OW 5679   1.001   3.758   4.878
 1258SOL    HW1 5680   0.938   3.686   4.847
 1258SOL    HW2 5681   1.094   3.722   4.878
 1259SOL     OW 5682   0.770   5.054   4.025
 1259SOL    HW1 5683   0.724   4.967   4.042
 1259SOL    HW2 5684   0.861   5.051   4.066
 1260SOL     OW 5685   1.300   4.177   4.415
 1260SOL    HW1 5686   1.241   4.257   4.419
 1260SOL    HW2 5687   1.315   4.142   4.508
 1261SOL     OW 5688   1.593   3.945   4.606
 1261SOL    HW1 5689   1.509   3.944   4.660
 1261SOL    HW2 5690   1.595   4.028   4.550
 1262SOL     OW 5691   2.092   0.628   0.113
 1262SOL    HW1 5692   1.999   0.626   0.150
 1262SOL    HW2 5693   2.093   0.589   0.021
 1263SOL     OW 5694   1.881   0.368   0.647
 1263SOL    HW1 5695   1.799   0.411   0.686
 1263SOL    HW2 5696   1.853   0.295   0.584
 1264SOL     OW 5697   2.431   1.275   1.165
 1264SOL    HW1 5698   2.338   1.268   1.128
 1264SOL    HW2 5699   2.442   1.364   1.209
 1265SOL     OW 5700   3.417   1.511   0.703
 1265SOL    HW1 5701   3.360   1.495   0.784
 1265SOL    HW2 5702   3.358   1.521   0.623
 1266SOL     OW 5703   2.997   0.703   0.717
 1266SOL    HW1 5704   3.054   0.781   0.692
 1266SOL    HW2 5705   2.937   0.729   0.793
 1267SOL     OW 5706   3.617   0.607   0.231
 1267SOL    HW1 5707   3.605   0.594   0.132
 1267SOL    HW2 5708   3.587   0.526   0.280
 1268SOL     OW 5709   2.630   1.144   1.023
 1268SOL    HW1 5710   2.552   1.161   1.083
 1268SOL    HW2 5711   2.664   1.231   0.987
 1269SOL     OW 5712   2.712   0.798   1.823
 1269SOL    HW1 5713   2.708   0.874   1.888
 1269SOL    HW2 5714   2.734   0.834   1.732
 1270SOL     OW 5715   2.547   1.012   0.665
 1270SOL    HW1 5716   2.616   0.996   0.735
 1270SOL    HW2 5717   2.474   1.069   0.703
 1271SOL     OW 5718   2.197   1.435   1.061
 1271SOL    HW1 5719   2.119   1.404   1.008
 1271SOL    HW2 5720   2.255   1.493   1.004
 1272SOL     OW 5721   3.322   1.505   1.339
 1272SOL    HW1 5722   3.346   1.599   1.365
 1272SOL    HW2 5723   3.306   1.451   1.421
 1273SOL     OW 5724   2.300   0.392   1.499
 1273SOL    HW1 5725   2.382   0.336   1.508
 1273SOL    HW2 5726   2.219   0.334   1.503
 1274SOL     OW 5727   3.465   0.447   0.737
 1274SOL    HW1 5728   3.391   0.493   0.687
 1274SOL    HW2 5729   3.516   0.515   0.790
 1275SOL     OW 5730   2.093   1.713   0.483
 1275SOL    HW1 5731   2.127   1.790   0.537
 1275SOL    HW2 5732   2.137   1.713   0.393
 1276SOL     OW 5733   2.989   1.341   1.690
 1276SOL    HW1 5734   3.036   1.341   1.778
 1276SOL    HW2 5735   2.941   1.254   1.679
 1277SOL     OW 5736   2.102   1.091   0.886
 1277SOL    HW1 5737   2.116   1.007   0.938
 1277SOL    HW2 5738   2.047   1.155   0.941
 1278SOL     OW 5739   2.468   0.964   0.123
 1278SOL    HW1 5740   2.475   1.048   0.069
 1278SOL    HW2 5741   2.514   0.977   0.211
 1279SOL     OW 5742   1.984   0.643   0.563
 1279SOL    HW1 5743   1.939   0.555   0.580
 1279SOL    HW2 5744   1.983   0.697   0.647
 1280SOL     OW 5745   3.704   1.767   0.359
 1280SOL    HW1 5746   3.758   1.738   0.439
 1280SOL    HW2 5747   3.734   1.857   0.330
 1281SOL     OW 5748   1.889   1.596   0.117
 1281SOL    HW1 5749   1.870   1.500   0.138
 1281SOL    HW2 5750   1.856   1.654   0.192
 1282SOL     OW 5751   3.551   0.922   0.612
 1282SOL    HW1 5752   3.646   0.893   0.620
 1282SOL    HW2 5753   3.543   0.987   0.537
 1283SOL     OW 5754   3.503   1.108   0.432
 1283SOL    HW1 5755   3.589   1.110   0.380
 1283SOL    HW2 5756   3.517   1.155   0.520
 1284SOL     OW 5757   2.475   1.365   0.726
 1284SOL    HW1 5758   2.426   1.278   0.735
 1284SOL    HW2 5759   2.452   1.408   0.639
 1285SOL     OW 5760   3.155   1.228   1.423
 1285SOL    HW1 5761   3.192   1.155   1.365
 1285SOL    HW2 5762   3.207   1.233   1.508
 1286SOL     OW 5763   2.671   0.004   0.502
 1286SOL    HW1 5764   2.711   0.095   0.493
 1286SOL    HW2 5765   2.571   0.012   0.508
 1287SOL     OW 5766   2.059   0.976   1.264
 1287SOL    HW1 5767   2.148   0.931   1.250
 1287SOL    HW2 5768   1.986   0.911   1.245
 1288SOL     OW 5769   3.387   0.999   0.190
 1288SOL    HW1 5770   3.324   0.923   0.203
 1288SOL    HW2 5771   3.435   1.017   0.276
 1289SOL     OW 5772   2.179   0.251   1.801
 1289SOL    HW1 5773   2.250   0.322   1.807
 1289SOL    HW2 5774   2.091   0.290   1.829
 1290SOL     OW 5775   3.328   1.417   0.953
 1290SOL    HW1 5776   3.269   1.423   1.033
 1290SOL    HW2 5777   3.313   1.329   0.907
 1291SOL     OW 5778   3.529   1.714   0.572
 1291SOL    HW1 5779   3.488   1.691   0.484
 1291SOL    HW2 5780   3.511   1.640   0.637
 1292SOL     OW 5781   2.460   0.729   0.270
 1292SOL    HW1 5782   2.484   0.798   0.202
 1292SOL    HW2 5783   2.382   0.762   0.324
 1293SOL     OW 5784   3.143   0.345   0.944
 1293SOL    HW1 5785   3.057   0.295   0.931
 1293SOL    HW2 5786   3.205   0.291   1.000
 1294SOL     OW 5787   3.438   1.662   0.307
 1294SOL    HW1 5788   3.527   1.708   0.310
 1294SOL    HW2 5789   3.417   1.638   0.212
 1295SOL     OW 5790   2.669   0.605   1.465
 1295SOL    HW1 5791   2.622   0.602   1.554
 1295SOL    HW2 5792   2.618   0.550   1.399
 1296SOL     OW 5793   2.835   0.890   1.572
 1296SOL    HW1 5794   2.881   0.806   1.543
 1296SOL    HW2 5795   2.779   0.924   1.497
 1297SOL     OW 5796   2.853   0.410   1.242
 1297SOL    HW1 5797   2.776   0.444   1.296
 1297SOL    HW2 5798   2.819   0.359   1.163
 1298SOL     OW 5799   2.903   0.701   0.429
 1298SOL    HW1 5800   2.929   0.697   0.525
 1298SOL    HW2 5801   2.818   0.650   0.415
 1299SOL     OW 5802   1.938   0.811   0.789
 1299SOL    HW1 5803   2.037   0.799   0.798
 1299SOL    HW2 5804   1.914   0.906   0.810
 1300SOL     OW 5805   1.992   1.821   1.571
 1300SOL    HW1 5806   1.982   1.806   1.670
 1300SOL    HW2 5807   1.906   1.857   1.535
 1301SOL     OW 5808   3.581   0.585   1.831
 1301SOL    HW1 5809   3.555   0.674   1.795
 1301SOL    HW2 5810   3.579   0.517   1.758
 1302SOL     OW 5811   3.224   1.144   0.545
 1302SOL    HW1 5812   3.307   1.115   0.497
 1302SOL    HW2 5813   3.175   1.211   0.489
 1303SOL     OW 5814   2.870   1.456   0.477
 1303SOL    HW1 5815   2.824   1.528   0.425
 1303SOL    HW2 5816   2.866   1.476   0.575
 1304SOL     OW 5817   3.657   1.066   0.873
 1304SOL    HW1 5818   3.595   1.051   0.797
 1304SOL    HW2 5819   3.605   1.077   0.958
 1305SOL     OW 5820   3.089   1.550   1.506
 1305SOL    HW1 5821   3.095   1.473   1.570
 1305SOL    HW2 5822   3.037   1.524   1.426
 1306SOL     OW 5823   2.183   0.943   0.242
 1306SOL    HW1 5824   2.265   0.982   0.200
 1306SOL    HW2 5825   2.156   0.861   0.193
 1307SOL     OW 5826   3.320   0.735   0.728
 1307SOL    HW1 5827   3.315   0.670   0.803
 1307SOL    HW2 5828   3.400   0.794   0.741
 1308SOL     OW 5829   2.973   1.776   0.237
 1308SOL    HW1 5830   2.913   1.714   0.287
 1308SOL    HW2 5831   3.004   1.732   0.152
 1309SOL     OW 5832   2.064   0.285   1.498
 1309SOL    HW1 5833   1.984   0.345   1.485
 1309SOL    HW2 5834   2.054   0.236   1.584
 1310SOL     OW 5835   3.494   1.377   0.081
 1310SOL    HW1 5836   3.462   1.471   0.071
 1310SOL    HW2 5837   3.418   1.314   0.069
 1311SOL     OW 5838   2.326   1.743   0.323
 1311SOL    HW1 5839   2.359   1.782   0.409
 1311SOL    HW2 5840   2.402   1.736   0.258
 1312SOL     OW 5841   3.262   0.107   0.426
 1312SOL    HW1 5842   3.238   0.070   0.336
 1312SOL    HW2 5843   3.361   0.123   0.430
 1313SOL     OW 5844   2.111   1.785   1.241
 1313SOL    HW1 5845   2.168   1.720   1.291
 1313SOL    HW2 5846   2.095   1.752   1.148
 1314SOL     OW 5847   2.244   0.700   0.480
 1314SOL    HW1 5848   2.289   0.610   0.477
 1314SOL    HW2 5849   2.150   0.689   0.513
 1315SOL     OW 5850   3.213   0.590   1.433
 1315SOL    HW1 5851   3.241   0.547   1.518
 1315SOL    HW2 5852   3.238   0.686   1.434
 1316SOL     OW 5853   2.665   1.402   0.924
 1316SOL    HW1 5854   2.755   1.416   0.882
 1316SOL    HW2 5855   2.594   1.404   0.853
 1317SOL     OW 5856   2.401   0.064   0.512
 1317SOL    HW1 5857   2.320   0.065   0.570
 1317SOL    HW2 5858   2.404   0.147   0.457
 1318SOL     OW 5859   3.296   1.188   0.041
 1318SOL    HW1 5860   3.328   1.112   0.098
 1318SOL    HW2 5861   3.204   1.215   0.071
 1319SOL     OW 5862   2.159   0.035   0.171
 1319SOL    HW1 5863   2.208   0.119   0.150
 1319SOL    HW2 5864   2.221  -0.030   0.216
 1320SOL     OW 5865   2.938   0.683   1.464
 1320SOL    HW1 5866   2.858   0.622   1.467
 1320SOL    HW2 5867   3.019   0.630   1.440
 1321SOL     OW 5868   3.089   1.570   0.793
 1321SOL    HW1 5869   3.110   1.644   0.728
 1321SOL    HW2 5870   3.157   1.570   0.866
 1322SOL     OW 5871   2.321   1.152   0.741
 1322SOL    HW1 5872   2.250   1.125   0.806
 1322SOL    HW2 5873   2.295   1.124   0.648
 1323SOL     OW 5874   3.133   1.797   0.591
 1323SOL    HW1 5875   3.177   1.861   0.527
 1323SOL    HW2 5876   3.083   1.849   0.661
 1324SOL     OW 5877   2.894   0.549   0.016
 1324SOL    HW1 5878   2.853   0.631  -0.023
 1324SOL    HW2 5879   2.958   0.575   0.089
 1325SOL     OW 5880   1.940   0.556   1.386
 1325SOL    HW1 5881   2.032   0.555   1.345
 1325SOL    HW2 5882   1.934   0.630   1.453
 1326SOL     OW 5883   2.879   0.039   0.753
 1326SOL    HW1 5884   2.807   0.044   0.684
 1326SOL    HW2 5885   2.855  -0.030   0.822
 1327SOL     OW 5886   3.291   1.173   0.867
 1327SOL    HW1 5887   3.236   1.089   0.860
 1327SOL    HW2 5888   3.317   1.202   0.775
 1328SOL     OW 5889   3.328   0.590   0.992
 1328SOL    HW1 5890   3.298   0.495   0.999
 1328SOL    HW2 5891   3.401   0.606   1.058
 1329SOL     OW 5892   3.719   0.833   0.377
 1329SOL    HW1 5893   3.761   0.769   0.441
 1329SOL    HW2 5894   3.681   0.782   0.299
 1330SOL     OW 5895   3.526   1.280   0.657
 1330SOL    HW1 5896   3.625   1.288   0.671
 1330SOL    HW2 5897   3.481   1.364   0.688
 1331SOL     OW 5898   3.252   0.575   0.078
 1331SOL    HW1 5899   3.198   0.554   0.159
 1331SOL    HW2 5900   3.343   0.534   0.087
 1332SOL     OW 5901   3.616   1.223   1.588
 1332SOL    HW1 5902   3.707   1.184   1.575
 1332SOL    HW2 5903   3.624   1.319   1.612
 1333SOL     OW 5904   3.454   1.629   1.625
 1333SOL    HW1 5905   3.481   1.663   1.535
 1333SOL    HW2 5906   3.533   1.591   1.671
 1334SOL     OW 5907   2.973   1.195   1.100
 1334SOL    HW1 5908   2.933   1.239   1.181
 1334SOL    HW2 5909   2.932   1.232   1.017
 1335SOL     OW 5910   3.500   1.099   1.079
 1335SOL    HW1 5911   3.505   1.180   1.138
 1335SOL    HW2 5912   3.414   1.101   1.028
 1336SOL     OW 5913   2.777   0.089   1.402
 1336SOL    HW1 5914   2.802   0.069   1.307
 1336SOL    HW2 5915   2.849   0.145   1.444
 1337SOL     OW 5916   2.842   1.116   1.719
 1337SOL    HW1 5917   2.743   1.122   1.729
 1337SOL    HW2 5918   2.865   1.036   1.663
 1338SOL     OW 5919   2.567   1.050   0.368
 1338SOL    HW1 5920   2.553   1.057   0.467
 1338SOL    HW2 5921   2.651   0.999   0.350
 1339SOL     OW 5922   3.136   0.386   1.262
 1339SOL    HW1 5923   3.157   0.460   1.326
 1339SOL    HW2 5924   3.047   0.403   1.219
 1340SOL     OW 5925   2.229   1.100   0.501
 1340SOL    HW1 5926   2.222   1.183   0.445
 1340SOL    HW2 5927   2.233   1.020   0.441
 1341SOL     OW 5928   3.114   1.348   0.388
 1341SOL    HW1 5929   3.164   1.425   0.428
 1341SOL    HW2 5930   3.019   1.350   0.420
 1342SOL     OW 5931   3.134   1.445   1.142
 1342SOL    HW1 5932   3.181   1.458   1.229
 1342SOL    HW2 5933   3.068   1.371   1.151
 1343SOL     OW 5934   3.444   0.639   0.472
 1343SOL    HW1 5935   3.413   0.700   0.545
 1343SOL    HW2 5936   3.494   0.691   0.403
 1344SOL     OW 5937   2.216   1.510   1.329
 1344SOL    HW1 5938   2.195   1.466   1.242
 1344SOL    HW2 5939   2.313   1.536   1.332
 1345SOL     OW 5940   3.449   0.779   1.670
 1345SOL    HW1 5941   3.357   0.817   1.665
 1345SOL    HW2 5942   3.509   0.826   1.605
 1346SOL     OW 5943   2.366   0.050   1.740
 1346SOL    HW1 5944   2.324  -0.007   1.670
 1346SOL    HW2 5945   2.300   0.119   1.772
 1347SOL     OW 5946   2.435   0.870   1.029
 1347SOL    HW1 5947   2.479   0.959   1.020
 1347SOL    HW2 5948   2.372   0.870   1.106
 1348SOL     OW 5949   3.222   0.862   1.045
 1348SOL    HW1 5950   3.147   0.862   0.979
 1348SOL    HW2 5951   3.259   0.770   1.054
 1349SOL     OW 5952   3.071   0.525   0.275
 1349SOL    HW1 5953   3.084   0.441   0.329
 1349SOL    HW2 5954   3.042   0.599   0.335
 1350SOL     OW 5955   3.590   0.935   1.854
 1350SOL    HW1 5956   3.544   0.928   1.765
 1350SOL    HW2 5957   3.528   0.979   1.920
 1351SOL     OW 5958   3.484   0.367   0.374
 1351SOL    HW1 5959   3.486   0.291   0.438
 1351SOL    HW2 5960   3.436   0.444   0.414
 1352SOL     OW 5961   2.885   0.766   0.966
 1352SOL    HW1 5962   2.900   0.787   1.062
 1352SOL    HW2 5963   2.855   0.671   0.957
 1353SOL     OW 5964   3.721   1.518   1.605
 1353SOL    HW1 5965   3.735   1.545   1.510
 1353SOL    HW2 5966   3.804   1.540   1.658
 1354SOL     OW 5967   3.402   0.274   0.125
 1354SOL    HW1 5968   3.341   0.199   0.148
 1354SOL    HW2 5969   3.424   0.326   0.208
 1355SOL     OW 5970   2.930   1.333   0.849
 1355SOL    HW1 5971   2.937   1.249   0.794
 1355SOL    HW2 5972   2.992   1.402   0.813
 1356SOL     OW 5973   2.181   0.810   0.949
 1356SOL    HW1 5974   2.274   0.846   0.954
 1356SOL    HW2 5975   2.175   0.725   1.001
 1357SOL     OW 5976   3.022   0.207   1.477
 1357SOL    HW1 5977   3.022   0.271   1.554
 1357SOL    HW2 5978   3.050   0.255   1.394
 1358SOL     OW 5979   2.366   1.568   0.910
 1358SOL    HW1 5980   2.432   1.642   0.919
 1358SOL    HW2 5981   2.410   1.489   0.868
 1359SOL     OW 5982   2.864   0.796   1.238
 1359SOL    HW1 5983   2.905   0.764   1.324
 1359SOL    HW2 5984   2.768   0.769   1.235
 1360SOL     OW 5985   1.902   0.544   1.114
 1360SOL    HW1 5986   1.987   0.511   1.073
 1360SOL    HW2 5987   1.915   0.559   1.212
 1361SOL     OW 5988   3.231   0.950   1.660
 1361SOL    HW1 5989   3.270   1.039   1.680
 1361SOL    HW2 5990   3.241   0.930   1.563
 1362SOL     OW 5991   3.519   0.604   1.206
 1362SOL    HW1 5992   3.481   0.535   1.268
 1362SOL    HW2 5993   3.601   0.568   1.162
 1363SOL     OW 5994   2.114   1.564   1.744
 1363SOL    HW1 5995   2.084   1.621   1.820
 1363SOL    HW2 5996   2.107   1.467   1.770
 1364SOL     OW 5997   3.209   1.059   1.234
 1364SOL    HW1 5998   3.233   0.996   1.160
 1364SOL    HW2 5999   3.119   1.099   1.216
 1365SOL     OW 6000   3.164   0.855   0.309
 1365SOL    HW1 6001   3.078   0.824   0.351
 1365SOL    HW2 6002   3.160   0.841   0.210
 1366SOL     OW 6003   3.621   1.747   1.154
 1366SOL    HW1 6004   3.682   1.777   1.081
 1366SOL    HW2 6005   3.583   1.658   1.132
 1367SOL     OW 6006   1.945   1.258   1.022
 1367SOL    HW1 6007   1.940   1.257   1.122
 1367SOL    HW2 6008   1.862   1.217   0.984
 1368SOL     OW 6009   3.588   0.135   0.523
 1368SOL    HW1 6010   3.661   0.118   0.456
 1368SOL    HW2 6011   3.557   0.048   0.561
 1369SOL     OW 6012   3.250   1.573   0.477
 1369SOL    HW1 6013   3.317   1.585   0.403
 1369SOL    HW2 6014   3.210   1.662   0.500
 1370SOL     OW 6015   1.992   1.794   1.851
 1370SOL    HW1 6016   1.951   1.720   1.904
 1370SOL    HW2 6017   2.056   1.845   1.909
 1371SOL     OW 6018   3.142   0.927   0.672
 1371SOL    HW1 6019   3.202   0.846   0.674
 1371SOL    HW2 6020   3.182   0.996   0.612
 1372SOL     OW 6021   2.692   1.273   1.422
 1372SOL    HW1 6022   2.687   1.306   1.517
 1372SOL    HW2 6023   2.606   1.292   1.376
 1373SOL     OW 6024   2.534   1.616   0.154
 1373SOL    HW1 6025   2.543   1.626   0.055
 1373SOL    HW2 6026   2.494   1.527   0.175
 1374SOL     OW 6027   3.512   1.720   1.394
 1374SOL    HW1 6028   3.565   1.730   1.310
 1374SOL    HW2 6029   3.485   1.810   1.428
 1375SOL     OW 6030   3.703   0.175   0.963
 1375SOL    HW1 6031   3.742   0.090   0.927
 1375SOL    HW2 6032   3.605   0.177   0.944
 1376SOL     OW 6033   2.125   0.326   0.720
 1376SOL    HW1 6034   2.046   0.377   0.686
 1376SOL    HW2 6035   2.116   0.311   0.818
 1377SOL     OW 6036   3.056   1.612   0.031
 1377SOL    HW1 6037   3.062   1.519   0.068
 1377SOL    HW2 6038   2.997   1.612  -0.049
 1378SOL     OW 6039   2.684   1.002   1.372
 1378SOL    HW1 6040   2.724   1.001   1.280
 1378SOL    HW2 6041   2.694   1.094   1.412
 1379SOL     OW 6042   2.778   0.910   0.291
 1379SOL    HW1 6043   2.841   0.948   0.223
 1379SOL    HW2 6044   2.818   0.827   0.330
 1380SOL     OW 6045   3.366   1.607   0.044
 1380SOL    HW1 6046   3.274   1.644   0.051
 1380SOL    HW2 6047   3.404   1.627  -0.046
 1381SOL     OW 6048   3.476   1.292   1.289
 1381SOL    HW1 6049   3.536   1.295   1.369
 1381SOL    HW2 6050   3.401   1.356   1.302
 1382SOL     OW 6051   2.901   1.098   0.696
 1382SOL    HW1 6052   2.831   1.051   0.750
 1382SOL    HW2 6053   2.960   1.030   0.653
 1383SOL     OW 6054   2.876   0.236   0.971
 1383SOL    HW1 6055   2.868   0.200   0.878
 1383SOL    HW2 6056   2.874   0.160   1.036
 1384SOL     OW 6057   2.452   1.487   0.491
 1384SOL    HW1 6058   2.494   1.429   0.421
 1384SOL    HW2 6059   2.408   1.566   0.447
 1385SOL     OW 6060   3.571   0.385   1.381
 1385SOL    HW1 6061   3.644   0.454   1.385
 1385SOL    HW2 6062   3.599   0.310   1.322
 1386SOL     OW 6063   3.302   0.856   1.398
 1386SOL    HW1 6064   3.245   0.908   1.335
 1386SOL    HW2 6065   3.398   0.868   1.374
 1387SOL     OW 6066   1.934   0.166   0.318
 1387SOL    HW1 6067   1.917   0.249   0.264
 1387SOL    HW2 6068   2.024   0.129   0.296
 1388SOL     OW 6069   3.045   1.335   0.119
 1388SOL    HW1 6070   2.946   1.324   0.121
 1388SOL    HW2 6071   3.079   1.350   0.212
 1389SOL     OW 6072   3.355   1.767   0.959
 1389SOL    HW1 6073   3.388   1.831   0.890
 1389SOL    HW2 6074   3.421   1.761   1.034
 1390SOL     OW 6075   2.578   0.565   1.708
 1390SOL    HW1 6076   2.597   0.630   1.782
 1390SOL    HW2 6077   2.638   0.485   1.717
 1391SOL     OW 6078   3.312   1.220   1.633
 1391SOL    HW1 6079   3.303   1.210   1.732
 1391SOL    HW2 6080   3.408   1.213   1.607
 1392SOL     OW 6081   2.252   1.741   1.560
 1392SOL    HW1 6082   2.161   1.782   1.558
 1392SOL    HW2 6083   2.245   1.647   1.592
 1393SOL     OW 6084   3.536   0.883   1.254
 1393SOL    HW1 6085   3.509   0.794   1.217
 1393SOL    HW2 6086   3.537   0.951   1.181
 1394SOL     OW 6087   3.087   0.325   0.449
 1394SOL    HW1 6088   3.152   0.251   0.438
 1394SOL    HW2 6089   3.107   0.375   0.533
 1395SOL     OW 6090   2.456   0.745   0.652
 1395SOL    HW1 6091   2.506   0.830   0.633
 1395SOL    HW2 6092   2.368   0.747   0.604
 1396SOL     OW 6093   3.592   0.934   1.517
 1396SOL    HW1 6094   3.630   1.025   1.532
 1396SOL    HW2 6095   3.584   0.917   1.418
 1397SOL     OW 6096   2.721   1.374   0.016
 1397SOL    HW1 6097   2.675   1.389   0.104
 1397SOL    HW2 6098   2.765   1.459  -0.014
 1398SOL     OW 6099   2.721   0.956   0.861
 1398SOL    HW1 6100   2.775   0.887   0.909
 1398SOL    HW2 6101   2.689   1.025   0.927
 1399SOL     OW 6102   3.723   1.569   0.851
 1399SOL    HW1 6103   3.652   1.557   0.781
 1399SOL    HW2 6104   3.724   1.490   0.911
 1400SOL     OW 6105   1.941   1.240   0.653
 1400SOL    HW1 6106   1.940   1.193   0.741
 1400SOL    HW2 6107   2.023   1.212   0.602
 1401SOL     OW 6108   2.534   1.391   1.624
 1401SOL    HW1 6109   2.456   1.341   1.662
 1401SOL    HW2 6110   2.531   1.486   1.655
 1402SOL     OW 6111   2.290   0.424   0.520
 1402SOL    HW1 6112   2.320   0.352   0.458
 1402SOL    HW2 6113   2.251   0.384   0.603
 1403SOL     OW 6114   3.567   1.487   1.104
 1403SOL    HW1 6115   3.474   1.462   1.077
 1403SOL    HW2 6116   3.593   1.437   1.186
 1404SOL     OW 6117   2.179   0.547   1.280
 1404SOL    HW1 6118   2.217   0.488   1.352
 1404SOL    HW2 6119   2.219   0.521   1.192
 1405SOL     OW 6120   2.674   1.586   0.687
 1405SOL    HW1 6121   2.706   1.596   0.593
 1405SOL    HW2 6122   2.595   1.524   0.689
 1406SOL     OW 6123   3.286   0.214   1.112
 1406SOL    HW1 6124   3.338   0.149   1.167
 1406SOL    HW2 6125   3.237   0.277   1.173
 1407SOL     OW 6126   2.863   0.034   1.154
 1407SOL    HW1 6127   2.800  -0.038   1.123
 1407SOL    HW2 6128   2.956  -0.002   1.154
 1408SOL     OW 6129   2.632   1.330   0.301
 1408SOL    HW1 6130   2.586   1.243   0.318
 1408SOL    HW2 6131   2.723   1.327   0.342
 1409SOL     OW 6132   3.214   0.052   0.168
 1409SOL    HW1 6133   3.249   0.011   0.084
 1409SOL    HW2 6134   3.124   0.014   0.188
 1410SOL     OW 6135   3.162   0.453   0.691
 1410SOL    HW1 6136   3.103   0.533   0.695
 1410SOL    HW2 6137   3.177   0.418   0.784
 1411SOL     OW 6138   3.455   0.221   0.882
 1411SOL    HW1 6139   3.371   0.220   0.936
 1411SOL    HW2 6140   3.457   0.304   0.826
 1412SOL     OW 6141   2.737   1.646   0.337
 1412SOL    HW1 6142   2.660   1.611   0.283
 1412SOL    HW2 6143   2.705   1.717   0.399
 1413SOL     OW 6144   2.087   0.275   2.858
 1413SOL    HW1 6145   2.122   0.258   2.950
 1413SOL    HW2 6146   1.999   0.230   2.846
 1414SOL     OW 6147   1.881   0.368   2.509
 1414SOL    HW1 6148   1.799   0.411   2.548
 1414SOL    HW2 6149   1.853   0.295   2.446
 1415SOL     OW 6150   2.431   1.275   3.027
 1415SOL    HW1 6151   2.338   1.268   2.990
 1415SOL    HW2 6152   2.442   1.364   3.071
 1416SOL     OW 6153   3.417   1.511   2.565
 1416SOL    HW1 6154   3.360   1.495   2.646
 1416SOL    HW2 6155   3.358   1.521   2.485
 1417SOL     OW 6156   3.617   0.607   2.093
 1417SOL    HW1 6157   3.605   0.594   1.994
 1417SOL    HW2 6158   3.587   0.526   2.142
 1418SOL     OW 6159   2.630   1.144   2.885
 1418SOL    HW1 6160   2.552   1.161   2.945
 1418SOL    HW2 6161   2.664   1.231   2.849
 1419SOL     OW 6162   2.712   0.798   3.685
 1419SOL    HW1 6163   2.708   0.874   3.750
 1419SOL    HW2 6164   2.734   0.834   3.594
 1420SOL     OW 6165   2.547   1.012   2.527
 1420SOL    HW1 6166   2.616   0.996   2.597
 1420SOL    HW2 6167   2.474   1.069   2.565
 1421SOL     OW 6168   2.548   1.161   3.665
 1421SOL    HW1 6169   2.608   1.240   3.679
 1421SOL    HW2 6170   2.462   1.192   3.624
 1422SOL     OW 6171   2.197   1.435   2.923
 1422SOL    HW1 6172   2.119   1.404   2.870
 1422SOL    HW2 6173   2.255   1.493   2.866
 1423SOL     OW 6174   2.300   0.392   3.361
 1423SOL    HW1 6175   2.382   0.336   3.370
 1423SOL    HW2 6176   2.219   0.334   3.365
 1424SOL     OW 6177   3.465   0.447   2.599
 1424SOL    HW1 6178   3.391   0.493   2.549
 1424SOL    HW2 6179   3.516   0.515   2.652
 1425SOL     OW 6180   2.093   1.713   2.345
 1425SOL    HW1 6181   2.127   1.790   2.399
 1425SOL    HW2 6182   2.137   1.713   2.255
 1426SOL     OW 6183   2.989   1.341   3.552
 1426SOL    HW1 6184   3.036   1.341   3.640
 1426SOL    HW2 6185   2.941   1.254   3.541
 1427SOL     OW 6186   2.102   1.091   2.748
 1427SOL    HW1 6187   2.116   1.007   2.800
 1427SOL    HW2 6188   2.047   1.155   2.803
 1428SOL     OW 6189   2.482   1.786   3.301
 1428SOL    HW1 6190   2.390   1.769   3.336
 1428SOL    HW2 6191   2.510   1.878   3.327
 1429SOL     OW 6192   1.984   0.643   2.425
 1429SOL    HW1 6193   1.939   0.555   2.442
 1429SOL    HW2 6194   1.983   0.697   2.509
 1430SOL     OW 6195   1.889   1.596   1.979
 1430SOL    HW1 6196   1.870   1.500   2.000
 1430SOL    HW2 6197   1.856   1.654   2.054
 1431SOL     OW 6198   3.551   0.922   2.474
 1431SOL    HW1 6199   3.646   0.893   2.482
 1431SOL    HW2 6200   3.543   0.987   2.399
 1432SOL     OW 6201   3.503   1.108   2.294
 1432SOL    HW1 6202   3.589   1.110   2.242
 1432SOL    HW2 6203   3.517   1.155   2.382
 1433SOL     OW 6204   1.975   0.737   3.459
 1433SOL    HW1 6205   2.063   0.724   3.504
 1433SOL    HW2 6206   1.962   0.834   3.437
 1434SOL     OW 6207   2.475   1.365   2.588
 1434SOL    HW1 6208   2.426   1.278   2.597
 1434SOL    HW2 6209   2.452   1.408   2.501
 1435SOL     OW 6210   2.671   0.004   2.364
 1435SOL    HW1 6211   2.711   0.095   2.355
 1435SOL    HW2 6212   2.571   0.012   2.370
 1436SOL     OW 6213   2.059   0.976   3.126
 1436SOL    HW1 6214   2.148   0.931   3.112
 1436SOL    HW2 6215   1.986   0.911   3.107
 1437SOL     OW 6216   3.387   0.999   2.052
 1437SOL    HW1 6217   3.324   0.923   2.065
 1437SOL    HW2 6218   3.435   1.017   2.138
 1438SOL     OW 6219   3.049   1.792   3.478
 1438SOL    HW1 6220   3.073   1.852   3.402
 1438SOL    HW2 6221   3.056   1.697   3.448
 1439SOL     OW 6222   2.179   0.251   3.663
 1439SOL    HW1 6223   2.250   0.322   3.669
 1439SOL    HW2 6224   2.091   0.290   3.691
 1440SOL     OW 6225   3.529   1.714   2.434
 1440SOL    HW1 6226   3.488   1.691   2.346
 1440SOL    HW2 6227   3.511   1.640   2.499
 1441SOL     OW 6228   2.460   0.729   2.132
 1441SOL    HW1 6229   2.484   0.798   2.064
 1441SOL    HW2 6230   2.382   0.762   2.186
 1442SOL     OW 6231   3.143   0.345   2.806
 1442SOL    HW1 6232   3.057   0.295   2.793
 1442SOL    HW2 6233   3.205   0.291   2.862
 1443SOL     OW 6234   3.438   1.662   2.169
 1443SOL    HW1 6235   3.527   1.708   2.172
 1443SOL    HW2 6236   3.417   1.638   2.074
 1444SOL     OW 6237   2.669   0.605   3.327
 1444SOL    HW1 6238   2.622   0.602   3.416
 1444SOL    HW2 6239   2.618   0.550   3.261
 1445SOL     OW 6240   2.835   0.890   3.434
 1445SOL    HW1 6241   2.881   0.806   3.405
 1445SOL    HW2 6242   2.779   0.924   3.359
 1446SOL     OW 6243   2.853   0.410   3.104
 1446SOL    HW1 6244   2.776   0.444   3.158
 1446SOL    HW2 6245   2.819   0.359   3.025
 1447SOL     OW 6246   2.903   0.701   2.291
 1447SOL    HW1 6247   2.929   0.697   2.387
 1447SOL    HW2 6248   2.818   0.650   2.277
 1448SOL     OW 6249   1.938   0.811   2.651
 1448SOL    HW1 6250   2.037   0.799   2.660
 1448SOL    HW2 6251   1.914   0.906   2.672
 1449SOL     OW 6252   2.727   0.348   2.057
 1449SOL    HW1 6253   2.786   0.411   2.008
 1449SOL    HW2 6254   2.746   0.254   2.028
 1450SOL     OW 6255   3.581   0.585   3.693
 1450SOL    HW1 6256   3.555   0.674   3.657
 1450SOL    HW2 6257   3.579   0.517   3.620
 1451SOL     OW 6258   3.224   1.144   2.407
 1451SOL    HW1 6259   3.307   1.115   2.359
 1451SOL    HW2 6260   3.175   1.211   2.351
 1452SOL     OW 6261   2.412   0.196   2.747
 1452SOL    HW1 6262   2.407   0.191   2.847
 1452SOL    HW2 6263   2.414   0.292   2.718
 1453SOL     OW 6264   2.870   1.456   2.339
 1453SOL    HW1 6265   2.824   1.528   2.287
 1453SOL    HW2 6266   2.866   1.476   2.437
 1454SOL     OW 6267   2.213   1.801   2.715
 1454SOL    HW1 6268   2.263   1.715   2.721
 1454SOL    HW2 6269   2.278   1.878   2.712
 1455SOL     OW 6270   3.657   1.066   2.735
 1455SOL    HW1 6271   3.595   1.051   2.659
 1455SOL    HW2 6272   3.605   1.077   2.820
 1456SOL     OW 6273   3.089   1.550   3.368
 1456SOL    HW1 6274   3.095   1.473   3.432
 1456SOL    HW2 6275   3.037   1.524   3.288
 1457SOL     OW 6276   2.183   0.943   2.104
 1457SOL    HW1 6277   2.265   0.982   2.062
 1457SOL    HW2 6278   2.156   0.861   2.055
 1458SOL     OW 6279   3.320   0.735   2.590
 1458SOL    HW1 6280   3.315   0.670   2.665
 1458SOL    HW2 6281   3.400   0.794   2.603
 1459SOL     OW 6282   2.323   1.266   3.589
 1459SOL    HW1 6283   2.273   1.267   3.503
 1459SOL    HW2 6284   2.260   1.248   3.665
 1460SOL     OW 6285   2.973   1.776   2.099
 1460SOL    HW1 6286   2.913   1.714   2.149
 1460SOL    HW2 6287   3.004   1.732   2.014
 1461SOL     OW 6288   2.064   0.285   3.360
 1461SOL    HW1 6289   1.984   0.345   3.347
 1461SOL    HW2 6290   2.054   0.236   3.446
 1462SOL     OW 6291   3.494   1.377   1.943
 1462SOL    HW1 6292   3.462   1.471   1.933
 1462SOL    HW2 6293   3.418   1.314   1.931
 1463SOL     OW 6294   2.326   1.743   2.185
 1463SOL    HW1 6295   2.359   1.782   2.271
 1463SOL    HW2 6296   2.402   1.736   2.120
 1464SOL     OW 6297   3.262   0.107   2.288
 1464SOL    HW1 6298   3.238   0.070   2.198
 1464SOL    HW2 6299   3.361   0.123   2.292
 1465SOL     OW 6300   2.111   1.785   3.103
 1465SOL    HW1 6301   2.168   1.720   3.153
 1465SOL    HW2 6302   2.095   1.752   3.010
 1466SOL     OW 6303   2.802   1.698   2.766
 1466SOL    HW1 6304   2.882   1.641   2.787
 1466SOL    HW2 6305   2.753   1.658   2.689
 1467SOL     OW 6306   2.244   0.700   2.342
 1467SOL    HW1 6307   2.289   0.610   2.339
 1467SOL    HW2 6308   2.150   0.689   2.375
 1468SOL     OW 6309   2.476   0.122   1.979
 1468SOL    HW1 6310   2.574   0.100   1.986
 1468SOL    HW2 6311   2.445   0.105   1.886
 1469SOL     OW 6312   2.643   0.264   3.611
 1469SOL    HW1 6313   2.710   0.203   3.654
 1469SOL    HW2 6314   2.570   0.283   3.676
 1470SOL     OW 6315   2.665   1.402   2.786
 1470SOL    HW1 6316   2.755   1.416   2.744
 1470SOL    HW2 6317   2.594   1.404   2.715
 1471SOL     OW 6318   2.784   0.503   2.761
 1471SOL    HW1 6319   2.759   0.494   2.665
 1471SOL    HW2 6320   2.832   0.421   2.792
 1472SOL     OW 6321   2.401   0.064   2.374
 1472SOL    HW1 6322   2.320   0.065   2.432
 1472SOL    HW2 6323   2.404   0.147   2.319
 1473SOL     OW 6324   3.296   1.188   1.903
 1473SOL    HW1 6325   3.328   1.112   1.960
 1473SOL    HW2 6326   3.204   1.215   1.933
 1474SOL     OW 6327   2.159   0.035   2.033
 1474SOL    HW1 6328   2.208   0.119   2.012
 1474SOL    HW2 6329   2.221  -0.030   2.078
 1475SOL     OW 6330   2.797   0.236   2.342
 1475SOL    HW1 6331   2.749   0.277   2.264
 1475SOL    HW2 6332   2.896   0.234   2.323
 1476SOL     OW 6333   2.938   0.683   3.326
 1476SOL    HW1 6334   2.858   0.622   3.329
 1476SOL    HW2 6335   3.019   0.630   3.302
 1477SOL     OW 6336   3.089   1.570   2.655
 1477SOL    HW1 6337   3.110   1.644   2.590
 1477SOL    HW2 6338   3.157   1.570   2.728
 1478SOL     OW 6339   2.321   1.152   2.603
 1478SOL    HW1 6340   2.250   1.125   2.668
 1478SOL    HW2 6341   2.295   1.124   2.510
 1479SOL     OW 6342   3.133   1.797   2.453
 1479SOL    HW1 6343   3.177   1.861   2.389
 1479SOL    HW2 6344   3.083   1.849   2.523
 1480SOL     OW 6345   2.894   0.549   1.878
 1480SOL    HW1 6346   2.853   0.631   1.839
 1480SOL    HW2 6347   2.958   0.575   1.951
 1481SOL     OW 6348   1.940   0.556   3.248
 1481SOL    HW1 6349   2.032   0.555   3.207
 1481SOL    HW2 6350   1.934   0.630   3.315
 1482SOL     OW 6351   2.728   0.454   2.504
 1482SOL    HW1 6352   2.696   0.526   2.442
 1482SOL    HW2 6353   2.752   0.373   2.451
 1483SOL     OW 6354   2.879   0.039   2.615
 1483SOL    HW1 6355   2.807   0.044   2.546
 1483SOL    HW2 6356   2.855  -0.030   2.684
 1484SOL     OW 6357   3.328   0.590   2.854
 1484SOL    HW1 6358   3.298   0.495   2.861
 1484SOL    HW2 6359   3.401   0.606   2.920
 1485SOL     OW 6360   3.719   0.833   2.239
 1485SOL    HW1 6361   3.761   0.769   2.303
 1485SOL    HW2 6362   3.681   0.782   2.161
 1486SOL     OW 6363   2.350   1.385   2.036
 1486SOL    HW1 6364   2.263   1.370   2.083
 1486SOL    HW2 6365   2.333   1.411   1.941
 1487SOL     OW 6366   3.252   0.575   1.940
 1487SOL    HW1 6367   3.198   0.554   2.021
 1487SOL    HW2 6368   3.343   0.534   1.949
 1488SOL     OW 6369   2.389   0.256   2.190
 1488SOL    HW1 6370   2.416   0.197   2.115
 1488SOL    HW2 6371   2.389   0.351   2.159
 1489SOL     OW 6372   2.926   1.347   3.202
 1489SOL    HW1 6373   2.846   1.324   3.257
 1489SOL    HW2 6374   3.009   1.321   3.251
 1490SOL     OW 6375   3.454   1.629   3.487
 1490SOL    HW1 6376   3.481   1.663   3.397
 1490SOL    HW2 6377   3.533   1.591   3.533
 1491SOL     OW 6378   3.500   1.099   2.941
 1491SOL    HW1 6379   3.505   1.180   3.000
 1491SOL    HW2 6380   3.414   1.101   2.890
 1492SOL     OW 6381   2.777   0.089   3.264
 1492SOL    HW1 6382   2.802   0.069   3.169
 1492SOL    HW2 6383   2.849   0.145   3.306
 1493SOL     OW 6384   2.842   1.116   3.581
 1493SOL    HW1 6385   2.743   1.122   3.591
 1493SOL    HW2 6386   2.865   1.036   3.525
 1494SOL     OW 6387   2.567   1.050   2.230
 1494SOL    HW1 6388   2.553   1.057   2.329
 1494SOL    HW2 6389   2.651   0.999   2.212
 1495SOL     OW 6390   2.272   0.813   3.113
 1495SOL    HW1 6391   2.358   0.825   3.163
 1495SOL    HW2 6392   2.230   0.726   3.140
 1496SOL     OW 6393   3.136   0.386   3.124
 1496SOL    HW1 6394   3.157   0.460   3.188
 1496SOL    HW2 6395   3.047   0.403   3.081
 1497SOL     OW 6396   1.926   1.564   3.193
 1497SOL    HW1 6397   1.880   1.646   3.159
 1497SOL    HW2 6398   2.024   1.583   3.202
 1498SOL     OW 6399   2.229   1.100   2.363
 1498SOL    HW1 6400   2.222   1.183   2.307
 1498SOL    HW2 6401   2.233   1.020   2.303
 1499SOL     OW 6402   2.428   0.537   2.727
 1499SOL    HW1 6403   2.440   0.603   2.653
 1499SOL    HW2 6404   2.474   0.571   2.810
 1500SOL     OW 6405   3.114   1.348   2.250
 1500SOL    HW1 6406   3.164   1.425   2.290
 1500SOL    HW2 6407   3.019   1.350   2.282
 1501SOL     OW 6408   3.444   0.639   2.334
 1501SOL    HW1 6409   3.413   0.700   2.407
 1501SOL    HW2 6410   3.494   0.691   2.265
 1502SOL     OW 6411   2.216   1.510   3.191
 1502SOL    HW1 6412   2.195   1.466   3.104
 1502SOL    HW2 6413   2.313   1.536   3.194
 1503SOL     OW 6414   2.264   0.751   3.460
 1503SOL    HW1 6415   2.332   0.806   3.413
 1503SOL    HW2 6416   2.304   0.663   3.487
 1504SOL     OW 6417   3.449   0.779   3.532
 1504SOL    HW1 6418   3.357   0.817   3.527
 1504SOL    HW2 6419   3.509   0.826   3.467
 1505SOL     OW 6420   2.875   0.105   3.632
 1505SOL    HW1 6421   2.881   0.190   3.580
 1505SOL    HW2 6422   2.907   0.029   3.575
 1506SOL     OW 6423   2.366   0.050   3.602
 1506SOL    HW1 6424   2.324  -0.007   3.532
 1506SOL    HW2 6425   2.300   0.119   3.634
 1507SOL     OW 6426   2.435   0.870   2.891
 1507SOL    HW1 6427   2.479   0.959   2.882
 1507SOL    HW2 6428   2.372   0.870   2.968
 1508SOL     OW 6429   3.071   0.525   2.137
 1508SOL    HW1 6430   3.084   0.441   2.191
 1508SOL    HW2 6431   3.042   0.599   2.197
 1509SOL     OW 6432   2.169   0.213   3.093
 1509SOL    HW1 6433   2.146   0.250   3.183
 1509SOL    HW2 6434   2.139   0.118   3.087
 1510SOL     OW 6435   1.899   1.310   3.144
 1510SOL    HW1 6436   1.952   1.261   3.212
 1510SOL    HW2 6437   1.921   1.408   3.149
 1511SOL     OW 6438   2.594   0.634   2.926
 1511SOL    HW1 6439   2.653   0.608   2.850
 1511SOL    HW2 6440   2.566   0.730   2.915
 1512SOL     OW 6441   3.590   0.935   3.716
 1512SOL    HW1 6442   3.544   0.928   3.627
 1512SOL    HW2 6443   3.528   0.979   3.782
 1513SOL     OW 6444   2.169   0.063   2.480
 1513SOL    HW1 6445   2.158   0.157   2.513
 1513SOL    HW2 6446   2.164   0.000   2.557
 1514SOL     OW 6447   3.484   0.367   2.236
 1514SOL    HW1 6448   3.486   0.291   2.300
 1514SOL    HW2 6449   3.436   0.444   2.276
 1515SOL     OW 6450   2.885   0.766   2.828
 1515SOL    HW1 6451   2.900   0.787   2.924
 1515SOL    HW2 6452   2.855   0.671   2.819
 1516SOL     OW 6453   2.842   1.573   3.562
 1516SOL    HW1 6454   2.822   1.617   3.474
 1516SOL    HW2 6455   2.881   1.482   3.546
 1517SOL     OW 6456   3.721   1.518   3.467
 1517SOL    HW1 6457   3.735   1.545   3.372
 1517SOL    HW2 6458   3.804   1.540   3.520
 1518SOL     OW 6459   2.212   0.898   3.666
 1518SOL    HW1 6460   2.288   0.942   3.714
 1518SOL    HW2 6461   2.247   0.851   3.584
 1519SOL     OW 6462   3.165   0.838   1.904
 1519SOL    HW1 6463   3.199   0.745   1.919
 1519SOL    HW2 6464   3.183   0.865   1.809
 1520SOL     OW 6465   2.930   1.333   2.711
 1520SOL    HW1 6466   2.937   1.249   2.656
 1520SOL    HW2 6467   2.992   1.402   2.675
 1521SOL     OW 6468   2.181   0.810   2.811
 1521SOL    HW1 6469   2.274   0.846   2.816
 1521SOL    HW2 6470   2.175   0.725   2.863
 1522SOL     OW 6471   2.201   0.509   2.868
 1522SOL    HW1 6472   2.149   0.426   2.851
 1522SOL    HW2 6473   2.278   0.514   2.804
 1523SOL     OW 6474   3.022   0.207   3.339
 1523SOL    HW1 6475   3.022   0.271   3.416
 1523SOL    HW2 6476   3.050   0.255   3.256
 1524SOL     OW 6477   1.870   1.326   2.062
 1524SOL    HW1 6478   1.777   1.347   2.031
 1524SOL    HW2 6479   1.880   1.227   2.075
 1525SOL     OW 6480   1.950   1.801   2.789
 1525SOL    HW1 6481   1.908   1.715   2.762
 1525SOL    HW2 6482   2.044   1.804   2.755
 1526SOL     OW 6483   2.366   1.568   2.772
 1526SOL    HW1 6484   2.432   1.642   2.781
 1526SOL    HW2 6485   2.410   1.489   2.730
 1527SOL     OW 6486   2.864   0.796   3.100
 1527SOL    HW1 6487   2.905   0.764   3.186
 1527SOL    HW2 6488   2.768   0.769   3.097
 1528SOL     OW 6489   1.902   0.544   2.976
 1528SOL    HW1 6490   1.987   0.511   2.935
 1528SOL    HW2 6491   1.915   0.559   3.074
 1529SOL     OW 6492   2.051   0.520   3.584
 1529SOL    HW1 6493   2.110   0.480   3.514
 1529SOL    HW2 6494   1.993   0.591   3.543
 1530SOL     OW 6495   3.231   0.950   3.522
 1530SOL    HW1 6496   3.270   1.039   3.542
 1530SOL    HW2 6497   3.241   0.930   3.425
 1531SOL     OW 6498   2.677   0.572   2.187
 1531SOL    HW1 6499   2.684   0.483   2.141
 1531SOL    HW2 6500   2.583   0.606   2.179
 1532SOL     OW 6501   3.519   0.604   3.068
 1532SOL    HW1 6502   3.481   0.535   3.130
 1532SOL    HW2 6503   3.601   0.568   3.024
 1533SOL     OW 6504   2.114   1.564   3.606
 1533SOL    HW1 6505   2.084   1.621   3.682
 1533SOL    HW2 6506   2.107   1.467   3.632
 1534SOL     OW 6507   2.533   0.464   3.131
 1534SOL    HW1 6508   2.499   0.375   3.101
 1534SOL    HW2 6509   2.559   0.518   3.051
 1535SOL     OW 6510   2.792   1.678   3.327
 1535SOL    HW1 6511   2.768   1.660   3.232
 1535SOL    HW2 6512   2.822   1.772   3.337
 1536SOL     OW 6513   2.335   0.500   2.053
 1536SOL    HW1 6514   2.396   0.580   2.057
 1536SOL    HW2 6515   2.240   0.531   2.060
 1537SOL     OW 6516   3.164   0.855   2.171
 1537SOL    HW1 6517   3.078   0.824   2.213
 1537SOL    HW2 6518   3.160   0.841   2.072
 1538SOL     OW 6519   3.621   1.747   3.016
 1538SOL    HW1 6520   3.682   1.777   2.943
 1538SOL    HW2 6521   3.583   1.658   2.994
 1539SOL     OW 6522   3.114   1.731   2.990
 1539SOL    HW1 6523   3.198   1.736   2.936
 1539SOL    HW2 6524   3.091   1.635   3.008
 1540SOL     OW 6525   1.945   1.258   2.884
 1540SOL    HW1 6526   1.940   1.257   2.984
 1540SOL    HW2 6527   1.862   1.217   2.846
 1541SOL     OW 6528   2.550   1.662   3.578
 1541SOL    HW1 6529   2.494   1.743   3.587
 1541SOL    HW2 6530   2.602   1.666   3.492
 1542SOL     OW 6531   3.588   0.135   2.385
 1542SOL    HW1 6532   3.661   0.118   2.318
 1542SOL    HW2 6533   3.557   0.048   2.423
 1543SOL     OW 6534   3.250   1.573   2.339
 1543SOL    HW1 6535   3.317   1.585   2.265
 1543SOL    HW2 6536   3.210   1.662   2.362
 1544SOL     OW 6537   1.992   1.794   3.713
 1544SOL    HW1 6538   1.951   1.720   3.766
 1544SOL    HW2 6539   2.056   1.845   3.771
 1545SOL     OW 6540   2.534   1.616   2.016
 1545SOL    HW1 6541   2.543   1.626   1.917
 1545SOL    HW2 6542   2.494   1.527   2.037
 1546SOL     OW 6543   3.512   1.720   3.256
 1546SOL    HW1 6544   3.565   1.730   3.172
 1546SOL    HW2 6545   3.485   1.810   3.290
 1547SOL     OW 6546   3.703   0.175   2.825
 1547SOL    HW1 6547   3.742   0.090   2.789
 1547SOL    HW2 6548   3.605   0.177   2.806
 1548SOL     OW 6549   2.125   0.326   2.582
 1548SOL    HW1 6550   2.046   0.377   2.548
 1548SOL    HW2 6551   2.116   0.311   2.680
 1549SOL     OW 6552   3.056   1.612   1.893
 1549SOL    HW1 6553   3.062   1.519   1.930
 1549SOL    HW2 6554   2.997   1.612   1.813
 1550SOL     OW 6555   2.684   1.002   3.234
 1550SOL    HW1 6556   2.724   1.001   3.142
 1550SOL    HW2 6557   2.694   1.094   3.274
 1551SOL     OW 6558   2.778   0.910   2.153
 1551SOL    HW1 6559   2.841   0.948   2.085
 1551SOL    HW2 6560   2.818   0.827   2.192
 1552SOL     OW 6561   3.366   1.607   1.906
 1552SOL    HW1 6562   3.274   1.644   1.913
 1552SOL    HW2 6563   3.404   1.627   1.816
 1553SOL     OW 6564   2.234   1.288   3.352
 1553SOL    HW1 6565   2.221   1.381   3.318
 1553SOL    HW2 6566   2.150   1.236   3.339
 1554SOL     OW 6567   2.876   0.236   2.833
 1554SOL    HW1 6568   2.868   0.200   2.740
 1554SOL    HW2 6569   2.874   0.160   2.898
 1555SOL     OW 6570   2.452   1.487   2.353
 1555SOL    HW1 6571   2.494   1.429   2.283
 1555SOL    HW2 6572   2.408   1.566   2.309
 1556SOL     OW 6573   3.571   0.385   3.243
 1556SOL    HW1 6574   3.644   0.454   3.247
 1556SOL    HW2 6575   3.599   0.310   3.184
 1557SOL     OW 6576   2.117   1.348   2.152
 1557SOL    HW1 6577   2.021   1.349   2.125
 1557SOL    HW2 6578   2.129   1.401   2.236
 1558SOL     OW 6579   1.967   1.013   3.588
 1558SOL    HW1 6580   1.890   0.980   3.642
 1558SOL    HW2 6581   2.052   0.983   3.630
 1559SOL     OW 6582   2.534   0.203   3.351
 1559SOL    HW1 6583   2.624   0.187   3.311
 1559SOL    HW2 6584   2.542   0.208   3.450
 1560SOL     OW 6585   1.934   0.166   2.180
 1560SOL    HW1 6586   1.917   0.249   2.126
 1560SOL    HW2 6587   2.024   0.129   2.158
 1561SOL     OW 6588   3.045   1.335   1.981
 1561SOL    HW1 6589   2.946   1.324   1.983
 1561SOL    HW2 6590   3.079   1.350   2.074
 1562SOL     OW 6591   2.475   0.842   3.293
 1562SOL    HW1 6592   2.531   0.923   3.276
 1562SOL    HW2 6593   2.534   0.762   3.296
 1563SOL     OW 6594   3.355   1.767   2.821
 1563SOL    HW1 6595   3.388   1.831   2.752
 1563SOL    HW2 6596   3.421   1.761   2.896
 1564SOL     OW 6597   2.578   0.565   3.570
 1564SOL    HW1 6598   2.597   0.630   3.644
 1564SOL    HW2 6599   2.638   0.485   3.579
 1565SOL     OW 6600   3.312   1.220   3.495
 1565SOL    HW1 6601   3.303   1.210   3.594
 1565SOL    HW2 6602   3.408   1.213   3.469
 1566SOL     OW 6603   2.252   1.741   3.422
 1566SOL    HW1 6604   2.161   1.782   3.420
 1566SOL    HW2 6605   2.245   1.647   3.454
 1567SOL     OW 6606   3.536   0.883   3.116
 1567SOL    HW1 6607   3.509   0.794   3.079
 1567SOL    HW2 6608   3.537   0.951   3.043
 1568SOL     OW 6609   3.087   0.325   2.311
 1568SOL    HW1 6610   3.152   0.251   2.300
 1568SOL    HW2 6611   3.107   0.375   2.395
 1569SOL     OW 6612   2.456   0.745   2.514
 1569SOL    HW1 6613   2.506   0.830   2.495
 1569SOL    HW2 6614   2.368   0.747   2.466
 1570SOL     OW 6615   3.639   0.342   3.504
 1570SOL    HW1 6616   3.622   0.373   3.410
 1570SOL    HW2 6617   3.555   0.305   3.542
 1571SOL     OW 6618   3.592   0.934   3.379
 1571SOL    HW1 6619   3.630   1.025   3.394
 1571SOL    HW2 6620   3.584   0.917   3.280
 1572SOL     OW 6621   2.721   1.374   1.878
 1572SOL    HW1 6622   2.675   1.389   1.966
 1572SOL    HW2 6623   2.765   1.459   1.848
 1573SOL     OW 6624   2.523   1.790   2.815
 1573SOL    HW1 6625   2.477   1.878   2.802
 1573SOL    HW2 6626   2.622   1.802   2.808
 1574SOL     OW 6627   2.945   0.984   1.949
 1574SOL    HW1 6628   2.922   1.037   1.867
 1574SOL    HW2 6629   3.026   0.928   1.930
 1575SOL     OW 6630   3.723   1.569   2.713
 1575SOL    HW1 6631   3.652   1.557   2.643
 1575SOL    HW2 6632   3.724   1.490   2.773
 1576SOL     OW 6633   2.083   1.314   3.706
 1576SOL    HW1 6634   2.018   1.241   3.685
 1576SOL    HW2 6635   2.087   1.328   3.804
 1577SOL     OW 6636   2.534   1.391   3.486
 1577SOL    HW1 6637   2.456   1.341   3.524
 1577SOL    HW2 6638   2.531   1.486   3.517
 1578SOL     OW 6639   3.686   0.192   3.089
 1578SOL    HW1 6640   3.682   0.102   3.133
 1578SOL    HW2 6641   3.689   0.181   2.990
 1579SOL     OW 6642   2.290   0.424   2.382
 1579SOL    HW1 6643   2.320   0.352   2.320
 1579SOL    HW2 6644   2.251   0.384   2.465
 1580SOL     OW 6645   2.179   0.547   3.142
 1580SOL    HW1 6646   2.217   0.488   3.214
 1580SOL    HW2 6647   2.219   0.521   3.054
 1581SOL     OW 6648   2.674   1.586   2.549
 1581SOL    HW1 6649   2.706   1.596   2.455
 1581SOL    HW2 6650   2.595   1.524   2.551
 1582SOL     OW 6651   3.286   0.214   2.974
 1582SOL    HW1 6652   3.338   0.149   3.029
 1582SOL    HW2 6653   3.237   0.277   3.035
 1583SOL     OW 6654   2.863   0.034   3.016
 1583SOL    HW1 6655   2.800  -0.038   2.985
 1583SOL    HW2 6656   2.956  -0.002   3.016
 1584SOL     OW 6657   2.632   1.330   2.163
 1584SOL    HW1 6658   2.586   1.243   2.180
 1584SOL    HW2 6659   2.723   1.327   2.204
 1585SOL     OW 6660   2.480   1.567   3.146
 1585SOL    HW1 6661   2.475   1.649   3.203
 1585SOL    HW2 6662   2.569   1.564   3.101
 1586SOL     OW 6663   3.162   0.453   2.553
 1586SOL    HW1 6664   3.103   0.533   2.557
 1586SOL    HW2 6665   3.177   0.418   2.646
 1587SOL     OW 6666   3.455   0.221   2.744
 1587SOL    HW1 6667   3.371   0.220   2.798
 1587SOL    HW2 6668   3.457   0.304   2.688
 1588SOL     OW 6669   1.901   1.077   2.162
 1588SOL    HW1 6670   2.000   1.066   2.153
 1588SOL    HW2 6671   1.861   0.991   2.194
 1589SOL     OW 6672   2.737   1.646   2.199
 1589SOL    HW1 6673   2.660   1.611   2.145
 1589SOL    HW2 6674   2.705   1.717   2.261
 1590SOL     OW 6675   2.092   0.628   3.837
 1590SOL    HW1 6676   1.999   0.626   3.874
 1590SOL    HW2 6677   2.093   0.589   3.745
 1591SOL     OW 6678   2.087   0.275   4.720
 1591SOL    HW1 6679   2.122   0.258   4.812
 1591SOL    HW2 6680   1.999   0.230   4.708
 1592SOL     OW 6681   1.881   0.368   4.371
 1592SOL    HW1 6682   1.799   0.411   4.410
 1592SOL    HW2 6683   1.853   0.295   4.308
 1593SOL     OW 6684   2.997   0.703   4.441
 1593SOL    HW1 6685   3.054   0.781   4.416
 1593SOL    HW2 6686   2.937   0.729   4.517
 1594SOL     OW 6687   2.630   1.144   4.747
 1594SOL    HW1 6688   2.552   1.161   4.807
 1594SOL    HW2 6689   2.664   1.231   4.711
 1595SOL     OW 6690   2.547   1.012   4.389
 1595SOL    HW1 6691   2.616   0.996   4.459
 1595SOL    HW2 6692   2.474   1.069   4.427
 1596SOL     OW 6693   3.465   0.447   4.461
 1596SOL    HW1 6694   3.391   0.493   4.411
 1596SOL    HW2 6695   3.516   0.515   4.514
 1597SOL     OW 6696   2.093   1.713   4.207
 1597SOL    HW1 6697   2.127   1.790   4.261
 1597SOL    HW2 6698   2.137   1.713   4.117
 1598SOL     OW 6699   2.092   1.434   4.262
 1598SOL    HW1 6700   2.066   1.530   4.262
 1598SOL    HW2 6701   2.021   1.380   4.307
 1599SOL     OW 6702   2.468   0.964   3.847
 1599SOL    HW1 6703   2.475   1.048   3.793
 1599SOL    HW2 6704   2.514   0.977   3.935
 1600SOL     OW 6705   1.984   0.643   4.287
 1600SOL    HW1 6706   1.939   0.555   4.304
 1600SOL    HW2 6707   1.983   0.697   4.371
 1601SOL     OW 6708   3.704   1.767   4.083
 1601SOL    HW1 6709   3.758   1.738   4.163
 1601SOL    HW2 6710   3.734   1.857   4.054
 1602SOL     OW 6711   1.889   1.596   3.841
 1602SOL    HW1 6712   1.870   1.500   3.862
 1602SOL    HW2 6713   1.856   1.654   3.916
 1603SOL     OW 6714   3.551   0.922   4.336
 1603SOL    HW1 6715   3.646   0.893   4.344
 1603SOL    HW2 6716   3.543   0.987   4.261
 1604SOL     OW 6717   3.503   1.108   4.156
 1604SOL    HW1 6718   3.589   1.110   4.104
 1604SOL    HW2 6719   3.517   1.155   4.244
 1605SOL     OW 6720   2.475   1.365   4.450
 1605SOL    HW1 6721   2.426   1.278   4.459
 1605SOL    HW2 6722   2.452   1.408   4.363
 1606SOL     OW 6723   2.671   0.004   4.226
 1606SOL    HW1 6724   2.711   0.095   4.217
 1606SOL    HW2 6725   2.571   0.012   4.232
 1607SOL     OW 6726   2.059   0.976   4.988
 1607SOL    HW1 6727   2.148   0.931   4.974
 1607SOL    HW2 6728   1.986   0.911   4.969
 1608SOL     OW 6729   3.387   0.999   3.914
 1608SOL    HW1 6730   3.324   0.923   3.927
 1608SOL    HW2 6731   3.435   1.017   4.000
 1609SOL     OW 6732   2.460   0.729   3.994
 1609SOL    HW1 6733   2.484   0.798   3.926
 1609SOL    HW2 6734   2.382   0.762   4.048
 1610SOL     OW 6735   3.143   0.345   4.668
 1610SOL    HW1 6736   3.057   0.295   4.655
 1610SOL    HW2 6737   3.205   0.291   4.724
 1611SOL     OW 6738   3.438   1.662   4.031
 1611SOL    HW1 6739   3.527   1.708   4.034
 1611SOL    HW2 6740   3.417   1.638   3.936
 1612SOL     OW 6741   2.853   0.410   4.966
 1612SOL    HW1 6742   2.776   0.444   5.020
 1612SOL    HW2 6743   2.819   0.359   4.887
 1613SOL     OW 6744   2.903   0.701   4.153
 1613SOL    HW1 6745   2.929   0.697   4.249
 1613SOL    HW2 6746   2.818   0.650   4.139
 1614SOL     OW 6747   1.938   0.811   4.513
 1614SOL    HW1 6748   2.037   0.799   4.522
 1614SOL    HW2 6749   1.914   0.906   4.534
 1615SOL     OW 6750   2.727   0.348   3.919
 1615SOL    HW1 6751   2.786   0.411   3.870
 1615SOL    HW2 6752   2.746   0.254   3.890
 1616SOL     OW 6753   3.224   1.144   4.269
 1616SOL    HW1 6754   3.307   1.115   4.221
 1616SOL    HW2 6755   3.175   1.211   4.213
 1617SOL     OW 6756   2.412   0.196   4.609
 1617SOL    HW1 6757   2.407   0.191   4.709
 1617SOL    HW2 6758   2.414   0.292   4.580
 1618SOL     OW 6759   2.870   1.456   4.201
 1618SOL    HW1 6760   2.824   1.528   4.149
 1618SOL    HW2 6761   2.866   1.476   4.299
 1619SOL     OW 6762   2.213   1.801   4.577
 1619SOL    HW1 6763   2.263   1.715   4.583
 1619SOL    HW2 6764   2.278   1.878   4.574
 1620SOL     OW 6765   3.657   1.066   4.597
 1620SOL    HW1 6766   3.595   1.051   4.521
 1620SOL    HW2 6767   3.605   1.077   4.682
 1621SOL     OW 6768   2.183   0.943   3.966
 1621SOL    HW1 6769   2.265   0.982   3.924
 1621SOL    HW2 6770   2.156   0.861   3.917
 1622SOL     OW 6771   3.320   0.735   4.452
 1622SOL    HW1 6772   3.315   0.670   4.527
 1622SOL    HW2 6773   3.400   0.794   4.465
 1623SOL     OW 6774   2.973   1.776   3.961
 1623SOL    HW1 6775   2.913   1.714   4.011
 1623SOL    HW2 6776   3.004   1.732   3.876
 1624SOL     OW 6777   2.326   1.743   4.047
 1624SOL    HW1 6778   2.359   1.782   4.133
 1624SOL    HW2 6779   2.402   1.736   3.982
 1625SOL     OW 6780   2.244   0.700   4.204
 1625SOL    HW1 6781   2.289   0.610   4.201
 1625SOL    HW2 6782   2.150   0.689   4.237
 1626SOL     OW 6783   2.476   0.122   3.841
 1626SOL    HW1 6784   2.574   0.100   3.848
 1626SOL    HW2 6785   2.445   0.105   3.748
 1627SOL     OW 6786   2.665   1.402   4.648
 1627SOL    HW1 6787   2.755   1.416   4.606
 1627SOL    HW2 6788   2.594   1.404   4.577
 1628SOL     OW 6789   2.784   0.503   4.623
 1628SOL    HW1 6790   2.759   0.494   4.527
 1628SOL    HW2 6791   2.832   0.421   4.654
 1629SOL     OW 6792   2.401   0.064   4.236
 1629SOL    HW1 6793   2.320   0.065   4.294
 1629SOL    HW2 6794   2.404   0.147   4.181
 1630SOL     OW 6795   3.296   1.188   3.765
 1630SOL    HW1 6796   3.328   1.112   3.822
 1630SOL    HW2 6797   3.204   1.215   3.795
 1631SOL     OW 6798   2.159   0.035   3.895
 1631SOL    HW1 6799   2.208   0.119   3.874
 1631SOL    HW2 6800   2.221  -0.030   3.940
 1632SOL     OW 6801   2.797   0.236   4.204
 1632SOL    HW1 6802   2.749   0.277   4.126
 1632SOL    HW2 6803   2.896   0.234   4.185
 1633SOL     OW 6804   2.321   1.152   4.465
 1633SOL    HW1 6805   2.250   1.125   4.530
 1633SOL    HW2 6806   2.295   1.124   4.372
 1634SOL     OW 6807   3.133   1.797   4.315
 1634SOL    HW1 6808   3.177   1.861   4.251
 1634SOL    HW2 6809   3.083   1.849   4.385
 1635SOL     OW 6810   2.728   0.454   4.366
 1635SOL    HW1 6811   2.696   0.526   4.304
 1635SOL    HW2 6812   2.752   0.373   4.313
 1636SOL     OW 6813   2.879   0.039   4.477
 1636SOL    HW1 6814   2.807   0.044   4.408
 1636SOL    HW2 6815   2.855  -0.030   4.546
 1637SOL     OW 6816   3.291   1.173   4.591
 1637SOL    HW1 6817   3.236   1.089   4.584
 1637SOL    HW2 6818   3.317   1.202   4.499
 1638SOL     OW 6819   3.328   0.590   4.716
 1638SOL    HW1 6820   3.298   0.495   4.723
 1638SOL    HW2 6821   3.401   0.606   4.782
 1639SOL     OW 6822   3.719   0.833   4.101
 1639SOL    HW1 6823   3.761   0.769   4.165
 1639SOL    HW2 6824   3.681   0.782   4.023
 1640SOL     OW 6825   2.350   1.385   3.898
 1640SOL    HW1 6826   2.263   1.370   3.945
 1640SOL    HW2 6827   2.333   1.411   3.803
 1641SOL     OW 6828   3.526   1.280   4.381
 1641SOL    HW1 6829   3.625   1.288   4.395
 1641SOL    HW2 6830   3.481   1.364   4.412
 1642SOL     OW 6831   2.389   0.256   4.052
 1642SOL    HW1 6832   2.416   0.197   3.977
 1642SOL    HW2 6833   2.389   0.351   4.021
 1643SOL     OW 6834   2.567   1.050   4.092
 1643SOL    HW1 6835   2.553   1.057   4.191
 1643SOL    HW2 6836   2.651   0.999   4.074
 1644SOL     OW 6837   2.272   0.813   4.975
 1644SOL    HW1 6838   2.358   0.825   5.025
 1644SOL    HW2 6839   2.230   0.726   5.002
 1645SOL     OW 6840   3.136   0.386   4.986
 1645SOL    HW1 6841   3.157   0.460   5.050
 1645SOL    HW2 6842   3.047   0.403   4.943
 1646SOL     OW 6843   2.229   1.100   4.225
 1646SOL    HW1 6844   2.222   1.183   4.169
 1646SOL    HW2 6845   2.233   1.020   4.165
 1647SOL     OW 6846   2.428   0.537   4.589
 1647SOL    HW1 6847   2.440   0.603   4.515
 1647SOL    HW2 6848   2.474   0.571   4.672
 1648SOL     OW 6849   3.114   1.348   4.112
 1648SOL    HW1 6850   3.164   1.425   4.152
 1648SOL    HW2 6851   3.019   1.350   4.144
 1649SOL     OW 6852   2.435   0.870   4.753
 1649SOL    HW1 6853   2.479   0.959   4.744
 1649SOL    HW2 6854   2.372   0.870   4.830
 1650SOL     OW 6855   3.222   0.862   4.769
 1650SOL    HW1 6856   3.147   0.862   4.703
 1650SOL    HW2 6857   3.259   0.770   4.778
 1651SOL     OW 6858   3.071   0.525   3.999
 1651SOL    HW1 6859   3.084   0.441   4.053
 1651SOL    HW2 6860   3.042   0.599   4.059
 1652SOL     OW 6861   2.594   0.634   4.788
 1652SOL    HW1 6862   2.653   0.608   4.712
 1652SOL    HW2 6863   2.566   0.730   4.777
 1653SOL     OW 6864   2.169   0.063   4.342
 1653SOL    HW1 6865   2.158   0.157   4.375
 1653SOL    HW2 6866   2.164   0.000   4.419
 1654SOL     OW 6867   2.885   0.766   4.690
 1654SOL    HW1 6868   2.900   0.787   4.786
 1654SOL    HW2 6869   2.855   0.671   4.681
 1655SOL     OW 6870   3.165   0.838   3.766
 1655SOL    HW1 6871   3.199   0.745   3.781
 1655SOL    HW2 6872   3.183   0.865   3.671
 1656SOL     OW 6873   2.930   1.333   4.573
 1656SOL    HW1 6874   2.937   1.249   4.518
 1656SOL    HW2 6875   2.992   1.402   4.537
 1657SOL     OW 6876   2.181   0.810   4.673
 1657SOL    HW1 6877   2.274   0.846   4.678
 1657SOL    HW2 6878   2.175   0.725   4.725
 1658SOL     OW 6879   2.201   0.509   4.730
 1658SOL    HW1 6880   2.149   0.426   4.713
 1658SOL    HW2 6881   2.278   0.514   4.666
 1659SOL     OW 6882   1.870   1.326   3.924
 1659SOL    HW1 6883   1.777   1.347   3.893
 1659SOL    HW2 6884   1.880   1.227   3.937
 1660SOL     OW 6885   1.950   1.801   4.651
 1660SOL    HW1 6886   1.908   1.715   4.624
 1660SOL    HW2 6887   2.044   1.804   4.617
 1661SOL     OW 6888   2.366   1.568   4.634
 1661SOL    HW1 6889   2.432   1.642   4.643
 1661SOL    HW2 6890   2.410   1.489   4.592
 1662SOL     OW 6891   2.864   0.796   4.962
 1662SOL    HW1 6892   2.905   0.764   5.048
 1662SOL    HW2 6893   2.768   0.769   4.959
 1663SOL     OW 6894   1.902   0.544   4.838
 1663SOL    HW1 6895   1.987   0.511   4.797
 1663SOL    HW2 6896   1.915   0.559   4.936
 1664SOL     OW 6897   2.677   0.572   4.049
 1664SOL    HW1 6898   2.684   0.483   4.003
 1664SOL    HW2 6899   2.583   0.606   4.041
 1665SOL     OW 6900   3.519   0.604   4.930
 1665SOL    HW1 6901   3.481   0.535   4.992
 1665SOL    HW2 6902   3.601   0.568   4.886
 1666SOL     OW 6903   2.792   1.678   5.189
 1666SOL    HW1 6904   2.768   1.660   5.094
 1666SOL    HW2 6905   2.822   1.772   5.199
 1667SOL     OW 6906   2.335   0.500   3.915
 1667SOL    HW1 6907   2.396   0.580   3.919
 1667SOL    HW2 6908   2.240   0.531   3.922
 1668SOL     OW 6909   3.164   0.855   4.033
 1668SOL    HW1 6910   3.078   0.824   4.075
 1668SOL    HW2 6911   3.160   0.841   3.934
 1669SOL     OW 6912   3.621   1.747   4.878
 1669SOL    HW1 6913   3.682   1.777   4.805
 1669SOL    HW2 6914   3.583   1.658   4.856
 1670SOL     OW 6915   3.588   0.135   4.247
 1670SOL    HW1 6916   3.661   0.118   4.180
 1670SOL    HW2 6917   3.557   0.048   4.285
 1671SOL     OW 6918   3.250   1.573   4.201
 1671SOL    HW1 6919   3.317   1.585   4.127
 1671SOL    HW2 6920   3.210   1.662   4.224
 1672SOL     OW 6921   3.142   0.927   4.396
 1672SOL    HW1 6922   3.202   0.846   4.398
 1672SOL    HW2 6923   3.182   0.996   4.336
 1673SOL     OW 6924   2.534   1.616   3.878
 1673SOL    HW1 6925   2.543   1.626   3.779
 1673SOL    HW2 6926   2.494   1.527   3.899
 1674SOL     OW 6927   3.512   1.720   5.118
 1674SOL    HW1 6928   3.565   1.730   5.034
 1674SOL    HW2 6929   3.485   1.810   5.152
 1675SOL     OW 6930   3.703   0.175   4.687
 1675SOL    HW1 6931   3.742   0.090   4.651
 1675SOL    HW2 6932   3.605   0.177   4.668
 1676SOL     OW 6933   2.125   0.326   4.444
 1676SOL    HW1 6934   2.046   0.377   4.410
 1676SOL    HW2 6935   2.116   0.311   4.542
 1677SOL     OW 6936   3.056   1.612   3.755
 1677SOL    HW1 6937   3.062   1.519   3.792
 1677SOL    HW2 6938   2.997   1.612   3.675
 1678SOL     OW 6939   2.684   1.002   5.096
 1678SOL    HW1 6940   2.724   1.001   5.004
 1678SOL    HW2 6941   2.694   1.094   5.136
 1679SOL     OW 6942   2.778   0.910   4.015
 1679SOL    HW1 6943   2.841   0.948   3.947
 1679SOL    HW2 6944   2.818   0.827   4.054
 1680SOL     OW 6945   3.366   1.607   3.768
 1680SOL    HW1 6946   3.274   1.644   3.775
 1680SOL    HW2 6947   3.404   1.627   3.678
 1681SOL     OW 6948   2.901   1.098   4.420
 1681SOL    HW1 6949   2.831   1.051   4.474
 1681SOL    HW2 6950   2.960   1.030   4.377
 1682SOL     OW 6951   2.452   1.487   4.215
 1682SOL    HW1 6952   2.494   1.429   4.145
 1682SOL    HW2 6953   2.408   1.566   4.171
 1683SOL     OW 6954   3.571   0.385   5.105
 1683SOL    HW1 6955   3.644   0.454   5.109
 1683SOL    HW2 6956   3.599   0.310   5.046
 1684SOL     OW 6957   2.117   1.348   4.014
 1684SOL    HW1 6958   2.021   1.349   3.987
 1684SOL    HW2 6959   2.129   1.401   4.098
 1685SOL     OW 6960   1.937   0.345   3.757
 1685SOL    HW1 6961   1.845   0.317   3.728
 1685SOL    HW2 6962   1.968   0.422   3.701
 1686SOL     OW 6963   1.934   0.166   4.042
 1686SOL    HW1 6964   1.917   0.249   3.988
 1686SOL    HW2 6965   2.024   0.129   4.020
 1687SOL     OW 6966   3.045   1.335   3.843
 1687SOL    HW1 6967   2.946   1.324   3.845
 1687SOL    HW2 6968   3.079   1.350   3.936
 1688SOL     OW 6969   3.312   1.220   5.357
 1688SOL    HW1 6970   3.303   1.210   5.456
 1688SOL    HW2 6971   3.408   1.213   5.331
 1689SOL     OW 6972   3.536   0.883   4.978
 1689SOL    HW1 6973   3.509   0.794   4.941
 1689SOL    HW2 6974   3.537   0.951   4.905
 1690SOL     OW 6975   3.087   0.325   4.173
 1690SOL    HW1 6976   3.152   0.251   4.162
 1690SOL    HW2 6977   3.107   0.375   4.257
 1691SOL     OW 6978   2.456   0.745   4.376
 1691SOL    HW1 6979   2.506   0.830   4.357
 1691SOL    HW2 6980   2.368   0.747   4.328
 1692SOL     OW 6981   3.592   0.934   5.241
 1692SOL    HW1 6982   3.630   1.025   5.256
 1692SOL    HW2 6983   3.584   0.917   5.142
 1693SOL     OW 6984   2.721   1.374   3.740
 1693SOL    HW1 6985   2.675   1.389   3.828
 1693SOL    HW2 6986   2.765   1.459   3.710
 1694SOL     OW 6987   2.523   1.790   4.677
 1694SOL    HW1 6988   2.477   1.878   4.664
 1694SOL    HW2 6989   2.622   1.802   4.670
 1695SOL     OW 6990   2.721   0.956   4.585
 1695SOL    HW1 6991   2.775   0.887   4.633
 1695SOL    HW2 6992   2.689   1.025   4.651
 1696SOL     OW 6993   2.945   0.984   3.811
 1696SOL    HW1 6994   2.922   1.037   3.729
 1696SOL    HW2 6995   3.026   0.928   3.792
 1697SOL     OW 6996   3.686   0.192   4.951
 1697SOL    HW1 6997   3.682   0.102   4.995
 1697SOL    HW2 6998   3.689   0.181   4.852
 1698SOL     OW 6999   2.290   0.424   4.244
 1698SOL    HW1 7000   2.320   0.352   4.182
 1698SOL    HW2 7001   2.251   0.384   4.327
 1699SOL     OW 7002   3.567   1.487   4.828
 1699SOL    HW1 7003   3.474   1.462   4.801
 1699SOL    HW2 7004   3.593   1.437   4.910
 1700SOL     OW 7005   2.674   1.586   4.411
 1700SOL    HW1 7006   2.706   1.596   4.317
 1700SOL    HW2 7007   2.595   1.524   4.413
 1701SOL     OW 7008   3.286   0.214   4.836
 1701SOL    HW1 7009   3.338   0.149   4.891
 1701SOL    HW2 7010   3.237   0.277   4.897
 1702SOL     OW 7011   2.632   1.330   4.025
 1702SOL    HW1 7012   2.586   1.243   4.042
 1702SOL    HW2 7013   2.723   1.327   4.066
 1703SOL     OW 7014   3.162   0.453   4.415
 1703SOL    HW1 7015   3.103   0.533   4.419
 1703SOL    HW2 7016   3.177   0.418   4.508
 1704SOL     OW 7017   3.455   0.221   4.606
 1704SOL    HW1 7018   3.371   0.220   4.660
 1704SOL    HW2 7019   3.457   0.304   4.550
 1705SOL     OW 7020   1.901   1.077   4.024
 1705SOL    HW1 7021   2.000   1.066   4.015
 1705SOL    HW2 7022   1.861   0.991   4.056
 1706SOL     OW 7023   2.737   1.646   4.061
 1706SOL    HW1 7024   2.660   1.611   4.007
 1706SOL    HW2 7025   2.705   1.717   4.123
 1707SOL     OW 7026   2.092   2.490   0.113
 1707SOL    HW1 7027   1.999   2.488   0.150
 1707SOL    HW2 7028   2.093   2.451   0.021
 1708SOL     OW 7029   2.431   3.137   1.165
 1708SOL    HW1 7030   2.338   3.130   1.128
 1708SOL    HW2 7031   2.442   3.226   1.209
 1709SOL     OW 7032   3.417   3.373   0.703
 1709SOL    HW1 7033   3.360   3.357   0.784
 1709SOL    HW2 7034   3.358   3.383   0.623
 1710SOL     OW 7035   2.997   2.565   0.717
 1710SOL    HW1 7036   3.054   2.643   0.692
 1710SOL    HW2 7037   2.937   2.591   0.793
 1711SOL     OW 7038   3.617   2.469   0.231
 1711SOL    HW1 7039   3.605   2.456   0.132
 1711SOL    HW2 7040   3.587   2.388   0.280
 1712SOL     OW 7041   2.630   3.006   1.023
 1712SOL    HW1 7042   2.552   3.023   1.083
 1712SOL    HW2 7043   2.664   3.093   0.987
 1713SOL     OW 7044   2.712   2.660   1.823
 1713SOL    HW1 7045   2.708   2.736   1.888
 1713SOL    HW2 7046   2.734   2.696   1.732
 1714SOL     OW 7047   2.548   3.023   1.803
 1714SOL    HW1 7048   2.608   3.102   1.817
 1714SOL    HW2 7049   2.462   3.054   1.762
 1715SOL     OW 7050   2.197   3.297   1.061
 1715SOL    HW1 7051   2.119   3.266   1.008
 1715SOL    HW2 7052   2.255   3.355   1.004
 1716SOL     OW 7053   3.322   3.367   1.339
 1716SOL    HW1 7054   3.346   3.461   1.365
 1716SOL    HW2 7055   3.306   3.313   1.421
 1717SOL     OW 7056   2.300   2.254   1.499
 1717SOL    HW1 7057   2.382   2.198   1.508
 1717SOL    HW2 7058   2.219   2.196   1.503
 1718SOL     OW 7059   3.465   2.309   0.737
 1718SOL    HW1 7060   3.391   2.355   0.687
 1718SOL    HW2 7061   3.516   2.377   0.790
 1719SOL     OW 7062   2.093   3.575   0.483
 1719SOL    HW1 7063   2.127   3.652   0.537
 1719SOL    HW2 7064   2.137   3.575   0.393
 1720SOL     OW 7065   2.989   3.203   1.690
 1720SOL    HW1 7066   3.036   3.203   1.778
 1720SOL    HW2 7067   2.941   3.116   1.679
 1721SOL     OW 7068   2.092   3.296   0.538
 1721SOL    HW1 7069   2.066   3.392   0.538
 1721SOL    HW2 7070   2.021   3.242   0.583
 1722SOL     OW 7071   2.102   2.953   0.886
 1722SOL    HW1 7072   2.116   2.869   0.938
 1722SOL    HW2 7073   2.047   3.017   0.941
 1723SOL     OW 7074   3.456   1.976   1.480
 1723SOL    HW1 7075   3.438   2.043   1.408
 1723SOL    HW2 7076   3.453   2.022   1.569
 1724SOL     OW 7077   1.984   2.505   0.563
 1724SOL    HW1 7078   1.939   2.417   0.580
 1724SOL    HW2 7079   1.983   2.559   0.647
 1725SOL     OW 7080   3.704   3.629   0.359
 1725SOL    HW1 7081   3.758   3.600   0.439
 1725SOL    HW2 7082   3.734   3.719   0.330
 1726SOL     OW 7083   1.889   3.458   0.117
 1726SOL    HW1 7084   1.870   3.362   0.138
 1726SOL    HW2 7085   1.856   3.516   0.192
 1727SOL     OW 7086   3.551   2.784   0.612
 1727SOL    HW1 7087   3.646   2.755   0.620
 1727SOL    HW2 7088   3.543   2.849   0.537
 1728SOL     OW 7089   3.503   2.970   0.432
 1728SOL    HW1 7090   3.589   2.972   0.380
 1728SOL    HW2 7091   3.517   3.017   0.520
 1729SOL     OW 7092   1.975   2.599   1.597
 1729SOL    HW1 7093   2.063   2.586   1.642
 1729SOL    HW2 7094   1.962   2.696   1.575
 1730SOL     OW 7095   3.155   3.090   1.423
 1730SOL    HW1 7096   3.192   3.017   1.365
 1730SOL    HW2 7097   3.207   3.095   1.508
 1731SOL     OW 7098   2.671   1.866   0.502
 1731SOL    HW1 7099   2.711   1.957   0.493
 1731SOL    HW2 7100   2.571   1.874   0.508
 1732SOL     OW 7101   3.387   2.861   0.190
 1732SOL    HW1 7102   3.324   2.785   0.203
 1732SOL    HW2 7103   3.435   2.879   0.276
 1733SOL     OW 7104   3.049   3.654   1.616
 1733SOL    HW1 7105   3.073   3.714   1.540
 1733SOL    HW2 7106   3.056   3.559   1.586
 1734SOL     OW 7107   2.179   2.113   1.801
 1734SOL    HW1 7108   2.250   2.184   1.807
 1734SOL    HW2 7109   2.091   2.152   1.829
 1735SOL     OW 7110   3.328   3.279   0.953
 1735SOL    HW1 7111   3.269   3.285   1.033
 1735SOL    HW2 7112   3.313   3.191   0.907
 1736SOL     OW 7113   3.529   3.576   0.572
 1736SOL    HW1 7114   3.488   3.553   0.484
 1736SOL    HW2 7115   3.511   3.502   0.637
 1737SOL     OW 7116   3.143   2.207   0.944
 1737SOL    HW1 7117   3.057   2.157   0.931
 1737SOL    HW2 7118   3.205   2.153   1.000
 1738SOL     OW 7119   3.438   3.524   0.307
 1738SOL    HW1 7120   3.527   3.570   0.310
 1738SOL    HW2 7121   3.417   3.500   0.212
 1739SOL     OW 7122   2.669   2.467   1.465
 1739SOL    HW1 7123   2.622   2.464   1.554
 1739SOL    HW2 7124   2.618   2.412   1.399
 1740SOL     OW 7125   3.256   2.331   1.674
 1740SOL    HW1 7126   3.236   2.374   1.762
 1740SOL    HW2 7127   3.334   2.269   1.683
 1741SOL     OW 7128   2.835   2.752   1.572
 1741SOL    HW1 7129   2.881   2.668   1.543
 1741SOL    HW2 7130   2.779   2.786   1.497
 1742SOL     OW 7131   2.853   2.272   1.242
 1742SOL    HW1 7132   2.776   2.306   1.296
 1742SOL    HW2 7133   2.819   2.221   1.163
 1743SOL     OW 7134   1.938   2.673   0.789
 1743SOL    HW1 7135   2.037   2.661   0.798
 1743SOL    HW2 7136   1.914   2.768   0.810
 1744SOL     OW 7137   3.581   2.447   1.831
 1744SOL    HW1 7138   3.555   2.536   1.795
 1744SOL    HW2 7139   3.579   2.379   1.758
 1745SOL     OW 7140   3.224   3.006   0.545
 1745SOL    HW1 7141   3.307   2.977   0.497
 1745SOL    HW2 7142   3.175   3.073   0.489
 1746SOL     OW 7143   3.657   2.928   0.873
 1746SOL    HW1 7144   3.595   2.913   0.797
 1746SOL    HW2 7145   3.605   2.939   0.958
 1747SOL     OW 7146   3.089   3.412   1.506
 1747SOL    HW1 7147   3.095   3.335   1.570
 1747SOL    HW2 7148   3.037   3.386   1.426
 1748SOL     OW 7149   2.183   2.805   0.242
 1748SOL    HW1 7150   2.265   2.844   0.200
 1748SOL    HW2 7151   2.156   2.723   0.193
 1749SOL     OW 7152   3.320   2.597   0.728
 1749SOL    HW1 7153   3.315   2.532   0.803
 1749SOL    HW2 7154   3.400   2.656   0.741
 1750SOL     OW 7155   2.323   3.128   1.727
 1750SOL    HW1 7156   2.273   3.129   1.641
 1750SOL    HW2 7157   2.260   3.110   1.803
 1751SOL     OW 7158   2.973   3.638   0.237
 1751SOL    HW1 7159   2.913   3.576   0.287
 1751SOL    HW2 7160   3.004   3.594   0.152
 1752SOL     OW 7161   2.064   2.147   1.498
 1752SOL    HW1 7162   1.984   2.207   1.485
 1752SOL    HW2 7163   2.054   2.098   1.584
 1753SOL     OW 7164   3.494   3.239   0.081
 1753SOL    HW1 7165   3.462   3.333   0.071
 1753SOL    HW2 7166   3.418   3.176   0.069
 1754SOL     OW 7167   3.262   1.969   0.426
 1754SOL    HW1 7168   3.238   1.932   0.336
 1754SOL    HW2 7169   3.361   1.985   0.430
 1755SOL     OW 7170   2.802   3.560   0.904
 1755SOL    HW1 7171   2.882   3.503   0.925
 1755SOL    HW2 7172   2.753   3.520   0.827
 1756SOL     OW 7173   3.409   2.084   1.729
 1756SOL    HW1 7174   3.404   2.121   1.821
 1756SOL    HW2 7175   3.337   2.015   1.717
 1757SOL     OW 7176   2.643   2.126   1.749
 1757SOL    HW1 7177   2.710   2.065   1.792
 1757SOL    HW2 7178   2.570   2.145   1.814
 1758SOL     OW 7179   2.750   3.376   1.195
 1758SOL    HW1 7180   2.727   3.351   1.101
 1758SOL    HW2 7181   2.811   3.307   1.234
 1759SOL     OW 7182   3.213   2.452   1.433
 1759SOL    HW1 7183   3.241   2.409   1.518
 1759SOL    HW2 7184   3.238   2.548   1.434
 1760SOL     OW 7185   2.665   3.264   0.924
 1760SOL    HW1 7186   2.755   3.278   0.882
 1760SOL    HW2 7187   2.594   3.266   0.853
 1761SOL     OW 7188   2.784   2.365   0.899
 1761SOL    HW1 7189   2.759   2.356   0.803
 1761SOL    HW2 7190   2.832   2.283   0.930
 1762SOL     OW 7191   3.296   3.050   0.041
 1762SOL    HW1 7192   3.328   2.974   0.098
 1762SOL    HW2 7193   3.204   3.077   0.071
 1763SOL     OW 7194   2.159   1.897   0.171
 1763SOL    HW1 7195   2.208   1.981   0.150
 1763SOL    HW2 7196   2.221   1.832   0.216
 1764SOL     OW 7197   2.797   2.098   0.480
 1764SOL    HW1 7198   2.749   2.139   0.402
 1764SOL    HW2 7199   2.896   2.096   0.461
 1765SOL     OW 7200   2.938   2.545   1.464
 1765SOL    HW1 7201   2.858   2.484   1.467
 1765SOL    HW2 7202   3.019   2.492   1.440
 1766SOL     OW 7203   3.089   3.432   0.793
 1766SOL    HW1 7204   3.110   3.506   0.728
 1766SOL    HW2 7205   3.157   3.432   0.866
 1767SOL     OW 7206   3.133   3.659   0.591
 1767SOL    HW1 7207   3.177   3.723   0.527
 1767SOL    HW2 7208   3.083   3.711   0.661
 1768SOL     OW 7209   2.894   2.411   0.016
 1768SOL    HW1 7210   2.853   2.493  -0.023
 1768SOL    HW2 7211   2.958   2.437   0.089
 1769SOL     OW 7212   1.940   2.418   1.386
 1769SOL    HW1 7213   2.032   2.417   1.345
 1769SOL    HW2 7214   1.934   2.492   1.453
 1770SOL     OW 7215   3.291   3.035   0.867
 1770SOL    HW1 7216   3.236   2.951   0.860
 1770SOL    HW2 7217   3.317   3.064   0.775
 1771SOL     OW 7218   3.328   2.452   0.992
 1771SOL    HW1 7219   3.298   2.357   0.999
 1771SOL    HW2 7220   3.401   2.468   1.058
 1772SOL     OW 7221   3.719   2.695   0.377
 1772SOL    HW1 7222   3.761   2.631   0.441
 1772SOL    HW2 7223   3.681   2.644   0.299
 1773SOL     OW 7224   2.350   3.247   0.174
 1773SOL    HW1 7225   2.263   3.232   0.221
 1773SOL    HW2 7226   2.333   3.273   0.079
 1774SOL     OW 7227   3.526   3.142   0.657
 1774SOL    HW1 7228   3.625   3.150   0.671
 1774SOL    HW2 7229   3.481   3.226   0.688
 1775SOL     OW 7230   3.252   2.437   0.078
 1775SOL    HW1 7231   3.198   2.416   0.159
 1775SOL    HW2 7232   3.343   2.396   0.087
 1776SOL     OW 7233   3.616   3.085   1.588
 1776SOL    HW1 7234   3.707   3.046   1.575
 1776SOL    HW2 7235   3.624   3.181   1.612
 1777SOL     OW 7236   2.926   3.209   1.340
 1777SOL    HW1 7237   2.846   3.186   1.395
 1777SOL    HW2 7238   3.009   3.183   1.389
 1778SOL     OW 7239   3.454   3.491   1.625
 1778SOL    HW1 7240   3.481   3.525   1.535
 1778SOL    HW2 7241   3.533   3.453   1.671
 1779SOL     OW 7242   2.973   3.057   1.100
 1779SOL    HW1 7243   2.933   3.101   1.181
 1779SOL    HW2 7244   2.932   3.094   1.017
 1780SOL     OW 7245   3.500   2.961   1.079
 1780SOL    HW1 7246   3.505   3.042   1.138
 1780SOL    HW2 7247   3.414   2.963   1.028
 1781SOL     OW 7248   2.777   1.951   1.402
 1781SOL    HW1 7249   2.802   1.931   1.307
 1781SOL    HW2 7250   2.849   2.007   1.444
 1782SOL     OW 7251   2.842   2.978   1.719
 1782SOL    HW1 7252   2.743   2.984   1.729
 1782SOL    HW2 7253   2.865   2.898   1.663
 1783SOL     OW 7254   3.136   2.248   1.262
 1783SOL    HW1 7255   3.157   2.322   1.326
 1783SOL    HW2 7256   3.047   2.265   1.219
 1784SOL     OW 7257   1.926   3.426   1.331
 1784SOL    HW1 7258   1.880   3.508   1.297
 1784SOL    HW2 7259   2.024   3.445   1.340
 1785SOL     OW 7260   2.229   2.962   0.501
 1785SOL    HW1 7261   2.222   3.045   0.445
 1785SOL    HW2 7262   2.233   2.882   0.441
 1786SOL     OW 7263   3.114   3.210   0.388
 1786SOL    HW1 7264   3.164   3.287   0.428
 1786SOL    HW2 7265   3.019   3.212   0.420
 1787SOL     OW 7266   3.134   3.307   1.142
 1787SOL    HW1 7267   3.181   3.320   1.229
 1787SOL    HW2 7268   3.068   3.233   1.151
 1788SOL     OW 7269   3.444   2.501   0.472
 1788SOL    HW1 7270   3.413   2.562   0.545
 1788SOL    HW2 7271   3.494   2.553   0.403
 1789SOL     OW 7272   2.216   3.372   1.329
 1789SOL    HW1 7273   2.195   3.328   1.242
 1789SOL    HW2 7274   2.313   3.398   1.332
 1790SOL     OW 7275   3.449   2.641   1.670
 1790SOL    HW1 7276   3.357   2.679   1.665
 1790SOL    HW2 7277   3.509   2.688   1.605
 1791SOL     OW 7278   2.875   1.967   1.770
 1791SOL    HW1 7279   2.881   2.052   1.718
 1791SOL    HW2 7280   2.907   1.891   1.713
 1792SOL     OW 7281   2.366   1.912   1.740
 1792SOL    HW1 7282   2.324   1.855   1.670
 1792SOL    HW2 7283   2.300   1.981   1.772
 1793SOL     OW 7284   2.435   2.732   1.029
 1793SOL    HW1 7285   2.479   2.821   1.020
 1793SOL    HW2 7286   2.372   2.732   1.106
 1794SOL     OW 7287   3.222   2.724   1.045
 1794SOL    HW1 7288   3.147   2.724   0.979
 1794SOL    HW2 7289   3.259   2.632   1.054
 1795SOL     OW 7290   3.071   2.387   0.275
 1795SOL    HW1 7291   3.084   2.303   0.329
 1795SOL    HW2 7292   3.042   2.461   0.335
 1796SOL     OW 7293   3.590   2.797   1.854
 1796SOL    HW1 7294   3.544   2.790   1.765
 1796SOL    HW2 7295   3.528   2.841   1.920
 1797SOL     OW 7296   3.484   2.229   0.374
 1797SOL    HW1 7297   3.486   2.153   0.438
 1797SOL    HW2 7298   3.436   2.306   0.414
 1798SOL     OW 7299   2.885   2.628   0.966
 1798SOL    HW1 7300   2.900   2.649   1.062
 1798SOL    HW2 7301   2.855   2.533   0.957
 1799SOL     OW 7302   2.842   3.435   1.700
 1799SOL    HW1 7303   2.822   3.479   1.612
 1799SOL    HW2 7304   2.881   3.344   1.684
 1800SOL     OW 7305   3.721   3.380   1.605
 1800SOL    HW1 7306   3.735   3.407   1.510
 1800SOL    HW2 7307   3.804   3.402   1.658
 1801SOL     OW 7308   3.402   2.136   0.125
 1801SOL    HW1 7309   3.341   2.061   0.148
 1801SOL    HW2 7310   3.424   2.188   0.208
 1802SOL     OW 7311   3.165   2.700   0.042
 1802SOL    HW1 7312   3.199   2.607   0.057
 1802SOL    HW2 7313   3.183   2.727  -0.053
 1803SOL     OW 7314   2.930   3.195   0.849
 1803SOL    HW1 7315   2.937   3.111   0.794
 1803SOL    HW2 7316   2.992   3.264   0.813
 1804SOL     OW 7317   2.181   2.672   0.949
 1804SOL    HW1 7318   2.274   2.708   0.954
 1804SOL    HW2 7319   2.175   2.587   1.001
 1805SOL     OW 7320   3.000   2.242   1.678
 1805SOL    HW1 7321   2.955   2.305   1.742
 1805SOL    HW2 7322   3.093   2.273   1.661
 1806SOL     OW 7323   3.022   2.069   1.477
 1806SOL    HW1 7324   3.022   2.133   1.554
 1806SOL    HW2 7325   3.050   2.117   1.394
 1807SOL     OW 7326   1.950   3.663   0.927
 1807SOL    HW1 7327   1.908   3.577   0.900
 1807SOL    HW2 7328   2.044   3.666   0.893
 1808SOL     OW 7329   2.366   3.430   0.910
 1808SOL    HW1 7330   2.432   3.504   0.919
 1808SOL    HW2 7331   2.410   3.351   0.868
 1809SOL     OW 7332   2.864   2.658   1.238
 1809SOL    HW1 7333   2.905   2.626   1.324
 1809SOL    HW2 7334   2.768   2.631   1.235
 1810SOL     OW 7335   1.902   2.406   1.114
 1810SOL    HW1 7336   1.987   2.373   1.073
 1810SOL    HW2 7337   1.915   2.421   1.212
 1811SOL     OW 7338   2.051   2.382   1.722
 1811SOL    HW1 7339   2.110   2.342   1.652
 1811SOL    HW2 7340   1.993   2.453   1.681
 1812SOL     OW 7341   3.231   2.812   1.660
 1812SOL    HW1 7342   3.270   2.901   1.680
 1812SOL    HW2 7343   3.241   2.792   1.563
 1813SOL     OW 7344   3.519   2.466   1.206
 1813SOL    HW1 7345   3.481   2.397   1.268
 1813SOL    HW2 7346   3.601   2.430   1.162
 1814SOL     OW 7347   2.114   3.426   1.744
 1814SOL    HW1 7348   2.084   3.483   1.820
 1814SOL    HW2 7349   2.107   3.329   1.770
 1815SOL     OW 7350   2.792   3.540   1.465
 1815SOL    HW1 7351   2.768   3.522   1.370
 1815SOL    HW2 7352   2.822   3.634   1.475
 1816SOL     OW 7353   3.209   2.921   1.234
 1816SOL    HW1 7354   3.233   2.858   1.160
 1816SOL    HW2 7355   3.119   2.961   1.216
 1817SOL     OW 7356   3.164   2.717   0.309
 1817SOL    HW1 7357   3.078   2.686   0.351
 1817SOL    HW2 7358   3.160   2.703   0.210
 1818SOL     OW 7359   3.621   3.609   1.154
 1818SOL    HW1 7360   3.682   3.639   1.081
 1818SOL    HW2 7361   3.583   3.520   1.132
 1819SOL     OW 7362   3.114   3.593   1.128
 1819SOL    HW1 7363   3.198   3.598   1.074
 1819SOL    HW2 7364   3.091   3.497   1.146
 1820SOL     OW 7365   1.945   3.120   1.022
 1820SOL    HW1 7366   1.940   3.119   1.122
 1820SOL    HW2 7367   1.862   3.079   0.984
 1821SOL     OW 7368   2.550   3.524   1.716
 1821SOL    HW1 7369   2.494   3.605   1.725
 1821SOL    HW2 7370   2.602   3.528   1.630
 1822SOL     OW 7371   2.765   1.948   0.133
 1822SOL    HW1 7372   2.816   1.949   0.047
 1822SOL    HW2 7373   2.821   1.906   0.204
 1823SOL     OW 7374   3.588   1.997   0.523
 1823SOL    HW1 7375   3.661   1.980   0.456
 1823SOL    HW2 7376   3.557   1.910   0.561
 1824SOL     OW 7377   3.250   3.435   0.477
 1824SOL    HW1 7378   3.317   3.447   0.403
 1824SOL    HW2 7379   3.210   3.524   0.500
 1825SOL     OW 7380   3.142   2.789   0.672
 1825SOL    HW1 7381   3.202   2.708   0.674
 1825SOL    HW2 7382   3.182   2.858   0.612
 1826SOL     OW 7383   2.692   3.135   1.422
 1826SOL    HW1 7384   2.687   3.168   1.517
 1826SOL    HW2 7385   2.606   3.154   1.376
 1827SOL     OW 7386   2.534   3.478   0.154
 1827SOL    HW1 7387   2.543   3.488   0.055
 1827SOL    HW2 7388   2.494   3.389   0.175
 1828SOL     OW 7389   3.512   3.582   1.394
 1828SOL    HW1 7390   3.565   3.592   1.310
 1828SOL    HW2 7391   3.485   3.672   1.428
 1829SOL     OW 7392   3.703   2.037   0.963
 1829SOL    HW1 7393   3.742   1.952   0.927
 1829SOL    HW2 7394   3.605   2.039   0.944
 1830SOL     OW 7395   3.056   3.474   0.031
 1830SOL    HW1 7396   3.062   3.381   0.068
 1830SOL    HW2 7397   2.997   3.474  -0.049
 1831SOL     OW 7398   2.684   2.864   1.372
 1831SOL    HW1 7399   2.724   2.863   1.280
 1831SOL    HW2 7400   2.694   2.956   1.412
 1832SOL     OW 7401   3.366   3.469   0.044
 1832SOL    HW1 7402   3.274   3.506   0.051
 1832SOL    HW2 7403   3.404   3.489  -0.046
 1833SOL     OW 7404   2.234   3.150   1.490
 1833SOL    HW1 7405   2.221   3.243   1.456
 1833SOL    HW2 7406   2.150   3.098   1.477
 1834SOL     OW 7407   3.476   3.154   1.289
 1834SOL    HW1 7408   3.536   3.157   1.369
 1834SOL    HW2 7409   3.401   3.218   1.302
 1835SOL     OW 7410   2.901   2.960   0.696
 1835SOL    HW1 7411   2.831   2.913   0.750
 1835SOL    HW2 7412   2.960   2.892   0.653
 1836SOL     OW 7413   2.876   2.098   0.971
 1836SOL    HW1 7414   2.868   2.062   0.878
 1836SOL    HW2 7415   2.874   2.022   1.036
 1837SOL     OW 7416   3.571   2.247   1.381
 1837SOL    HW1 7417   3.644   2.316   1.385
 1837SOL    HW2 7418   3.599   2.172   1.322
 1838SOL     OW 7419   2.117   3.210   0.290
 1838SOL    HW1 7420   2.021   3.211   0.263
 1838SOL    HW2 7421   2.129   3.263   0.374
 1839SOL     OW 7422   2.534   2.065   1.489
 1839SOL    HW1 7423   2.624   2.049   1.449
 1839SOL    HW2 7424   2.542   2.070   1.588
 1840SOL     OW 7425   3.302   2.718   1.398
 1840SOL    HW1 7426   3.245   2.770   1.335
 1840SOL    HW2 7427   3.398   2.730   1.374
 1841SOL     OW 7428   1.934   2.028   0.318
 1841SOL    HW1 7429   1.917   2.111   0.264
 1841SOL    HW2 7430   2.024   1.991   0.296
 1842SOL     OW 7431   3.355   3.629   0.959
 1842SOL    HW1 7432   3.388   3.693   0.890
 1842SOL    HW2 7433   3.421   3.623   1.034
 1843SOL     OW 7434   2.578   2.427   1.708
 1843SOL    HW1 7435   2.597   2.492   1.782
 1843SOL    HW2 7436   2.638   2.347   1.717
 1844SOL     OW 7437   3.312   3.082   1.633
 1844SOL    HW1 7438   3.303   3.072   1.732
 1844SOL    HW2 7439   3.408   3.075   1.607
 1845SOL     OW 7440   3.536   2.745   1.254
 1845SOL    HW1 7441   3.509   2.656   1.217
 1845SOL    HW2 7442   3.537   2.813   1.181
 1846SOL     OW 7443   2.456   2.607   0.652
 1846SOL    HW1 7444   2.506   2.692   0.633
 1846SOL    HW2 7445   2.368   2.609   0.604
 1847SOL     OW 7446   3.639   2.204   1.642
 1847SOL    HW1 7447   3.622   2.235   1.548
 1847SOL    HW2 7448   3.555   2.167   1.680
 1848SOL     OW 7449   3.592   2.796   1.517
 1848SOL    HW1 7450   3.630   2.887   1.532
 1848SOL    HW2 7451   3.584   2.779   1.418
 1849SOL     OW 7452   2.721   3.236   0.016
 1849SOL    HW1 7453   2.675   3.251   0.104
 1849SOL    HW2 7454   2.765   3.321  -0.014
 1850SOL     OW 7455   2.523   3.652   0.953
 1850SOL    HW1 7456   2.477   3.740   0.940
 1850SOL    HW2 7457   2.622   3.664   0.946
 1851SOL     OW 7458   2.721   2.818   0.861
 1851SOL    HW1 7459   2.775   2.749   0.909
 1851SOL    HW2 7460   2.689   2.887   0.927
 1852SOL     OW 7461   2.945   2.846   0.087
 1852SOL    HW1 7462   2.922   2.899   0.005
 1852SOL    HW2 7463   3.026   2.790   0.068
 1853SOL     OW 7464   3.723   3.431   0.851
 1853SOL    HW1 7465   3.652   3.419   0.781
 1853SOL    HW2 7466   3.724   3.352   0.911
 1854SOL     OW 7467   2.083   3.176   1.844
 1854SOL    HW1 7468   2.018   3.103   1.823
 1854SOL    HW2 7469   2.087   3.190   1.942
 1855SOL     OW 7470   1.941   3.102   0.653
 1855SOL    HW1 7471   1.940   3.055   0.741
 1855SOL    HW2 7472   2.023   3.074   0.602
 1856SOL     OW 7473   2.534   3.253   1.624
 1856SOL    HW1 7474   2.456   3.203   1.662
 1856SOL    HW2 7475   2.531   3.348   1.655
 1857SOL     OW 7476   3.686   2.054   1.227
 1857SOL    HW1 7477   3.682   1.964   1.271
 1857SOL    HW2 7478   3.689   2.043   1.128
 1858SOL     OW 7479   3.567   3.349   1.104
 1858SOL    HW1 7480   3.474   3.324   1.077
 1858SOL    HW2 7481   3.593   3.299   1.186
 1859SOL     OW 7482   2.179   2.409   1.280
 1859SOL    HW1 7483   2.217   2.350   1.352
 1859SOL    HW2 7484   2.219   2.383   1.192
 1860SOL     OW 7485   3.286   2.076   1.112
 1860SOL    HW1 7486   3.338   2.011   1.167
 1860SOL    HW2 7487   3.237   2.139   1.173
 1861SOL     OW 7488   2.632   3.192   0.301
 1861SOL    HW1 7489   2.586   3.105   0.318
 1861SOL    HW2 7490   2.723   3.189   0.342
 1862SOL     OW 7491   2.480   3.429   1.284
 1862SOL    HW1 7492   2.475   3.511   1.341
 1862SOL    HW2 7493   2.569   3.426   1.239
 1863SOL     OW 7494   3.214   1.914   0.168
 1863SOL    HW1 7495   3.249   1.873   0.084
 1863SOL    HW2 7496   3.124   1.876   0.188
 1864SOL     OW 7497   3.162   2.315   0.691
 1864SOL    HW1 7498   3.103   2.395   0.695
 1864SOL    HW2 7499   3.177   2.280   0.784
 1865SOL     OW 7500   3.455   2.083   0.882
 1865SOL    HW1 7501   3.371   2.082   0.936
 1865SOL    HW2 7502   3.457   2.166   0.826
 1866SOL     OW 7503   1.901   2.939   0.300
 1866SOL    HW1 7504   2.000   2.928   0.291
 1866SOL    HW2 7505   1.861   2.853   0.332
 1867SOL     OW 7506   2.092   2.490   1.975
 1867SOL    HW1 7507   1.999   2.488   2.012
 1867SOL    HW2 7508   2.093   2.451   1.883
 1868SOL     OW 7509   2.087   2.137   2.858
 1868SOL    HW1 7510   2.122   2.120   2.950
 1868SOL    HW2 7511   1.999   2.092   2.846
 1869SOL     OW 7512   3.417   3.373   2.565
 1869SOL    HW1 7513   3.360   3.357   2.646
 1869SOL    HW2 7514   3.358   3.383   2.485
 1870SOL     OW 7515   3.617   2.469   2.093
 1870SOL    HW1 7516   3.605   2.456   1.994
 1870SOL    HW2 7517   3.587   2.388   2.142
 1871SOL     OW 7518   2.300   2.254   3.361
 1871SOL    HW1 7519   2.382   2.198   3.370
 1871SOL    HW2 7520   2.219   2.196   3.365
 1872SOL     OW 7521   3.465   2.309   2.599
 1872SOL    HW1 7522   3.391   2.355   2.549
 1872SOL    HW2 7523   3.516   2.377   2.652
 1873SOL     OW 7524   2.093   3.575   2.345
 1873SOL    HW1 7525   2.127   3.652   2.399
 1873SOL    HW2 7526   2.137   3.575   2.255
 1874SOL     OW 7527   2.092   3.296   2.400
 1874SOL    HW1 7528   2.066   3.392   2.400
 1874SOL    HW2 7529   2.021   3.242   2.445
 1875SOL     OW 7530   2.102   2.953   2.748
 1875SOL    HW1 7531   2.116   2.869   2.800
 1875SOL    HW2 7532   2.047   3.017   2.803
 1876SOL     OW 7533   3.456   1.976   3.342
 1876SOL    HW1 7534   3.438   2.043   3.270
 1876SOL    HW2 7535   3.453   2.022   3.431
 1877SOL     OW 7536   3.704   3.629   2.221
 1877SOL    HW1 7537   3.758   3.600   2.301
 1877SOL    HW2 7538   3.734   3.719   2.192
 1878SOL     OW 7539   3.551   2.784   2.474
 1878SOL    HW1 7540   3.646   2.755   2.482
 1878SOL    HW2 7541   3.543   2.849   2.399
 1879SOL     OW 7542   3.503   2.970   2.294
 1879SOL    HW1 7543   3.589   2.972   2.242
 1879SOL    HW2 7544   3.517   3.017   2.382
 1880SOL     OW 7545   1.975   2.599   3.459
 1880SOL    HW1 7546   2.063   2.586   3.504
 1880SOL    HW2 7547   1.962   2.696   3.437
 1881SOL     OW 7548   3.155   3.090   3.285
 1881SOL    HW1 7549   3.192   3.017   3.227
 1881SOL    HW2 7550   3.207   3.095   3.370
 1882SOL     OW 7551   2.671   1.866   2.364
 1882SOL    HW1 7552   2.711   1.957   2.355
 1882SOL    HW2 7553   2.571   1.874   2.370
 1883SOL     OW 7554   2.059   2.838   3.126
 1883SOL    HW1 7555   2.148   2.793   3.112
 1883SOL    HW2 7556   1.986   2.773   3.107
 1884SOL     OW 7557   3.387   2.861   2.052
 1884SOL    HW1 7558   3.324   2.785   2.065
 1884SOL    HW2 7559   3.435   2.879   2.138
 1885SOL     OW 7560   2.179   2.113   3.663
 1885SOL    HW1 7561   2.250   2.184   3.669
 1885SOL    HW2 7562   2.091   2.152   3.691
 1886SOL     OW 7563   3.328   3.279   2.815
 1886SOL    HW1 7564   3.269   3.285   2.895
 1886SOL    HW2 7565   3.313   3.191   2.769
 1887SOL     OW 7566   3.529   3.576   2.434
 1887SOL    HW1 7567   3.488   3.553   2.346
 1887SOL    HW2 7568   3.511   3.502   2.499
 1888SOL     OW 7569   2.460   2.591   2.132
 1888SOL    HW1 7570   2.484   2.660   2.064
 1888SOL    HW2 7571   2.382   2.624   2.186
 1889SOL     OW 7572   3.143   2.207   2.806
 1889SOL    HW1 7573   3.057   2.157   2.793
 1889SOL    HW2 7574   3.205   2.153   2.862
 1890SOL     OW 7575   3.438   3.524   2.169
 1890SOL    HW1 7576   3.527   3.570   2.172
 1890SOL    HW2 7577   3.417   3.500   2.074
 1891SOL     OW 7578   2.669   2.467   3.327
 1891SOL    HW1 7579   2.622   2.464   3.416
 1891SOL    HW2 7580   2.618   2.412   3.261
 1892SOL     OW 7581   3.256   2.331   3.536
 1892SOL    HW1 7582   3.236   2.374   3.624
 1892SOL    HW2 7583   3.334   2.269   3.545
 1893SOL     OW 7584   2.853   2.272   3.104
 1893SOL    HW1 7585   2.776   2.306   3.158
 1893SOL    HW2 7586   2.819   2.221   3.025
 1894SOL     OW 7587   2.903   2.563   2.291
 1894SOL    HW1 7588   2.929   2.559   2.387
 1894SOL    HW2 7589   2.818   2.512   2.277
 1895SOL     OW 7590   1.938   2.673   2.651
 1895SOL    HW1 7591   2.037   2.661   2.660
 1895SOL    HW2 7592   1.914   2.768   2.672
 1896SOL     OW 7593   1.992   3.683   3.433
 1896SOL    HW1 7594   1.982   3.668   3.532
 1896SOL    HW2 7595   1.906   3.719   3.397
 1897SOL     OW 7596   2.727   2.210   2.057
 1897SOL    HW1 7597   2.786   2.273   2.008
 1897SOL    HW2 7598   2.746   2.116   2.028
 1898SOL     OW 7599   3.581   2.447   3.693
 1898SOL    HW1 7600   3.555   2.536   3.657
 1898SOL    HW2 7601   3.579   2.379   3.620
 1899SOL     OW 7602   3.224   3.006   2.407
 1899SOL    HW1 7603   3.307   2.977   2.359
 1899SOL    HW2 7604   3.175   3.073   2.351
 1900SOL     OW 7605   2.412   2.058   2.747
 1900SOL    HW1 7606   2.407   2.053   2.847
 1900SOL    HW2 7607   2.414   2.154   2.718
 1901SOL     OW 7608   2.870   3.318   2.339
 1901SOL    HW1 7609   2.824   3.390   2.287
 1901SOL    HW2 7610   2.866   3.338   2.437
 1902SOL     OW 7611   2.213   3.663   2.715
 1902SOL    HW1 7612   2.263   3.577   2.721
 1902SOL    HW2 7613   2.278   3.740   2.712
 1903SOL     OW 7614   3.657   2.928   2.735
 1903SOL    HW1 7615   3.595   2.913   2.659
 1903SOL    HW2 7616   3.605   2.939   2.820
 1904SOL     OW 7617   3.320   2.597   2.590
 1904SOL    HW1 7618   3.315   2.532   2.665
 1904SOL    HW2 7619   3.400   2.656   2.603
 1905SOL     OW 7620   2.973   3.638   2.099
 1905SOL    HW1 7621   2.913   3.576   2.149
 1905SOL    HW2 7622   3.004   3.594   2.014
 1906SOL     OW 7623   2.064   2.147   3.360
 1906SOL    HW1 7624   1.984   2.207   3.347
 1906SOL    HW2 7625   2.054   2.098   3.446
 1907SOL     OW 7626   3.494   3.239   1.943
 1907SOL    HW1 7627   3.462   3.333   1.933
 1907SOL    HW2 7628   3.418   3.176   1.931
 1908SOL     OW 7629   2.111   3.647   3.103
 1908SOL    HW1 7630   2.168   3.582   3.153
 1908SOL    HW2 7631   2.095   3.614   3.010
 1909SOL     OW 7632   2.802   3.560   2.766
 1909SOL    HW1 7633   2.882   3.503   2.787
 1909SOL    HW2 7634   2.753   3.520   2.689
 1910SOL     OW 7635   2.244   2.562   2.342
 1910SOL    HW1 7636   2.289   2.472   2.339
 1910SOL    HW2 7637   2.150   2.551   2.375
 1911SOL     OW 7638   3.409   2.084   3.591
 1911SOL    HW1 7639   3.404   2.121   3.683
 1911SOL    HW2 7640   3.337   2.015   3.579
 1912SOL     OW 7641   2.476   1.984   1.979
 1912SOL    HW1 7642   2.574   1.962   1.986
 1912SOL    HW2 7643   2.445   1.967   1.886
 1913SOL     OW 7644   2.643   2.126   3.611
 1913SOL    HW1 7645   2.710   2.065   3.654
 1913SOL    HW2 7646   2.570   2.145   3.676
 1914SOL     OW 7647   3.213   2.452   3.295
 1914SOL    HW1 7648   3.241   2.409   3.380
 1914SOL    HW2 7649   3.238   2.548   3.296
 1915SOL     OW 7650   2.401   1.926   2.374
 1915SOL    HW1 7651   2.320   1.927   2.432
 1915SOL    HW2 7652   2.404   2.009   2.319
 1916SOL     OW 7653   3.296   3.050   1.903
 1916SOL    HW1 7654   3.328   2.974   1.960
 1916SOL    HW2 7655   3.204   3.077   1.933
 1917SOL     OW 7656   2.159   1.897   2.033
 1917SOL    HW1 7657   2.208   1.981   2.012
 1917SOL    HW2 7658   2.221   1.832   2.078
 1918SOL     OW 7659   2.797   2.098   2.342
 1918SOL    HW1 7660   2.749   2.139   2.264
 1918SOL    HW2 7661   2.896   2.096   2.323
 1919SOL     OW 7662   2.938   2.545   3.326
 1919SOL    HW1 7663   2.858   2.484   3.329
 1919SOL    HW2 7664   3.019   2.492   3.302
 1920SOL     OW 7665   3.089   3.432   2.655
 1920SOL    HW1 7666   3.110   3.506   2.590
 1920SOL    HW2 7667   3.157   3.432   2.728
 1921SOL     OW 7668   3.133   3.659   2.453
 1921SOL    HW1 7669   3.177   3.723   2.389
 1921SOL    HW2 7670   3.083   3.711   2.523
 1922SOL     OW 7671   2.894   2.411   1.878
 1922SOL    HW1 7672   2.853   2.493   1.839
 1922SOL    HW2 7673   2.958   2.437   1.951
 1923SOL     OW 7674   1.940   2.418   3.248
 1923SOL    HW1 7675   2.032   2.417   3.207
 1923SOL    HW2 7676   1.934   2.492   3.315
 1924SOL     OW 7677   2.423   2.084   3.009
 1924SOL    HW1 7678   2.461   2.000   3.046
 1924SOL    HW2 7679   2.335   2.103   3.053
 1925SOL     OW 7680   2.879   1.901   2.615
 1925SOL    HW1 7681   2.807   1.906   2.546
 1925SOL    HW2 7682   2.855   1.832   2.684
 1926SOL     OW 7683   3.291   3.035   2.729
 1926SOL    HW1 7684   3.236   2.951   2.722
 1926SOL    HW2 7685   3.317   3.064   2.637
 1927SOL     OW 7686   3.328   2.452   2.854
 1927SOL    HW1 7687   3.298   2.357   2.861
 1927SOL    HW2 7688   3.401   2.468   2.920
 1928SOL     OW 7689   3.719   2.695   2.239
 1928SOL    HW1 7690   3.761   2.631   2.303
 1928SOL    HW2 7691   3.681   2.644   2.161
 1929SOL     OW 7692   2.350   3.247   2.036
 1929SOL    HW1 7693   2.263   3.232   2.083
 1929SOL    HW2 7694   2.333   3.273   1.941
 1930SOL     OW 7695   3.526   3.142   2.519
 1930SOL    HW1 7696   3.625   3.150   2.533
 1930SOL    HW2 7697   3.481   3.226   2.550
 1931SOL     OW 7698   3.252   2.437   1.940
 1931SOL    HW1 7699   3.198   2.416   2.021
 1931SOL    HW2 7700   3.343   2.396   1.949
 1932SOL     OW 7701   2.389   2.118   2.190
 1932SOL    HW1 7702   2.416   2.059   2.115
 1932SOL    HW2 7703   2.389   2.213   2.159
 1933SOL     OW 7704   2.926   3.209   3.202
 1933SOL    HW1 7705   2.846   3.186   3.257
 1933SOL    HW2 7706   3.009   3.183   3.251
 1934SOL     OW 7707   2.973   3.057   2.962
 1934SOL    HW1 7708   2.933   3.101   3.043
 1934SOL    HW2 7709   2.932   3.094   2.879
 1935SOL     OW 7710   3.500   2.961   2.941
 1935SOL    HW1 7711   3.505   3.042   3.000
 1935SOL    HW2 7712   3.414   2.963   2.890
 1936SOL     OW 7713   2.777   1.951   3.264
 1936SOL    HW1 7714   2.802   1.931   3.169
 1936SOL    HW2 7715   2.849   2.007   3.306
 1937SOL     OW 7716   2.272   2.675   3.113
 1937SOL    HW1 7717   2.358   2.687   3.163
 1937SOL    HW2 7718   2.230   2.588   3.140
 1938SOL     OW 7719   3.136   2.248   3.124
 1938SOL    HW1 7720   3.157   2.322   3.188
 1938SOL    HW2 7721   3.047   2.265   3.081
 1939SOL     OW 7722   1.926   3.426   3.193
 1939SOL    HW1 7723   1.880   3.508   3.159
 1939SOL    HW2 7724   2.024   3.445   3.202
 1940SOL     OW 7725   2.229   2.962   2.363
 1940SOL    HW1 7726   2.222   3.045   2.307
 1940SOL    HW2 7727   2.233   2.882   2.303
 1941SOL     OW 7728   3.114   3.210   2.250
 1941SOL    HW1 7729   3.164   3.287   2.290
 1941SOL    HW2 7730   3.019   3.212   2.282
 1942SOL     OW 7731   3.444   2.501   2.334
 1942SOL    HW1 7732   3.413   2.562   2.407
 1942SOL    HW2 7733   3.494   2.553   2.265
 1943SOL     OW 7734   2.264   2.613   3.460
 1943SOL    HW1 7735   2.332   2.668   3.413
 1943SOL    HW2 7736   2.304   2.525   3.487
 1944SOL     OW 7737   3.449   2.641   3.532
 1944SOL    HW1 7738   3.357   2.679   3.527
 1944SOL    HW2 7739   3.509   2.688   3.467
 1945SOL     OW 7740   2.875   1.967   3.632
 1945SOL    HW1 7741   2.881   2.052   3.580
 1945SOL    HW2 7742   2.907   1.891   3.575
 1946SOL     OW 7743   2.366   1.912   3.602
 1946SOL    HW1 7744   2.324   1.855   3.532
 1946SOL    HW2 7745   2.300   1.981   3.634
 1947SOL     OW 7746   2.435   2.732   2.891
 1947SOL    HW1 7747   2.479   2.821   2.882
 1947SOL    HW2 7748   2.372   2.732   2.968
 1948SOL     OW 7749   3.222   2.724   2.907
 1948SOL    HW1 7750   3.147   2.724   2.841
 1948SOL    HW2 7751   3.259   2.632   2.916
 1949SOL     OW 7752   3.071   2.387   2.137
 1949SOL    HW1 7753   3.084   2.303   2.191
 1949SOL    HW2 7754   3.042   2.461   2.197
 1950SOL     OW 7755   2.169   2.075   3.093
 1950SOL    HW1 7756   2.146   2.112   3.183
 1950SOL    HW2 7757   2.139   1.980   3.087
 1951SOL     OW 7758   1.899   3.172   3.144
 1951SOL    HW1 7759   1.952   3.123   3.212
 1951SOL    HW2 7760   1.921   3.270   3.149
 1952SOL     OW 7761   3.590   2.797   3.716
 1952SOL    HW1 7762   3.544   2.790   3.627
 1952SOL    HW2 7763   3.528   2.841   3.782
 1953SOL     OW 7764   2.169   1.925   2.480
 1953SOL    HW1 7765   2.158   2.019   2.513
 1953SOL    HW2 7766   2.164   1.862   2.557
 1954SOL     OW 7767   3.484   2.229   2.236
 1954SOL    HW1 7768   3.486   2.153   2.300
 1954SOL    HW2 7769   3.436   2.306   2.276
 1955SOL     OW 7770   2.885   2.628   2.828
 1955SOL    HW1 7771   2.900   2.649   2.924
 1955SOL    HW2 7772   2.855   2.533   2.819
 1956SOL     OW 7773   2.212   2.760   3.666
 1956SOL    HW1 7774   2.288   2.804   3.714
 1956SOL    HW2 7775   2.247   2.713   3.584
 1957SOL     OW 7776   3.402   2.136   1.987
 1957SOL    HW1 7777   3.341   2.061   2.010
 1957SOL    HW2 7778   3.424   2.188   2.070
 1958SOL     OW 7779   3.165   2.700   1.904
 1958SOL    HW1 7780   3.199   2.607   1.919
 1958SOL    HW2 7781   3.183   2.727   1.809
 1959SOL     OW 7782   2.930   3.195   2.711
 1959SOL    HW1 7783   2.937   3.111   2.656
 1959SOL    HW2 7784   2.992   3.264   2.675
 1960SOL     OW 7785   2.181   2.672   2.811
 1960SOL    HW1 7786   2.274   2.708   2.816
 1960SOL    HW2 7787   2.175   2.587   2.863
 1961SOL     OW 7788   2.201   2.371   2.868
 1961SOL    HW1 7789   2.149   2.288   2.851
 1961SOL    HW2 7790   2.278   2.376   2.804
 1962SOL     OW 7791   3.000   2.242   3.540
 1962SOL    HW1 7792   2.955   2.305   3.604
 1962SOL    HW2 7793   3.093   2.273   3.523
 1963SOL     OW 7794   3.022   2.069   3.339
 1963SOL    HW1 7795   3.022   2.133   3.416
 1963SOL    HW2 7796   3.050   2.117   3.256
 1964SOL     OW 7797   1.870   3.188   2.062
 1964SOL    HW1 7798   1.777   3.209   2.031
 1964SOL    HW2 7799   1.880   3.089   2.075
 1965SOL     OW 7800   1.950   3.663   2.789
 1965SOL    HW1 7801   1.908   3.577   2.762
 1965SOL    HW2 7802   2.044   3.666   2.755
 1966SOL     OW 7803   2.366   3.430   2.772
 1966SOL    HW1 7804   2.432   3.504   2.781
 1966SOL    HW2 7805   2.410   3.351   2.730
 1967SOL     OW 7806   2.864   2.658   3.100
 1967SOL    HW1 7807   2.905   2.626   3.186
 1967SOL    HW2 7808   2.768   2.631   3.097
 1968SOL     OW 7809   1.902   2.406   2.976
 1968SOL    HW1 7810   1.987   2.373   2.935
 1968SOL    HW2 7811   1.915   2.421   3.074
 1969SOL     OW 7812   2.051   2.382   3.584
 1969SOL    HW1 7813   2.110   2.342   3.514
 1969SOL    HW2 7814   1.993   2.453   3.543
 1970SOL     OW 7815   3.231   2.812   3.522
 1970SOL    HW1 7816   3.270   2.901   3.542
 1970SOL    HW2 7817   3.241   2.792   3.425
 1971SOL     OW 7818   2.677   2.434   2.187
 1971SOL    HW1 7819   2.684   2.345   2.141
 1971SOL    HW2 7820   2.583   2.468   2.179
 1972SOL     OW 7821   3.519   2.466   3.068
 1972SOL    HW1 7822   3.481   2.397   3.130
 1972SOL    HW2 7823   3.601   2.430   3.024
 1973SOL     OW 7824   2.114   3.426   3.606
 1973SOL    HW1 7825   2.084   3.483   3.682
 1973SOL    HW2 7826   2.107   3.329   3.632
 1974SOL     OW 7827   2.533   2.326   3.131
 1974SOL    HW1 7828   2.499   2.237   3.101
 1974SOL    HW2 7829   2.559   2.380   3.051
 1975SOL     OW 7830   2.335   2.362   2.053
 1975SOL    HW1 7831   2.396   2.442   2.057
 1975SOL    HW2 7832   2.240   2.393   2.060
 1976SOL     OW 7833   2.021   2.999   3.328
 1976SOL    HW1 7834   2.043   2.938   3.404
 1976SOL    HW2 7835   2.031   2.950   3.242
 1977SOL     OW 7836   3.209   2.921   3.096
 1977SOL    HW1 7837   3.233   2.858   3.022
 1977SOL    HW2 7838   3.119   2.961   3.078
 1978SOL     OW 7839   3.164   2.717   2.171
 1978SOL    HW1 7840   3.078   2.686   2.213
 1978SOL    HW2 7841   3.160   2.703   2.072
 1979SOL     OW 7842   1.945   3.120   2.884
 1979SOL    HW1 7843   1.940   3.119   2.984
 1979SOL    HW2 7844   1.862   3.079   2.846
 1980SOL     OW 7845   3.250   3.435   2.339
 1980SOL    HW1 7846   3.317   3.447   2.265
 1980SOL    HW2 7847   3.210   3.524   2.362
 1981SOL     OW 7848   1.992   3.656   3.713
 1981SOL    HW1 7849   1.951   3.582   3.766
 1981SOL    HW2 7850   2.056   3.707   3.771
 1982SOL     OW 7851   3.142   2.789   2.534
 1982SOL    HW1 7852   3.202   2.708   2.536
 1982SOL    HW2 7853   3.182   2.858   2.474
 1983SOL     OW 7854   2.534   3.478   2.016
 1983SOL    HW1 7855   2.543   3.488   1.917
 1983SOL    HW2 7856   2.494   3.389   2.037
 1984SOL     OW 7857   3.056   3.474   1.893
 1984SOL    HW1 7858   3.062   3.381   1.930
 1984SOL    HW2 7859   2.997   3.474   1.813
 1985SOL     OW 7860   2.778   2.772   2.153
 1985SOL    HW1 7861   2.841   2.810   2.085
 1985SOL    HW2 7862   2.818   2.689   2.192
 1986SOL     OW 7863   3.366   3.469   1.906
 1986SOL    HW1 7864   3.274   3.506   1.913
 1986SOL    HW2 7865   3.404   3.489   1.816
 1987SOL     OW 7866   3.476   3.154   3.151
 1987SOL    HW1 7867   3.536   3.157   3.231
 1987SOL    HW2 7868   3.401   3.218   3.164
 1988SOL     OW 7869   2.901   2.960   2.558
 1988SOL    HW1 7870   2.831   2.913   2.612
 1988SOL    HW2 7871   2.960   2.892   2.515
 1989SOL     OW 7872   2.876   2.098   2.833
 1989SOL    HW1 7873   2.868   2.062   2.740
 1989SOL    HW2 7874   2.874   2.022   2.898
 1990SOL     OW 7875   2.452   3.349   2.353
 1990SOL    HW1 7876   2.494   3.291   2.283
 1990SOL    HW2 7877   2.408   3.428   2.309
 1991SOL     OW 7878   3.571   2.247   3.243
 1991SOL    HW1 7879   3.644   2.316   3.247
 1991SOL    HW2 7880   3.599   2.172   3.184
 1992SOL     OW 7881   2.117   3.210   2.152
 1992SOL    HW1 7882   2.021   3.211   2.125
 1992SOL    HW2 7883   2.129   3.263   2.236
 1993SOL     OW 7884   1.967   2.875   3.588
 1993SOL    HW1 7885   1.890   2.842   3.642
 1993SOL    HW2 7886   2.052   2.845   3.630
 1994SOL     OW 7887   2.534   2.065   3.351
 1994SOL    HW1 7888   2.624   2.049   3.311
 1994SOL    HW2 7889   2.542   2.070   3.450
 1995SOL     OW 7890   1.937   2.207   1.895
 1995SOL    HW1 7891   1.845   2.179   1.866
 1995SOL    HW2 7892   1.968   2.284   1.839
 1996SOL     OW 7893   3.302   2.718   3.260
 1996SOL    HW1 7894   3.245   2.770   3.197
 1996SOL    HW2 7895   3.398   2.730   3.236
 1997SOL     OW 7896   1.934   2.028   2.180
 1997SOL    HW1 7897   1.917   2.111   2.126
 1997SOL    HW2 7898   2.024   1.991   2.158
 1998SOL     OW 7899   3.045   3.197   1.981
 1998SOL    HW1 7900   2.946   3.186   1.983
 1998SOL    HW2 7901   3.079   3.212   2.074
 1999SOL     OW 7902   3.355   3.629   2.821
 1999SOL    HW1 7903   3.388   3.693   2.752
 1999SOL    HW2 7904   3.421   3.623   2.896
 2000SOL     OW 7905   2.578   2.427   3.570
 2000SOL    HW1 7906   2.597   2.492   3.644
 2000SOL    HW2 7907   2.638   2.347   3.579
 2001SOL     OW 7908   3.312   3.082   3.495
 2001SOL    HW1 7909   3.303   3.072   3.594
 2001SOL    HW2 7910   3.408   3.075   3.469
 2002SOL     OW 7911   3.536   2.745   3.116
 2002SOL    HW1 7912   3.509   2.656   3.079
 2002SOL    HW2 7913   3.537   2.813   3.043
 2003SOL     OW 7914   3.087   2.187   2.311
 2003SOL    HW1 7915   3.152   2.113   2.300
 2003SOL    HW2 7916   3.107   2.237   2.395
 2004SOL     OW 7917   3.639   2.204   3.504
 2004SOL    HW1 7918   3.622   2.235   3.410
 2004SOL    HW2 7919   3.555   2.167   3.542
 2005SOL     OW 7920   3.592   2.796   3.379
 2005SOL    HW1 7921   3.630   2.887   3.394
 2005SOL    HW2 7922   3.584   2.779   3.280
 2006SOL     OW 7923   2.721   3.236   1.878
 2006SOL    HW1 7924   2.675   3.251   1.966
 2006SOL    HW2 7925   2.765   3.321   1.848
 2007SOL     OW 7926   2.523   3.652   2.815
 2007SOL    HW1 7927   2.477   3.740   2.802
 2007SOL    HW2 7928   2.622   3.664   2.808
 2008SOL     OW 7929   2.945   2.846   1.949
 2008SOL    HW1 7930   2.922   2.899   1.867
 2008SOL    HW2 7931   3.026   2.790   1.930
 2009SOL     OW 7932   2.083   3.176   3.706
 2009SOL    HW1 7933   2.018   3.103   3.685
 2009SOL    HW2 7934   2.087   3.190   3.804
 2010SOL     OW 7935   1.941   3.102   2.515
 2010SOL    HW1 7936   1.940   3.055   2.603
 2010SOL    HW2 7937   2.023   3.074   2.464
 2011SOL     OW 7938   3.686   2.054   3.089
 2011SOL    HW1 7939   3.682   1.964   3.133
 2011SOL    HW2 7940   3.689   2.043   2.990
 2012SOL     OW 7941   2.179   2.409   3.142
 2012SOL    HW1 7942   2.217   2.350   3.214
 2012SOL    HW2 7943   2.219   2.383   3.054
 2013SOL     OW 7944   2.674   3.448   2.549
 2013SOL    HW1 7945   2.706   3.458   2.455
 2013SOL    HW2 7946   2.595   3.386   2.551
 2014SOL     OW 7947   3.286   2.076   2.974
 2014SOL    HW1 7948   3.338   2.011   3.029
 2014SOL    HW2 7949   3.237   2.139   3.035
 2015SOL     OW 7950   2.863   1.896   3.016
 2015SOL    HW1 7951   2.800   1.824   2.985
 2015SOL    HW2 7952   2.956   1.860   3.016
 2016SOL     OW 7953   2.632   3.192   2.163
 2016SOL    HW1 7954   2.586   3.105   2.180
 2016SOL    HW2 7955   2.723   3.189   2.204
 2017SOL     OW 7956   3.214   1.914   2.030
 2017SOL    HW1 7957   3.249   1.873   1.946
 2017SOL    HW2 7958   3.124   1.876   2.050
 2018SOL     OW 7959   3.455   2.083   2.744
 2018SOL    HW1 7960   3.371   2.082   2.798
 2018SOL    HW2 7961   3.457   2.166   2.688
 2019SOL     OW 7962   1.901   2.939   2.162
 2019SOL    HW1 7963   2.000   2.928   2.153
 2019SOL    HW2 7964   1.861   2.853   2.194
 2020SOL     OW 7965   2.737   3.508   2.199
 2020SOL    HW1 7966   2.660   3.473   2.145
 2020SOL    HW2 7967   2.705   3.579   2.261
 2021SOL     OW 7968   2.092   2.490   3.837
 2021SOL    HW1 7969   1.999   2.488   3.874
 2021SOL    HW2 7970   2.093   2.451   3.745
 2022SOL     OW 7971   2.087   2.137   4.720
 2022SOL    HW1 7972   2.122   2.120   4.812
 2022SOL    HW2 7973   1.999   2.092   4.708
 2023SOL     OW 7974   1.881   2.230   4.371
 2023SOL    HW1 7975   1.799   2.273   4.410
 2023SOL    HW2 7976   1.853   2.157   4.308
 2024SOL     OW 7977   2.431   3.137   4.889
 2024SOL    HW1 7978   2.338   3.130   4.852
 2024SOL    HW2 7979   2.442   3.226   4.933
 2025SOL     OW 7980   3.417   3.373   4.427
 2025SOL    HW1 7981   3.360   3.357   4.508
 2025SOL    HW2 7982   3.358   3.383   4.347
 2026SOL     OW 7983   3.617   2.469   3.955
 2026SOL    HW1 7984   3.605   2.456   3.856
 2026SOL    HW2 7985   3.587   2.388   4.004
 2027SOL     OW 7986   2.630   3.006   4.747
 2027SOL    HW1 7987   2.552   3.023   4.807
 2027SOL    HW2 7988   2.664   3.093   4.711
 2028SOL     OW 7989   2.547   2.874   4.389
 2028SOL    HW1 7990   2.616   2.858   4.459
 2028SOL    HW2 7991   2.474   2.931   4.427
 2029SOL     OW 7992   2.197   3.297   4.785
 2029SOL    HW1 7993   2.119   3.266   4.732
 2029SOL    HW2 7994   2.255   3.355   4.728
 2030SOL     OW 7995   3.465   2.309   4.461
 2030SOL    HW1 7996   3.391   2.355   4.411
 2030SOL    HW2 7997   3.516   2.377   4.514
 2031SOL     OW 7998   2.093   3.575   4.207
 2031SOL    HW1 7999   2.127   3.652   4.261
 2031SOL    HW2 8000   2.137   3.575   4.117
 2032SOL     OW 8001   2.092   3.296   4.262
 2032SOL    HW1 8002   2.066   3.392   4.262
 2032SOL    HW2 8003   2.021   3.242   4.307
 2033SOL     OW 8004   2.102   2.953   4.610
 2033SOL    HW1 8005   2.116   2.869   4.662
 2033SOL    HW2 8006   2.047   3.017   4.665
 2034SOL     OW 8007   2.482   3.648   5.163
 2034SOL    HW1 8008   2.390   3.631   5.198
 2034SOL    HW2 8009   2.510   3.740   5.189
 2035SOL     OW 8010   2.468   2.826   3.847
 2035SOL    HW1 8011   2.475   2.910   3.793
 2035SOL    HW2 8012   2.514   2.839   3.935
 2036SOL     OW 8013   1.984   2.505   4.287
 2036SOL    HW1 8014   1.939   2.417   4.304
 2036SOL    HW2 8015   1.983   2.559   4.371
 2037SOL     OW 8016   3.704   3.629   4.083
 2037SOL    HW1 8017   3.758   3.600   4.163
 2037SOL    HW2 8018   3.734   3.719   4.054
 2038SOL     OW 8019   1.889   3.458   3.841
 2038SOL    HW1 8020   1.870   3.362   3.862
 2038SOL    HW2 8021   1.856   3.516   3.916
 2039SOL     OW 8022   3.551   2.784   4.336
 2039SOL    HW1 8023   3.646   2.755   4.344
 2039SOL    HW2 8024   3.543   2.849   4.261
 2040SOL     OW 8025   3.503   2.970   4.156
 2040SOL    HW1 8026   3.589   2.972   4.104
 2040SOL    HW2 8027   3.517   3.017   4.244
 2041SOL     OW 8028   2.671   1.866   4.226
 2041SOL    HW1 8029   2.711   1.957   4.217
 2041SOL    HW2 8030   2.571   1.874   4.232
 2042SOL     OW 8031   2.059   2.838   4.988
 2042SOL    HW1 8032   2.148   2.793   4.974
 2042SOL    HW2 8033   1.986   2.773   4.969
 2043SOL     OW 8034   3.387   2.861   3.914
 2043SOL    HW1 8035   3.324   2.785   3.927
 2043SOL    HW2 8036   3.435   2.879   4.000
 2044SOL     OW 8037   3.328   3.279   4.677
 2044SOL    HW1 8038   3.269   3.285   4.757
 2044SOL    HW2 8039   3.313   3.191   4.631
 2045SOL     OW 8040   3.529   3.576   4.296
 2045SOL    HW1 8041   3.488   3.553   4.208
 2045SOL    HW2 8042   3.511   3.502   4.361
 2046SOL     OW 8043   2.460   2.591   3.994
 2046SOL    HW1 8044   2.484   2.660   3.926
 2046SOL    HW2 8045   2.382   2.624   4.048
 2047SOL     OW 8046   3.143   2.207   4.668
 2047SOL    HW1 8047   3.057   2.157   4.655
 2047SOL    HW2 8048   3.205   2.153   4.724
 2048SOL     OW 8049   3.438   3.524   4.031
 2048SOL    HW1 8050   3.527   3.570   4.034
 2048SOL    HW2 8051   3.417   3.500   3.936
 2049SOL     OW 8052   2.853   2.272   4.966
 2049SOL    HW1 8053   2.776   2.306   5.020
 2049SOL    HW2 8054   2.819   2.221   4.887
 2050SOL     OW 8055   1.938   2.673   4.513
 2050SOL    HW1 8056   2.037   2.661   4.522
 2050SOL    HW2 8057   1.914   2.768   4.534
 2051SOL     OW 8058   2.412   2.058   4.609
 2051SOL    HW1 8059   2.407   2.053   4.709
 2051SOL    HW2 8060   2.414   2.154   4.580
 2052SOL     OW 8061   3.657   2.928   4.597
 2052SOL    HW1 8062   3.595   2.913   4.521
 2052SOL    HW2 8063   3.605   2.939   4.682
 2053SOL     OW 8064   2.183   2.805   3.966
 2053SOL    HW1 8065   2.265   2.844   3.924
 2053SOL    HW2 8066   2.156   2.723   3.917
 2054SOL     OW 8067   3.320   2.597   4.452
 2054SOL    HW1 8068   3.315   2.532   4.527
 2054SOL    HW2 8069   3.400   2.656   4.465
 2055SOL     OW 8070   3.494   3.239   3.805
 2055SOL    HW1 8071   3.462   3.333   3.795
 2055SOL    HW2 8072   3.418   3.176   3.793
 2056SOL     OW 8073   3.262   1.969   4.150
 2056SOL    HW1 8074   3.238   1.932   4.060
 2056SOL    HW2 8075   3.361   1.985   4.154
 2057SOL     OW 8076   2.111   3.647   4.965
 2057SOL    HW1 8077   2.168   3.582   5.015
 2057SOL    HW2 8078   2.095   3.614   4.872
 2058SOL     OW 8079   2.802   3.560   4.628
 2058SOL    HW1 8080   2.882   3.503   4.649
 2058SOL    HW2 8081   2.753   3.520   4.551
 2059SOL     OW 8082   2.244   2.562   4.204
 2059SOL    HW1 8083   2.289   2.472   4.201
 2059SOL    HW2 8084   2.150   2.551   4.237
 2060SOL     OW 8085   2.476   1.984   3.841
 2060SOL    HW1 8086   2.574   1.962   3.848
 2060SOL    HW2 8087   2.445   1.967   3.748
 2061SOL     OW 8088   2.401   1.926   4.236
 2061SOL    HW1 8089   2.320   1.927   4.294
 2061SOL    HW2 8090   2.404   2.009   4.181
 2062SOL     OW 8091   3.296   3.050   3.765
 2062SOL    HW1 8092   3.328   2.974   3.822
 2062SOL    HW2 8093   3.204   3.077   3.795
 2063SOL     OW 8094   2.159   1.897   3.895
 2063SOL    HW1 8095   2.208   1.981   3.874
 2063SOL    HW2 8096   2.221   1.832   3.940
 2064SOL     OW 8097   2.797   2.098   4.204
 2064SOL    HW1 8098   2.749   2.139   4.126
 2064SOL    HW2 8099   2.896   2.096   4.185
 2065SOL     OW 8100   2.321   3.014   4.465
 2065SOL    HW1 8101   2.250   2.987   4.530
 2065SOL    HW2 8102   2.295   2.986   4.372
 2066SOL     OW 8103   2.423   2.084   4.871
 2066SOL    HW1 8104   2.461   2.000   4.908
 2066SOL    HW2 8105   2.335   2.103   4.915
 2067SOL     OW 8106   2.879   1.901   4.477
 2067SOL    HW1 8107   2.807   1.906   4.408
 2067SOL    HW2 8108   2.855   1.832   4.546
 2068SOL     OW 8109   3.328   2.452   4.716
 2068SOL    HW1 8110   3.298   2.357   4.723
 2068SOL    HW2 8111   3.401   2.468   4.782
 2069SOL     OW 8112   3.719   2.695   4.101
 2069SOL    HW1 8113   3.761   2.631   4.165
 2069SOL    HW2 8114   3.681   2.644   4.023
 2070SOL     OW 8115   3.526   3.142   4.381
 2070SOL    HW1 8116   3.625   3.150   4.395
 2070SOL    HW2 8117   3.481   3.226   4.412
 2071SOL     OW 8118   2.389   2.118   4.052
 2071SOL    HW1 8119   2.416   2.059   3.977
 2071SOL    HW2 8120   2.389   2.213   4.021
 2072SOL     OW 8121   2.973   3.057   4.824
 2072SOL    HW1 8122   2.933   3.101   4.905
 2072SOL    HW2 8123   2.932   3.094   4.741
 2073SOL     OW 8124   3.500   2.961   4.803
 2073SOL    HW1 8125   3.505   3.042   4.862
 2073SOL    HW2 8126   3.414   2.963   4.752
 2074SOL     OW 8127   2.567   2.912   4.092
 2074SOL    HW1 8128   2.553   2.919   4.191
 2074SOL    HW2 8129   2.651   2.861   4.074
 2075SOL     OW 8130   2.272   2.675   4.975
 2075SOL    HW1 8131   2.358   2.687   5.025
 2075SOL    HW2 8132   2.230   2.588   5.002
 2076SOL     OW 8133   3.136   2.248   4.986
 2076SOL    HW1 8134   3.157   2.322   5.050
 2076SOL    HW2 8135   3.047   2.265   4.943
 2077SOL     OW 8136   2.229   2.962   4.225
 2077SOL    HW1 8137   2.222   3.045   4.169
 2077SOL    HW2 8138   2.233   2.882   4.165
 2078SOL     OW 8139   2.428   2.399   4.589
 2078SOL    HW1 8140   2.440   2.465   4.515
 2078SOL    HW2 8141   2.474   2.433   4.672
 2079SOL     OW 8142   3.134   3.307   4.866
 2079SOL    HW1 8143   3.181   3.320   4.953
 2079SOL    HW2 8144   3.068   3.233   4.875
 2080SOL     OW 8145   3.444   2.501   4.196
 2080SOL    HW1 8146   3.413   2.562   4.269
 2080SOL    HW2 8147   3.494   2.553   4.127
 2081SOL     OW 8148   2.216   3.372   5.053
 2081SOL    HW1 8149   2.195   3.328   4.966
 2081SOL    HW2 8150   2.313   3.398   5.056
 2082SOL     OW 8151   2.435   2.732   4.753
 2082SOL    HW1 8152   2.479   2.821   4.744
 2082SOL    HW2 8153   2.372   2.732   4.830
 2083SOL     OW 8154   3.222   2.724   4.769
 2083SOL    HW1 8155   3.147   2.724   4.703
 2083SOL    HW2 8156   3.259   2.632   4.778
 2084SOL     OW 8157   2.169   2.075   4.955
 2084SOL    HW1 8158   2.146   2.112   5.045
 2084SOL    HW2 8159   2.139   1.980   4.949
 2085SOL     OW 8160   1.899   3.172   5.006
 2085SOL    HW1 8161   1.952   3.123   5.074
 2085SOL    HW2 8162   1.921   3.270   5.011
 2086SOL     OW 8163   2.594   2.496   4.788
 2086SOL    HW1 8164   2.653   2.470   4.712
 2086SOL    HW2 8165   2.566   2.592   4.777
 2087SOL     OW 8166   2.169   1.925   4.342
 2087SOL    HW1 8167   2.158   2.019   4.375
 2087SOL    HW2 8168   2.164   1.862   4.419
 2088SOL     OW 8169   3.484   2.229   4.098
 2088SOL    HW1 8170   3.486   2.153   4.162
 2088SOL    HW2 8171   3.436   2.306   4.138
 2089SOL     OW 8172   2.885   2.628   4.690
 2089SOL    HW1 8173   2.900   2.649   4.786
 2089SOL    HW2 8174   2.855   2.533   4.681
 2090SOL     OW 8175   3.402   2.136   3.849
 2090SOL    HW1 8176   3.341   2.061   3.872
 2090SOL    HW2 8177   3.424   2.188   3.932
 2091SOL     OW 8178   3.165   2.700   3.766
 2091SOL    HW1 8179   3.199   2.607   3.781
 2091SOL    HW2 8180   3.183   2.727   3.671
 2092SOL     OW 8181   2.181   2.672   4.673
 2092SOL    HW1 8182   2.274   2.708   4.678
 2092SOL    HW2 8183   2.175   2.587   4.725
 2093SOL     OW 8184   2.201   2.371   4.730
 2093SOL    HW1 8185   2.149   2.288   4.713
 2093SOL    HW2 8186   2.278   2.376   4.666
 2094SOL     OW 8187   1.870   3.188   3.924
 2094SOL    HW1 8188   1.777   3.209   3.893
 2094SOL    HW2 8189   1.880   3.089   3.937
 2095SOL     OW 8190   1.950   3.663   4.651
 2095SOL    HW1 8191   1.908   3.577   4.624
 2095SOL    HW2 8192   2.044   3.666   4.617
 2096SOL     OW 8193   2.864   2.658   4.962
 2096SOL    HW1 8194   2.905   2.626   5.048
 2096SOL    HW2 8195   2.768   2.631   4.959
 2097SOL     OW 8196   1.902   2.406   4.838
 2097SOL    HW1 8197   1.987   2.373   4.797
 2097SOL    HW2 8198   1.915   2.421   4.936
 2098SOL     OW 8199   3.519   2.466   4.930
 2098SOL    HW1 8200   3.481   2.397   4.992
 2098SOL    HW2 8201   3.601   2.430   4.886
 2099SOL     OW 8202   2.533   2.326   4.993
 2099SOL    HW1 8203   2.499   2.237   4.963
 2099SOL    HW2 8204   2.559   2.380   4.913
 2100SOL     OW 8205   2.335   2.362   3.915
 2100SOL    HW1 8206   2.396   2.442   3.919
 2100SOL    HW2 8207   2.240   2.393   3.922
 2101SOL     OW 8208   3.209   2.921   4.958
 2101SOL    HW1 8209   3.233   2.858   4.884
 2101SOL    HW2 8210   3.119   2.961   4.940
 2102SOL     OW 8211   3.164   2.717   4.033
 2102SOL    HW1 8212   3.078   2.686   4.075
 2102SOL    HW2 8213   3.160   2.703   3.934
 2103SOL     OW 8214   3.621   3.609   4.878
 2103SOL    HW1 8215   3.682   3.639   4.805
 2103SOL    HW2 8216   3.583   3.520   4.856
 2104SOL     OW 8217   3.114   3.593   4.852
 2104SOL    HW1 8218   3.198   3.598   4.798
 2104SOL    HW2 8219   3.091   3.497   4.870
 2105SOL     OW 8220   1.945   3.120   4.746
 2105SOL    HW1 8221   1.940   3.119   4.846
 2105SOL    HW2 8222   1.862   3.079   4.708
 2106SOL     OW 8223   3.588   1.997   4.247
 2106SOL    HW1 8224   3.661   1.980   4.180
 2106SOL    HW2 8225   3.557   1.910   4.285
 2107SOL     OW 8226   3.142   2.789   4.396
 2107SOL    HW1 8227   3.202   2.708   4.398
 2107SOL    HW2 8228   3.182   2.858   4.336
 2108SOL     OW 8229   3.512   3.582   5.118
 2108SOL    HW1 8230   3.565   3.592   5.034
 2108SOL    HW2 8231   3.485   3.672   5.152
 2109SOL     OW 8232   3.703   2.037   4.687
 2109SOL    HW1 8233   3.742   1.952   4.651
 2109SOL    HW2 8234   3.605   2.039   4.668
 2110SOL     OW 8235   2.125   2.188   4.444
 2110SOL    HW1 8236   2.046   2.239   4.410
 2110SOL    HW2 8237   2.116   2.173   4.542
 2111SOL     OW 8238   2.684   2.864   5.096
 2111SOL    HW1 8239   2.724   2.863   5.004
 2111SOL    HW2 8240   2.694   2.956   5.136
 2112SOL     OW 8241   2.901   2.960   4.420
 2112SOL    HW1 8242   2.831   2.913   4.474
 2112SOL    HW2 8243   2.960   2.892   4.377
 2113SOL     OW 8244   2.876   2.098   4.695
 2113SOL    HW1 8245   2.868   2.062   4.602
 2113SOL    HW2 8246   2.874   2.022   4.760
 2114SOL     OW 8247   3.571   2.247   5.105
 2114SOL    HW1 8248   3.644   2.316   5.109
 2114SOL    HW2 8249   3.599   2.172   5.046
 2115SOL     OW 8250   2.117   3.210   4.014
 2115SOL    HW1 8251   2.021   3.211   3.987
 2115SOL    HW2 8252   2.129   3.263   4.098
 2116SOL     OW 8253   1.937   2.207   3.757
 2116SOL    HW1 8254   1.845   2.179   3.728
 2116SOL    HW2 8255   1.968   2.284   3.701
 2117SOL     OW 8256   1.934   2.028   4.042
 2117SOL    HW1 8257   1.917   2.111   3.988
 2117SOL    HW2 8258   2.024   1.991   4.020
 2118SOL     OW 8259   3.045   3.197   3.843
 2118SOL    HW1 8260   2.946   3.186   3.845
 2118SOL    HW2 8261   3.079   3.212   3.936
 2119SOL     OW 8262   3.355   3.629   4.683
 2119SOL    HW1 8263   3.388   3.693   4.614
 2119SOL    HW2 8264   3.421   3.623   4.758
 2120SOL     OW 8265   3.312   3.082   5.357
 2120SOL    HW1 8266   3.303   3.072   5.456
 2120SOL    HW2 8267   3.408   3.075   5.331
 2121SOL     OW 8268   3.536   2.745   4.978
 2121SOL    HW1 8269   3.509   2.656   4.941
 2121SOL    HW2 8270   3.537   2.813   4.905
 2122SOL     OW 8271   2.456   2.607   4.376
 2122SOL    HW1 8272   2.506   2.692   4.357
 2122SOL    HW2 8273   2.368   2.609   4.328
 2123SOL     OW 8274   3.592   2.796   5.241
 2123SOL    HW1 8275   3.630   2.887   5.256
 2123SOL    HW2 8276   3.584   2.779   5.142
 2124SOL     OW 8277   2.523   3.652   4.677
 2124SOL    HW1 8278   2.477   3.740   4.664
 2124SOL    HW2 8279   2.622   3.664   4.670
 2125SOL     OW 8280   2.721   2.818   4.585
 2125SOL    HW1 8281   2.775   2.749   4.633
 2125SOL    HW2 8282   2.689   2.887   4.651
 2126SOL     OW 8283   3.723   3.431   4.575
 2126SOL    HW1 8284   3.652   3.419   4.505
 2126SOL    HW2 8285   3.724   3.352   4.635
 2127SOL     OW 8286   1.941   3.102   4.377
 2127SOL    HW1 8287   1.940   3.055   4.465
 2127SOL    HW2 8288   2.023   3.074   4.326
 2128SOL     OW 8289   3.686   2.054   4.951
 2128SOL    HW1 8290   3.682   1.964   4.995
 2128SOL    HW2 8291   3.689   2.043   4.852
 2129SOL     OW 8292   2.290   2.286   4.244
 2129SOL    HW1 8293   2.320   2.214   4.182
 2129SOL    HW2 8294   2.251   2.246   4.327
 2130SOL     OW 8295   3.567   3.349   4.828
 2130SOL    HW1 8296   3.474   3.324   4.801
 2130SOL    HW2 8297   3.593   3.299   4.910
 2131SOL     OW 8298   3.286   2.076   4.836
 2131SOL    HW1 8299   3.338   2.011   4.891
 2131SOL    HW2 8300   3.237   2.139   4.897
 2132SOL     OW 8301   2.863   1.896   4.878
 2132SOL    HW1 8302   2.800   1.824   4.847
 2132SOL    HW2 8303   2.956   1.860   4.878
 2133SOL     OW 8304   3.214   1.914   3.892
 2133SOL    HW1 8305   3.249   1.873   3.808
 2133SOL    HW2 8306   3.124   1.876   3.912
 2134SOL     OW 8307   3.162   2.315   4.415
 2134SOL    HW1 8308   3.103   2.395   4.419
 2134SOL    HW2 8309   3.177   2.280   4.508
 2135SOL     OW 8310   3.455   2.083   4.606
 2135SOL    HW1 8311   3.371   2.082   4.660
 2135SOL    HW2 8312   3.457   2.166   4.550
 2136SOL     OW 8313   1.901   2.939   4.024
 2136SOL    HW1 8314   2.000   2.928   4.015
 2136SOL    HW2 8315   1.861   2.853   4.056
 2137SOL     OW 8316   2.087   3.999   0.996
 2137SOL    HW1 8317   2.122   3.982   1.088
 2137SOL    HW2 8318   1.999   3.954   0.984
 2138SOL     OW 8319   1.881   4.092   0.647
 2138SOL    HW1 8320   1.799   4.135   0.686
 2138SOL    HW2 8321   1.853   4.019   0.584
 2139SOL     OW 8322   3.417   5.235   0.703
 2139SOL    HW1 8323   3.360   5.219   0.784
 2139SOL    HW2 8324   3.358   5.245   0.623
 2140SOL     OW 8325   2.997   4.427   0.717
 2140SOL    HW1 8326   3.054   4.505   0.692
 2140SOL    HW2 8327   2.937   4.453   0.793
 2141SOL     OW 8328   3.617   4.331   0.231
 2141SOL    HW1 8329   3.605   4.318   0.132
 2141SOL    HW2 8330   3.587   4.250   0.280
 2142SOL     OW 8331   2.630   4.868   1.023
 2142SOL    HW1 8332   2.552   4.885   1.083
 2142SOL    HW2 8333   2.664   4.955   0.987
 2143SOL     OW 8334   2.712   4.522   1.823
 2143SOL    HW1 8335   2.708   4.598   1.888
 2143SOL    HW2 8336   2.734   4.558   1.732
 2144SOL     OW 8337   2.547   4.736   0.665
 2144SOL    HW1 8338   2.616   4.720   0.735
 2144SOL    HW2 8339   2.474   4.793   0.703
 2145SOL     OW 8340   2.548   4.885   1.803
 2145SOL    HW1 8341   2.608   4.964   1.817
 2145SOL    HW2 8342   2.462   4.916   1.762
 2146SOL     OW 8343   3.465   4.171   0.737
 2146SOL    HW1 8344   3.391   4.217   0.687
 2146SOL    HW2 8345   3.516   4.239   0.790
 2147SOL     OW 8346   2.468   4.688   0.123
 2147SOL    HW1 8347   2.475   4.772   0.069
 2147SOL    HW2 8348   2.514   4.701   0.211
 2148SOL     OW 8349   3.456   3.838   1.480
 2148SOL    HW1 8350   3.438   3.905   1.408
 2148SOL    HW2 8351   3.453   3.884   1.569
 2149SOL     OW 8352   1.984   4.367   0.563
 2149SOL    HW1 8353   1.939   4.279   0.580
 2149SOL    HW2 8354   1.983   4.421   0.647
 2150SOL     OW 8355   3.551   4.646   0.612
 2150SOL    HW1 8356   3.646   4.617   0.620
 2150SOL    HW2 8357   3.543   4.711   0.537
 2151SOL     OW 8358   3.503   4.832   0.432
 2151SOL    HW1 8359   3.589   4.834   0.380
 2151SOL    HW2 8360   3.517   4.879   0.520
 2152SOL     OW 8361   1.975   4.461   1.597
 2152SOL    HW1 8362   2.063   4.448   1.642
 2152SOL    HW2 8363   1.962   4.558   1.575
 2153SOL     OW 8364   2.059   4.700   1.264
 2153SOL    HW1 8365   2.148   4.655   1.250
 2153SOL    HW2 8366   1.986   4.635   1.245
 2154SOL     OW 8367   3.387   4.723   0.190
 2154SOL    HW1 8368   3.324   4.647   0.203
 2154SOL    HW2 8369   3.435   4.741   0.276
 2155SOL     OW 8370   2.179   3.975   1.801
 2155SOL    HW1 8371   2.250   4.046   1.807
 2155SOL    HW2 8372   2.091   4.014   1.829
 2156SOL     OW 8373   3.328   5.141   0.953
 2156SOL    HW1 8374   3.269   5.147   1.033
 2156SOL    HW2 8375   3.313   5.053   0.907
 2157SOL     OW 8376   3.143   4.069   0.944
 2157SOL    HW1 8377   3.057   4.019   0.931
 2157SOL    HW2 8378   3.205   4.015   1.000
 2158SOL     OW 8379   3.256   4.193   1.674
 2158SOL    HW1 8380   3.236   4.236   1.762
 2158SOL    HW2 8381   3.334   4.131   1.683
 2159SOL     OW 8382   2.835   4.614   1.572
 2159SOL    HW1 8383   2.881   4.530   1.543
 2159SOL    HW2 8384   2.779   4.648   1.497
 2160SOL     OW 8385   2.903   4.425   0.429
 2160SOL    HW1 8386   2.929   4.421   0.525
 2160SOL    HW2 8387   2.818   4.374   0.415
 2161SOL     OW 8388   1.938   4.535   0.789
 2161SOL    HW1 8389   2.037   4.523   0.798
 2161SOL    HW2 8390   1.914   4.630   0.810
 2162SOL     OW 8391   3.224   4.868   0.545
 2162SOL    HW1 8392   3.307   4.839   0.497
 2162SOL    HW2 8393   3.175   4.935   0.489
 2163SOL     OW 8394   3.657   4.790   0.873
 2163SOL    HW1 8395   3.595   4.775   0.797
 2163SOL    HW2 8396   3.605   4.801   0.958
 2164SOL     OW 8397   2.183   4.667   0.242
 2164SOL    HW1 8398   2.265   4.706   0.200
 2164SOL    HW2 8399   2.156   4.585   0.193
 2165SOL     OW 8400   3.320   4.459   0.728
 2165SOL    HW1 8401   3.315   4.394   0.803
 2165SOL    HW2 8402   3.400   4.518   0.741
 2166SOL     OW 8403   3.494   5.101   0.081
 2166SOL    HW1 8404   3.462   5.195   0.071
 2166SOL    HW2 8405   3.418   5.038   0.069
 2167SOL     OW 8406   3.262   3.831   0.426
 2167SOL    HW1 8407   3.238   3.794   0.336
 2167SOL    HW2 8408   3.361   3.847   0.430
 2168SOL     OW 8409   2.244   4.424   0.480
 2168SOL    HW1 8410   2.289   4.334   0.477
 2168SOL    HW2 8411   2.150   4.413   0.513
 2169SOL     OW 8412   3.409   3.946   1.729
 2169SOL    HW1 8413   3.404   3.983   1.821
 2169SOL    HW2 8414   3.337   3.877   1.717
 2170SOL     OW 8415   2.643   3.988   1.749
 2170SOL    HW1 8416   2.710   3.927   1.792
 2170SOL    HW2 8417   2.570   4.007   1.814
 2171SOL     OW 8418   3.213   4.314   1.433
 2171SOL    HW1 8419   3.241   4.271   1.518
 2171SOL    HW2 8420   3.238   4.410   1.434
 2172SOL     OW 8421   2.665   5.126   0.924
 2172SOL    HW1 8422   2.755   5.140   0.882
 2172SOL    HW2 8423   2.594   5.128   0.853
 2173SOL     OW 8424   2.784   4.227   0.899
 2173SOL    HW1 8425   2.759   4.218   0.803
 2173SOL    HW2 8426   2.832   4.145   0.930
 2174SOL     OW 8427   3.296   4.912   0.041
 2174SOL    HW1 8428   3.328   4.836   0.098
 2174SOL    HW2 8429   3.204   4.939   0.071
 2175SOL     OW 8430   2.159   3.759   0.171
 2175SOL    HW1 8431   2.208   3.843   0.150
 2175SOL    HW2 8432   2.221   3.694   0.216
 2176SOL     OW 8433   3.089   5.294   0.793
 2176SOL    HW1 8434   3.110   5.368   0.728
 2176SOL    HW2 8435   3.157   5.294   0.866
 2177SOL     OW 8436   2.728   4.178   0.642
 2177SOL    HW1 8437   2.696   4.250   0.580
 2177SOL    HW2 8438   2.752   4.097   0.589
 2178SOL     OW 8439   2.879   3.763   0.753
 2178SOL    HW1 8440   2.807   3.768   0.684
 2178SOL    HW2 8441   2.855   3.694   0.822
 2179SOL     OW 8442   3.291   4.897   0.867
 2179SOL    HW1 8443   3.236   4.813   0.860
 2179SOL    HW2 8444   3.317   4.926   0.775
 2180SOL     OW 8445   3.328   4.314   0.992
 2180SOL    HW1 8446   3.298   4.219   0.999
 2180SOL    HW2 8447   3.401   4.330   1.058
 2181SOL     OW 8448   3.719   4.557   0.377
 2181SOL    HW1 8449   3.761   4.493   0.441
 2181SOL    HW2 8450   3.681   4.506   0.299
 2182SOL     OW 8451   3.526   5.004   0.657
 2182SOL    HW1 8452   3.625   5.012   0.671
 2182SOL    HW2 8453   3.481   5.088   0.688
 2183SOL     OW 8454   3.252   4.299   0.078
 2183SOL    HW1 8455   3.198   4.278   0.159
 2183SOL    HW2 8456   3.343   4.258   0.087
 2184SOL     OW 8457   2.389   3.980   0.328
 2184SOL    HW1 8458   2.416   3.921   0.253
 2184SOL    HW2 8459   2.389   4.075   0.297
 2185SOL     OW 8460   3.500   4.823   1.079
 2185SOL    HW1 8461   3.505   4.904   1.138
 2185SOL    HW2 8462   3.414   4.825   1.028
 2186SOL     OW 8463   2.777   3.813   1.402
 2186SOL    HW1 8464   2.802   3.793   1.307
 2186SOL    HW2 8465   2.849   3.869   1.444
 2187SOL     OW 8466   2.842   4.840   1.719
 2187SOL    HW1 8467   2.743   4.846   1.729
 2187SOL    HW2 8468   2.865   4.760   1.663
 2188SOL     OW 8469   2.567   4.774   0.368
 2188SOL    HW1 8470   2.553   4.781   0.467
 2188SOL    HW2 8471   2.651   4.723   0.350
 2189SOL     OW 8472   2.272   4.537   1.251
 2189SOL    HW1 8473   2.358   4.549   1.301
 2189SOL    HW2 8474   2.230   4.450   1.278
 2190SOL     OW 8475   3.136   4.110   1.262
 2190SOL    HW1 8476   3.157   4.184   1.326
 2190SOL    HW2 8477   3.047   4.127   1.219
 2191SOL     OW 8478   2.229   4.824   0.501
 2191SOL    HW1 8479   2.222   4.907   0.445
 2191SOL    HW2 8480   2.233   4.744   0.441
 2192SOL     OW 8481   3.444   4.363   0.472
 2192SOL    HW1 8482   3.413   4.424   0.545
 2192SOL    HW2 8483   3.494   4.415   0.403
 2193SOL     OW 8484   2.264   4.475   1.598
 2193SOL    HW1 8485   2.332   4.530   1.551
 2193SOL    HW2 8486   2.304   4.387   1.625
 2194SOL     OW 8487   2.875   3.829   1.770
 2194SOL    HW1 8488   2.881   3.914   1.718
 2194SOL    HW2 8489   2.907   3.753   1.713
 2195SOL     OW 8490   2.435   4.594   1.029
 2195SOL    HW1 8491   2.479   4.683   1.020
 2195SOL    HW2 8492   2.372   4.594   1.106
 2196SOL     OW 8493   3.222   4.586   1.045
 2196SOL    HW1 8494   3.147   4.586   0.979
 2196SOL    HW2 8495   3.259   4.494   1.054
 2197SOL     OW 8496   3.071   4.249   0.275
 2197SOL    HW1 8497   3.084   4.165   0.329
 2197SOL    HW2 8498   3.042   4.323   0.335
 2198SOL     OW 8499   2.169   3.937   1.231
 2198SOL    HW1 8500   2.146   3.974   1.321
 2198SOL    HW2 8501   2.139   3.842   1.225
 2199SOL     OW 8502   2.169   3.787   0.618
 2199SOL    HW1 8503   2.158   3.881   0.651
 2199SOL    HW2 8504   2.164   3.724   0.695
 2200SOL     OW 8505   3.484   4.091   0.374
 2200SOL    HW1 8506   3.486   4.015   0.438
 2200SOL    HW2 8507   3.436   4.168   0.414
 2201SOL     OW 8508   2.212   4.622   1.804
 2201SOL    HW1 8509   2.288   4.666   1.852
 2201SOL    HW2 8510   2.247   4.575   1.722
 2202SOL     OW 8511   3.402   3.998   0.125
 2202SOL    HW1 8512   3.341   3.923   0.148
 2202SOL    HW2 8513   3.424   4.050   0.208
 2203SOL     OW 8514   3.165   4.562   0.042
 2203SOL    HW1 8515   3.199   4.469   0.057
 2203SOL    HW2 8516   3.183   4.589  -0.053
 2204SOL     OW 8517   3.000   4.104   1.678
 2204SOL    HW1 8518   2.955   4.167   1.742
 2204SOL    HW2 8519   3.093   4.135   1.661
 2205SOL     OW 8520   3.022   3.931   1.477
 2205SOL    HW1 8521   3.022   3.995   1.554
 2205SOL    HW2 8522   3.050   3.979   1.394
 2206SOL     OW 8523   1.902   4.268   1.114
 2206SOL    HW1 8524   1.987   4.235   1.073
 2206SOL    HW2 8525   1.915   4.283   1.212
 2207SOL     OW 8526   3.231   4.674   1.660
 2207SOL    HW1 8527   3.270   4.763   1.680
 2207SOL    HW2 8528   3.241   4.654   1.563
 2208SOL     OW 8529   3.519   4.328   1.206
 2208SOL    HW1 8530   3.481   4.259   1.268
 2208SOL    HW2 8531   3.601   4.292   1.162
 2209SOL     OW 8532   2.021   4.861   1.466
 2209SOL    HW1 8533   2.043   4.800   1.542
 2209SOL    HW2 8534   2.031   4.812   1.380
 2210SOL     OW 8535   3.209   4.783   1.234
 2210SOL    HW1 8536   3.233   4.720   1.160
 2210SOL    HW2 8537   3.119   4.823   1.216
 2211SOL     OW 8538   3.164   4.579   0.309
 2211SOL    HW1 8539   3.078   4.548   0.351
 2211SOL    HW2 8540   3.160   4.565   0.210
 2212SOL     OW 8541   1.945   4.982   1.022
 2212SOL    HW1 8542   1.940   4.981   1.122
 2212SOL    HW2 8543   1.862   4.941   0.984
 2213SOL     OW 8544   2.765   3.810   0.133
 2213SOL    HW1 8545   2.816   3.811   0.047
 2213SOL    HW2 8546   2.821   3.768   0.204
 2214SOL     OW 8547   3.588   3.859   0.523
 2214SOL    HW1 8548   3.661   3.842   0.456
 2214SOL    HW2 8549   3.557   3.772   0.561
 2215SOL     OW 8550   3.142   4.651   0.672
 2215SOL    HW1 8551   3.202   4.570   0.674
 2215SOL    HW2 8552   3.182   4.720   0.612
 2216SOL     OW 8553   2.692   4.997   1.422
 2216SOL    HW1 8554   2.687   5.030   1.517
 2216SOL    HW2 8555   2.606   5.016   1.376
 2217SOL     OW 8556   3.703   3.899   0.963
 2217SOL    HW1 8557   3.742   3.814   0.927
 2217SOL    HW2 8558   3.605   3.901   0.944
 2218SOL     OW 8559   2.125   4.050   0.720
 2218SOL    HW1 8560   2.046   4.101   0.686
 2218SOL    HW2 8561   2.116   4.035   0.818
 2219SOL     OW 8562   2.684   4.726   1.372
 2219SOL    HW1 8563   2.724   4.725   1.280
 2219SOL    HW2 8564   2.694   4.818   1.412
 2220SOL     OW 8565   2.778   4.634   0.291
 2220SOL    HW1 8566   2.841   4.672   0.223
 2220SOL    HW2 8567   2.818   4.551   0.330
 2221SOL     OW 8568   2.901   4.822   0.696
 2221SOL    HW1 8569   2.831   4.775   0.750
 2221SOL    HW2 8570   2.960   4.754   0.653
 2222SOL     OW 8571   2.876   3.960   0.971
 2222SOL    HW1 8572   2.868   3.924   0.878
 2222SOL    HW2 8573   2.874   3.884   1.036
 2223SOL     OW 8574   3.571   4.109   1.381
 2223SOL    HW1 8575   3.644   4.178   1.385
 2223SOL    HW2 8576   3.599   4.034   1.322
 2224SOL     OW 8577   1.967   4.737   1.726
 2224SOL    HW1 8578   1.890   4.704   1.780
 2224SOL    HW2 8579   2.052   4.707   1.768
 2225SOL     OW 8580   3.302   4.580   1.398
 2225SOL    HW1 8581   3.245   4.632   1.335
 2225SOL    HW2 8582   3.398   4.592   1.374
 2226SOL     OW 8583   1.934   3.890   0.318
 2226SOL    HW1 8584   1.917   3.973   0.264
 2226SOL    HW2 8585   2.024   3.853   0.296
 2227SOL     OW 8586   2.578   4.289   1.708
 2227SOL    HW1 8587   2.597   4.354   1.782
 2227SOL    HW2 8588   2.638   4.209   1.717
 2228SOL     OW 8589   3.312   4.944   1.633
 2228SOL    HW1 8590   3.303   4.934   1.732
 2228SOL    HW2 8591   3.408   4.937   1.607
 2229SOL     OW 8592   3.536   4.607   1.254
 2229SOL    HW1 8593   3.509   4.518   1.217
 2229SOL    HW2 8594   3.537   4.675   1.181
 2230SOL     OW 8595   3.639   4.066   1.642
 2230SOL    HW1 8596   3.622   4.097   1.548
 2230SOL    HW2 8597   3.555   4.029   1.680
 2231SOL     OW 8598   2.945   4.708   0.087
 2231SOL    HW1 8599   2.922   4.761   0.005
 2231SOL    HW2 8600   3.026   4.652   0.068
 2232SOL     OW 8601   1.941   4.964   0.653
 2232SOL    HW1 8602   1.940   4.917   0.741
 2232SOL    HW2 8603   2.023   4.936   0.602
 2233SOL     OW 8604   3.686   3.916   1.227
 2233SOL    HW1 8605   3.682   3.826   1.271
 2233SOL    HW2 8606   3.689   3.905   1.128
 2234SOL     OW 8607   2.290   4.148   0.520
 2234SOL    HW1 8608   2.320   4.076   0.458
 2234SOL    HW2 8609   2.251   4.108   0.603
 2235SOL     OW 8610   3.286   3.938   1.112
 2235SOL    HW1 8611   3.338   3.873   1.167
 2235SOL    HW2 8612   3.237   4.001   1.173
 2236SOL     OW 8613   2.863   3.758   1.154
 2236SOL    HW1 8614   2.800   3.686   1.123
 2236SOL    HW2 8615   2.956   3.722   1.154
 2237SOL     OW 8616   2.632   5.054   0.301
 2237SOL    HW1 8617   2.586   4.967   0.318
 2237SOL    HW2 8618   2.723   5.051   0.342
 2238SOL     OW 8619   3.214   3.776   0.168
 2238SOL    HW1 8620   3.249   3.735   0.084
 2238SOL    HW2 8621   3.124   3.738   0.188
 2239SOL     OW 8622   3.162   4.177   0.691
 2239SOL    HW1 8623   3.103   4.257   0.695
 2239SOL    HW2 8624   3.177   4.142   0.784
 2240SOL     OW 8625   3.455   3.945   0.882
 2240SOL    HW1 8626   3.371   3.944   0.936
 2240SOL    HW2 8627   3.457   4.028   0.826
 2241SOL     OW 8628   2.092   4.352   1.975
 2241SOL    HW1 8629   1.999   4.350   2.012
 2241SOL    HW2 8630   2.093   4.313   1.883
 2242SOL     OW 8631   1.881   4.092   2.509
 2242SOL    HW1 8632   1.799   4.135   2.548
 2242SOL    HW2 8633   1.853   4.019   2.446
 2243SOL     OW 8634   3.417   5.235   2.565
 2243SOL    HW1 8635   3.360   5.219   2.646
 2243SOL    HW2 8636   3.358   5.245   2.485
 2244SOL     OW 8637   2.997   4.427   2.579
 2244SOL    HW1 8638   3.054   4.505   2.554
 2244SOL    HW2 8639   2.937   4.453   2.655
 2245SOL     OW 8640   2.630   4.868   2.885
 2245SOL    HW1 8641   2.552   4.885   2.945
 2245SOL    HW2 8642   2.664   4.955   2.849
 2246SOL     OW 8643   2.712   4.522   3.685
 2246SOL    HW1 8644   2.708   4.598   3.750
 2246SOL    HW2 8645   2.734   4.558   3.594
 2247SOL     OW 8646   2.547   4.736   2.527
 2247SOL    HW1 8647   2.616   4.720   2.597
 2247SOL    HW2 8648   2.474   4.793   2.565
 2248SOL     OW 8649   2.548   4.885   3.665
 2248SOL    HW1 8650   2.608   4.964   3.679
 2248SOL    HW2 8651   2.462   4.916   3.624
 2249SOL     OW 8652   3.465   4.171   2.599
 2249SOL    HW1 8653   3.391   4.217   2.549
 2249SOL    HW2 8654   3.516   4.239   2.652
 2250SOL     OW 8655   2.468   4.688   1.985
 2250SOL    HW1 8656   2.475   4.772   1.931
 2250SOL    HW2 8657   2.514   4.701   2.073
 2251SOL     OW 8658   3.456   3.838   3.342
 2251SOL    HW1 8659   3.438   3.905   3.270
 2251SOL    HW2 8660   3.453   3.884   3.431
 2252SOL     OW 8661   1.984   4.367   2.425
 2252SOL    HW1 8662   1.939   4.279   2.442
 2252SOL    HW2 8663   1.983   4.421   2.509
 2253SOL     OW 8664   1.975   4.461   3.459
 2253SOL    HW1 8665   2.063   4.448   3.504
 2253SOL    HW2 8666   1.962   4.558   3.437
 2254SOL     OW 8667   3.155   4.952   3.285
 2254SOL    HW1 8668   3.192   4.879   3.227
 2254SOL    HW2 8669   3.207   4.957   3.370
 2255SOL     OW 8670   2.671   3.728   2.364
 2255SOL    HW1 8671   2.711   3.819   2.355
 2255SOL    HW2 8672   2.571   3.736   2.370
 2256SOL     OW 8673   2.059   4.700   3.126
 2256SOL    HW1 8674   2.148   4.655   3.112
 2256SOL    HW2 8675   1.986   4.635   3.107
 2257SOL     OW 8676   3.328   5.141   2.815
 2257SOL    HW1 8677   3.269   5.147   2.895
 2257SOL    HW2 8678   3.313   5.053   2.769
 2258SOL     OW 8679   2.460   4.453   2.132
 2258SOL    HW1 8680   2.484   4.522   2.064
 2258SOL    HW2 8681   2.382   4.486   2.186
 2259SOL     OW 8682   3.143   4.069   2.806
 2259SOL    HW1 8683   3.057   4.019   2.793
 2259SOL    HW2 8684   3.205   4.015   2.862
 2260SOL     OW 8685   2.669   4.329   3.327
 2260SOL    HW1 8686   2.622   4.326   3.416
 2260SOL    HW2 8687   2.618   4.274   3.261
 2261SOL     OW 8688   3.256   4.193   3.536
 2261SOL    HW1 8689   3.236   4.236   3.624
 2261SOL    HW2 8690   3.334   4.131   3.545
 2262SOL     OW 8691   2.835   4.614   3.434
 2262SOL    HW1 8692   2.881   4.530   3.405
 2262SOL    HW2 8693   2.779   4.648   3.359
 2263SOL     OW 8694   2.853   4.134   3.104
 2263SOL    HW1 8695   2.776   4.168   3.158
 2263SOL    HW2 8696   2.819   4.083   3.025
 2264SOL     OW 8697   2.903   4.425   2.291
 2264SOL    HW1 8698   2.929   4.421   2.387
 2264SOL    HW2 8699   2.818   4.374   2.277
 2265SOL     OW 8700   1.938   4.535   2.651
 2265SOL    HW1 8701   2.037   4.523   2.660
 2265SOL    HW2 8702   1.914   4.630   2.672
 2266SOL     OW 8703   2.727   4.072   2.057
 2266SOL    HW1 8704   2.786   4.135   2.008
 2266SOL    HW2 8705   2.746   3.978   2.028
 2267SOL     OW 8706   3.581   4.309   3.693
 2267SOL    HW1 8707   3.555   4.398   3.657
 2267SOL    HW2 8708   3.579   4.241   3.620
 2268SOL     OW 8709   3.224   4.868   2.407
 2268SOL    HW1 8710   3.307   4.839   2.359
 2268SOL    HW2 8711   3.175   4.935   2.351
 2269SOL     OW 8712   2.183   4.667   2.104
 2269SOL    HW1 8713   2.265   4.706   2.062
 2269SOL    HW2 8714   2.156   4.585   2.055
 2270SOL     OW 8715   3.320   4.459   2.590
 2270SOL    HW1 8716   3.315   4.394   2.665
 2270SOL    HW2 8717   3.400   4.518   2.603
 2271SOL     OW 8718   2.064   4.009   3.360
 2271SOL    HW1 8719   1.984   4.069   3.347
 2271SOL    HW2 8720   2.054   3.960   3.446
 2272SOL     OW 8721   3.262   3.831   2.288
 2272SOL    HW1 8722   3.238   3.794   2.198
 2272SOL    HW2 8723   3.361   3.847   2.292
 2273SOL     OW 8724   2.244   4.424   2.342
 2273SOL    HW1 8725   2.289   4.334   2.339
 2273SOL    HW2 8726   2.150   4.413   2.375
 2274SOL     OW 8727   3.409   3.946   3.591
 2274SOL    HW1 8728   3.404   3.983   3.683
 2274SOL    HW2 8729   3.337   3.877   3.579
 2275SOL     OW 8730   2.643   3.988   3.611
 2275SOL    HW1 8731   2.710   3.927   3.654
 2275SOL    HW2 8732   2.570   4.007   3.676
 2276SOL     OW 8733   3.213   4.314   3.295
 2276SOL    HW1 8734   3.241   4.271   3.380
 2276SOL    HW2 8735   3.238   4.410   3.296
 2277SOL     OW 8736   2.665   5.126   2.786
 2277SOL    HW1 8737   2.755   5.140   2.744
 2277SOL    HW2 8738   2.594   5.128   2.715
 2278SOL     OW 8739   2.784   4.227   2.761
 2278SOL    HW1 8740   2.759   4.218   2.665
 2278SOL    HW2 8741   2.832   4.145   2.792
 2279SOL     OW 8742   2.401   3.788   2.374
 2279SOL    HW1 8743   2.320   3.789   2.432
 2279SOL    HW2 8744   2.404   3.871   2.319
 2280SOL     OW 8745   2.797   3.960   2.342
 2280SOL    HW1 8746   2.749   4.001   2.264
 2280SOL    HW2 8747   2.896   3.958   2.323
 2281SOL     OW 8748   2.938   4.407   3.326
 2281SOL    HW1 8749   2.858   4.346   3.329
 2281SOL    HW2 8750   3.019   4.354   3.302
 2282SOL     OW 8751   3.089   5.294   2.655
 2282SOL    HW1 8752   3.110   5.368   2.590
 2282SOL    HW2 8753   3.157   5.294   2.728
 2283SOL     OW 8754   2.894   4.273   1.878
 2283SOL    HW1 8755   2.853   4.355   1.839
 2283SOL    HW2 8756   2.958   4.299   1.951
 2284SOL     OW 8757   1.940   4.280   3.248
 2284SOL    HW1 8758   2.032   4.279   3.207
 2284SOL    HW2 8759   1.934   4.354   3.315
 2285SOL     OW 8760   2.728   4.178   2.504
 2285SOL    HW1 8761   2.696   4.250   2.442
 2285SOL    HW2 8762   2.752   4.097   2.451
 2286SOL     OW 8763   2.879   3.763   2.615
 2286SOL    HW1 8764   2.807   3.768   2.546
 2286SOL    HW2 8765   2.855   3.694   2.684
 2287SOL     OW 8766   3.291   4.897   2.729
 2287SOL    HW1 8767   3.236   4.813   2.722
 2287SOL    HW2 8768   3.317   4.926   2.637
 2288SOL     OW 8769   3.328   4.314   2.854
 2288SOL    HW1 8770   3.298   4.219   2.861
 2288SOL    HW2 8771   3.401   4.330   2.920
 2289SOL     OW 8772   3.526   5.004   2.519
 2289SOL    HW1 8773   3.625   5.012   2.533
 2289SOL    HW2 8774   3.481   5.088   2.550
 2290SOL     OW 8775   2.389   3.980   2.190
 2290SOL    HW1 8776   2.416   3.921   2.115
 2290SOL    HW2 8777   2.389   4.075   2.159
 2291SOL     OW 8778   3.500   4.823   2.941
 2291SOL    HW1 8779   3.505   4.904   3.000
 2291SOL    HW2 8780   3.414   4.825   2.890
 2292SOL     OW 8781   2.842   4.840   3.581
 2292SOL    HW1 8782   2.743   4.846   3.591
 2292SOL    HW2 8783   2.865   4.760   3.525
 2293SOL     OW 8784   2.567   4.774   2.230
 2293SOL    HW1 8785   2.553   4.781   2.329
 2293SOL    HW2 8786   2.651   4.723   2.212
 2294SOL     OW 8787   2.272   4.537   3.113
 2294SOL    HW1 8788   2.358   4.549   3.163
 2294SOL    HW2 8789   2.230   4.450   3.140
 2295SOL     OW 8790   3.136   4.110   3.124
 2295SOL    HW1 8791   3.157   4.184   3.188
 2295SOL    HW2 8792   3.047   4.127   3.081
 2296SOL     OW 8793   3.444   4.363   2.334
 2296SOL    HW1 8794   3.413   4.424   2.407
 2296SOL    HW2 8795   3.494   4.415   2.265
 2297SOL     OW 8796   3.449   4.503   3.532
 2297SOL    HW1 8797   3.357   4.541   3.527
 2297SOL    HW2 8798   3.509   4.550   3.467
 2298SOL     OW 8799   2.875   3.829   3.632
 2298SOL    HW1 8800   2.881   3.914   3.580
 2298SOL    HW2 8801   2.907   3.753   3.575
 2299SOL     OW 8802   2.366   3.774   3.602
 2299SOL    HW1 8803   2.324   3.717   3.532
 2299SOL    HW2 8804   2.300   3.843   3.634
 2300SOL     OW 8805   2.435   4.594   2.891
 2300SOL    HW1 8806   2.479   4.683   2.882
 2300SOL    HW2 8807   2.372   4.594   2.968
 2301SOL     OW 8808   3.222   4.586   2.907
 2301SOL    HW1 8809   3.147   4.586   2.841
 2301SOL    HW2 8810   3.259   4.494   2.916
 2302SOL     OW 8811   3.071   4.249   2.137
 2302SOL    HW1 8812   3.084   4.165   2.191
 2302SOL    HW2 8813   3.042   4.323   2.197
 2303SOL     OW 8814   2.594   4.358   2.926
 2303SOL    HW1 8815   2.653   4.332   2.850
 2303SOL    HW2 8816   2.566   4.454   2.915
 2304SOL     OW 8817   3.590   4.659   3.716
 2304SOL    HW1 8818   3.544   4.652   3.627
 2304SOL    HW2 8819   3.528   4.703   3.782
 2305SOL     OW 8820   2.169   3.787   2.480
 2305SOL    HW1 8821   2.158   3.881   2.513
 2305SOL    HW2 8822   2.164   3.724   2.557
 2306SOL     OW 8823   3.484   4.091   2.236
 2306SOL    HW1 8824   3.486   4.015   2.300
 2306SOL    HW2 8825   3.436   4.168   2.276
 2307SOL     OW 8826   2.885   4.490   2.828
 2307SOL    HW1 8827   2.900   4.511   2.924
 2307SOL    HW2 8828   2.855   4.395   2.819
 2308SOL     OW 8829   3.721   5.242   3.467
 2308SOL    HW1 8830   3.735   5.269   3.372
 2308SOL    HW2 8831   3.804   5.264   3.520
 2309SOL     OW 8832   2.212   4.622   3.666
 2309SOL    HW1 8833   2.288   4.666   3.714
 2309SOL    HW2 8834   2.247   4.575   3.584
 2310SOL     OW 8835   3.165   4.562   1.904
 2310SOL    HW1 8836   3.199   4.469   1.919
 2310SOL    HW2 8837   3.183   4.589   1.809
 2311SOL     OW 8838   2.181   4.534   2.811
 2311SOL    HW1 8839   2.274   4.570   2.816
 2311SOL    HW2 8840   2.175   4.449   2.863
 2312SOL     OW 8841   2.201   4.233   2.868
 2312SOL    HW1 8842   2.149   4.150   2.851
 2312SOL    HW2 8843   2.278   4.238   2.804
 2313SOL     OW 8844   3.000   4.104   3.540
 2313SOL    HW1 8845   2.955   4.167   3.604
 2313SOL    HW2 8846   3.093   4.135   3.523
 2314SOL     OW 8847   1.870   5.050   2.062
 2314SOL    HW1 8848   1.777   5.071   2.031
 2314SOL    HW2 8849   1.880   4.951   2.075
 2315SOL     OW 8850   2.864   4.520   3.100
 2315SOL    HW1 8851   2.905   4.488   3.186
 2315SOL    HW2 8852   2.768   4.493   3.097
 2316SOL     OW 8853   1.902   4.268   2.976
 2316SOL    HW1 8854   1.987   4.235   2.935
 2316SOL    HW2 8855   1.915   4.283   3.074
 2317SOL     OW 8856   2.051   4.244   3.584
 2317SOL    HW1 8857   2.110   4.204   3.514
 2317SOL    HW2 8858   1.993   4.315   3.543
 2318SOL     OW 8859   3.231   4.674   3.522
 2318SOL    HW1 8860   3.270   4.763   3.542
 2318SOL    HW2 8861   3.241   4.654   3.425
 2319SOL     OW 8862   2.677   4.296   2.187
 2319SOL    HW1 8863   2.684   4.207   2.141
 2319SOL    HW2 8864   2.583   4.330   2.179
 2320SOL     OW 8865   3.519   4.328   3.068
 2320SOL    HW1 8866   3.481   4.259   3.130
 2320SOL    HW2 8867   3.601   4.292   3.024
 2321SOL     OW 8868   2.335   4.224   2.053
 2321SOL    HW1 8869   2.396   4.304   2.057
 2321SOL    HW2 8870   2.240   4.255   2.060
 2322SOL     OW 8871   2.021   4.861   3.328
 2322SOL    HW1 8872   2.043   4.800   3.404
 2322SOL    HW2 8873   2.031   4.812   3.242
 2323SOL     OW 8874   3.209   4.783   3.096
 2323SOL    HW1 8875   3.233   4.720   3.022
 2323SOL    HW2 8876   3.119   4.823   3.078
 2324SOL     OW 8877   3.588   3.859   2.385
 2324SOL    HW1 8878   3.661   3.842   2.318
 2324SOL    HW2 8879   3.557   3.772   2.423
 2325SOL     OW 8880   3.142   4.651   2.534
 2325SOL    HW1 8881   3.202   4.570   2.536
 2325SOL    HW2 8882   3.182   4.720   2.474
 2326SOL     OW 8883   2.692   4.997   3.284
 2326SOL    HW1 8884   2.687   5.030   3.379
 2326SOL    HW2 8885   2.606   5.016   3.238
 2327SOL     OW 8886   3.703   3.899   2.825
 2327SOL    HW1 8887   3.742   3.814   2.789
 2327SOL    HW2 8888   3.605   3.901   2.806
 2328SOL     OW 8889   2.125   4.050   2.582
 2328SOL    HW1 8890   2.046   4.101   2.548
 2328SOL    HW2 8891   2.116   4.035   2.680
 2329SOL     OW 8892   2.684   4.726   3.234
 2329SOL    HW1 8893   2.724   4.725   3.142
 2329SOL    HW2 8894   2.694   4.818   3.274
 2330SOL     OW 8895   3.476   5.016   3.151
 2330SOL    HW1 8896   3.536   5.019   3.231
 2330SOL    HW2 8897   3.401   5.080   3.164
 2331SOL     OW 8898   2.901   4.822   2.558
 2331SOL    HW1 8899   2.831   4.775   2.612
 2331SOL    HW2 8900   2.960   4.754   2.515
 2332SOL     OW 8901   2.876   3.960   2.833
 2332SOL    HW1 8902   2.868   3.924   2.740
 2332SOL    HW2 8903   2.874   3.884   2.898
 2333SOL     OW 8904   3.571   4.109   3.243
 2333SOL    HW1 8905   3.644   4.178   3.247
 2333SOL    HW2 8906   3.599   4.034   3.184
 2334SOL     OW 8907   1.967   4.737   3.588
 2334SOL    HW1 8908   1.890   4.704   3.642
 2334SOL    HW2 8909   2.052   4.707   3.630
 2335SOL     OW 8910   2.534   3.927   3.351
 2335SOL    HW1 8911   2.624   3.911   3.311
 2335SOL    HW2 8912   2.542   3.932   3.450
 2336SOL     OW 8913   3.302   4.580   3.260
 2336SOL    HW1 8914   3.245   4.632   3.197
 2336SOL    HW2 8915   3.398   4.592   3.236
 2337SOL     OW 8916   1.934   3.890   2.180
 2337SOL    HW1 8917   1.917   3.973   2.126
 2337SOL    HW2 8918   2.024   3.853   2.158
 2338SOL     OW 8919   2.475   4.566   3.293
 2338SOL    HW1 8920   2.531   4.647   3.276
 2338SOL    HW2 8921   2.534   4.486   3.296
 2339SOL     OW 8922   2.578   4.289   3.570
 2339SOL    HW1 8923   2.597   4.354   3.644
 2339SOL    HW2 8924   2.638   4.209   3.579
 2340SOL     OW 8925   3.312   4.944   3.495
 2340SOL    HW1 8926   3.303   4.934   3.594
 2340SOL    HW2 8927   3.408   4.937   3.469
 2341SOL     OW 8928   3.087   4.049   2.311
 2341SOL    HW1 8929   3.152   3.975   2.300
 2341SOL    HW2 8930   3.107   4.099   2.395
 2342SOL     OW 8931   2.456   4.469   2.514
 2342SOL    HW1 8932   2.506   4.554   2.495
 2342SOL    HW2 8933   2.368   4.471   2.466
 2343SOL     OW 8934   3.639   4.066   3.504
 2343SOL    HW1 8935   3.622   4.097   3.410
 2343SOL    HW2 8936   3.555   4.029   3.542
 2344SOL     OW 8937   2.721   4.680   2.723
 2344SOL    HW1 8938   2.775   4.611   2.771
 2344SOL    HW2 8939   2.689   4.749   2.789
 2345SOL     OW 8940   2.290   4.148   2.382
 2345SOL    HW1 8941   2.320   4.076   2.320
 2345SOL    HW2 8942   2.251   4.108   2.465
 2346SOL     OW 8943   2.179   4.271   3.142
 2346SOL    HW1 8944   2.217   4.212   3.214
 2346SOL    HW2 8945   2.219   4.245   3.054
 2347SOL     OW 8946   2.632   5.054   2.163
 2347SOL    HW1 8947   2.586   4.967   2.180
 2347SOL    HW2 8948   2.723   5.051   2.204
 2348SOL     OW 8949   3.214   3.776   2.030
 2348SOL    HW1 8950   3.249   3.735   1.946
 2348SOL    HW2 8951   3.124   3.738   2.050
 2349SOL     OW 8952   3.162   4.177   2.553
 2349SOL    HW1 8953   3.103   4.257   2.557
 2349SOL    HW2 8954   3.177   4.142   2.646
 2350SOL     OW 8955   3.455   3.945   2.744
 2350SOL    HW1 8956   3.371   3.944   2.798
 2350SOL    HW2 8957   3.457   4.028   2.688
 2351SOL     OW 8958   1.901   4.801   2.162
 2351SOL    HW1 8959   2.000   4.790   2.153
 2351SOL    HW2 8960   1.861   4.715   2.194
 2352SOL     OW 8961   2.092   4.352   3.837
 2352SOL    HW1 8962   1.999   4.350   3.874
 2352SOL    HW2 8963   2.093   4.313   3.745
 2353SOL     OW 8964   2.087   3.999   4.720
 2353SOL    HW1 8965   2.122   3.982   4.812
 2353SOL    HW2 8966   1.999   3.954   4.708
 2354SOL     OW 8967   1.881   4.092   4.371
 2354SOL    HW1 8968   1.799   4.135   4.410
 2354SOL    HW2 8969   1.853   4.019   4.308
 2355SOL     OW 8970   2.431   4.999   4.889
 2355SOL    HW1 8971   2.338   4.992   4.852
 2355SOL    HW2 8972   2.442   5.088   4.933
 2356SOL     OW 8973   3.417   5.235   4.427
 2356SOL    HW1 8974   3.360   5.219   4.508
 2356SOL    HW2 8975   3.358   5.245   4.347
 2357SOL     OW 8976   2.997   4.427   4.441
 2357SOL    HW1 8977   3.054   4.505   4.416
 2357SOL    HW2 8978   2.937   4.453   4.517
 2358SOL     OW 8979   3.617   4.331   3.955
 2358SOL    HW1 8980   3.605   4.318   3.856
 2358SOL    HW2 8981   3.587   4.250   4.004
 2359SOL     OW 8982   2.630   4.868   4.747
 2359SOL    HW1 8983   2.552   4.885   4.807
 2359SOL    HW2 8984   2.664   4.955   4.711
 2360SOL     OW 8985   2.547   4.736   4.389
 2360SOL    HW1 8986   2.616   4.720   4.459
 2360SOL    HW2 8987   2.474   4.793   4.427
 2361SOL     OW 8988   2.197   5.159   4.785
 2361SOL    HW1 8989   2.119   5.128   4.732
 2361SOL    HW2 8990   2.255   5.217   4.728
 2362SOL     OW 8991   3.465   4.171   4.461
 2362SOL    HW1 8992   3.391   4.217   4.411
 2362SOL    HW2 8993   3.516   4.239   4.514
 2363SOL     OW 8994   2.102   4.815   4.610
 2363SOL    HW1 8995   2.116   4.731   4.662
 2363SOL    HW2 8996   2.047   4.879   4.665
 2364SOL     OW 8997   2.468   4.688   3.847
 2364SOL    HW1 8998   2.475   4.772   3.793
 2364SOL    HW2 8999   2.514   4.701   3.935
 2365SOL     OW 9000   1.984   4.367   4.287
 2365SOL    HW1 9001   1.939   4.279   4.304
 2365SOL    HW2 9002   1.983   4.421   4.371
 2366SOL     OW 9003   3.551   4.646   4.336
 2366SOL    HW1 9004   3.646   4.617   4.344
 2366SOL    HW2 9005   3.543   4.711   4.261
 2367SOL     OW 9006   3.503   4.832   4.156
 2367SOL    HW1 9007   3.589   4.834   4.104
 2367SOL    HW2 9008   3.517   4.879   4.244
 2368SOL     OW 9009   2.059   4.700   4.988
 2368SOL    HW1 9010   2.148   4.655   4.974
 2368SOL    HW2 9011   1.986   4.635   4.969
 2369SOL     OW 9012   3.387   4.723   3.914
 2369SOL    HW1 9013   3.324   4.647   3.927
 2369SOL    HW2 9014   3.435   4.741   4.000
 2370SOL     OW 9015   3.328   5.141   4.677
 2370SOL    HW1 9016   3.269   5.147   4.757
 2370SOL    HW2 9017   3.313   5.053   4.631
 2371SOL     OW 9018   2.460   4.453   3.994
 2371SOL    HW1 9019   2.484   4.522   3.926
 2371SOL    HW2 9020   2.382   4.486   4.048
 2372SOL     OW 9021   3.143   4.069   4.668
 2372SOL    HW1 9022   3.057   4.019   4.655
 2372SOL    HW2 9023   3.205   4.015   4.724
 2373SOL     OW 9024   2.903   4.425   4.153
 2373SOL    HW1 9025   2.929   4.421   4.249
 2373SOL    HW2 9026   2.818   4.374   4.139
 2374SOL     OW 9027   2.727   4.072   3.919
 2374SOL    HW1 9028   2.786   4.135   3.870
 2374SOL    HW2 9029   2.746   3.978   3.890
 2375SOL     OW 9030   3.224   4.868   4.269
 2375SOL    HW1 9031   3.307   4.839   4.221
 2375SOL    HW2 9032   3.175   4.935   4.213
 2376SOL     OW 9033   3.657   4.790   4.597
 2376SOL    HW1 9034   3.595   4.775   4.521
 2376SOL    HW2 9035   3.605   4.801   4.682
 2377SOL     OW 9036   2.183   4.667   3.966
 2377SOL    HW1 9037   2.265   4.706   3.924
 2377SOL    HW2 9038   2.156   4.585   3.917
 2378SOL     OW 9039   3.320   4.459   4.452
 2378SOL    HW1 9040   3.315   4.394   4.527
 2378SOL    HW2 9041   3.400   4.518   4.465
 2379SOL     OW 9042   3.262   3.831   4.150
 2379SOL    HW1 9043   3.238   3.794   4.060
 2379SOL    HW2 9044   3.361   3.847   4.154
 2380SOL     OW 9045   2.244   4.424   4.204
 2380SOL    HW1 9046   2.289   4.334   4.201
 2380SOL    HW2 9047   2.150   4.413   4.237
 2381SOL     OW 9048   2.476   3.846   3.841
 2381SOL    HW1 9049   2.574   3.824   3.848
 2381SOL    HW2 9050   2.445   3.829   3.748
 2382SOL     OW 9051   2.784   4.227   4.623
 2382SOL    HW1 9052   2.759   4.218   4.527
 2382SOL    HW2 9053   2.832   4.145   4.654
 2383SOL     OW 9054   3.296   4.912   3.765
 2383SOL    HW1 9055   3.328   4.836   3.822
 2383SOL    HW2 9056   3.204   4.939   3.795
 2384SOL     OW 9057   2.159   3.759   3.895
 2384SOL    HW1 9058   2.208   3.843   3.874
 2384SOL    HW2 9059   2.221   3.694   3.940
 2385SOL     OW 9060   3.089   5.294   4.517
 2385SOL    HW1 9061   3.110   5.368   4.452
 2385SOL    HW2 9062   3.157   5.294   4.590
 2386SOL     OW 9063   2.321   4.876   4.465
 2386SOL    HW1 9064   2.250   4.849   4.530
 2386SOL    HW2 9065   2.295   4.848   4.372
 2387SOL     OW 9066   2.894   4.273   3.740
 2387SOL    HW1 9067   2.853   4.355   3.701
 2387SOL    HW2 9068   2.958   4.299   3.813
 2388SOL     OW 9069   2.423   3.946   4.871
 2388SOL    HW1 9070   2.461   3.862   4.908
 2388SOL    HW2 9071   2.335   3.965   4.915
 2389SOL     OW 9072   2.728   4.178   4.366
 2389SOL    HW1 9073   2.696   4.250   4.304
 2389SOL    HW2 9074   2.752   4.097   4.313
 2390SOL     OW 9075   2.879   3.763   4.477
 2390SOL    HW1 9076   2.807   3.768   4.408
 2390SOL    HW2 9077   2.855   3.694   4.546
 2391SOL     OW 9078   3.291   4.897   4.591
 2391SOL    HW1 9079   3.236   4.813   4.584
 2391SOL    HW2 9080   3.317   4.926   4.499
 2392SOL     OW 9081   3.328   4.314   4.716
 2392SOL    HW1 9082   3.298   4.219   4.723
 2392SOL    HW2 9083   3.401   4.330   4.782
 2393SOL     OW 9084   3.719   4.557   4.101
 2393SOL    HW1 9085   3.761   4.493   4.165
 2393SOL    HW2 9086   3.681   4.506   4.023
 2394SOL     OW 9087   3.526   5.004   4.381
 2394SOL    HW1 9088   3.625   5.012   4.395
 2394SOL    HW2 9089   3.481   5.088   4.412
 2395SOL     OW 9090   3.252   4.299   3.802
 2395SOL    HW1 9091   3.198   4.278   3.883
 2395SOL    HW2 9092   3.343   4.258   3.811
 2396SOL     OW 9093   2.389   3.980   4.052
 2396SOL    HW1 9094   2.416   3.921   3.977
 2396SOL    HW2 9095   2.389   4.075   4.021
 2397SOL     OW 9096   3.500   4.823   4.803
 2397SOL    HW1 9097   3.505   4.904   4.862
 2397SOL    HW2 9098   3.414   4.825   4.752
 2398SOL     OW 9099   2.567   4.774   4.092
 2398SOL    HW1 9100   2.553   4.781   4.191
 2398SOL    HW2 9101   2.651   4.723   4.074
 2399SOL     OW 9102   3.136   4.110   4.986
 2399SOL    HW1 9103   3.157   4.184   5.050
 2399SOL    HW2 9104   3.047   4.127   4.943
 2400SOL     OW 9105   2.229   4.824   4.225
 2400SOL    HW1 9106   2.222   4.907   4.169
 2400SOL    HW2 9107   2.233   4.744   4.165
 2401SOL     OW 9108   3.444   4.363   4.196
 2401SOL    HW1 9109   3.413   4.424   4.269
 2401SOL    HW2 9110   3.494   4.415   4.127
 2402SOL     OW 9111   2.435   4.594   4.753
 2402SOL    HW1 9112   2.479   4.683   4.744
 2402SOL    HW2 9113   2.372   4.594   4.830
 2403SOL     OW 9114   3.222   4.586   4.769
 2403SOL    HW1 9115   3.147   4.586   4.703
 2403SOL    HW2 9116   3.259   4.494   4.778
 2404SOL     OW 9117   3.071   4.249   3.999
 2404SOL    HW1 9118   3.084   4.165   4.053
 2404SOL    HW2 9119   3.042   4.323   4.059
 2405SOL     OW 9120   2.169   3.937   4.955
 2405SOL    HW1 9121   2.146   3.974   5.045
 2405SOL    HW2 9122   2.139   3.842   4.949
 2406SOL     OW 9123   2.169   3.787   4.342
 2406SOL    HW1 9124   2.158   3.881   4.375
 2406SOL    HW2 9125   2.164   3.724   4.419
 2407SOL     OW 9126   3.484   4.091   4.098
 2407SOL    HW1 9127   3.486   4.015   4.162
 2407SOL    HW2 9128   3.436   4.168   4.138
 2408SOL     OW 9129   2.885   4.490   4.690
 2408SOL    HW1 9130   2.900   4.511   4.786
 2408SOL    HW2 9131   2.855   4.395   4.681
 2409SOL     OW 9132   3.402   3.998   3.849
 2409SOL    HW1 9133   3.341   3.923   3.872
 2409SOL    HW2 9134   3.424   4.050   3.932
 2410SOL     OW 9135   3.165   4.562   3.766
 2410SOL    HW1 9136   3.199   4.469   3.781
 2410SOL    HW2 9137   3.183   4.589   3.671
 2411SOL     OW 9138   2.181   4.534   4.673
 2411SOL    HW1 9139   2.274   4.570   4.678
 2411SOL    HW2 9140   2.175   4.449   4.725
 2412SOL     OW 9141   2.201   4.233   4.730
 2412SOL    HW1 9142   2.149   4.150   4.713
 2412SOL    HW2 9143   2.278   4.238   4.666
 2413SOL     OW 9144   1.870   5.050   3.924
 2413SOL    HW1 9145   1.777   5.071   3.893
 2413SOL    HW2 9146   1.880   4.951   3.937
 2414SOL     OW 9147   2.677   4.296   4.049
 2414SOL    HW1 9148   2.684   4.207   4.003
 2414SOL    HW2 9149   2.583   4.330   4.041
 2415SOL     OW 9150   3.519   4.328   4.930
 2415SOL    HW1 9151   3.481   4.259   4.992
 2415SOL    HW2 9152   3.601   4.292   4.886
 2416SOL     OW 9153   2.335   4.224   3.915
 2416SOL    HW1 9154   2.396   4.304   3.919
 2416SOL    HW2 9155   2.240   4.255   3.922
 2417SOL     OW 9156   3.209   4.783   4.958
 2417SOL    HW1 9157   3.233   4.720   4.884
 2417SOL    HW2 9158   3.119   4.823   4.940
 2418SOL     OW 9159   3.164   4.579   4.033
 2418SOL    HW1 9160   3.078   4.548   4.075
 2418SOL    HW2 9161   3.160   4.565   3.934
 2419SOL     OW 9162   1.945   4.982   4.746
 2419SOL    HW1 9163   1.940   4.981   4.846
 2419SOL    HW2 9164   1.862   4.941   4.708
 2420SOL     OW 9165   3.588   3.859   4.247
 2420SOL    HW1 9166   3.661   3.842   4.180
 2420SOL    HW2 9167   3.557   3.772   4.285
 2421SOL     OW 9168   3.142   4.651   4.396
 2421SOL    HW1 9169   3.202   4.570   4.398
 2421SOL    HW2 9170   3.182   4.720   4.336
 2422SOL     OW 9171   2.692   4.997   5.146
 2422SOL    HW1 9172   2.687   5.030   5.241
 2422SOL    HW2 9173   2.606   5.016   5.100
 2423SOL     OW 9174   3.703   3.899   4.687
 2423SOL    HW1 9175   3.742   3.814   4.651
 2423SOL    HW2 9176   3.605   3.901   4.668
 2424SOL     OW 9177   2.125   4.050   4.444
 2424SOL    HW1 9178   2.046   4.101   4.410
 2424SOL    HW2 9179   2.116   4.035   4.542
 2425SOL     OW 9180   3.056   5.336   3.755
 2425SOL    HW1 9181   3.062   5.243   3.792
 2425SOL    HW2 9182   2.997   5.336   3.675
 2426SOL     OW 9183   2.684   4.726   5.096
 2426SOL    HW1 9184   2.724   4.725   5.004
 2426SOL    HW2 9185   2.694   4.818   5.136
 2427SOL     OW 9186   2.778   4.634   4.015
 2427SOL    HW1 9187   2.841   4.672   3.947
 2427SOL    HW2 9188   2.818   4.551   4.054
 2428SOL     OW 9189   2.901   4.822   4.420
 2428SOL    HW1 9190   2.831   4.775   4.474
 2428SOL    HW2 9191   2.960   4.754   4.377
 2429SOL     OW 9192   3.571   4.109   5.105
 2429SOL    HW1 9193   3.644   4.178   5.109
 2429SOL    HW2 9194   3.599   4.034   5.046
 2430SOL     OW 9195   1.937   4.069   3.757
 2430SOL    HW1 9196   1.845   4.041   3.728
 2430SOL    HW2 9197   1.968   4.146   3.701
 2431SOL     OW 9198   1.934   3.890   4.042
 2431SOL    HW1 9199   1.917   3.973   3.988
 2431SOL    HW2 9200   2.024   3.853   4.020
 2432SOL     OW 9201   3.312   4.944   5.357
 2432SOL    HW1 9202   3.303   4.934   5.456
 2432SOL    HW2 9203   3.408   4.937   5.331
 2433SOL     OW 9204   3.536   4.607   4.978
 2433SOL    HW1 9205   3.509   4.518   4.941
 2433SOL    HW2 9206   3.537   4.675   4.905
 2434SOL     OW 9207   3.087   4.049   4.173
 2434SOL    HW1 9208   3.152   3.975   4.162
 2434SOL    HW2 9209   3.107   4.099   4.257
 2435SOL     OW 9210   2.456   4.469   4.376
 2435SOL    HW1 9211   2.506   4.554   4.357
 2435SOL    HW2 9212   2.368   4.471   4.328
 2436SOL     OW 9213   3.592   4.658   5.241
 2436SOL    HW1 9214   3.630   4.749   5.256
 2436SOL    HW2 9215   3.584   4.641   5.142
 2437SOL     OW 9216   2.721   4.680   4.585
 2437SOL    HW1 9217   2.775   4.611   4.633
 2437SOL    HW2 9218   2.689   4.749   4.651
 2438SOL     OW 9219   2.945   4.708   3.811
 2438SOL    HW1 9220   2.922   4.761   3.729
 2438SOL    HW2 9221   3.026   4.652   3.792
 2439SOL     OW 9222   1.941   4.964   4.377
 2439SOL    HW1 9223   1.940   4.917   4.465
 2439SOL    HW2 9224   2.023   4.936   4.326
 2440SOL     OW 9225   3.686   3.916   4.951
 2440SOL    HW1 9226   3.682   3.826   4.995
 2440SOL    HW2 9227   3.689   3.905   4.852
 2441SOL     OW 9228   2.290   4.148   4.244
 2441SOL    HW1 9229   2.320   4.076   4.182
 2441SOL    HW2 9230   2.251   4.108   4.327
 2442SOL     OW 9231   3.286   3.938   4.836
 2442SOL    HW1 9232   3.338   3.873   4.891
 2442SOL    HW2 9233   3.237   4.001   4.897
 2443SOL     OW 9234   2.863   3.758   4.878
 2443SOL    HW1 9235   2.800   3.686   4.847
 2443SOL    HW2 9236   2.956   3.722   4.878
 2444SOL     OW 9237   2.632   5.054   4.025
 2444SOL    HW1 9238   2.586   4.967   4.042
 2444SOL    HW2 9239   2.723   5.051   4.066
 2445SOL     OW 9240   3.214   3.776   3.892
 2445SOL    HW1 9241   3.249   3.735   3.808
 2445SOL    HW2 9242   3.124   3.738   3.912
 2446SOL     OW 9243   3.162   4.177   4.415
 2446SOL    HW1 9244   3.103   4.257   4.419
 2446SOL    HW2 9245   3.177   4.142   4.508
 2447SOL     OW 9246   3.455   3.945   4.606
 2447SOL    HW1 9247   3.371   3.944   4.660
 2447SOL    HW2 9248   3.457   4.028   4.550
 2448SOL     OW 9249   1.901   4.801   4.024
 2448SOL    HW1 9250   2.000   4.790   4.015
 2448SOL    HW2 9251   1.861   4.715   4.056
 2449SOL     OW 9252   3.954   0.628   0.113
 2449SOL    HW1 9253   3.861   0.626   0.150
 2449SOL    HW2 9254   3.955   0.589   0.021
 2450SOL     OW 9255   3.949   0.275   0.996
 2450SOL    HW1 9256   3.984   0.258   1.088
 2450SOL    HW2 9257   3.861   0.230   0.984
 2451SOL     OW 9258   3.743   0.368   0.647
 2451SOL    HW1 9259   3.661   0.411   0.686
 2451SOL    HW2 9260   3.715   0.295   0.584
 2452SOL     OW 9261   4.293   1.275   1.165
 2452SOL    HW1 9262   4.200   1.268   1.128
 2452SOL    HW2 9263   4.304   1.364   1.209
 2453SOL     OW 9264   4.859   0.703   0.717
 2453SOL    HW1 9265   4.916   0.781   0.692
 2453SOL    HW2 9266   4.799   0.729   0.793
 2454SOL     OW 9267   4.492   1.144   1.023
 2454SOL    HW1 9268   4.414   1.161   1.083
 2454SOL    HW2 9269   4.526   1.231   0.987
 2455SOL     OW 9270   4.574   0.798   1.823
 2455SOL    HW1 9271   4.570   0.874   1.888
 2455SOL    HW2 9272   4.596   0.834   1.732
 2456SOL     OW 9273   4.409   1.012   0.665
 2456SOL    HW1 9274   4.478   0.996   0.735
 2456SOL    HW2 9275   4.336   1.069   0.703
 2457SOL     OW 9276   4.410   1.161   1.803
 2457SOL    HW1 9277   4.470   1.240   1.817
 2457SOL    HW2 9278   4.324   1.192   1.762
 2458SOL     OW 9279   4.059   1.435   1.061
 2458SOL    HW1 9280   3.981   1.404   1.008
 2458SOL    HW2 9281   4.117   1.493   1.004
 2459SOL     OW 9282   4.162   0.392   1.499
 2459SOL    HW1 9283   4.244   0.336   1.508
 2459SOL    HW2 9284   4.081   0.334   1.503
 2460SOL     OW 9285   3.955   1.713   0.483
 2460SOL    HW1 9286   3.989   1.790   0.537
 2460SOL    HW2 9287   3.999   1.713   0.393
 2461SOL     OW 9288   4.851   1.341   1.690
 2461SOL    HW1 9289   4.898   1.341   1.778
 2461SOL    HW2 9290   4.803   1.254   1.679
 2462SOL     OW 9291   3.954   1.434   0.538
 2462SOL    HW1 9292   3.928   1.530   0.538
 2462SOL    HW2 9293   3.883   1.380   0.583
 2463SOL     OW 9294   3.964   1.091   0.886
 2463SOL    HW1 9295   3.978   1.007   0.938
 2463SOL    HW2 9296   3.909   1.155   0.941
 2464SOL     OW 9297   4.344   1.786   1.439
 2464SOL    HW1 9298   4.252   1.769   1.474
 2464SOL    HW2 9299   4.372   1.878   1.465
 2465SOL     OW 9300   4.330   0.964   0.123
 2465SOL    HW1 9301   4.337   1.048   0.069
 2465SOL    HW2 9302   4.376   0.977   0.211
 2466SOL     OW 9303   3.751   1.596   0.117
 2466SOL    HW1 9304   3.732   1.500   0.138
 2466SOL    HW2 9305   3.718   1.654   0.192
 2467SOL     OW 9306   3.837   0.737   1.597
 2467SOL    HW1 9307   3.925   0.724   1.642
 2467SOL    HW2 9308   3.824   0.834   1.575
 2468SOL     OW 9309   5.017   1.228   1.423
 2468SOL    HW1 9310   5.054   1.155   1.365
 2468SOL    HW2 9311   5.069   1.233   1.508
 2469SOL     OW 9312   4.533   0.004   0.502
 2469SOL    HW1 9313   4.573   0.095   0.493
 2469SOL    HW2 9314   4.433   0.012   0.508
 2470SOL     OW 9315   3.921   0.976   1.264
 2470SOL    HW1 9316   4.010   0.931   1.250
 2470SOL    HW2 9317   3.848   0.911   1.245
 2471SOL     OW 9318   4.911   1.792   1.616
 2471SOL    HW1 9319   4.935   1.852   1.540
 2471SOL    HW2 9320   4.918   1.697   1.586
 2472SOL     OW 9321   4.322   0.729   0.270
 2472SOL    HW1 9322   4.346   0.798   0.202
 2472SOL    HW2 9323   4.244   0.762   0.324
 2473SOL     OW 9324   5.005   0.345   0.944
 2473SOL    HW1 9325   4.919   0.295   0.931
 2473SOL    HW2 9326   5.067   0.291   1.000
 2474SOL     OW 9327   4.531   0.605   1.465
 2474SOL    HW1 9328   4.484   0.602   1.554
 2474SOL    HW2 9329   4.480   0.550   1.399
 2475SOL     OW 9330   4.697   0.890   1.572
 2475SOL    HW1 9331   4.743   0.806   1.543
 2475SOL    HW2 9332   4.641   0.924   1.497
 2476SOL     OW 9333   4.715   0.410   1.242
 2476SOL    HW1 9334   4.638   0.444   1.296
 2476SOL    HW2 9335   4.681   0.359   1.163
 2477SOL     OW 9336   4.765   0.701   0.429
 2477SOL    HW1 9337   4.791   0.697   0.525
 2477SOL    HW2 9338   4.680   0.650   0.415
 2478SOL     OW 9339   3.800   0.811   0.789
 2478SOL    HW1 9340   3.899   0.799   0.798
 2478SOL    HW2 9341   3.776   0.906   0.810
 2479SOL     OW 9342   4.589   0.348   0.195
 2479SOL    HW1 9343   4.648   0.411   0.146
 2479SOL    HW2 9344   4.608   0.254   0.166
 2480SOL     OW 9345   4.075   1.801   0.853
 2480SOL    HW1 9346   4.125   1.715   0.859
 2480SOL    HW2 9347   4.140   1.878   0.850
 2481SOL     OW 9348   4.951   1.550   1.506
 2481SOL    HW1 9349   4.957   1.473   1.570
 2481SOL    HW2 9350   4.899   1.524   1.426
 2482SOL     OW 9351   4.045   0.943   0.242
 2482SOL    HW1 9352   4.127   0.982   0.200
 2482SOL    HW2 9353   4.018   0.861   0.193
 2483SOL     OW 9354   4.185   1.266   1.727
 2483SOL    HW1 9355   4.135   1.267   1.641
 2483SOL    HW2 9356   4.122   1.248   1.803
 2484SOL     OW 9357   4.835   1.776   0.237
 2484SOL    HW1 9358   4.775   1.714   0.287
 2484SOL    HW2 9359   4.866   1.732   0.152
 2485SOL     OW 9360   3.926   0.285   1.498
 2485SOL    HW1 9361   3.846   0.345   1.485
 2485SOL    HW2 9362   3.916   0.236   1.584
 2486SOL     OW 9363   5.356   1.377   0.081
 2486SOL    HW1 9364   5.324   1.471   0.071
 2486SOL    HW2 9365   5.280   1.314   0.069
 2487SOL     OW 9366   4.188   1.743   0.323
 2487SOL    HW1 9367   4.221   1.782   0.409
 2487SOL    HW2 9368   4.264   1.736   0.258
 2488SOL     OW 9369   3.973   1.785   1.241
 2488SOL    HW1 9370   4.030   1.720   1.291
 2488SOL    HW2 9371   3.957   1.752   1.148
 2489SOL     OW 9372   4.338   0.122   0.117
 2489SOL    HW1 9373   4.436   0.100   0.124
 2489SOL    HW2 9374   4.307   0.105   0.024
 2490SOL     OW 9375   4.505   0.264   1.749
 2490SOL    HW1 9376   4.572   0.203   1.792
 2490SOL    HW2 9377   4.432   0.283   1.814
 2491SOL     OW 9378   4.646   0.503   0.899
 2491SOL    HW1 9379   4.621   0.494   0.803
 2491SOL    HW2 9380   4.694   0.421   0.930
 2492SOL     OW 9381   4.659   0.236   0.480
 2492SOL    HW1 9382   4.611   0.277   0.402
 2492SOL    HW2 9383   4.758   0.234   0.461
 2493SOL     OW 9384   4.800   0.683   1.464
 2493SOL    HW1 9385   4.720   0.622   1.467
 2493SOL    HW2 9386   4.881   0.630   1.440
 2494SOL     OW 9387   4.183   1.152   0.741
 2494SOL    HW1 9388   4.112   1.125   0.806
 2494SOL    HW2 9389   4.157   1.124   0.648
 2495SOL     OW 9390   4.995   1.797   0.591
 2495SOL    HW1 9391   5.039   1.861   0.527
 2495SOL    HW2 9392   4.945   1.849   0.661
 2496SOL     OW 9393   4.756   0.549   0.016
 2496SOL    HW1 9394   4.715   0.631  -0.023
 2496SOL    HW2 9395   4.820   0.575   0.089
 2497SOL     OW 9396   3.802   0.556   1.386
 2497SOL    HW1 9397   3.894   0.555   1.345
 2497SOL    HW2 9398   3.796   0.630   1.453
 2498SOL     OW 9399   4.285   0.222   1.147
 2498SOL    HW1 9400   4.323   0.138   1.184
 2498SOL    HW2 9401   4.197   0.241   1.191
 2499SOL     OW 9402   4.590   0.454   0.642
 2499SOL    HW1 9403   4.558   0.526   0.580
 2499SOL    HW2 9404   4.614   0.373   0.589
 2500SOL     OW 9405   4.741   0.039   0.753
 2500SOL    HW1 9406   4.669   0.044   0.684
 2500SOL    HW2 9407   4.717  -0.030   0.822
 2501SOL     OW 9408   4.212   1.385   0.174
 2501SOL    HW1 9409   4.125   1.370   0.221
 2501SOL    HW2 9410   4.195   1.411   0.079
 2502SOL     OW 9411   4.251   0.256   0.328
 2502SOL    HW1 9412   4.278   0.197   0.253
 2502SOL    HW2 9413   4.251   0.351   0.297
 2503SOL     OW 9414   4.788   1.347   1.340
 2503SOL    HW1 9415   4.708   1.324   1.395
 2503SOL    HW2 9416   4.871   1.321   1.389
 2504SOL     OW 9417   4.639   0.089   1.402
 2504SOL    HW1 9418   4.664   0.069   1.307
 2504SOL    HW2 9419   4.711   0.145   1.444
 2505SOL     OW 9420   4.704   1.116   1.719
 2505SOL    HW1 9421   4.605   1.122   1.729
 2505SOL    HW2 9422   4.727   1.036   1.663
 2506SOL     OW 9423   4.134   0.813   1.251
 2506SOL    HW1 9424   4.220   0.825   1.301
 2506SOL    HW2 9425   4.092   0.726   1.278
 2507SOL     OW 9426   4.998   0.386   1.262
 2507SOL    HW1 9427   5.019   0.460   1.326
 2507SOL    HW2 9428   4.909   0.403   1.219
 2508SOL     OW 9429   3.788   1.564   1.331
 2508SOL    HW1 9430   3.742   1.646   1.297
 2508SOL    HW2 9431   3.886   1.583   1.340
 2509SOL     OW 9432   4.091   1.100   0.501
 2509SOL    HW1 9433   4.084   1.183   0.445
 2509SOL    HW2 9434   4.095   1.020   0.441
 2510SOL     OW 9435   4.290   0.537   0.865
 2510SOL    HW1 9436   4.302   0.603   0.791
 2510SOL    HW2 9437   4.336   0.571   0.948
 2511SOL     OW 9438   4.078   1.510   1.329
 2511SOL    HW1 9439   4.057   1.466   1.242
 2511SOL    HW2 9440   4.175   1.536   1.332
 2512SOL     OW 9441   4.126   0.751   1.598
 2512SOL    HW1 9442   4.194   0.806   1.551
 2512SOL    HW2 9443   4.166   0.663   1.625
 2513SOL     OW 9444   4.737   0.105   1.770
 2513SOL    HW1 9445   4.743   0.190   1.718
 2513SOL    HW2 9446   4.769   0.029   1.713
 2514SOL     OW 9447   4.228   0.050   1.740
 2514SOL    HW1 9448   4.186  -0.007   1.670
 2514SOL    HW2 9449   4.162   0.119   1.772
 2515SOL     OW 9450   4.297   0.870   1.029
 2515SOL    HW1 9451   4.341   0.959   1.020
 2515SOL    HW2 9452   4.234   0.870   1.106
 2516SOL     OW 9453   5.084   0.862   1.045
 2516SOL    HW1 9454   5.009   0.862   0.979
 2516SOL    HW2 9455   5.121   0.770   1.054
 2517SOL     OW 9456   4.933   0.525   0.275
 2517SOL    HW1 9457   4.946   0.441   0.329
 2517SOL    HW2 9458   4.904   0.599   0.335
 2518SOL     OW 9459   4.031   0.213   1.231
 2518SOL    HW1 9460   4.008   0.250   1.321
 2518SOL    HW2 9461   4.001   0.118   1.225
 2519SOL     OW 9462   3.761   1.310   1.282
 2519SOL    HW1 9463   3.814   1.261   1.350
 2519SOL    HW2 9464   3.783   1.408   1.287
 2520SOL     OW 9465   4.456   0.634   1.064
 2520SOL    HW1 9466   4.515   0.608   0.988
 2520SOL    HW2 9467   4.428   0.730   1.053
 2521SOL     OW 9468   5.346   0.367   0.374
 2521SOL    HW1 9469   5.348   0.291   0.438
 2521SOL    HW2 9470   5.298   0.444   0.414
 2522SOL     OW 9471   4.747   0.766   0.966
 2522SOL    HW1 9472   4.762   0.787   1.062
 2522SOL    HW2 9473   4.717   0.671   0.957
 2523SOL     OW 9474   4.704   1.573   1.700
 2523SOL    HW1 9475   4.684   1.617   1.612
 2523SOL    HW2 9476   4.743   1.482   1.684
 2524SOL     OW 9477   4.074   0.898   1.804
 2524SOL    HW1 9478   4.150   0.942   1.852
 2524SOL    HW2 9479   4.109   0.851   1.722
 2525SOL     OW 9480   5.027   0.838   0.042
 2525SOL    HW1 9481   5.061   0.745   0.057
 2525SOL    HW2 9482   5.045   0.865  -0.053
 2526SOL     OW 9483   4.862   0.380   1.678
 2526SOL    HW1 9484   4.817   0.443   1.742
 2526SOL    HW2 9485   4.955   0.411   1.661
 2527SOL     OW 9486   4.884   0.207   1.477
 2527SOL    HW1 9487   4.884   0.271   1.554
 2527SOL    HW2 9488   4.912   0.255   1.394
 2528SOL     OW 9489   3.812   1.801   0.927
 2528SOL    HW1 9490   3.770   1.715   0.900
 2528SOL    HW2 9491   3.906   1.804   0.893
 2529SOL     OW 9492   4.228   1.568   0.910
 2529SOL    HW1 9493   4.294   1.642   0.919
 2529SOL    HW2 9494   4.272   1.489   0.868
 2530SOL     OW 9495   4.726   0.796   1.238
 2530SOL    HW1 9496   4.767   0.764   1.324
 2530SOL    HW2 9497   4.630   0.769   1.235
 2531SOL     OW 9498   3.764   0.544   1.114
 2531SOL    HW1 9499   3.849   0.511   1.073
 2531SOL    HW2 9500   3.777   0.559   1.212
 2532SOL     OW 9501   3.913   0.520   1.722
 2532SOL    HW1 9502   3.972   0.480   1.652
 2532SOL    HW2 9503   3.855   0.591   1.681
 2533SOL     OW 9504   4.539   0.572   0.325
 2533SOL    HW1 9505   4.546   0.483   0.279
 2533SOL    HW2 9506   4.445   0.606   0.317
 2534SOL     OW 9507   3.976   1.564   1.744
 2534SOL    HW1 9508   3.946   1.621   1.820
 2534SOL    HW2 9509   3.969   1.467   1.770
 2535SOL     OW 9510   4.395   0.464   1.269
 2535SOL    HW1 9511   4.361   0.375   1.239
 2535SOL    HW2 9512   4.421   0.518   1.189
 2536SOL     OW 9513   4.654   1.678   1.465
 2536SOL    HW1 9514   4.630   1.660   1.370
 2536SOL    HW2 9515   4.684   1.772   1.475
 2537SOL     OW 9516   4.197   0.500   0.191
 2537SOL    HW1 9517   4.258   0.580   0.195
 2537SOL    HW2 9518   4.102   0.531   0.198
 2538SOL     OW 9519   3.883   1.137   1.466
 2538SOL    HW1 9520   3.905   1.076   1.542
 2538SOL    HW2 9521   3.893   1.088   1.380
 2539SOL     OW 9522   5.071   1.059   1.234
 2539SOL    HW1 9523   5.095   0.996   1.160
 2539SOL    HW2 9524   4.981   1.099   1.216
 2540SOL     OW 9525   3.807   1.258   1.022
 2540SOL    HW1 9526   3.802   1.257   1.122
 2540SOL    HW2 9527   3.724   1.217   0.984
 2541SOL     OW 9528   4.412   1.662   1.716
 2541SOL    HW1 9529   4.356   1.743   1.725
 2541SOL    HW2 9530   4.464   1.666   1.630
 2542SOL     OW 9531   4.627   0.086   0.133
 2542SOL    HW1 9532   4.678   0.087   0.047
 2542SOL    HW2 9533   4.683   0.044   0.204
 2543SOL     OW 9534   5.112   1.573   0.477
 2543SOL    HW1 9535   5.179   1.585   0.403
 2543SOL    HW2 9536   5.072   1.662   0.500
 2544SOL     OW 9537   5.004   0.927   0.672
 2544SOL    HW1 9538   5.064   0.846   0.674
 2544SOL    HW2 9539   5.044   0.996   0.612
 2545SOL     OW 9540   4.554   1.273   1.422
 2545SOL    HW1 9541   4.549   1.306   1.517
 2545SOL    HW2 9542   4.468   1.292   1.376
 2546SOL     OW 9543   4.396   1.616   0.154
 2546SOL    HW1 9544   4.405   1.626   0.055
 2546SOL    HW2 9545   4.356   1.527   0.175
 2547SOL     OW 9546   4.918   1.612   0.031
 2547SOL    HW1 9547   4.924   1.519   0.068
 2547SOL    HW2 9548   4.859   1.612  -0.049
 2548SOL     OW 9549   4.546   1.002   1.372
 2548SOL    HW1 9550   4.586   1.001   1.280
 2548SOL    HW2 9551   4.556   1.094   1.412
 2549SOL     OW 9552   4.640   0.910   0.291
 2549SOL    HW1 9553   4.703   0.948   0.223
 2549SOL    HW2 9554   4.680   0.827   0.330
 2550SOL     OW 9555   4.096   1.288   1.490
 2550SOL    HW1 9556   4.083   1.381   1.456
 2550SOL    HW2 9557   4.012   1.236   1.477
 2551SOL     OW 9558   4.763   1.098   0.696
 2551SOL    HW1 9559   4.693   1.051   0.750
 2551SOL    HW2 9560   4.822   1.030   0.653
 2552SOL     OW 9561   4.738   0.236   0.971
 2552SOL    HW1 9562   4.730   0.200   0.878
 2552SOL    HW2 9563   4.736   0.160   1.036
 2553SOL     OW 9564   4.314   1.487   0.491
 2553SOL    HW1 9565   4.356   1.429   0.421
 2553SOL    HW2 9566   4.270   1.566   0.447
 2554SOL     OW 9567   3.979   1.348   0.290
 2554SOL    HW1 9568   3.883   1.349   0.263
 2554SOL    HW2 9569   3.991   1.401   0.374
 2555SOL     OW 9570   3.829   1.013   1.726
 2555SOL    HW1 9571   3.752   0.980   1.780
 2555SOL    HW2 9572   3.914   0.983   1.768
 2556SOL     OW 9573   4.396   0.203   1.489
 2556SOL    HW1 9574   4.486   0.187   1.449
 2556SOL    HW2 9575   4.404   0.208   1.588
 2557SOL     OW 9576   5.164   0.856   1.398
 2557SOL    HW1 9577   5.107   0.908   1.335
 2557SOL    HW2 9578   5.260   0.868   1.374
 2558SOL     OW 9579   3.796   0.166   0.318
 2558SOL    HW1 9580   3.779   0.249   0.264
 2558SOL    HW2 9581   3.886   0.129   0.296
 2559SOL     OW 9582   4.337   0.842   1.431
 2559SOL    HW1 9583   4.393   0.923   1.414
 2559SOL    HW2 9584   4.396   0.762   1.434
 2560SOL     OW 9585   4.440   0.565   1.708
 2560SOL    HW1 9586   4.459   0.630   1.782
 2560SOL    HW2 9587   4.500   0.485   1.717
 2561SOL     OW 9588   4.114   1.741   1.560
 2561SOL    HW1 9589   4.023   1.782   1.558
 2561SOL    HW2 9590   4.107   1.647   1.592
 2562SOL     OW 9591   4.949   0.325   0.449
 2562SOL    HW1 9592   5.014   0.251   0.438
 2562SOL    HW2 9593   4.969   0.375   0.533
 2563SOL     OW 9594   4.318   0.745   0.652
 2563SOL    HW1 9595   4.368   0.830   0.633
 2563SOL    HW2 9596   4.230   0.747   0.604
 2564SOL     OW 9597   4.583   1.374   0.016
 2564SOL    HW1 9598   4.537   1.389   0.104
 2564SOL    HW2 9599   4.627   1.459  -0.014
 2565SOL     OW 9600   4.583   0.956   0.861
 2565SOL    HW1 9601   4.637   0.887   0.909
 2565SOL    HW2 9602   4.551   1.025   0.927
 2566SOL     OW 9603   4.807   0.984   0.087
 2566SOL    HW1 9604   4.784   1.037   0.005
 2566SOL    HW2 9605   4.888   0.928   0.068
 2567SOL     OW 9606   3.945   1.314   1.844
 2567SOL    HW1 9607   3.880   1.241   1.823
 2567SOL    HW2 9608   3.949   1.328   1.942
 2568SOL     OW 9609   3.803   1.240   0.653
 2568SOL    HW1 9610   3.802   1.193   0.741
 2568SOL    HW2 9611   3.885   1.212   0.602
 2569SOL     OW 9612   4.396   1.391   1.624
 2569SOL    HW1 9613   4.318   1.341   1.662
 2569SOL    HW2 9614   4.393   1.486   1.655
 2570SOL     OW 9615   4.041   0.547   1.280
 2570SOL    HW1 9616   4.079   0.488   1.352
 2570SOL    HW2 9617   4.081   0.521   1.192
 2571SOL     OW 9618   4.536   1.586   0.687
 2571SOL    HW1 9619   4.568   1.596   0.593
 2571SOL    HW2 9620   4.457   1.524   0.689
 2572SOL     OW 9621   4.725   0.034   1.154
 2572SOL    HW1 9622   4.662  -0.038   1.123
 2572SOL    HW2 9623   4.818  -0.002   1.154
 2573SOL     OW 9624   3.763   1.077   0.300
 2573SOL    HW1 9625   3.862   1.066   0.291
 2573SOL    HW2 9626   3.723   0.991   0.332
 2574SOL     OW 9627   4.599   1.646   0.337
 2574SOL    HW1 9628   4.522   1.611   0.283
 2574SOL    HW2 9629   4.567   1.717   0.399
 2575SOL     OW 9630   3.954   0.628   1.975
 2575SOL    HW1 9631   3.861   0.626   2.012
 2575SOL    HW2 9632   3.955   0.589   1.883
 2576SOL     OW 9633   3.743   0.368   2.509
 2576SOL    HW1 9634   3.661   0.411   2.548
 2576SOL    HW2 9635   3.715   0.295   2.446
 2577SOL     OW 9636   4.293   1.275   3.027
 2577SOL    HW1 9637   4.200   1.268   2.990
 2577SOL    HW2 9638   4.304   1.364   3.071
 2578SOL     OW 9639   4.859   0.703   2.579
 2578SOL    HW1 9640   4.916   0.781   2.554
 2578SOL    HW2 9641   4.799   0.729   2.655
 2579SOL     OW 9642   4.492   1.144   2.885
 2579SOL    HW1 9643   4.414   1.161   2.945
 2579SOL    HW2 9644   4.526   1.231   2.849
 2580SOL     OW 9645   4.574   0.798   3.685
 2580SOL    HW1 9646   4.570   0.874   3.750
 2580SOL    HW2 9647   4.596   0.834   3.594
 2581SOL     OW 9648   4.409   1.012   2.527
 2581SOL    HW1 9649   4.478   0.996   2.597
 2581SOL    HW2 9650   4.336   1.069   2.565
 2582SOL     OW 9651   4.410   1.161   3.665
 2582SOL    HW1 9652   4.470   1.240   3.679
 2582SOL    HW2 9653   4.324   1.192   3.624
 2583SOL     OW 9654   4.059   1.435   2.923
 2583SOL    HW1 9655   3.981   1.404   2.870
 2583SOL    HW2 9656   4.117   1.493   2.866
 2584SOL     OW 9657   4.851   1.341   3.552
 2584SOL    HW1 9658   4.898   1.341   3.640
 2584SOL    HW2 9659   4.803   1.254   3.541
 2585SOL     OW 9660   3.954   1.434   2.400
 2585SOL    HW1 9661   3.928   1.530   2.400
 2585SOL    HW2 9662   3.883   1.380   2.445
 2586SOL     OW 9663   3.964   1.091   2.748
 2586SOL    HW1 9664   3.978   1.007   2.800
 2586SOL    HW2 9665   3.909   1.155   2.803
 2587SOL     OW 9666   4.344   1.786   3.301
 2587SOL    HW1 9667   4.252   1.769   3.336
 2587SOL    HW2 9668   4.372   1.878   3.327
 2588SOL     OW 9669   4.330   0.964   1.985
 2588SOL    HW1 9670   4.337   1.048   1.931
 2588SOL    HW2 9671   4.376   0.977   2.073
 2589SOL     OW 9672   3.846   0.643   2.425
 2589SOL    HW1 9673   3.801   0.555   2.442
 2589SOL    HW2 9674   3.845   0.697   2.509
 2590SOL     OW 9675   3.837   0.737   3.459
 2590SOL    HW1 9676   3.925   0.724   3.504
 2590SOL    HW2 9677   3.824   0.834   3.437
 2591SOL     OW 9678   4.337   1.365   2.588
 2591SOL    HW1 9679   4.288   1.278   2.597
 2591SOL    HW2 9680   4.314   1.408   2.501
 2592SOL     OW 9681   5.017   1.228   3.285
 2592SOL    HW1 9682   5.054   1.155   3.227
 2592SOL    HW2 9683   5.069   1.233   3.370
 2593SOL     OW 9684   4.533   0.004   2.364
 2593SOL    HW1 9685   4.573   0.095   2.355
 2593SOL    HW2 9686   4.433   0.012   2.370
 2594SOL     OW 9687   3.921   0.976   3.126
 2594SOL    HW1 9688   4.010   0.931   3.112
 2594SOL    HW2 9689   3.848   0.911   3.107
 2595SOL     OW 9690   4.911   1.792   3.478
 2595SOL    HW1 9691   4.935   1.852   3.402
 2595SOL    HW2 9692   4.918   1.697   3.448
 2596SOL     OW 9693   4.041   0.251   3.663
 2596SOL    HW1 9694   4.112   0.322   3.669
 2596SOL    HW2 9695   3.953   0.290   3.691
 2597SOL     OW 9696   4.322   0.729   2.132
 2597SOL    HW1 9697   4.346   0.798   2.064
 2597SOL    HW2 9698   4.244   0.762   2.186
 2598SOL     OW 9699   5.005   0.345   2.806
 2598SOL    HW1 9700   4.919   0.295   2.793
 2598SOL    HW2 9701   5.067   0.291   2.862
 2599SOL     OW 9702   4.531   0.605   3.327
 2599SOL    HW1 9703   4.484   0.602   3.416
 2599SOL    HW2 9704   4.480   0.550   3.261
 2600SOL     OW 9705   4.697   0.890   3.434
 2600SOL    HW1 9706   4.743   0.806   3.405
 2600SOL    HW2 9707   4.641   0.924   3.359
 2601SOL     OW 9708   4.715   0.410   3.104
 2601SOL    HW1 9709   4.638   0.444   3.158
 2601SOL    HW2 9710   4.681   0.359   3.025
 2602SOL     OW 9711   4.765   0.701   2.291
 2602SOL    HW1 9712   4.791   0.697   2.387
 2602SOL    HW2 9713   4.680   0.650   2.277
 2603SOL     OW 9714   3.800   0.811   2.651
 2603SOL    HW1 9715   3.899   0.799   2.660
 2603SOL    HW2 9716   3.776   0.906   2.672
 2604SOL     OW 9717   3.854   1.821   3.433
 2604SOL    HW1 9718   3.844   1.806   3.532
 2604SOL    HW2 9719   3.768   1.857   3.397
 2605SOL     OW 9720   4.589   0.348   2.057
 2605SOL    HW1 9721   4.648   0.411   2.008
 2605SOL    HW2 9722   4.608   0.254   2.028
 2606SOL     OW 9723   4.274   0.196   2.747
 2606SOL    HW1 9724   4.269   0.191   2.847
 2606SOL    HW2 9725   4.276   0.292   2.718
 2607SOL     OW 9726   4.732   1.456   2.339
 2607SOL    HW1 9727   4.686   1.528   2.287
 2607SOL    HW2 9728   4.728   1.476   2.437
 2608SOL     OW 9729   4.075   1.801   2.715
 2608SOL    HW1 9730   4.125   1.715   2.721
 2608SOL    HW2 9731   4.140   1.878   2.712
 2609SOL     OW 9732   4.951   1.550   3.368
 2609SOL    HW1 9733   4.957   1.473   3.432
 2609SOL    HW2 9734   4.899   1.524   3.288
 2610SOL     OW 9735   4.045   0.943   2.104
 2610SOL    HW1 9736   4.127   0.982   2.062
 2610SOL    HW2 9737   4.018   0.861   2.055
 2611SOL     OW 9738   4.185   1.266   3.589
 2611SOL    HW1 9739   4.135   1.267   3.503
 2611SOL    HW2 9740   4.122   1.248   3.665
 2612SOL     OW 9741   4.835   1.776   2.099
 2612SOL    HW1 9742   4.775   1.714   2.149
 2612SOL    HW2 9743   4.866   1.732   2.014
 2613SOL     OW 9744   3.926   0.285   3.360
 2613SOL    HW1 9745   3.846   0.345   3.347
 2613SOL    HW2 9746   3.916   0.236   3.446
 2614SOL     OW 9747   3.973   1.785   3.103
 2614SOL    HW1 9748   4.030   1.720   3.153
 2614SOL    HW2 9749   3.957   1.752   3.010
 2615SOL     OW 9750   4.664   1.698   2.766
 2615SOL    HW1 9751   4.744   1.641   2.787
 2615SOL    HW2 9752   4.615   1.658   2.689
 2616SOL     OW 9753   4.106   0.700   2.342
 2616SOL    HW1 9754   4.151   0.610   2.339
 2616SOL    HW2 9755   4.012   0.689   2.375
 2617SOL     OW 9756   4.338   0.122   1.979
 2617SOL    HW1 9757   4.436   0.100   1.986
 2617SOL    HW2 9758   4.307   0.105   1.886
 2618SOL     OW 9759   4.612   1.514   3.057
 2618SOL    HW1 9760   4.589   1.489   2.963
 2618SOL    HW2 9761   4.673   1.445   3.096
 2619SOL     OW 9762   4.527   1.402   2.786
 2619SOL    HW1 9763   4.617   1.416   2.744
 2619SOL    HW2 9764   4.456   1.404   2.715
 2620SOL     OW 9765   4.646   0.503   2.761
 2620SOL    HW1 9766   4.621   0.494   2.665
 2620SOL    HW2 9767   4.694   0.421   2.792
 2621SOL     OW 9768   4.263   0.064   2.374
 2621SOL    HW1 9769   4.182   0.065   2.432
 2621SOL    HW2 9770   4.266   0.147   2.319
 2622SOL     OW 9771   4.021   0.035   2.033
 2622SOL    HW1 9772   4.070   0.119   2.012
 2622SOL    HW2 9773   4.083  -0.030   2.078
 2623SOL     OW 9774   4.659   0.236   2.342
 2623SOL    HW1 9775   4.611   0.277   2.264
 2623SOL    HW2 9776   4.758   0.234   2.323
 2624SOL     OW 9777   4.800   0.683   3.326
 2624SOL    HW1 9778   4.720   0.622   3.329
 2624SOL    HW2 9779   4.881   0.630   3.302
 2625SOL     OW 9780   4.951   1.570   2.655
 2625SOL    HW1 9781   4.972   1.644   2.590
 2625SOL    HW2 9782   5.019   1.570   2.728
 2626SOL     OW 9783   4.183   1.152   2.603
 2626SOL    HW1 9784   4.112   1.125   2.668
 2626SOL    HW2 9785   4.157   1.124   2.510
 2627SOL     OW 9786   4.995   1.797   2.453
 2627SOL    HW1 9787   5.039   1.861   2.389
 2627SOL    HW2 9788   4.945   1.849   2.523
 2628SOL     OW 9789   4.756   0.549   1.878
 2628SOL    HW1 9790   4.715   0.631   1.839
 2628SOL    HW2 9791   4.820   0.575   1.951
 2629SOL     OW 9792   3.802   0.556   3.248
 2629SOL    HW1 9793   3.894   0.555   3.207
 2629SOL    HW2 9794   3.796   0.630   3.315
 2630SOL     OW 9795   4.590   0.454   2.504
 2630SOL    HW1 9796   4.558   0.526   2.442
 2630SOL    HW2 9797   4.614   0.373   2.451
 2631SOL     OW 9798   4.741   0.039   2.615
 2631SOL    HW1 9799   4.669   0.044   2.546
 2631SOL    HW2 9800   4.717  -0.030   2.684
 2632SOL     OW 9801   4.212   1.385   2.036
 2632SOL    HW1 9802   4.125   1.370   2.083
 2632SOL    HW2 9803   4.195   1.411   1.941
 2633SOL     OW 9804   4.251   0.256   2.190
 2633SOL    HW1 9805   4.278   0.197   2.115
 2633SOL    HW2 9806   4.251   0.351   2.159
 2634SOL     OW 9807   4.788   1.347   3.202
 2634SOL    HW1 9808   4.708   1.324   3.257
 2634SOL    HW2 9809   4.871   1.321   3.251
 2635SOL     OW 9810   4.835   1.195   2.962
 2635SOL    HW1 9811   4.795   1.239   3.043
 2635SOL    HW2 9812   4.794   1.232   2.879
 2636SOL     OW 9813   4.639   0.089   3.264
 2636SOL    HW1 9814   4.664   0.069   3.169
 2636SOL    HW2 9815   4.711   0.145   3.306
 2637SOL     OW 9816   4.704   1.116   3.581
 2637SOL    HW1 9817   4.605   1.122   3.591
 2637SOL    HW2 9818   4.727   1.036   3.525
 2638SOL     OW 9819   4.429   1.050   2.230
 2638SOL    HW1 9820   4.415   1.057   2.329
 2638SOL    HW2 9821   4.513   0.999   2.212
 2639SOL     OW 9822   4.998   0.386   3.124
 2639SOL    HW1 9823   5.019   0.460   3.188
 2639SOL    HW2 9824   4.909   0.403   3.081
 2640SOL     OW 9825   4.091   1.100   2.363
 2640SOL    HW1 9826   4.084   1.183   2.307
 2640SOL    HW2 9827   4.095   1.020   2.303
 2641SOL     OW 9828   4.290   0.537   2.727
 2641SOL    HW1 9829   4.302   0.603   2.653
 2641SOL    HW2 9830   4.336   0.571   2.810
 2642SOL     OW 9831   4.976   1.348   2.250
 2642SOL    HW1 9832   5.026   1.425   2.290
 2642SOL    HW2 9833   4.881   1.350   2.282
 2643SOL     OW 9834   4.737   0.105   3.632
 2643SOL    HW1 9835   4.743   0.190   3.580
 2643SOL    HW2 9836   4.769   0.029   3.575
 2644SOL     OW 9837   5.084   0.862   2.907
 2644SOL    HW1 9838   5.009   0.862   2.841
 2644SOL    HW2 9839   5.121   0.770   2.916
 2645SOL     OW 9840   4.933   0.525   2.137
 2645SOL    HW1 9841   4.946   0.441   2.191
 2645SOL    HW2 9842   4.904   0.599   2.197
 2646SOL     OW 9843   4.031   0.213   3.093
 2646SOL    HW1 9844   4.008   0.250   3.183
 2646SOL    HW2 9845   4.001   0.118   3.087
 2647SOL     OW 9846   4.031   0.063   2.480
 2647SOL    HW1 9847   4.020   0.157   2.513
 2647SOL    HW2 9848   4.026   0.000   2.557
 2648SOL     OW 9849   5.346   0.367   2.236
 2648SOL    HW1 9850   5.348   0.291   2.300
 2648SOL    HW2 9851   5.298   0.444   2.276
 2649SOL     OW 9852   4.747   0.766   2.828
 2649SOL    HW1 9853   4.762   0.787   2.924
 2649SOL    HW2 9854   4.717   0.671   2.819
 2650SOL     OW 9855   4.704   1.573   3.562
 2650SOL    HW1 9856   4.684   1.617   3.474
 2650SOL    HW2 9857   4.743   1.482   3.546
 2651SOL     OW 9858   4.074   0.898   3.666
 2651SOL    HW1 9859   4.150   0.942   3.714
 2651SOL    HW2 9860   4.109   0.851   3.584
 2652SOL     OW 9861   5.027   0.838   1.904
 2652SOL    HW1 9862   5.061   0.745   1.919
 2652SOL    HW2 9863   5.045   0.865   1.809
 2653SOL     OW 9864   4.792   1.333   2.711
 2653SOL    HW1 9865   4.799   1.249   2.656
 2653SOL    HW2 9866   4.854   1.402   2.675
 2654SOL     OW 9867   4.043   0.810   2.811
 2654SOL    HW1 9868   4.136   0.846   2.816
 2654SOL    HW2 9869   4.037   0.725   2.863
 2655SOL     OW 9870   4.862   0.380   3.540
 2655SOL    HW1 9871   4.817   0.443   3.604
 2655SOL    HW2 9872   4.955   0.411   3.523
 2656SOL     OW 9873   4.884   0.207   3.339
 2656SOL    HW1 9874   4.884   0.271   3.416
 2656SOL    HW2 9875   4.912   0.255   3.256
 2657SOL     OW 9876   3.732   1.326   2.062
 2657SOL    HW1 9877   3.639   1.347   2.031
 2657SOL    HW2 9878   3.742   1.227   2.075
 2658SOL     OW 9879   3.812   1.801   2.789
 2658SOL    HW1 9880   3.770   1.715   2.762
 2658SOL    HW2 9881   3.906   1.804   2.755
 2659SOL     OW 9882   4.228   1.568   2.772
 2659SOL    HW1 9883   4.294   1.642   2.781
 2659SOL    HW2 9884   4.272   1.489   2.730
 2660SOL     OW 9885   4.726   0.796   3.100
 2660SOL    HW1 9886   4.767   0.764   3.186
 2660SOL    HW2 9887   4.630   0.769   3.097
 2661SOL     OW 9888   3.764   0.544   2.976
 2661SOL    HW1 9889   3.849   0.511   2.935
 2661SOL    HW2 9890   3.777   0.559   3.074
 2662SOL     OW 9891   3.913   0.520   3.584
 2662SOL    HW1 9892   3.972   0.480   3.514
 2662SOL    HW2 9893   3.855   0.591   3.543
 2663SOL     OW 9894   4.539   0.572   2.187
 2663SOL    HW1 9895   4.546   0.483   2.141
 2663SOL    HW2 9896   4.445   0.606   2.179
 2664SOL     OW 9897   3.976   1.564   3.606
 2664SOL    HW1 9898   3.946   1.621   3.682
 2664SOL    HW2 9899   3.969   1.467   3.632
 2665SOL     OW 9900   4.654   1.678   3.327
 2665SOL    HW1 9901   4.630   1.660   3.232
 2665SOL    HW2 9902   4.684   1.772   3.337
 2666SOL     OW 9903   4.197   0.500   2.053
 2666SOL    HW1 9904   4.258   0.580   2.057
 2666SOL    HW2 9905   4.102   0.531   2.060
 2667SOL     OW 9906   5.071   1.059   3.096
 2667SOL    HW1 9907   5.095   0.996   3.022
 2667SOL    HW2 9908   4.981   1.099   3.078
 2668SOL     OW 9909   4.976   1.731   2.990
 2668SOL    HW1 9910   5.060   1.736   2.936
 2668SOL    HW2 9911   4.953   1.635   3.008
 2669SOL     OW 9912   4.412   1.662   3.578
 2669SOL    HW1 9913   4.356   1.743   3.587
 2669SOL    HW2 9914   4.464   1.666   3.492
 2670SOL     OW 9915   5.112   1.573   2.339
 2670SOL    HW1 9916   5.179   1.585   2.265
 2670SOL    HW2 9917   5.072   1.662   2.362
 2671SOL     OW 9918   3.854   1.794   3.713
 2671SOL    HW1 9919   3.813   1.720   3.766
 2671SOL    HW2 9920   3.918   1.845   3.771
 2672SOL     OW 9921   4.554   1.273   3.284
 2672SOL    HW1 9922   4.549   1.306   3.379
 2672SOL    HW2 9923   4.468   1.292   3.238
 2673SOL     OW 9924   4.396   1.616   2.016
 2673SOL    HW1 9925   4.405   1.626   1.917
 2673SOL    HW2 9926   4.356   1.527   2.037
 2674SOL     OW 9927   3.987   0.326   2.582
 2674SOL    HW1 9928   3.908   0.377   2.548
 2674SOL    HW2 9929   3.978   0.311   2.680
 2675SOL     OW 9930   4.918   1.612   1.893
 2675SOL    HW1 9931   4.924   1.519   1.930
 2675SOL    HW2 9932   4.859   1.612   1.813
 2676SOL     OW 9933   4.546   1.002   3.234
 2676SOL    HW1 9934   4.586   1.001   3.142
 2676SOL    HW2 9935   4.556   1.094   3.274
 2677SOL     OW 9936   4.640   0.910   2.153
 2677SOL    HW1 9937   4.703   0.948   2.085
 2677SOL    HW2 9938   4.680   0.827   2.192
 2678SOL     OW 9939   4.763   1.098   2.558
 2678SOL    HW1 9940   4.693   1.051   2.612
 2678SOL    HW2 9941   4.822   1.030   2.515
 2679SOL     OW 9942   4.738   0.236   2.833
 2679SOL    HW1 9943   4.730   0.200   2.740
 2679SOL    HW2 9944   4.736   0.160   2.898
 2680SOL     OW 9945   4.314   1.487   2.353
 2680SOL    HW1 9946   4.356   1.429   2.283
 2680SOL    HW2 9947   4.270   1.566   2.309
 2681SOL     OW 9948   3.979   1.348   2.152
 2681SOL    HW1 9949   3.883   1.349   2.125
 2681SOL    HW2 9950   3.991   1.401   2.236
 2682SOL     OW 9951   3.829   1.013   3.588
 2682SOL    HW1 9952   3.752   0.980   3.642
 2682SOL    HW2 9953   3.914   0.983   3.630
 2683SOL     OW 9954   3.799   0.345   1.895
 2683SOL    HW1 9955   3.707   0.317   1.866
 2683SOL    HW2 9956   3.830   0.422   1.839
 2684SOL     OW 9957   5.164   0.856   3.260
 2684SOL    HW1 9958   5.107   0.908   3.197
 2684SOL    HW2 9959   5.260   0.868   3.236
 2685SOL     OW 9960   3.796   0.166   2.180
 2685SOL    HW1 9961   3.779   0.249   2.126
 2685SOL    HW2 9962   3.886   0.129   2.158
 2686SOL     OW 9963   4.114   1.741   3.422
 2686SOL    HW1 9964   4.023   1.782   3.420
 2686SOL    HW2 9965   4.107   1.647   3.454
 2687SOL     OW 9966   4.949   0.325   2.311
 2687SOL    HW1 9967   5.014   0.251   2.300
 2687SOL    HW2 9968   4.969   0.375   2.395
 2688SOL     OW 9969   4.318   0.745   2.514
 2688SOL    HW1 9970   4.368   0.830   2.495
 2688SOL    HW2 9971   4.230   0.747   2.466
 2689SOL     OW 9972   4.583   1.374   1.878
 2689SOL    HW1 9973   4.537   1.389   1.966
 2689SOL    HW2 9974   4.627   1.459   1.848
 2690SOL     OW 9975   4.385   1.790   2.815
 2690SOL    HW1 9976   4.339   1.878   2.802
 2690SOL    HW2 9977   4.484   1.802   2.808
 2691SOL     OW 9978   4.583   0.956   2.723
 2691SOL    HW1 9979   4.637   0.887   2.771
 2691SOL    HW2 9980   4.551   1.025   2.789
 2692SOL     OW 9981   4.807   0.984   1.949
 2692SOL    HW1 9982   4.784   1.037   1.867
 2692SOL    HW2 9983   4.888   0.928   1.930
 2693SOL     OW 9984   3.945   1.314   3.706
 2693SOL    HW1 9985   3.880   1.241   3.685
 2693SOL    HW2 9986   3.949   1.328   3.804
 2694SOL     OW 9987   3.803   1.240   2.515
 2694SOL    HW1 9988   3.802   1.193   2.603
 2694SOL    HW2 9989   3.885   1.212   2.464
 2695SOL     OW 9990   4.396   1.391   3.486
 2695SOL    HW1 9991   4.318   1.341   3.524
 2695SOL    HW2 9992   4.393   1.486   3.517
 2696SOL     OW 9993   4.152   0.424   2.382
 2696SOL    HW1 9994   4.182   0.352   2.320
 2696SOL    HW2 9995   4.113   0.384   2.465
 2697SOL     OW 9996   4.536   1.586   2.549
 2697SOL    HW1 9997   4.568   1.596   2.455
 2697SOL    HW2 9998   4.457   1.524   2.551
 2698SOL     OW 9999   4.725   0.034   3.016
 2698SOL    HW110000   4.662  -0.038   2.985
 2698SOL    HW210001   4.818  -0.002   3.016
 2699SOL     OW10002   4.494   1.330   2.163
 2699SOL    HW110003   4.448   1.243   2.180
 2699SOL    HW210004   4.585   1.327   2.204
 2700SOL     OW10005   4.342   1.567   3.146
 2700SOL    HW110006   4.337   1.649   3.203
 2700SOL    HW210007   4.431   1.564   3.101
 2701SOL     OW10008   3.763   1.077   2.162
 2701SOL    HW110009   3.862   1.066   2.153
 2701SOL    HW210010   3.723   0.991   2.194
 2702SOL     OW10011   4.599   1.646   2.199
 2702SOL    HW110012   4.522   1.611   2.145
 2702SOL    HW210013   4.567   1.717   2.261
 2703SOL     OW10014   3.954   0.628   3.837
 2703SOL    HW110015   3.861   0.626   3.874
 2703SOL    HW210016   3.955   0.589   3.745
 2704SOL     OW10017   3.949   0.275   4.720
 2704SOL    HW110018   3.984   0.258   4.812
 2704SOL    HW210019   3.861   0.230   4.708
 2705SOL     OW10020   3.743   0.368   4.371
 2705SOL    HW110021   3.661   0.411   4.410
 2705SOL    HW210022   3.715   0.295   4.308
 2706SOL     OW10023   4.293   1.275   4.889
 2706SOL    HW110024   4.200   1.268   4.852
 2706SOL    HW210025   4.304   1.364   4.933
 2707SOL     OW10026   4.859   0.703   4.441
 2707SOL    HW110027   4.916   0.781   4.416
 2707SOL    HW210028   4.799   0.729   4.517
 2708SOL     OW10029   4.492   1.144   4.747
 2708SOL    HW110030   4.414   1.161   4.807
 2708SOL    HW210031   4.526   1.231   4.711
 2709SOL     OW10032   4.409   1.012   4.389
 2709SOL    HW110033   4.478   0.996   4.459
 2709SOL    HW210034   4.336   1.069   4.427
 2710SOL     OW10035   4.059   1.435   4.785
 2710SOL    HW110036   3.981   1.404   4.732
 2710SOL    HW210037   4.117   1.493   4.728
 2711SOL     OW10038   3.955   1.713   4.207
 2711SOL    HW110039   3.989   1.790   4.261
 2711SOL    HW210040   3.999   1.713   4.117
 2712SOL     OW10041   3.954   1.434   4.262
 2712SOL    HW110042   3.928   1.530   4.262
 2712SOL    HW210043   3.883   1.380   4.307
 2713SOL     OW10044   3.964   1.091   4.610
 2713SOL    HW110045   3.978   1.007   4.662
 2713SOL    HW210046   3.909   1.155   4.665
 2714SOL     OW10047   4.344   1.786   5.163
 2714SOL    HW110048   4.252   1.769   5.198
 2714SOL    HW210049   4.372   1.878   5.189
 2715SOL     OW10050   4.330   0.964   3.847
 2715SOL    HW110051   4.337   1.048   3.793
 2715SOL    HW210052   4.376   0.977   3.935
 2716SOL     OW10053   3.846   0.643   4.287
 2716SOL    HW110054   3.801   0.555   4.304
 2716SOL    HW210055   3.845   0.697   4.371
 2717SOL     OW10056   3.751   1.596   3.841
 2717SOL    HW110057   3.732   1.500   3.862
 2717SOL    HW210058   3.718   1.654   3.916
 2718SOL     OW10059   4.337   1.365   4.450
 2718SOL    HW110060   4.288   1.278   4.459
 2718SOL    HW210061   4.314   1.408   4.363
 2719SOL     OW10062   3.921   0.976   4.988
 2719SOL    HW110063   4.010   0.931   4.974
 2719SOL    HW210064   3.848   0.911   4.969
 2720SOL     OW10065   4.322   0.729   3.994
 2720SOL    HW110066   4.346   0.798   3.926
 2720SOL    HW210067   4.244   0.762   4.048
 2721SOL     OW10068   5.005   0.345   4.668
 2721SOL    HW110069   4.919   0.295   4.655
 2721SOL    HW210070   5.067   0.291   4.724
 2722SOL     OW10071   4.715   0.410   4.966
 2722SOL    HW110072   4.638   0.444   5.020
 2722SOL    HW210073   4.681   0.359   4.887
 2723SOL     OW10074   4.765   0.701   4.153
 2723SOL    HW110075   4.791   0.697   4.249
 2723SOL    HW210076   4.680   0.650   4.139
 2724SOL     OW10077   3.800   0.811   4.513
 2724SOL    HW110078   3.899   0.799   4.522
 2724SOL    HW210079   3.776   0.906   4.534
 2725SOL     OW10080   4.274   0.196   4.609
 2725SOL    HW110081   4.269   0.191   4.709
 2725SOL    HW210082   4.276   0.292   4.580
 2726SOL     OW10083   4.732   1.456   4.201
 2726SOL    HW110084   4.686   1.528   4.149
 2726SOL    HW210085   4.728   1.476   4.299
 2727SOL     OW10086   4.045   0.943   3.966
 2727SOL    HW110087   4.127   0.982   3.924
 2727SOL    HW210088   4.018   0.861   3.917
 2728SOL     OW10089   4.835   1.776   3.961
 2728SOL    HW110090   4.775   1.714   4.011
 2728SOL    HW210091   4.866   1.732   3.876
 2729SOL     OW10092   4.188   1.743   4.047
 2729SOL    HW110093   4.221   1.782   4.133
 2729SOL    HW210094   4.264   1.736   3.982
 2730SOL     OW10095   3.973   1.785   4.965
 2730SOL    HW110096   4.030   1.720   5.015
 2730SOL    HW210097   3.957   1.752   4.872
 2731SOL     OW10098   4.664   1.698   4.628
 2731SOL    HW110099   4.744   1.641   4.649
 2731SOL    HW210100   4.615   1.658   4.551
 2732SOL     OW10101   4.106   0.700   4.204
 2732SOL    HW110102   4.151   0.610   4.201
 2732SOL    HW210103   4.012   0.689   4.237
 2733SOL     OW10104   4.527   1.402   4.648
 2733SOL    HW110105   4.617   1.416   4.606
 2733SOL    HW210106   4.456   1.404   4.577
 2734SOL     OW10107   4.646   0.503   4.623
 2734SOL    HW110108   4.621   0.494   4.527
 2734SOL    HW210109   4.694   0.421   4.654
 2735SOL     OW10110   4.263   0.064   4.236
 2735SOL    HW110111   4.182   0.065   4.294
 2735SOL    HW210112   4.266   0.147   4.181
 2736SOL     OW10113   4.951   1.570   4.517
 2736SOL    HW110114   4.972   1.644   4.452
 2736SOL    HW210115   5.019   1.570   4.590
 2737SOL     OW10116   4.183   1.152   4.465
 2737SOL    HW110117   4.112   1.125   4.530
 2737SOL    HW210118   4.157   1.124   4.372
 2738SOL     OW10119   4.995   1.797   4.315
 2738SOL    HW110120   5.039   1.861   4.251
 2738SOL    HW210121   4.945   1.849   4.385
 2739SOL     OW10122   4.756   0.549   3.740
 2739SOL    HW110123   4.715   0.631   3.701
 2739SOL    HW210124   4.820   0.575   3.813
 2740SOL     OW10125   4.285   0.222   4.871
 2740SOL    HW110126   4.323   0.138   4.908
 2740SOL    HW210127   4.197   0.241   4.915
 2741SOL     OW10128   4.741   0.039   4.477
 2741SOL    HW110129   4.669   0.044   4.408
 2741SOL    HW210130   4.717  -0.030   4.546
 2742SOL     OW10131   4.212   1.385   3.898
 2742SOL    HW110132   4.125   1.370   3.945
 2742SOL    HW210133   4.195   1.411   3.803
 2743SOL     OW10134   5.316   1.629   5.349
 2743SOL    HW110135   5.343   1.663   5.259
 2743SOL    HW210136   5.395   1.591   5.395
 2744SOL     OW10137   4.835   1.195   4.824
 2744SOL    HW110138   4.795   1.239   4.905
 2744SOL    HW210139   4.794   1.232   4.741
 2745SOL     OW10140   4.429   1.050   4.092
 2745SOL    HW110141   4.415   1.057   4.191
 2745SOL    HW210142   4.513   0.999   4.074
 2746SOL     OW10143   4.134   0.813   4.975
 2746SOL    HW110144   4.220   0.825   5.025
 2746SOL    HW210145   4.092   0.726   5.002
 2747SOL     OW10146   4.091   1.100   4.225
 2747SOL    HW110147   4.084   1.183   4.169
 2747SOL    HW210148   4.095   1.020   4.165
 2748SOL     OW10149   4.290   0.537   4.589
 2748SOL    HW110150   4.302   0.603   4.515
 2748SOL    HW210151   4.336   0.571   4.672
 2749SOL     OW10152   4.976   1.348   4.112
 2749SOL    HW110153   5.026   1.425   4.152
 2749SOL    HW210154   4.881   1.350   4.144
 2750SOL     OW10155   4.078   1.510   5.053
 2750SOL    HW110156   4.057   1.466   4.966
 2750SOL    HW210157   4.175   1.536   5.056
 2751SOL     OW10158   4.297   0.870   4.753
 2751SOL    HW110159   4.341   0.959   4.744
 2751SOL    HW210160   4.234   0.870   4.830
 2752SOL     OW10161   5.084   0.862   4.769
 2752SOL    HW110162   5.009   0.862   4.703
 2752SOL    HW210163   5.121   0.770   4.778
 2753SOL     OW10164   4.933   0.525   3.999
 2753SOL    HW110165   4.946   0.441   4.053
 2753SOL    HW210166   4.904   0.599   4.059
 2754SOL     OW10167   4.031   0.213   4.955
 2754SOL    HW110168   4.008   0.250   5.045
 2754SOL    HW210169   4.001   0.118   4.949
 2755SOL     OW10170   3.761   1.310   5.006
 2755SOL    HW110171   3.814   1.261   5.074
 2755SOL    HW210172   3.783   1.408   5.011
 2756SOL     OW10173   4.456   0.634   4.788
 2756SOL    HW110174   4.515   0.608   4.712
 2756SOL    HW210175   4.428   0.730   4.777
 2757SOL     OW10176   4.031   0.063   4.342
 2757SOL    HW110177   4.020   0.157   4.375
 2757SOL    HW210178   4.026   0.000   4.419
 2758SOL     OW10179   5.346   0.367   4.098
 2758SOL    HW110180   5.348   0.291   4.162
 2758SOL    HW210181   5.298   0.444   4.138
 2759SOL     OW10182   4.747   0.766   4.690
 2759SOL    HW110183   4.762   0.787   4.786
 2759SOL    HW210184   4.717   0.671   4.681
 2760SOL     OW10185   5.027   0.838   3.766
 2760SOL    HW110186   5.061   0.745   3.781
 2760SOL    HW210187   5.045   0.865   3.671
 2761SOL     OW10188   4.792   1.333   4.573
 2761SOL    HW110189   4.799   1.249   4.518
 2761SOL    HW210190   4.854   1.402   4.537
 2762SOL     OW10191   4.043   0.810   4.673
 2762SOL    HW110192   4.136   0.846   4.678
 2762SOL    HW210193   4.037   0.725   4.725
 2763SOL     OW10194   4.063   0.509   4.730
 2763SOL    HW110195   4.011   0.426   4.713
 2763SOL    HW210196   4.140   0.514   4.666
 2764SOL     OW10197   4.884   0.207   5.201
 2764SOL    HW110198   4.884   0.271   5.278
 2764SOL    HW210199   4.912   0.255   5.118
 2765SOL     OW10200   3.732   1.326   3.924
 2765SOL    HW110201   3.639   1.347   3.893
 2765SOL    HW210202   3.742   1.227   3.937
 2766SOL     OW10203   3.812   1.801   4.651
 2766SOL    HW110204   3.770   1.715   4.624
 2766SOL    HW210205   3.906   1.804   4.617
 2767SOL     OW10206   4.228   1.568   4.634
 2767SOL    HW110207   4.294   1.642   4.643
 2767SOL    HW210208   4.272   1.489   4.592
 2768SOL     OW10209   4.726   0.796   4.962
 2768SOL    HW110210   4.767   0.764   5.048
 2768SOL    HW210211   4.630   0.769   4.959
 2769SOL     OW10212   3.764   0.544   4.838
 2769SOL    HW110213   3.849   0.511   4.797
 2769SOL    HW210214   3.777   0.559   4.936
 2770SOL     OW10215   4.395   0.464   4.993
 2770SOL    HW110216   4.361   0.375   4.963
 2770SOL    HW210217   4.421   0.518   4.913
 2771SOL     OW10218   4.654   1.678   5.189
 2771SOL    HW110219   4.630   1.660   5.094
 2771SOL    HW210220   4.684   1.772   5.199
 2772SOL     OW10221   5.071   1.059   4.958
 2772SOL    HW110222   5.095   0.996   4.884
 2772SOL    HW210223   4.981   1.099   4.940
 2773SOL     OW10224   4.976   1.731   4.852
 2773SOL    HW110225   5.060   1.736   4.798
 2773SOL    HW210226   4.953   1.635   4.870
 2774SOL     OW10227   3.807   1.258   4.746
 2774SOL    HW110228   3.802   1.257   4.846
 2774SOL    HW210229   3.724   1.217   4.708
 2775SOL     OW10230   5.112   1.573   4.201
 2775SOL    HW110231   5.179   1.585   4.127
 2775SOL    HW210232   5.072   1.662   4.224
 2776SOL     OW10233   5.004   0.927   4.396
 2776SOL    HW110234   5.064   0.846   4.398
 2776SOL    HW210235   5.044   0.996   4.336
 2777SOL     OW10236   4.396   1.616   3.878
 2777SOL    HW110237   4.405   1.626   3.779
 2777SOL    HW210238   4.356   1.527   3.899
 2778SOL     OW10239   3.987   0.326   4.444
 2778SOL    HW110240   3.908   0.377   4.410
 2778SOL    HW210241   3.978   0.311   4.542
 2779SOL     OW10242   4.918   1.612   3.755
 2779SOL    HW110243   4.924   1.519   3.792
 2779SOL    HW210244   4.859   1.612   3.675
 2780SOL     OW10245   4.546   1.002   5.096
 2780SOL    HW110246   4.586   1.001   5.004
 2780SOL    HW210247   4.556   1.094   5.136
 2781SOL     OW10248   4.640   0.910   4.015
 2781SOL    HW110249   4.703   0.948   3.947
 2781SOL    HW210250   4.680   0.827   4.054
 2782SOL     OW10251   4.763   1.098   4.420
 2782SOL    HW110252   4.693   1.051   4.474
 2782SOL    HW210253   4.822   1.030   4.377
 2783SOL     OW10254   4.738   0.236   4.695
 2783SOL    HW110255   4.730   0.200   4.602
 2783SOL    HW210256   4.736   0.160   4.760
 2784SOL     OW10257   4.314   1.487   4.215
 2784SOL    HW110258   4.356   1.429   4.145
 2784SOL    HW210259   4.270   1.566   4.171
 2785SOL     OW10260   3.979   1.348   4.014
 2785SOL    HW110261   3.883   1.349   3.987
 2785SOL    HW210262   3.991   1.401   4.098
 2786SOL     OW10263   3.799   0.345   3.757
 2786SOL    HW110264   3.707   0.317   3.728
 2786SOL    HW210265   3.830   0.422   3.701
 2787SOL     OW10266   3.796   0.166   4.042
 2787SOL    HW110267   3.779   0.249   3.988
 2787SOL    HW210268   3.886   0.129   4.020
 2788SOL     OW10269   4.949   0.325   4.173
 2788SOL    HW110270   5.014   0.251   4.162
 2788SOL    HW210271   4.969   0.375   4.257
 2789SOL     OW10272   4.318   0.745   4.376
 2789SOL    HW110273   4.368   0.830   4.357
 2789SOL    HW210274   4.230   0.747   4.328
 2790SOL     OW10275   4.583   1.374   3.740
 2790SOL    HW110276   4.537   1.389   3.828
 2790SOL    HW210277   4.627   1.459   3.710
 2791SOL     OW10278   4.385   1.790   4.677
 2791SOL    HW110279   4.339   1.878   4.664
 2791SOL    HW210280   4.484   1.802   4.670
 2792SOL     OW10281   4.583   0.956   4.585
 2792SOL    HW110282   4.637   0.887   4.633
 2792SOL    HW210283   4.551   1.025   4.651
 2793SOL     OW10284   4.807   0.984   3.811
 2793SOL    HW110285   4.784   1.037   3.729
 2793SOL    HW210286   4.888   0.928   3.792
 2794SOL     OW10287   3.803   1.240   4.377
 2794SOL    HW110288   3.802   1.193   4.465
 2794SOL    HW210289   3.885   1.212   4.326
 2795SOL     OW10290   4.152   0.424   4.244
 2795SOL    HW110291   4.182   0.352   4.182
 2795SOL    HW210292   4.113   0.384   4.327
 2796SOL     OW10293   4.536   1.586   4.411
 2796SOL    HW110294   4.568   1.596   4.317
 2796SOL    HW210295   4.457   1.524   4.413
 2797SOL     OW10296   4.725   0.034   4.878
 2797SOL    HW110297   4.662  -0.038   4.847
 2797SOL    HW210298   4.818  -0.002   4.878
 2798SOL     OW10299   4.494   1.330   4.025
 2798SOL    HW110300   4.448   1.243   4.042
 2798SOL    HW210301   4.585   1.327   4.066
 2799SOL     OW10302   3.763   1.077   4.024
 2799SOL    HW110303   3.862   1.066   4.015
 2799SOL    HW210304   3.723   0.991   4.056
 2800SOL     OW10305   4.599   1.646   4.061
 2800SOL    HW110306   4.522   1.611   4.007
 2800SOL    HW210307   4.567   1.717   4.123
 2801SOL     OW10308   3.954   2.490   0.113
 2801SOL    HW110309   3.861   2.488   0.150
 2801SOL    HW210310   3.955   2.451   0.021
 2802SOL     OW10311   3.949   2.137   0.996
 2802SOL    HW110312   3.984   2.120   1.088
 2802SOL    HW210313   3.861   2.092   0.984
 2803SOL     OW10314   3.743   2.230   0.647
 2803SOL    HW110315   3.661   2.273   0.686
 2803SOL    HW210316   3.715   2.157   0.584
 2804SOL     OW10317   4.293   3.137   1.165
 2804SOL    HW110318   4.200   3.130   1.128
 2804SOL    HW210319   4.304   3.226   1.209
 2805SOL     OW10320   4.859   2.565   0.717
 2805SOL    HW110321   4.916   2.643   0.692
 2805SOL    HW210322   4.799   2.591   0.793
 2806SOL     OW10323   4.492   3.006   1.023
 2806SOL    HW110324   4.414   3.023   1.083
 2806SOL    HW210325   4.526   3.093   0.987
 2807SOL     OW10326   4.574   2.660   1.823
 2807SOL    HW110327   4.570   2.736   1.888
 2807SOL    HW210328   4.596   2.696   1.732
 2808SOL     OW10329   4.409   2.874   0.665
 2808SOL    HW110330   4.478   2.858   0.735
 2808SOL    HW210331   4.336   2.931   0.703
 2809SOL     OW10332   4.410   3.023   1.803
 2809SOL    HW110333   4.470   3.102   1.817
 2809SOL    HW210334   4.324   3.054   1.762
 2810SOL     OW10335   4.059   3.297   1.061
 2810SOL    HW110336   3.981   3.266   1.008
 2810SOL    HW210337   4.117   3.355   1.004
 2811SOL     OW10338   4.162   2.254   1.499
 2811SOL    HW110339   4.244   2.198   1.508
 2811SOL    HW210340   4.081   2.196   1.503
 2812SOL     OW10341   3.955   3.575   0.483
 2812SOL    HW110342   3.989   3.652   0.537
 2812SOL    HW210343   3.999   3.575   0.393
 2813SOL     OW10344   4.851   3.203   1.690
 2813SOL    HW110345   4.898   3.203   1.778
 2813SOL    HW210346   4.803   3.116   1.679
 2814SOL     OW10347   3.954   3.296   0.538
 2814SOL    HW110348   3.928   3.392   0.538
 2814SOL    HW210349   3.883   3.242   0.583
 2815SOL     OW10350   3.964   2.953   0.886
 2815SOL    HW110351   3.978   2.869   0.938
 2815SOL    HW210352   3.909   3.017   0.941
 2816SOL     OW10353   4.344   3.648   1.439
 2816SOL    HW110354   4.252   3.631   1.474
 2816SOL    HW210355   4.372   3.740   1.465
 2817SOL     OW10356   4.330   2.826   0.123
 2817SOL    HW110357   4.337   2.910   0.069
 2817SOL    HW210358   4.376   2.839   0.211
 2818SOL     OW10359   3.846   2.505   0.563
 2818SOL    HW110360   3.801   2.417   0.580
 2818SOL    HW210361   3.845   2.559   0.647
 2819SOL     OW10362   3.751   3.458   0.117
 2819SOL    HW110363   3.732   3.362   0.138
 2819SOL    HW210364   3.718   3.516   0.192
 2820SOL     OW10365   3.837   2.599   1.597
 2820SOL    HW110366   3.925   2.586   1.642
 2820SOL    HW210367   3.824   2.696   1.575
 2821SOL     OW10368   4.337   3.227   0.726
 2821SOL    HW110369   4.288   3.140   0.735
 2821SOL    HW210370   4.314   3.270   0.639
 2822SOL     OW10371   5.017   3.090   1.423
 2822SOL    HW110372   5.054   3.017   1.365
 2822SOL    HW210373   5.069   3.095   1.508
 2823SOL     OW10374   4.533   1.866   0.502
 2823SOL    HW110375   4.573   1.957   0.493
 2823SOL    HW210376   4.433   1.874   0.508
 2824SOL     OW10377   3.921   2.838   1.264
 2824SOL    HW110378   4.010   2.793   1.250
 2824SOL    HW210379   3.848   2.773   1.245
 2825SOL     OW10380   4.911   3.654   1.616
 2825SOL    HW110381   4.935   3.714   1.540
 2825SOL    HW210382   4.918   3.559   1.586
 2826SOL     OW10383   4.041   2.113   1.801
 2826SOL    HW110384   4.112   2.184   1.807
 2826SOL    HW210385   3.953   2.152   1.829
 2827SOL     OW10386   4.322   2.591   0.270
 2827SOL    HW110387   4.346   2.660   0.202
 2827SOL    HW210388   4.244   2.624   0.324
 2828SOL     OW10389   5.005   2.207   0.944
 2828SOL    HW110390   4.919   2.157   0.931
 2828SOL    HW210391   5.067   2.153   1.000
 2829SOL     OW10392   4.765   2.563   0.429
 2829SOL    HW110393   4.791   2.559   0.525
 2829SOL    HW210394   4.680   2.512   0.415
 2830SOL     OW10395   3.800   2.673   0.789
 2830SOL    HW110396   3.899   2.661   0.798
 2830SOL    HW210397   3.776   2.768   0.810
 2831SOL     OW10398   3.854   3.683   1.571
 2831SOL    HW110399   3.844   3.668   1.670
 2831SOL    HW210400   3.768   3.719   1.535
 2832SOL     OW10401   4.589   2.210   0.195
 2832SOL    HW110402   4.648   2.273   0.146
 2832SOL    HW210403   4.608   2.116   0.166
 2833SOL     OW10404   4.732   3.318   0.477
 2833SOL    HW110405   4.686   3.390   0.425
 2833SOL    HW210406   4.728   3.338   0.575
 2834SOL     OW10407   4.075   3.663   0.853
 2834SOL    HW110408   4.125   3.577   0.859
 2834SOL    HW210409   4.140   3.740   0.850
 2835SOL     OW10410   4.951   3.412   1.506
 2835SOL    HW110411   4.957   3.335   1.570
 2835SOL    HW210412   4.899   3.386   1.426
 2836SOL     OW10413   4.045   2.805   0.242
 2836SOL    HW110414   4.127   2.844   0.200
 2836SOL    HW210415   4.018   2.723   0.193
 2837SOL     OW10416   4.185   3.128   1.727
 2837SOL    HW110417   4.135   3.129   1.641
 2837SOL    HW210418   4.122   3.110   1.803
 2838SOL     OW10419   4.835   3.638   0.237
 2838SOL    HW110420   4.775   3.576   0.287
 2838SOL    HW210421   4.866   3.594   0.152
 2839SOL     OW10422   3.926   2.147   1.498
 2839SOL    HW110423   3.846   2.207   1.485
 2839SOL    HW210424   3.916   2.098   1.584
 2840SOL     OW10425   5.356   3.239   0.081
 2840SOL    HW110426   5.324   3.333   0.071
 2840SOL    HW210427   5.280   3.176   0.069
 2841SOL     OW10428   4.188   3.605   0.323
 2841SOL    HW110429   4.221   3.644   0.409
 2841SOL    HW210430   4.264   3.598   0.258
 2842SOL     OW10431   3.973   3.647   1.241
 2842SOL    HW110432   4.030   3.582   1.291
 2842SOL    HW210433   3.957   3.614   1.148
 2843SOL     OW10434   4.664   3.560   0.904
 2843SOL    HW110435   4.744   3.503   0.925
 2843SOL    HW210436   4.615   3.520   0.827
 2844SOL     OW10437   4.106   2.562   0.480
 2844SOL    HW110438   4.151   2.472   0.477
 2844SOL    HW210439   4.012   2.551   0.513
 2845SOL     OW10440   4.505   2.126   1.749
 2845SOL    HW110441   4.572   2.065   1.792
 2845SOL    HW210442   4.432   2.145   1.814
 2846SOL     OW10443   4.612   3.376   1.195
 2846SOL    HW110444   4.589   3.351   1.101
 2846SOL    HW210445   4.673   3.307   1.234
 2847SOL     OW10446   4.527   3.264   0.924
 2847SOL    HW110447   4.617   3.278   0.882
 2847SOL    HW210448   4.456   3.266   0.853
 2848SOL     OW10449   4.263   1.926   0.512
 2848SOL    HW110450   4.182   1.927   0.570
 2848SOL    HW210451   4.266   2.009   0.457
 2849SOL     OW10452   4.021   1.897   0.171
 2849SOL    HW110453   4.070   1.981   0.150
 2849SOL    HW210454   4.083   1.832   0.216
 2850SOL     OW10455   4.659   2.098   0.480
 2850SOL    HW110456   4.611   2.139   0.402
 2850SOL    HW210457   4.758   2.096   0.461
 2851SOL     OW10458   4.951   3.432   0.793
 2851SOL    HW110459   4.972   3.506   0.728
 2851SOL    HW210460   5.019   3.432   0.866
 2852SOL     OW10461   4.183   3.014   0.741
 2852SOL    HW110462   4.112   2.987   0.806
 2852SOL    HW210463   4.157   2.986   0.648
 2853SOL     OW10464   4.995   3.659   0.591
 2853SOL    HW110465   5.039   3.723   0.527
 2853SOL    HW210466   4.945   3.711   0.661
 2854SOL     OW10467   4.756   2.411   0.016
 2854SOL    HW110468   4.715   2.493  -0.023
 2854SOL    HW210469   4.820   2.437   0.089
 2855SOL     OW10470   3.802   2.418   1.386
 2855SOL    HW110471   3.894   2.417   1.345
 2855SOL    HW210472   3.796   2.492   1.453
 2856SOL     OW10473   4.590   2.316   0.642
 2856SOL    HW110474   4.558   2.388   0.580
 2856SOL    HW210475   4.614   2.235   0.589
 2857SOL     OW10476   4.741   1.901   0.753
 2857SOL    HW110477   4.669   1.906   0.684
 2857SOL    HW210478   4.717   1.832   0.822
 2858SOL     OW10479   4.212   3.247   0.174
 2858SOL    HW110480   4.125   3.232   0.221
 2858SOL    HW210481   4.195   3.273   0.079
 2859SOL     OW10482   5.388   3.142   0.657
 2859SOL    HW110483   5.487   3.150   0.671
 2859SOL    HW210484   5.343   3.226   0.688
 2860SOL     OW10485   4.251   2.118   0.328
 2860SOL    HW110486   4.278   2.059   0.253
 2860SOL    HW210487   4.251   2.213   0.297
 2861SOL     OW10488   4.788   3.209   1.340
 2861SOL    HW110489   4.708   3.186   1.395
 2861SOL    HW210490   4.871   3.183   1.389
 2862SOL     OW10491   4.835   3.057   1.100
 2862SOL    HW110492   4.795   3.101   1.181
 2862SOL    HW210493   4.794   3.094   1.017
 2863SOL     OW10494   4.639   1.951   1.402
 2863SOL    HW110495   4.664   1.931   1.307
 2863SOL    HW210496   4.711   2.007   1.444
 2864SOL     OW10497   4.704   2.978   1.719
 2864SOL    HW110498   4.605   2.984   1.729
 2864SOL    HW210499   4.727   2.898   1.663
 2865SOL     OW10500   4.429   2.912   0.368
 2865SOL    HW110501   4.415   2.919   0.467
 2865SOL    HW210502   4.513   2.861   0.350
 2866SOL     OW10503   4.134   2.675   1.251
 2866SOL    HW110504   4.220   2.687   1.301
 2866SOL    HW210505   4.092   2.588   1.278
 2867SOL     OW10506   3.788   3.426   1.331
 2867SOL    HW110507   3.742   3.508   1.297
 2867SOL    HW210508   3.886   3.445   1.340
 2868SOL     OW10509   4.091   2.962   0.501
 2868SOL    HW110510   4.084   3.045   0.445
 2868SOL    HW210511   4.095   2.882   0.441
 2869SOL     OW10512   4.290   2.399   0.865
 2869SOL    HW110513   4.302   2.465   0.791
 2869SOL    HW210514   4.336   2.433   0.948
 2870SOL     OW10515   4.976   3.210   0.388
 2870SOL    HW110516   5.026   3.287   0.428
 2870SOL    HW210517   4.881   3.212   0.420
 2871SOL     OW10518   4.078   3.372   1.329
 2871SOL    HW110519   4.057   3.328   1.242
 2871SOL    HW210520   4.175   3.398   1.332
 2872SOL     OW10521   4.126   2.613   1.598
 2872SOL    HW110522   4.194   2.668   1.551
 2872SOL    HW210523   4.166   2.525   1.625
 2873SOL     OW10524   4.737   1.967   1.770
 2873SOL    HW110525   4.743   2.052   1.718
 2873SOL    HW210526   4.769   1.891   1.713
 2874SOL     OW10527   4.228   1.912   1.740
 2874SOL    HW110528   4.186   1.855   1.670
 2874SOL    HW210529   4.162   1.981   1.772
 2875SOL     OW10530   4.297   2.732   1.029
 2875SOL    HW110531   4.341   2.821   1.020
 2875SOL    HW210532   4.234   2.732   1.106
 2876SOL     OW10533   5.084   2.724   1.045
 2876SOL    HW110534   5.009   2.724   0.979
 2876SOL    HW210535   5.121   2.632   1.054
 2877SOL     OW10536   4.933   2.387   0.275
 2877SOL    HW110537   4.946   2.303   0.329
 2877SOL    HW210538   4.904   2.461   0.335
 2878SOL     OW10539   4.031   2.075   1.231
 2878SOL    HW110540   4.008   2.112   1.321
 2878SOL    HW210541   4.001   1.980   1.225
 2879SOL     OW10542   3.761   3.172   1.282
 2879SOL    HW110543   3.814   3.123   1.350
 2879SOL    HW210544   3.783   3.270   1.287
 2880SOL     OW10545   4.031   1.925   0.618
 2880SOL    HW110546   4.020   2.019   0.651
 2880SOL    HW210547   4.026   1.862   0.695
 2881SOL     OW10548   5.346   2.229   0.374
 2881SOL    HW110549   5.348   2.153   0.438
 2881SOL    HW210550   5.298   2.306   0.414
 2882SOL     OW10551   4.704   3.435   1.700
 2882SOL    HW110552   4.684   3.479   1.612
 2882SOL    HW210553   4.743   3.344   1.684
 2883SOL     OW10554   4.074   2.760   1.804
 2883SOL    HW110555   4.150   2.804   1.852
 2883SOL    HW210556   4.109   2.713   1.722
 2884SOL     OW10557   5.027   2.700   0.042
 2884SOL    HW110558   5.061   2.607   0.057
 2884SOL    HW210559   5.045   2.727  -0.053
 2885SOL     OW10560   4.792   3.195   0.849
 2885SOL    HW110561   4.799   3.111   0.794
 2885SOL    HW210562   4.854   3.264   0.813
 2886SOL     OW10563   4.043   2.672   0.949
 2886SOL    HW110564   4.136   2.708   0.954
 2886SOL    HW210565   4.037   2.587   1.001
 2887SOL     OW10566   4.063   2.371   1.006
 2887SOL    HW110567   4.011   2.288   0.989
 2887SOL    HW210568   4.140   2.376   0.942
 2888SOL     OW10569   4.862   2.242   1.678
 2888SOL    HW110570   4.817   2.305   1.742
 2888SOL    HW210571   4.955   2.273   1.661
 2889SOL     OW10572   4.884   2.069   1.477
 2889SOL    HW110573   4.884   2.133   1.554
 2889SOL    HW210574   4.912   2.117   1.394
 2890SOL     OW10575   3.812   3.663   0.927
 2890SOL    HW110576   3.770   3.577   0.900
 2890SOL    HW210577   3.906   3.666   0.893
 2891SOL     OW10578   4.228   3.430   0.910
 2891SOL    HW110579   4.294   3.504   0.919
 2891SOL    HW210580   4.272   3.351   0.868
 2892SOL     OW10581   3.764   2.406   1.114
 2892SOL    HW110582   3.849   2.373   1.073
 2892SOL    HW210583   3.777   2.421   1.212
 2893SOL     OW10584   3.913   2.382   1.722
 2893SOL    HW110585   3.972   2.342   1.652
 2893SOL    HW210586   3.855   2.453   1.681
 2894SOL     OW10587   4.539   2.434   0.325
 2894SOL    HW110588   4.546   2.345   0.279
 2894SOL    HW210589   4.445   2.468   0.317
 2895SOL     OW10590   4.654   3.540   1.465
 2895SOL    HW110591   4.630   3.522   1.370
 2895SOL    HW210592   4.684   3.634   1.475
 2896SOL     OW10593   4.197   2.362   0.191
 2896SOL    HW110594   4.258   2.442   0.195
 2896SOL    HW210595   4.102   2.393   0.198
 2897SOL     OW10596   3.883   2.999   1.466
 2897SOL    HW110597   3.905   2.938   1.542
 2897SOL    HW210598   3.893   2.950   1.380
 2898SOL     OW10599   5.071   2.921   1.234
 2898SOL    HW110600   5.095   2.858   1.160
 2898SOL    HW210601   4.981   2.961   1.216
 2899SOL     OW10602   4.976   3.593   1.128
 2899SOL    HW110603   5.060   3.598   1.074
 2899SOL    HW210604   4.953   3.497   1.146
 2900SOL     OW10605   3.807   3.120   1.022
 2900SOL    HW110606   3.802   3.119   1.122
 2900SOL    HW210607   3.724   3.079   0.984
 2901SOL     OW10608   4.412   3.524   1.716
 2901SOL    HW110609   4.356   3.605   1.725
 2901SOL    HW210610   4.464   3.528   1.630
 2902SOL     OW10611   4.627   1.948   0.133
 2902SOL    HW110612   4.678   1.949   0.047
 2902SOL    HW210613   4.683   1.906   0.204
 2903SOL     OW10614   5.112   3.435   0.477
 2903SOL    HW110615   5.179   3.447   0.403
 2903SOL    HW210616   5.072   3.524   0.500
 2904SOL     OW10617   5.004   2.789   0.672
 2904SOL    HW110618   5.064   2.708   0.674
 2904SOL    HW210619   5.044   2.858   0.612
 2905SOL     OW10620   4.554   3.135   1.422
 2905SOL    HW110621   4.549   3.168   1.517
 2905SOL    HW210622   4.468   3.154   1.376
 2906SOL     OW10623   4.396   3.478   0.154
 2906SOL    HW110624   4.405   3.488   0.055
 2906SOL    HW210625   4.356   3.389   0.175
 2907SOL     OW10626   3.987   2.188   0.720
 2907SOL    HW110627   3.908   2.239   0.686
 2907SOL    HW210628   3.978   2.173   0.818
 2908SOL     OW10629   4.918   3.474   0.031
 2908SOL    HW110630   4.924   3.381   0.068
 2908SOL    HW210631   4.859   3.474  -0.049
 2909SOL     OW10632   4.546   2.864   1.372
 2909SOL    HW110633   4.586   2.863   1.280
 2909SOL    HW210634   4.556   2.956   1.412
 2910SOL     OW10635   4.640   2.772   0.291
 2910SOL    HW110636   4.703   2.810   0.223
 2910SOL    HW210637   4.680   2.689   0.330
 2911SOL     OW10638   4.096   3.150   1.490
 2911SOL    HW110639   4.083   3.243   1.456
 2911SOL    HW210640   4.012   3.098   1.477
 2912SOL     OW10641   4.763   2.960   0.696
 2912SOL    HW110642   4.693   2.913   0.750
 2912SOL    HW210643   4.822   2.892   0.653
 2913SOL     OW10644   4.314   3.349   0.491
 2913SOL    HW110645   4.356   3.291   0.421
 2913SOL    HW210646   4.270   3.428   0.447
 2914SOL     OW10647   3.979   3.210   0.290
 2914SOL    HW110648   3.883   3.211   0.263
 2914SOL    HW210649   3.991   3.263   0.374
 2915SOL     OW10650   3.829   2.875   1.726
 2915SOL    HW110651   3.752   2.842   1.780
 2915SOL    HW210652   3.914   2.845   1.768
 2916SOL     OW10653   4.396   2.065   1.489
 2916SOL    HW110654   4.486   2.049   1.449
 2916SOL    HW210655   4.404   2.070   1.588
 2917SOL     OW10656   5.164   2.718   1.398
 2917SOL    HW110657   5.107   2.770   1.335
 2917SOL    HW210658   5.260   2.730   1.374
 2918SOL     OW10659   3.796   2.028   0.318
 2918SOL    HW110660   3.779   2.111   0.264
 2918SOL    HW210661   3.886   1.991   0.296
 2919SOL     OW10662   4.440   2.427   1.708
 2919SOL    HW110663   4.459   2.492   1.782
 2919SOL    HW210664   4.500   2.347   1.717
 2920SOL     OW10665   4.114   3.603   1.560
 2920SOL    HW110666   4.023   3.644   1.558
 2920SOL    HW210667   4.107   3.509   1.592
 2921SOL     OW10668   4.949   2.187   0.449
 2921SOL    HW110669   5.014   2.113   0.438
 2921SOL    HW210670   4.969   2.237   0.533
 2922SOL     OW10671   4.318   2.607   0.652
 2922SOL    HW110672   4.368   2.692   0.633
 2922SOL    HW210673   4.230   2.609   0.604
 2923SOL     OW10674   4.583   3.236   0.016
 2923SOL    HW110675   4.537   3.251   0.104
 2923SOL    HW210676   4.627   3.321  -0.014
 2924SOL     OW10677   4.385   3.652   0.953
 2924SOL    HW110678   4.339   3.740   0.940
 2924SOL    HW210679   4.484   3.664   0.946
 2925SOL     OW10680   4.583   2.818   0.861
 2925SOL    HW110681   4.637   2.749   0.909
 2925SOL    HW210682   4.551   2.887   0.927
 2926SOL     OW10683   4.807   2.846   0.087
 2926SOL    HW110684   4.784   2.899   0.005
 2926SOL    HW210685   4.888   2.790   0.068
 2927SOL     OW10686   3.945   3.176   1.844
 2927SOL    HW110687   3.880   3.103   1.823
 2927SOL    HW210688   3.949   3.190   1.942
 2928SOL     OW10689   3.803   3.102   0.653
 2928SOL    HW110690   3.802   3.055   0.741
 2928SOL    HW210691   3.885   3.074   0.602
 2929SOL     OW10692   4.396   3.253   1.624
 2929SOL    HW110693   4.318   3.203   1.662
 2929SOL    HW210694   4.393   3.348   1.655
 2930SOL     OW10695   4.152   2.286   0.520
 2930SOL    HW110696   4.182   2.214   0.458
 2930SOL    HW210697   4.113   2.246   0.603
 2931SOL     OW10698   4.041   2.409   1.280
 2931SOL    HW110699   4.079   2.350   1.352
 2931SOL    HW210700   4.081   2.383   1.192
 2932SOL     OW10701   4.536   3.448   0.687
 2932SOL    HW110702   4.568   3.458   0.593
 2932SOL    HW210703   4.457   3.386   0.689
 2933SOL     OW10704   4.725   1.896   1.154
 2933SOL    HW110705   4.662   1.824   1.123
 2933SOL    HW210706   4.818   1.860   1.154
 2934SOL     OW10707   4.494   3.192   0.301
 2934SOL    HW110708   4.448   3.105   0.318
 2934SOL    HW210709   4.585   3.189   0.342
 2935SOL     OW10710   4.342   3.429   1.284
 2935SOL    HW110711   4.337   3.511   1.341
 2935SOL    HW210712   4.431   3.426   1.239
 2936SOL     OW10713   3.763   2.939   0.300
 2936SOL    HW110714   3.862   2.928   0.291
 2936SOL    HW210715   3.723   2.853   0.332
 2937SOL     OW10716   4.599   3.508   0.337
 2937SOL    HW110717   4.522   3.473   0.283
 2937SOL    HW210718   4.567   3.579   0.399
 2938SOL     OW10719   3.954   2.490   1.975
 2938SOL    HW110720   3.861   2.488   2.012
 2938SOL    HW210721   3.955   2.451   1.883
 2939SOL     OW10722   3.949   2.137   2.858
 2939SOL    HW110723   3.984   2.120   2.950
 2939SOL    HW210724   3.861   2.092   2.846
 2940SOL     OW10725   3.743   2.230   2.509
 2940SOL    HW110726   3.661   2.273   2.548
 2940SOL    HW210727   3.715   2.157   2.446
 2941SOL     OW10728   4.293   3.137   3.027
 2941SOL    HW110729   4.200   3.130   2.990
 2941SOL    HW210730   4.304   3.226   3.071
 2942SOL     OW10731   4.859   2.565   2.579
 2942SOL    HW110732   4.916   2.643   2.554
 2942SOL    HW210733   4.799   2.591   2.655
 2943SOL     OW10734   4.492   3.006   2.885
 2943SOL    HW110735   4.414   3.023   2.945
 2943SOL    HW210736   4.526   3.093   2.849
 2944SOL     OW10737   4.574   2.660   3.685
 2944SOL    HW110738   4.570   2.736   3.750
 2944SOL    HW210739   4.596   2.696   3.594
 2945SOL     OW10740   4.409   2.874   2.527
 2945SOL    HW110741   4.478   2.858   2.597
 2945SOL    HW210742   4.336   2.931   2.565
 2946SOL     OW10743   4.162   2.254   3.361
 2946SOL    HW110744   4.244   2.198   3.370
 2946SOL    HW210745   4.081   2.196   3.365
 2947SOL     OW10746   4.851   3.203   3.552
 2947SOL    HW110747   4.898   3.203   3.640
 2947SOL    HW210748   4.803   3.116   3.541
 2948SOL     OW10749   3.964   2.953   2.748
 2948SOL    HW110750   3.978   2.869   2.800
 2948SOL    HW210751   3.909   3.017   2.803
 2949SOL     OW10752   4.344   3.648   3.301
 2949SOL    HW110753   4.252   3.631   3.336
 2949SOL    HW210754   4.372   3.740   3.327
 2950SOL     OW10755   4.330   2.826   1.985
 2950SOL    HW110756   4.337   2.910   1.931
 2950SOL    HW210757   4.376   2.839   2.073
 2951SOL     OW10758   3.846   2.505   2.425
 2951SOL    HW110759   3.801   2.417   2.442
 2951SOL    HW210760   3.845   2.559   2.509
 2952SOL     OW10761   3.751   3.458   1.979
 2952SOL    HW110762   3.732   3.362   2.000
 2952SOL    HW210763   3.718   3.516   2.054
 2953SOL     OW10764   3.837   2.599   3.459
 2953SOL    HW110765   3.925   2.586   3.504
 2953SOL    HW210766   3.824   2.696   3.437
 2954SOL     OW10767   5.017   3.090   3.285
 2954SOL    HW110768   5.054   3.017   3.227
 2954SOL    HW210769   5.069   3.095   3.370
 2955SOL     OW10770   4.533   1.866   2.364
 2955SOL    HW110771   4.573   1.957   2.355
 2955SOL    HW210772   4.433   1.874   2.370
 2956SOL     OW10773   3.921   2.838   3.126
 2956SOL    HW110774   4.010   2.793   3.112
 2956SOL    HW210775   3.848   2.773   3.107
 2957SOL     OW10776   4.911   3.654   3.478
 2957SOL    HW110777   4.935   3.714   3.402
 2957SOL    HW210778   4.918   3.559   3.448
 2958SOL     OW10779   4.041   2.113   3.663
 2958SOL    HW110780   4.112   2.184   3.669
 2958SOL    HW210781   3.953   2.152   3.691
 2959SOL     OW10782   4.322   2.591   2.132
 2959SOL    HW110783   4.346   2.660   2.064
 2959SOL    HW210784   4.244   2.624   2.186
 2960SOL     OW10785   5.005   2.207   2.806
 2960SOL    HW110786   4.919   2.157   2.793
 2960SOL    HW210787   5.067   2.153   2.862
 2961SOL     OW10788   4.531   2.467   3.327
 2961SOL    HW110789   4.484   2.464   3.416
 2961SOL    HW210790   4.480   2.412   3.261
 2962SOL     OW10791   4.697   2.752   3.434
 2962SOL    HW110792   4.743   2.668   3.405
 2962SOL    HW210793   4.641   2.786   3.359
 2963SOL     OW10794   4.715   2.272   3.104
 2963SOL    HW110795   4.638   2.306   3.158
 2963SOL    HW210796   4.681   2.221   3.025
 2964SOL     OW10797   4.765   2.563   2.291
 2964SOL    HW110798   4.791   2.559   2.387
 2964SOL    HW210799   4.680   2.512   2.277
 2965SOL     OW10800   3.800   2.673   2.651
 2965SOL    HW110801   3.899   2.661   2.660
 2965SOL    HW210802   3.776   2.768   2.672
 2966SOL     OW10803   4.589   2.210   2.057
 2966SOL    HW110804   4.648   2.273   2.008
 2966SOL    HW210805   4.608   2.116   2.028
 2967SOL     OW10806   4.274   2.058   2.747
 2967SOL    HW110807   4.269   2.053   2.847
 2967SOL    HW210808   4.276   2.154   2.718
 2968SOL     OW10809   4.732   3.318   2.339
 2968SOL    HW110810   4.686   3.390   2.287
 2968SOL    HW210811   4.728   3.338   2.437
 2969SOL     OW10812   4.075   3.663   2.715
 2969SOL    HW110813   4.125   3.577   2.721
 2969SOL    HW210814   4.140   3.740   2.712
 2970SOL     OW10815   4.951   3.412   3.368
 2970SOL    HW110816   4.957   3.335   3.432
 2970SOL    HW210817   4.899   3.386   3.288
 2971SOL     OW10818   4.045   2.805   2.104
 2971SOL    HW110819   4.127   2.844   2.062
 2971SOL    HW210820   4.018   2.723   2.055
 2972SOL     OW10821   3.926   2.147   3.360
 2972SOL    HW110822   3.846   2.207   3.347
 2972SOL    HW210823   3.916   2.098   3.446
 2973SOL     OW10824   4.664   3.560   2.766
 2973SOL    HW110825   4.744   3.503   2.787
 2973SOL    HW210826   4.615   3.520   2.689
 2974SOL     OW10827   4.106   2.562   2.342
 2974SOL    HW110828   4.151   2.472   2.339
 2974SOL    HW210829   4.012   2.551   2.375
 2975SOL     OW10830   4.338   1.984   1.979
 2975SOL    HW110831   4.436   1.962   1.986
 2975SOL    HW210832   4.307   1.967   1.886
 2976SOL     OW10833   4.505   2.126   3.611
 2976SOL    HW110834   4.572   2.065   3.654
 2976SOL    HW210835   4.432   2.145   3.676
 2977SOL     OW10836   4.612   3.376   3.057
 2977SOL    HW110837   4.589   3.351   2.963
 2977SOL    HW210838   4.673   3.307   3.096
 2978SOL     OW10839   4.527   3.264   2.786
 2978SOL    HW110840   4.617   3.278   2.744
 2978SOL    HW210841   4.456   3.266   2.715
 2979SOL     OW10842   4.646   2.365   2.761
 2979SOL    HW110843   4.621   2.356   2.665
 2979SOL    HW210844   4.694   2.283   2.792
 2980SOL     OW10845   4.263   1.926   2.374
 2980SOL    HW110846   4.182   1.927   2.432
 2980SOL    HW210847   4.266   2.009   2.319
 2981SOL     OW10848   4.659   2.098   2.342
 2981SOL    HW110849   4.611   2.139   2.264
 2981SOL    HW210850   4.758   2.096   2.323
 2982SOL     OW10851   4.800   2.545   3.326
 2982SOL    HW110852   4.720   2.484   3.329
 2982SOL    HW210853   4.881   2.492   3.302
 2983SOL     OW10854   4.951   3.432   2.655
 2983SOL    HW110855   4.972   3.506   2.590
 2983SOL    HW210856   5.019   3.432   2.728
 2984SOL     OW10857   4.183   3.014   2.603
 2984SOL    HW110858   4.112   2.987   2.668
 2984SOL    HW210859   4.157   2.986   2.510
 2985SOL     OW10860   4.995   3.659   2.453
 2985SOL    HW110861   5.039   3.723   2.389
 2985SOL    HW210862   4.945   3.711   2.523
 2986SOL     OW10863   4.756   2.411   1.878
 2986SOL    HW110864   4.715   2.493   1.839
 2986SOL    HW210865   4.820   2.437   1.951
 2987SOL     OW10866   3.802   2.418   3.248
 2987SOL    HW110867   3.894   2.417   3.207
 2987SOL    HW210868   3.796   2.492   3.315
 2988SOL     OW10869   4.285   2.084   3.009
 2988SOL    HW110870   4.323   2.000   3.046
 2988SOL    HW210871   4.197   2.103   3.053
 2989SOL     OW10872   4.590   2.316   2.504
 2989SOL    HW110873   4.558   2.388   2.442
 2989SOL    HW210874   4.614   2.235   2.451
 2990SOL     OW10875   4.741   1.901   2.615
 2990SOL    HW110876   4.669   1.906   2.546
 2990SOL    HW210877   4.717   1.832   2.684
 2991SOL     OW10878   5.388   3.142   2.519
 2991SOL    HW110879   5.487   3.150   2.533
 2991SOL    HW210880   5.343   3.226   2.550
 2992SOL     OW10881   4.251   2.118   2.190
 2992SOL    HW110882   4.278   2.059   2.115
 2992SOL    HW210883   4.251   2.213   2.159
 2993SOL     OW10884   4.788   3.209   3.202
 2993SOL    HW110885   4.708   3.186   3.257
 2993SOL    HW210886   4.871   3.183   3.251
 2994SOL     OW10887   4.835   3.057   2.962
 2994SOL    HW110888   4.795   3.101   3.043
 2994SOL    HW210889   4.794   3.094   2.879
 2995SOL     OW10890   4.639   1.951   3.264
 2995SOL    HW110891   4.664   1.931   3.169
 2995SOL    HW210892   4.711   2.007   3.306
 2996SOL     OW10893   4.704   2.978   3.581
 2996SOL    HW110894   4.605   2.984   3.591
 2996SOL    HW210895   4.727   2.898   3.525
 2997SOL     OW10896   4.429   2.912   2.230
 2997SOL    HW110897   4.415   2.919   2.329
 2997SOL    HW210898   4.513   2.861   2.212
 2998SOL     OW10899   4.134   2.675   3.113
 2998SOL    HW110900   4.220   2.687   3.163
 2998SOL    HW210901   4.092   2.588   3.140
 2999SOL     OW10902   4.998   2.248   3.124
 2999SOL    HW110903   5.019   2.322   3.188
 2999SOL    HW210904   4.909   2.265   3.081
 3000SOL     OW10905   4.091   2.962   2.363
 3000SOL    HW110906   4.084   3.045   2.307
 3000SOL    HW210907   4.095   2.882   2.303
 3001SOL     OW10908   4.290   2.399   2.727
 3001SOL    HW110909   4.302   2.465   2.653
 3001SOL    HW210910   4.336   2.433   2.810
 3002SOL     OW10911   4.976   3.210   2.250
 3002SOL    HW110912   5.026   3.287   2.290
 3002SOL    HW210913   4.881   3.212   2.282
 3003SOL     OW10914   4.126   2.613   3.460
 3003SOL    HW110915   4.194   2.668   3.413
 3003SOL    HW210916   4.166   2.525   3.487
 3004SOL     OW10917   4.737   1.967   3.632
 3004SOL    HW110918   4.743   2.052   3.580
 3004SOL    HW210919   4.769   1.891   3.575
 3005SOL     OW10920   4.228   1.912   3.602
 3005SOL    HW110921   4.186   1.855   3.532
 3005SOL    HW210922   4.162   1.981   3.634
 3006SOL     OW10923   4.297   2.732   2.891
 3006SOL    HW110924   4.341   2.821   2.882
 3006SOL    HW210925   4.234   2.732   2.968
 3007SOL     OW10926   5.084   2.724   2.907
 3007SOL    HW110927   5.009   2.724   2.841
 3007SOL    HW210928   5.121   2.632   2.916
 3008SOL     OW10929   4.933   2.387   2.137
 3008SOL    HW110930   4.946   2.303   2.191
 3008SOL    HW210931   4.904   2.461   2.197
 3009SOL     OW10932   4.031   2.075   3.093
 3009SOL    HW110933   4.008   2.112   3.183
 3009SOL    HW210934   4.001   1.980   3.087
 3010SOL     OW10935   4.456   2.496   2.926
 3010SOL    HW110936   4.515   2.470   2.850
 3010SOL    HW210937   4.428   2.592   2.915
 3011SOL     OW10938   4.031   1.925   2.480
 3011SOL    HW110939   4.020   2.019   2.513
 3011SOL    HW210940   4.026   1.862   2.557
 3012SOL     OW10941   4.747   2.628   2.828
 3012SOL    HW110942   4.762   2.649   2.924
 3012SOL    HW210943   4.717   2.533   2.819
 3013SOL     OW10944   4.704   3.435   3.562
 3013SOL    HW110945   4.684   3.479   3.474
 3013SOL    HW210946   4.743   3.344   3.546
 3014SOL     OW10947   5.027   2.700   1.904
 3014SOL    HW110948   5.061   2.607   1.919
 3014SOL    HW210949   5.045   2.727   1.809
 3015SOL     OW10950   4.792   3.195   2.711
 3015SOL    HW110951   4.799   3.111   2.656
 3015SOL    HW210952   4.854   3.264   2.675
 3016SOL     OW10953   4.043   2.672   2.811
 3016SOL    HW110954   4.136   2.708   2.816
 3016SOL    HW210955   4.037   2.587   2.863
 3017SOL     OW10956   4.063   2.371   2.868
 3017SOL    HW110957   4.011   2.288   2.851
 3017SOL    HW210958   4.140   2.376   2.804
 3018SOL     OW10959   4.862   2.242   3.540
 3018SOL    HW110960   4.817   2.305   3.604
 3018SOL    HW210961   4.955   2.273   3.523
 3019SOL     OW10962   4.884   2.069   3.339
 3019SOL    HW110963   4.884   2.133   3.416
 3019SOL    HW210964   4.912   2.117   3.256
 3020SOL     OW10965   3.732   3.188   2.062
 3020SOL    HW110966   3.639   3.209   2.031
 3020SOL    HW210967   3.742   3.089   2.075
 3021SOL     OW10968   3.812   3.663   2.789
 3021SOL    HW110969   3.770   3.577   2.762
 3021SOL    HW210970   3.906   3.666   2.755
 3022SOL     OW10971   4.726   2.658   3.100
 3022SOL    HW110972   4.767   2.626   3.186
 3022SOL    HW210973   4.630   2.631   3.097
 3023SOL     OW10974   3.764   2.406   2.976
 3023SOL    HW110975   3.849   2.373   2.935
 3023SOL    HW210976   3.777   2.421   3.074
 3024SOL     OW10977   3.913   2.382   3.584
 3024SOL    HW110978   3.972   2.342   3.514
 3024SOL    HW210979   3.855   2.453   3.543
 3025SOL     OW10980   4.539   2.434   2.187
 3025SOL    HW110981   4.546   2.345   2.141
 3025SOL    HW210982   4.445   2.468   2.179
 3026SOL     OW10983   4.395   2.326   3.131
 3026SOL    HW110984   4.361   2.237   3.101
 3026SOL    HW210985   4.421   2.380   3.051
 3027SOL     OW10986   4.654   3.540   3.327
 3027SOL    HW110987   4.630   3.522   3.232
 3027SOL    HW210988   4.684   3.634   3.337
 3028SOL     OW10989   4.197   2.362   2.053
 3028SOL    HW110990   4.258   2.442   2.057
 3028SOL    HW210991   4.102   2.393   2.060
 3029SOL     OW10992   3.883   2.999   3.328
 3029SOL    HW110993   3.905   2.938   3.404
 3029SOL    HW210994   3.893   2.950   3.242
 3030SOL     OW10995   5.071   2.921   3.096
 3030SOL    HW110996   5.095   2.858   3.022
 3030SOL    HW210997   4.981   2.961   3.078
 3031SOL     OW10998   4.976   3.593   2.990
 3031SOL    HW110999   5.060   3.598   2.936
 3031SOL    HW211000   4.953   3.497   3.008
 3032SOL     OW11001   3.807   3.120   2.884
 3032SOL    HW111002   3.802   3.119   2.984
 3032SOL    HW211003   3.724   3.079   2.846
 3033SOL     OW11004   4.412   3.524   3.578
 3033SOL    HW111005   4.356   3.605   3.587
 3033SOL    HW211006   4.464   3.528   3.492
 3034SOL     OW11007   5.004   2.789   2.534
 3034SOL    HW111008   5.064   2.708   2.536
 3034SOL    HW211009   5.044   2.858   2.474
 3035SOL     OW11010   4.554   3.135   3.284
 3035SOL    HW111011   4.549   3.168   3.379
 3035SOL    HW211012   4.468   3.154   3.238
 3036SOL     OW11013   3.987   2.188   2.582
 3036SOL    HW111014   3.908   2.239   2.548
 3036SOL    HW211015   3.978   2.173   2.680
 3037SOL     OW11016   4.546   2.864   3.234
 3037SOL    HW111017   4.586   2.863   3.142
 3037SOL    HW211018   4.556   2.956   3.274
 3038SOL     OW11019   4.640   2.772   2.153
 3038SOL    HW111020   4.703   2.810   2.085
 3038SOL    HW211021   4.680   2.689   2.192
 3039SOL     OW11022   4.763   2.960   2.558
 3039SOL    HW111023   4.693   2.913   2.612
 3039SOL    HW211024   4.822   2.892   2.515
 3040SOL     OW11025   4.738   2.098   2.833
 3040SOL    HW111026   4.730   2.062   2.740
 3040SOL    HW211027   4.736   2.022   2.898
 3041SOL     OW11028   3.979   3.210   2.152
 3041SOL    HW111029   3.883   3.211   2.125
 3041SOL    HW211030   3.991   3.263   2.236
 3042SOL     OW11031   3.829   2.875   3.588
 3042SOL    HW111032   3.752   2.842   3.642
 3042SOL    HW211033   3.914   2.845   3.630
 3043SOL     OW11034   4.396   2.065   3.351
 3043SOL    HW111035   4.486   2.049   3.311
 3043SOL    HW211036   4.404   2.070   3.450
 3044SOL     OW11037   3.799   2.207   1.895
 3044SOL    HW111038   3.707   2.179   1.866
 3044SOL    HW211039   3.830   2.284   1.839
 3045SOL     OW11040   5.164   2.718   3.260
 3045SOL    HW111041   5.107   2.770   3.197
 3045SOL    HW211042   5.260   2.730   3.236
 3046SOL     OW11043   4.337   2.704   3.293
 3046SOL    HW111044   4.393   2.785   3.276
 3046SOL    HW211045   4.396   2.624   3.296
 3047SOL     OW11046   4.440   2.427   3.570
 3047SOL    HW111047   4.459   2.492   3.644
 3047SOL    HW211048   4.500   2.347   3.579
 3048SOL     OW11049   4.318   2.607   2.514
 3048SOL    HW111050   4.368   2.692   2.495
 3048SOL    HW211051   4.230   2.609   2.466
 3049SOL     OW11052   4.583   3.236   1.878
 3049SOL    HW111053   4.537   3.251   1.966
 3049SOL    HW211054   4.627   3.321   1.848
 3050SOL     OW11055   4.385   3.652   2.815
 3050SOL    HW111056   4.339   3.740   2.802
 3050SOL    HW211057   4.484   3.664   2.808
 3051SOL     OW11058   4.583   2.818   2.723
 3051SOL    HW111059   4.637   2.749   2.771
 3051SOL    HW211060   4.551   2.887   2.789
 3052SOL     OW11061   4.807   2.846   1.949
 3052SOL    HW111062   4.784   2.899   1.867
 3052SOL    HW211063   4.888   2.790   1.930
 3053SOL     OW11064   3.803   3.102   2.515
 3053SOL    HW111065   3.802   3.055   2.603
 3053SOL    HW211066   3.885   3.074   2.464
 3054SOL     OW11067   4.396   3.253   3.486
 3054SOL    HW111068   4.318   3.203   3.524
 3054SOL    HW211069   4.393   3.348   3.517
 3055SOL     OW11070   4.152   2.286   2.382
 3055SOL    HW111071   4.182   2.214   2.320
 3055SOL    HW211072   4.113   2.246   2.465
 3056SOL     OW11073   4.041   2.409   3.142
 3056SOL    HW111074   4.079   2.350   3.214
 3056SOL    HW211075   4.081   2.383   3.054
 3057SOL     OW11076   4.725   1.896   3.016
 3057SOL    HW111077   4.662   1.824   2.985
 3057SOL    HW211078   4.818   1.860   3.016
 3058SOL     OW11079   4.494   3.192   2.163
 3058SOL    HW111080   4.448   3.105   2.180
 3058SOL    HW211081   4.585   3.189   2.204
 3059SOL     OW11082   4.342   3.429   3.146
 3059SOL    HW111083   4.337   3.511   3.203
 3059SOL    HW211084   4.431   3.426   3.101
 3060SOL     OW11085   5.076   1.914   2.030
 3060SOL    HW111086   5.111   1.873   1.946
 3060SOL    HW211087   4.986   1.876   2.050
 3061SOL     OW11088   3.763   2.939   2.162
 3061SOL    HW111089   3.862   2.928   2.153
 3061SOL    HW211090   3.723   2.853   2.194
 3062SOL     OW11091   3.743   2.230   4.371
 3062SOL    HW111092   3.661   2.273   4.410
 3062SOL    HW211093   3.715   2.157   4.308
 3063SOL     OW11094   4.293   3.137   4.889
 3063SOL    HW111095   4.200   3.130   4.852
 3063SOL    HW211096   4.304   3.226   4.933
 3064SOL     OW11097   4.859   2.565   4.441
 3064SOL    HW111098   4.916   2.643   4.416
 3064SOL    HW211099   4.799   2.591   4.517
 3065SOL     OW11100   4.492   3.006   4.747
 3065SOL    HW111101   4.414   3.023   4.807
 3065SOL    HW211102   4.526   3.093   4.711
 3066SOL     OW11103   4.409   2.874   4.389
 3066SOL    HW111104   4.478   2.858   4.459
 3066SOL    HW211105   4.336   2.931   4.427
 3067SOL     OW11106   4.059   3.297   4.785
 3067SOL    HW111107   3.981   3.266   4.732
 3067SOL    HW211108   4.117   3.355   4.728
 3068SOL     OW11109   3.955   3.575   4.207
 3068SOL    HW111110   3.989   3.652   4.261
 3068SOL    HW211111   3.999   3.575   4.117
 3069SOL     OW11112   3.954   3.296   4.262
 3069SOL    HW111113   3.928   3.392   4.262
 3069SOL    HW211114   3.883   3.242   4.307
 3070SOL     OW11115   3.964   2.953   4.610
 3070SOL    HW111116   3.978   2.869   4.662
 3070SOL    HW211117   3.909   3.017   4.665
 3071SOL     OW11118   4.344   3.648   5.163
 3071SOL    HW111119   4.252   3.631   5.198
 3071SOL    HW211120   4.372   3.740   5.189
 3072SOL     OW11121   3.846   2.505   4.287
 3072SOL    HW111122   3.801   2.417   4.304
 3072SOL    HW211123   3.845   2.559   4.371
 3073SOL     OW11124   3.751   3.458   3.841
 3073SOL    HW111125   3.732   3.362   3.862
 3073SOL    HW211126   3.718   3.516   3.916
 3074SOL     OW11127   4.337   3.227   4.450
 3074SOL    HW111128   4.288   3.140   4.459
 3074SOL    HW211129   4.314   3.270   4.363
 3075SOL     OW11130   3.921   2.838   4.988
 3075SOL    HW111131   4.010   2.793   4.974
 3075SOL    HW211132   3.848   2.773   4.969
 3076SOL     OW11133   5.005   2.207   4.668
 3076SOL    HW111134   4.919   2.157   4.655
 3076SOL    HW211135   5.067   2.153   4.724
 3077SOL     OW11136   4.715   2.272   4.966
 3077SOL    HW111137   4.638   2.306   5.020
 3077SOL    HW211138   4.681   2.221   4.887
 3078SOL     OW11139   4.765   2.563   4.153
 3078SOL    HW111140   4.791   2.559   4.249
 3078SOL    HW211141   4.680   2.512   4.139
 3079SOL     OW11142   3.800   2.673   4.513
 3079SOL    HW111143   3.899   2.661   4.522
 3079SOL    HW211144   3.776   2.768   4.534
 3080SOL     OW11145   4.589   2.210   3.919
 3080SOL    HW111146   4.648   2.273   3.870
 3080SOL    HW211147   4.608   2.116   3.890
 3081SOL     OW11148   4.732   3.318   4.201
 3081SOL    HW111149   4.686   3.390   4.149
 3081SOL    HW211150   4.728   3.338   4.299
 3082SOL     OW11151   4.075   3.663   4.577
 3082SOL    HW111152   4.125   3.577   4.583
 3082SOL    HW211153   4.140   3.740   4.574
 3083SOL     OW11154   4.835   3.638   3.961
 3083SOL    HW111155   4.775   3.576   4.011
 3083SOL    HW211156   4.866   3.594   3.876
 3084SOL     OW11157   4.188   3.605   4.047
 3084SOL    HW111158   4.221   3.644   4.133
 3084SOL    HW211159   4.264   3.598   3.982
 3085SOL     OW11160   3.973   3.647   4.965
 3085SOL    HW111161   4.030   3.582   5.015
 3085SOL    HW211162   3.957   3.614   4.872
 3086SOL     OW11163   4.664   3.560   4.628
 3086SOL    HW111164   4.744   3.503   4.649
 3086SOL    HW211165   4.615   3.520   4.551
 3087SOL     OW11166   4.338   1.984   3.841
 3087SOL    HW111167   4.436   1.962   3.848
 3087SOL    HW211168   4.307   1.967   3.748
 3088SOL     OW11169   4.527   3.264   4.648
 3088SOL    HW111170   4.617   3.278   4.606
 3088SOL    HW211171   4.456   3.266   4.577
 3089SOL     OW11172   4.263   1.926   4.236
 3089SOL    HW111173   4.182   1.927   4.294
 3089SOL    HW211174   4.266   2.009   4.181
 3090SOL     OW11175   4.021   1.897   3.895
 3090SOL    HW111176   4.070   1.981   3.874
 3090SOL    HW211177   4.083   1.832   3.940
 3091SOL     OW11178   4.659   2.098   4.204
 3091SOL    HW111179   4.611   2.139   4.126
 3091SOL    HW211180   4.758   2.096   4.185
 3092SOL     OW11181   4.183   3.014   4.465
 3092SOL    HW111182   4.112   2.987   4.530
 3092SOL    HW211183   4.157   2.986   4.372
 3093SOL     OW11184   4.756   2.411   3.740
 3093SOL    HW111185   4.715   2.493   3.701
 3093SOL    HW211186   4.820   2.437   3.813
 3094SOL     OW11187   4.590   2.316   4.366
 3094SOL    HW111188   4.558   2.388   4.304
 3094SOL    HW211189   4.614   2.235   4.313
 3095SOL     OW11190   4.741   1.901   4.477
 3095SOL    HW111191   4.669   1.906   4.408
 3095SOL    HW211192   4.717   1.832   4.546
 3096SOL     OW11193   4.251   2.118   4.052
 3096SOL    HW111194   4.278   2.059   3.977
 3096SOL    HW211195   4.251   2.213   4.021
 3097SOL     OW11196   5.316   3.491   5.349
 3097SOL    HW111197   5.343   3.525   5.259
 3097SOL    HW211198   5.395   3.453   5.395
 3098SOL     OW11199   4.835   3.057   4.824
 3098SOL    HW111200   4.795   3.101   4.905
 3098SOL    HW211201   4.794   3.094   4.741
 3099SOL     OW11202   4.429   2.912   4.092
 3099SOL    HW111203   4.415   2.919   4.191
 3099SOL    HW211204   4.513   2.861   4.074
 3100SOL     OW11205   4.078   3.372   5.053
 3100SOL    HW111206   4.057   3.328   4.966
 3100SOL    HW211207   4.175   3.398   5.056
 3101SOL     OW11208   5.084   2.724   4.769
 3101SOL    HW111209   5.009   2.724   4.703
 3101SOL    HW211210   5.121   2.632   4.778
 3102SOL     OW11211   4.933   2.387   3.999
 3102SOL    HW111212   4.946   2.303   4.053
 3102SOL    HW211213   4.904   2.461   4.059
 3103SOL     OW11214   3.761   3.172   5.006
 3103SOL    HW111215   3.814   3.123   5.074
 3103SOL    HW211216   3.783   3.270   5.011
 3104SOL     OW11217   5.346   2.229   4.098
 3104SOL    HW111218   5.348   2.153   4.162
 3104SOL    HW211219   5.298   2.306   4.138
 3105SOL     OW11220   4.747   2.628   4.690
 3105SOL    HW111221   4.762   2.649   4.786
 3105SOL    HW211222   4.717   2.533   4.681
 3106SOL     OW11223   5.027   2.700   3.766
 3106SOL    HW111224   5.061   2.607   3.781
 3106SOL    HW211225   5.045   2.727   3.671
 3107SOL     OW11226   4.792   3.195   4.573
 3107SOL    HW111227   4.799   3.111   4.518
 3107SOL    HW211228   4.854   3.264   4.537
 3108SOL     OW11229   4.884   2.069   5.201
 3108SOL    HW111230   4.884   2.133   5.278
 3108SOL    HW211231   4.912   2.117   5.118
 3109SOL     OW11232   3.732   3.188   3.924
 3109SOL    HW111233   3.639   3.209   3.893
 3109SOL    HW211234   3.742   3.089   3.937
 3110SOL     OW11235   3.812   3.663   4.651
 3110SOL    HW111236   3.770   3.577   4.624
 3110SOL    HW211237   3.906   3.666   4.617
 3111SOL     OW11238   4.228   3.430   4.634
 3111SOL    HW111239   4.294   3.504   4.643
 3111SOL    HW211240   4.272   3.351   4.592
 3112SOL     OW11241   4.726   2.658   4.962
 3112SOL    HW111242   4.767   2.626   5.048
 3112SOL    HW211243   4.630   2.631   4.959
 3113SOL     OW11244   3.764   2.406   4.838
 3113SOL    HW111245   3.849   2.373   4.797
 3113SOL    HW211246   3.777   2.421   4.936
 3114SOL     OW11247   4.395   2.326   4.993
 3114SOL    HW111248   4.361   2.237   4.963
 3114SOL    HW211249   4.421   2.380   4.913
 3115SOL     OW11250   4.654   3.540   5.189
 3115SOL    HW111251   4.630   3.522   5.094
 3115SOL    HW211252   4.684   3.634   5.199
 3116SOL     OW11253   5.071   2.921   4.958
 3116SOL    HW111254   5.095   2.858   4.884
 3116SOL    HW211255   4.981   2.961   4.940
 3117SOL     OW11256   4.976   3.593   4.852
 3117SOL    HW111257   5.060   3.598   4.798
 3117SOL    HW211258   4.953   3.497   4.870
 3118SOL     OW11259   3.807   3.120   4.746
 3118SOL    HW111260   3.802   3.119   4.846
 3118SOL    HW211261   3.724   3.079   4.708
 3119SOL     OW11262   5.004   2.789   4.396
 3119SOL    HW111263   5.064   2.708   4.398
 3119SOL    HW211264   5.044   2.858   4.336
 3120SOL     OW11265   4.396   3.478   3.878
 3120SOL    HW111266   4.405   3.488   3.779
 3120SOL    HW211267   4.356   3.389   3.899
 3121SOL     OW11268   4.918   3.474   3.755
 3121SOL    HW111269   4.924   3.381   3.792
 3121SOL    HW211270   4.859   3.474   3.675
 3122SOL     OW11271   4.546   2.864   5.096
 3122SOL    HW111272   4.586   2.863   5.004
 3122SOL    HW211273   4.556   2.956   5.136
 3123SOL     OW11274   4.763   2.960   4.420
 3123SOL    HW111275   4.693   2.913   4.474
 3123SOL    HW211276   4.822   2.892   4.377
 3124SOL     OW11277   4.738   2.098   4.695
 3124SOL    HW111278   4.730   2.062   4.602
 3124SOL    HW211279   4.736   2.022   4.760
 3125SOL     OW11280   3.979   3.210   4.014
 3125SOL    HW111281   3.883   3.211   3.987
 3125SOL    HW211282   3.991   3.263   4.098
 3126SOL     OW11283   3.796   2.028   4.042
 3126SOL    HW111284   3.779   2.111   3.988
 3126SOL    HW211285   3.886   1.991   4.020
 3127SOL     OW11286   4.949   2.187   4.173
 3127SOL    HW111287   5.014   2.113   4.162
 3127SOL    HW211288   4.969   2.237   4.257
 3128SOL     OW11289   4.583   3.236   3.740
 3128SOL    HW111290   4.537   3.251   3.828
 3128SOL    HW211291   4.627   3.321   3.710
 3129SOL     OW11292   4.385   3.652   4.677
 3129SOL    HW111293   4.339   3.740   4.664
 3129SOL    HW211294   4.484   3.664   4.670
 3130SOL     OW11295   4.583   2.818   4.585
 3130SOL    HW111296   4.637   2.749   4.633
 3130SOL    HW211297   4.551   2.887   4.651
 3131SOL     OW11298   3.803   3.102   4.377
 3131SOL    HW111299   3.802   3.055   4.465
 3131SOL    HW211300   3.885   3.074   4.326
 3132SOL     OW11301   4.536   3.448   4.411
 3132SOL    HW111302   4.568   3.458   4.317
 3132SOL    HW211303   4.457   3.386   4.413
 3133SOL     OW11304   4.725   1.896   4.878
 3133SOL    HW111305   4.662   1.824   4.847
 3133SOL    HW211306   4.818   1.860   4.878
 3134SOL     OW11307   5.076   1.914   3.892
 3134SOL    HW111308   5.111   1.873   3.808
 3134SOL    HW211309   4.986   1.876   3.912
 3135SOL     OW11310   3.763   2.939   4.024
 3135SOL    HW111311   3.862   2.928   4.015
 3135SOL    HW211312   3.723   2.853   4.056
 3136SOL     OW11313   4.599   3.508   4.061
 3136SOL    HW111314   4.522   3.473   4.007
 3136SOL    HW211315   4.567   3.579   4.123
 3137SOL     OW11316   3.954   4.352   0.113
 3137SOL    HW111317   3.861   4.350   0.150
 3137SOL    HW211318   3.955   4.313   0.021
 3138SOL     OW11319   3.949   3.999   0.996
 3138SOL    HW111320   3.984   3.982   1.088
 3138SOL    HW211321   3.861   3.954   0.984
 3139SOL     OW11322   3.743   4.092   0.647
 3139SOL    HW111323   3.661   4.135   0.686
 3139SOL    HW211324   3.715   4.019   0.584
 3140SOL     OW11325   4.293   4.999   1.165
 3140SOL    HW111326   4.200   4.992   1.128
 3140SOL    HW211327   4.304   5.088   1.209
 3141SOL     OW11328   4.859   4.427   0.717
 3141SOL    HW111329   4.916   4.505   0.692
 3141SOL    HW211330   4.799   4.453   0.793
 3142SOL     OW11331   4.492   4.868   1.023
 3142SOL    HW111332   4.414   4.885   1.083
 3142SOL    HW211333   4.526   4.955   0.987
 3143SOL     OW11334   4.574   4.522   1.823
 3143SOL    HW111335   4.570   4.598   1.888
 3143SOL    HW211336   4.596   4.558   1.732
 3144SOL     OW11337   4.409   4.736   0.665
 3144SOL    HW111338   4.478   4.720   0.735
 3144SOL    HW211339   4.336   4.793   0.703
 3145SOL     OW11340   4.410   4.885   1.803
 3145SOL    HW111341   4.470   4.964   1.817
 3145SOL    HW211342   4.324   4.916   1.762
 3146SOL     OW11343   3.964   4.815   0.886
 3146SOL    HW111344   3.978   4.731   0.938
 3146SOL    HW211345   3.909   4.879   0.941
 3147SOL     OW11346   4.330   4.688   0.123
 3147SOL    HW111347   4.337   4.772   0.069
 3147SOL    HW211348   4.376   4.701   0.211
 3148SOL     OW11349   3.846   4.367   0.563
 3148SOL    HW111350   3.801   4.279   0.580
 3148SOL    HW211351   3.845   4.421   0.647
 3149SOL     OW11352   5.017   4.952   1.423
 3149SOL    HW111353   5.054   4.879   1.365
 3149SOL    HW211354   5.069   4.957   1.508
 3150SOL     OW11355   4.533   3.728   0.502
 3150SOL    HW111356   4.573   3.819   0.493
 3150SOL    HW211357   4.433   3.736   0.508
 3151SOL     OW11358   4.041   3.975   1.801
 3151SOL    HW111359   4.112   4.046   1.807
 3151SOL    HW211360   3.953   4.014   1.829
 3152SOL     OW11361   4.322   4.453   0.270
 3152SOL    HW111362   4.346   4.522   0.202
 3152SOL    HW211363   4.244   4.486   0.324
 3153SOL     OW11364   5.005   4.069   0.944
 3153SOL    HW111365   4.919   4.019   0.931
 3153SOL    HW211366   5.067   4.015   1.000
 3154SOL     OW11367   4.531   4.329   1.465
 3154SOL    HW111368   4.484   4.326   1.554
 3154SOL    HW211369   4.480   4.274   1.399
 3155SOL     OW11370   4.697   4.614   1.572
 3155SOL    HW111371   4.743   4.530   1.543
 3155SOL    HW211372   4.641   4.648   1.497
 3156SOL     OW11373   4.765   4.425   0.429
 3156SOL    HW111374   4.791   4.421   0.525
 3156SOL    HW211375   4.680   4.374   0.415
 3157SOL     OW11376   3.800   4.535   0.789
 3157SOL    HW111377   3.899   4.523   0.798
 3157SOL    HW211378   3.776   4.630   0.810
 3158SOL     OW11379   4.589   4.072   0.195
 3158SOL    HW111380   4.648   4.135   0.146
 3158SOL    HW211381   4.608   3.978   0.166
 3159SOL     OW11382   4.274   3.920   0.885
 3159SOL    HW111383   4.269   3.915   0.985
 3159SOL    HW211384   4.276   4.016   0.856
 3160SOL     OW11385   4.045   4.667   0.242
 3160SOL    HW111386   4.127   4.706   0.200
 3160SOL    HW211387   4.018   4.585   0.193
 3161SOL     OW11388   3.926   4.009   1.498
 3161SOL    HW111389   3.846   4.069   1.485
 3161SOL    HW211390   3.916   3.960   1.584
 3162SOL     OW11391   4.106   4.424   0.480
 3162SOL    HW111392   4.151   4.334   0.477
 3162SOL    HW211393   4.012   4.413   0.513
 3163SOL     OW11394   4.505   3.988   1.749
 3163SOL    HW111395   4.572   3.927   1.792
 3163SOL    HW211396   4.432   4.007   1.814
 3164SOL     OW11397   4.646   4.227   0.899
 3164SOL    HW111398   4.621   4.218   0.803
 3164SOL    HW211399   4.694   4.145   0.930
 3165SOL     OW11400   4.263   3.788   0.512
 3165SOL    HW111401   4.182   3.789   0.570
 3165SOL    HW211402   4.266   3.871   0.457
 3166SOL     OW11403   4.021   3.759   0.171
 3166SOL    HW111404   4.070   3.843   0.150
 3166SOL    HW211405   4.083   3.694   0.216
 3167SOL     OW11406   4.659   3.960   0.480
 3167SOL    HW111407   4.611   4.001   0.402
 3167SOL    HW211408   4.758   3.958   0.461
 3168SOL     OW11409   4.951   5.294   0.793
 3168SOL    HW111410   4.972   5.368   0.728
 3168SOL    HW211411   5.019   5.294   0.866
 3169SOL     OW11412   4.183   4.876   0.741
 3169SOL    HW111413   4.112   4.849   0.806
 3169SOL    HW211414   4.157   4.848   0.648
 3170SOL     OW11415   4.756   4.273   0.016
 3170SOL    HW111416   4.715   4.355  -0.023
 3170SOL    HW211417   4.820   4.299   0.089
 3171SOL     OW11418   4.285   3.946   1.147
 3171SOL    HW111419   4.323   3.862   1.184
 3171SOL    HW211420   4.197   3.965   1.191
 3172SOL     OW11421   4.590   4.178   0.642
 3172SOL    HW111422   4.558   4.250   0.580
 3172SOL    HW211423   4.614   4.097   0.589
 3173SOL     OW11424   4.741   3.763   0.753
 3173SOL    HW111425   4.669   3.768   0.684
 3173SOL    HW211426   4.717   3.694   0.822
 3174SOL     OW11427   4.251   3.980   0.328
 3174SOL    HW111428   4.278   3.921   0.253
 3174SOL    HW211429   4.251   4.075   0.297
 3175SOL     OW11430   4.639   3.813   1.402
 3175SOL    HW111431   4.664   3.793   1.307
 3175SOL    HW211432   4.711   3.869   1.444
 3176SOL     OW11433   4.704   4.840   1.719
 3176SOL    HW111434   4.605   4.846   1.729
 3176SOL    HW211435   4.727   4.760   1.663
 3177SOL     OW11436   4.429   4.774   0.368
 3177SOL    HW111437   4.415   4.781   0.467
 3177SOL    HW211438   4.513   4.723   0.350
 3178SOL     OW11439   4.290   4.261   0.865
 3178SOL    HW111440   4.302   4.327   0.791
 3178SOL    HW211441   4.336   4.295   0.948
 3179SOL     OW11442   4.976   5.072   0.388
 3179SOL    HW111443   5.026   5.149   0.428
 3179SOL    HW211444   4.881   5.074   0.420
 3180SOL     OW11445   4.126   4.475   1.598
 3180SOL    HW111446   4.194   4.530   1.551
 3180SOL    HW211447   4.166   4.387   1.625
 3181SOL     OW11448   4.737   3.829   1.770
 3181SOL    HW111449   4.743   3.914   1.718
 3181SOL    HW211450   4.769   3.753   1.713
 3182SOL     OW11451   4.297   4.594   1.029
 3182SOL    HW111452   4.341   4.683   1.020
 3182SOL    HW211453   4.234   4.594   1.106
 3183SOL     OW11454   5.084   4.586   1.045
 3183SOL    HW111455   5.009   4.586   0.979
 3183SOL    HW211456   5.121   4.494   1.054
 3184SOL     OW11457   4.933   4.249   0.275
 3184SOL    HW111458   4.946   4.165   0.329
 3184SOL    HW211459   4.904   4.323   0.335
 3185SOL     OW11460   4.031   3.937   1.231
 3185SOL    HW111461   4.008   3.974   1.321
 3185SOL    HW211462   4.001   3.842   1.225
 3186SOL     OW11463   4.456   4.358   1.064
 3186SOL    HW111464   4.515   4.332   0.988
 3186SOL    HW211465   4.428   4.454   1.053
 3187SOL     OW11466   4.031   3.787   0.618
 3187SOL    HW111467   4.020   3.881   0.651
 3187SOL    HW211468   4.026   3.724   0.695
 3188SOL     OW11469   5.346   4.091   0.374
 3188SOL    HW111470   5.348   4.015   0.438
 3188SOL    HW211471   5.298   4.168   0.414
 3189SOL     OW11472   4.747   4.490   0.966
 3189SOL    HW111473   4.762   4.511   1.062
 3189SOL    HW211474   4.717   4.395   0.957
 3190SOL     OW11475   4.074   4.622   1.804
 3190SOL    HW111476   4.150   4.666   1.852
 3190SOL    HW211477   4.109   4.575   1.722
 3191SOL     OW11478   5.027   4.562   0.042
 3191SOL    HW111479   5.061   4.469   0.057
 3191SOL    HW211480   5.045   4.589  -0.053
 3192SOL     OW11481   4.043   4.534   0.949
 3192SOL    HW111482   4.136   4.570   0.954
 3192SOL    HW211483   4.037   4.449   1.001
 3193SOL     OW11484   4.063   4.233   1.006
 3193SOL    HW111485   4.011   4.150   0.989
 3193SOL    HW211486   4.140   4.238   0.942
 3194SOL     OW11487   4.862   4.104   1.678
 3194SOL    HW111488   4.817   4.167   1.742
 3194SOL    HW211489   4.955   4.135   1.661
 3195SOL     OW11490   3.764   4.268   1.114
 3195SOL    HW111491   3.849   4.235   1.073
 3195SOL    HW211492   3.777   4.283   1.212
 3196SOL     OW11493   4.539   4.296   0.325
 3196SOL    HW111494   4.546   4.207   0.279
 3196SOL    HW211495   4.445   4.330   0.317
 3197SOL     OW11496   4.395   4.188   1.269
 3197SOL    HW111497   4.361   4.099   1.239
 3197SOL    HW211498   4.421   4.242   1.189
 3198SOL     OW11499   4.197   4.224   0.191
 3198SOL    HW111500   4.258   4.304   0.195
 3198SOL    HW211501   4.102   4.255   0.198
 3199SOL     OW11502   3.883   4.861   1.466
 3199SOL    HW111503   3.905   4.800   1.542
 3199SOL    HW211504   3.893   4.812   1.380
 3200SOL     OW11505   5.071   4.783   1.234
 3200SOL    HW111506   5.095   4.720   1.160
 3200SOL    HW211507   4.981   4.823   1.216
 3201SOL     OW11508   4.627   3.810   0.133
 3201SOL    HW111509   4.678   3.811   0.047
 3201SOL    HW211510   4.683   3.768   0.204
 3202SOL     OW11511   5.004   4.651   0.672
 3202SOL    HW111512   5.064   4.570   0.674
 3202SOL    HW211513   5.044   4.720   0.612
 3203SOL     OW11514   4.554   4.997   1.422
 3203SOL    HW111515   4.549   5.030   1.517
 3203SOL    HW211516   4.468   5.016   1.376
 3204SOL     OW11517   3.987   4.050   0.720
 3204SOL    HW111518   3.908   4.101   0.686
 3204SOL    HW211519   3.978   4.035   0.818
 3205SOL     OW11520   4.546   4.726   1.372
 3205SOL    HW111521   4.586   4.725   1.280
 3205SOL    HW211522   4.556   4.818   1.412
 3206SOL     OW11523   4.640   4.634   0.291
 3206SOL    HW111524   4.703   4.672   0.223
 3206SOL    HW211525   4.680   4.551   0.330
 3207SOL     OW11526   4.096   5.012   1.490
 3207SOL    HW111527   4.083   5.105   1.456
 3207SOL    HW211528   4.012   4.960   1.477
 3208SOL     OW11529   4.763   4.822   0.696
 3208SOL    HW111530   4.693   4.775   0.750
 3208SOL    HW211531   4.822   4.754   0.653
 3209SOL     OW11532   4.738   3.960   0.971
 3209SOL    HW111533   4.730   3.924   0.878
 3209SOL    HW211534   4.736   3.884   1.036
 3210SOL     OW11535   4.396   3.927   1.489
 3210SOL    HW111536   4.486   3.911   1.449
 3210SOL    HW211537   4.404   3.932   1.588
 3211SOL     OW11538   5.164   4.580   1.398
 3211SOL    HW111539   5.107   4.632   1.335
 3211SOL    HW211540   5.260   4.592   1.374
 3212SOL     OW11541   3.796   3.890   0.318
 3212SOL    HW111542   3.779   3.973   0.264
 3212SOL    HW211543   3.886   3.853   0.296
 3213SOL     OW11544   4.337   4.566   1.431
 3213SOL    HW111545   4.393   4.647   1.414
 3213SOL    HW211546   4.396   4.486   1.434
 3214SOL     OW11547   4.440   4.289   1.708
 3214SOL    HW111548   4.459   4.354   1.782
 3214SOL    HW211549   4.500   4.209   1.717
 3215SOL     OW11550   5.174   4.944   1.633
 3215SOL    HW111551   5.165   4.934   1.732
 3215SOL    HW211552   5.270   4.937   1.607
 3216SOL     OW11553   4.949   4.049   0.449
 3216SOL    HW111554   5.014   3.975   0.438
 3216SOL    HW211555   4.969   4.099   0.533
 3217SOL     OW11556   4.318   4.469   0.652
 3217SOL    HW111557   4.368   4.554   0.633
 3217SOL    HW211558   4.230   4.471   0.604
 3218SOL     OW11559   4.583   4.680   0.861
 3218SOL    HW111560   4.637   4.611   0.909
 3218SOL    HW211561   4.551   4.749   0.927
 3219SOL     OW11562   4.807   4.708   0.087
 3219SOL    HW111563   4.784   4.761   0.005
 3219SOL    HW211564   4.888   4.652   0.068
 3220SOL     OW11565   3.803   4.964   0.653
 3220SOL    HW111566   3.802   4.917   0.741
 3220SOL    HW211567   3.885   4.936   0.602
 3221SOL     OW11568   4.152   4.148   0.520
 3221SOL    HW111569   4.182   4.076   0.458
 3221SOL    HW211570   4.113   4.108   0.603
 3222SOL     OW11571   4.041   4.271   1.280
 3222SOL    HW111572   4.079   4.212   1.352
 3222SOL    HW211573   4.081   4.245   1.192
 3223SOL     OW11574   4.725   3.758   1.154
 3223SOL    HW111575   4.662   3.686   1.123
 3223SOL    HW211576   4.818   3.722   1.154
 3224SOL     OW11577   4.494   5.054   0.301
 3224SOL    HW111578   4.448   4.967   0.318
 3224SOL    HW211579   4.585   5.051   0.342
 3225SOL     OW11580   3.763   4.801   0.300
 3225SOL    HW111581   3.862   4.790   0.291
 3225SOL    HW211582   3.723   4.715   0.332
 3226SOL     OW11583   3.954   4.352   1.975
 3226SOL    HW111584   3.861   4.350   2.012
 3226SOL    HW211585   3.955   4.313   1.883
 3227SOL     OW11586   3.949   3.999   2.858
 3227SOL    HW111587   3.984   3.982   2.950
 3227SOL    HW211588   3.861   3.954   2.846
 3228SOL     OW11589   3.743   4.092   2.509
 3228SOL    HW111590   3.661   4.135   2.548
 3228SOL    HW211591   3.715   4.019   2.446
 3229SOL     OW11592   4.859   4.427   2.579
 3229SOL    HW111593   4.916   4.505   2.554
 3229SOL    HW211594   4.799   4.453   2.655
 3230SOL     OW11595   4.492   4.868   2.885
 3230SOL    HW111596   4.414   4.885   2.945
 3230SOL    HW211597   4.526   4.955   2.849
 3231SOL     OW11598   4.574   4.522   3.685
 3231SOL    HW111599   4.570   4.598   3.750
 3231SOL    HW211600   4.596   4.558   3.594
 3232SOL     OW11601   4.409   4.736   2.527
 3232SOL    HW111602   4.478   4.720   2.597
 3232SOL    HW211603   4.336   4.793   2.565
 3233SOL     OW11604   4.162   4.116   3.361
 3233SOL    HW111605   4.244   4.060   3.370
 3233SOL    HW211606   4.081   4.058   3.365
 3234SOL     OW11607   4.330   4.688   1.985
 3234SOL    HW111608   4.337   4.772   1.931
 3234SOL    HW211609   4.376   4.701   2.073
 3235SOL     OW11610   3.846   4.367   2.425
 3235SOL    HW111611   3.801   4.279   2.442
 3235SOL    HW211612   3.845   4.421   2.509
 3236SOL     OW11613   3.837   4.461   3.459
 3236SOL    HW111614   3.925   4.448   3.504
 3236SOL    HW211615   3.824   4.558   3.437
 3237SOL     OW11616   4.041   3.975   3.663
 3237SOL    HW111617   4.112   4.046   3.669
 3237SOL    HW211618   3.953   4.014   3.691
 3238SOL     OW11619   4.322   4.453   2.132
 3238SOL    HW111620   4.346   4.522   2.064
 3238SOL    HW211621   4.244   4.486   2.186
 3239SOL     OW11622   5.005   4.069   2.806
 3239SOL    HW111623   4.919   4.019   2.793
 3239SOL    HW211624   5.067   4.015   2.862
 3240SOL     OW11625   4.531   4.329   3.327
 3240SOL    HW111626   4.484   4.326   3.416
 3240SOL    HW211627   4.480   4.274   3.261
 3241SOL     OW11628   4.697   4.614   3.434
 3241SOL    HW111629   4.743   4.530   3.405
 3241SOL    HW211630   4.641   4.648   3.359
 3242SOL     OW11631   4.715   4.134   3.104
 3242SOL    HW111632   4.638   4.168   3.158
 3242SOL    HW211633   4.681   4.083   3.025
 3243SOL     OW11634   4.765   4.425   2.291
 3243SOL    HW111635   4.791   4.421   2.387
 3243SOL    HW211636   4.680   4.374   2.277
 3244SOL     OW11637   4.589   4.072   2.057
 3244SOL    HW111638   4.648   4.135   2.008
 3244SOL    HW211639   4.608   3.978   2.028
 3245SOL     OW11640   4.274   3.920   2.747
 3245SOL    HW111641   4.269   3.915   2.847
 3245SOL    HW211642   4.276   4.016   2.718
 3246SOL     OW11643   4.045   4.667   2.104
 3246SOL    HW111644   4.127   4.706   2.062
 3246SOL    HW211645   4.018   4.585   2.055
 3247SOL     OW11646   3.926   4.009   3.360
 3247SOL    HW111647   3.846   4.069   3.347
 3247SOL    HW211648   3.916   3.960   3.446
 3248SOL     OW11649   4.106   4.424   2.342
 3248SOL    HW111650   4.151   4.334   2.339
 3248SOL    HW211651   4.012   4.413   2.375
 3249SOL     OW11652   4.338   3.846   1.979
 3249SOL    HW111653   4.436   3.824   1.986
 3249SOL    HW211654   4.307   3.829   1.886
 3250SOL     OW11655   4.505   3.988   3.611
 3250SOL    HW111656   4.572   3.927   3.654
 3250SOL    HW211657   4.432   4.007   3.676
 3251SOL     OW11658   4.646   4.227   2.761
 3251SOL    HW111659   4.621   4.218   2.665
 3251SOL    HW211660   4.694   4.145   2.792
 3252SOL     OW11661   4.263   3.788   2.374
 3252SOL    HW111662   4.182   3.789   2.432
 3252SOL    HW211663   4.266   3.871   2.319
 3253SOL     OW11664   5.158   4.912   1.903
 3253SOL    HW111665   5.190   4.836   1.960
 3253SOL    HW211666   5.066   4.939   1.933
 3254SOL     OW11667   4.659   3.960   2.342
 3254SOL    HW111668   4.611   4.001   2.264
 3254SOL    HW211669   4.758   3.958   2.323
 3255SOL     OW11670   4.800   4.407   3.326
 3255SOL    HW111671   4.720   4.346   3.329
 3255SOL    HW211672   4.881   4.354   3.302
 3256SOL     OW11673   4.951   5.294   2.655
 3256SOL    HW111674   4.972   5.368   2.590
 3256SOL    HW211675   5.019   5.294   2.728
 3257SOL     OW11676   4.183   4.876   2.603
 3257SOL    HW111677   4.112   4.849   2.668
 3257SOL    HW211678   4.157   4.848   2.510
 3258SOL     OW11679   3.802   4.280   3.248
 3258SOL    HW111680   3.894   4.279   3.207
 3258SOL    HW211681   3.796   4.354   3.315
 3259SOL     OW11682   4.285   3.946   3.009
 3259SOL    HW111683   4.323   3.862   3.046
 3259SOL    HW211684   4.197   3.965   3.053
 3260SOL     OW11685   4.590   4.178   2.504
 3260SOL    HW111686   4.558   4.250   2.442
 3260SOL    HW211687   4.614   4.097   2.451
 3261SOL     OW11688   4.741   3.763   2.615
 3261SOL    HW111689   4.669   3.768   2.546
 3261SOL    HW211690   4.717   3.694   2.684
 3262SOL     OW11691   4.251   3.980   2.190
 3262SOL    HW111692   4.278   3.921   2.115
 3262SOL    HW211693   4.251   4.075   2.159
 3263SOL     OW11694   4.639   3.813   3.264
 3263SOL    HW111695   4.664   3.793   3.169
 3263SOL    HW211696   4.711   3.869   3.306
 3264SOL     OW11697   4.429   4.774   2.230
 3264SOL    HW111698   4.415   4.781   2.329
 3264SOL    HW211699   4.513   4.723   2.212
 3265SOL     OW11700   4.134   4.537   3.113
 3265SOL    HW111701   4.220   4.549   3.163
 3265SOL    HW211702   4.092   4.450   3.140
 3266SOL     OW11703   4.091   4.824   2.363
 3266SOL    HW111704   4.084   4.907   2.307
 3266SOL    HW211705   4.095   4.744   2.303
 3267SOL     OW11706   4.290   4.261   2.727
 3267SOL    HW111707   4.302   4.327   2.653
 3267SOL    HW211708   4.336   4.295   2.810
 3268SOL     OW11709   4.976   5.072   2.250
 3268SOL    HW111710   5.026   5.149   2.290
 3268SOL    HW211711   4.881   5.074   2.282
 3269SOL     OW11712   4.126   4.475   3.460
 3269SOL    HW111713   4.194   4.530   3.413
 3269SOL    HW211714   4.166   4.387   3.487
 3270SOL     OW11715   4.737   3.829   3.632
 3270SOL    HW111716   4.743   3.914   3.580
 3270SOL    HW211717   4.769   3.753   3.575
 3271SOL     OW11718   4.228   3.774   3.602
 3271SOL    HW111719   4.186   3.717   3.532
 3271SOL    HW211720   4.162   3.843   3.634
 3272SOL     OW11721   4.297   4.594   2.891
 3272SOL    HW111722   4.341   4.683   2.882
 3272SOL    HW211723   4.234   4.594   2.968
 3273SOL     OW11724   4.933   4.249   2.137
 3273SOL    HW111725   4.946   4.165   2.191
 3273SOL    HW211726   4.904   4.323   2.197
 3274SOL     OW11727   4.031   3.937   3.093
 3274SOL    HW111728   4.008   3.974   3.183
 3274SOL    HW211729   4.001   3.842   3.087
 3275SOL     OW11730   4.456   4.358   2.926
 3275SOL    HW111731   4.515   4.332   2.850
 3275SOL    HW211732   4.428   4.454   2.915
 3276SOL     OW11733   4.031   3.787   2.480
 3276SOL    HW111734   4.020   3.881   2.513
 3276SOL    HW211735   4.026   3.724   2.557
 3277SOL     OW11736   5.346   4.091   2.236
 3277SOL    HW111737   5.348   4.015   2.300
 3277SOL    HW211738   5.298   4.168   2.276
 3278SOL     OW11739   4.747   4.490   2.828
 3278SOL    HW111740   4.762   4.511   2.924
 3278SOL    HW211741   4.717   4.395   2.819
 3279SOL     OW11742   4.074   4.622   3.666
 3279SOL    HW111743   4.150   4.666   3.714
 3279SOL    HW211744   4.109   4.575   3.584
 3280SOL     OW11745   5.027   4.562   1.904
 3280SOL    HW111746   5.061   4.469   1.919
 3280SOL    HW211747   5.045   4.589   1.809
 3281SOL     OW11748   4.043   4.534   2.811
 3281SOL    HW111749   4.136   4.570   2.816
 3281SOL    HW211750   4.037   4.449   2.863
 3282SOL     OW11751   4.063   4.233   2.868
 3282SOL    HW111752   4.011   4.150   2.851
 3282SOL    HW211753   4.140   4.238   2.804
 3283SOL     OW11754   4.862   4.104   3.540
 3283SOL    HW111755   4.817   4.167   3.604
 3283SOL    HW211756   4.955   4.135   3.523
 3284SOL     OW11757   4.884   3.931   3.339
 3284SOL    HW111758   4.884   3.995   3.416
 3284SOL    HW211759   4.912   3.979   3.256
 3285SOL     OW11760   4.726   4.520   3.100
 3285SOL    HW111761   4.767   4.488   3.186
 3285SOL    HW211762   4.630   4.493   3.097
 3286SOL     OW11763   3.764   4.268   2.976
 3286SOL    HW111764   3.849   4.235   2.935
 3286SOL    HW211765   3.777   4.283   3.074
 3287SOL     OW11766   3.913   4.244   3.584
 3287SOL    HW111767   3.972   4.204   3.514
 3287SOL    HW211768   3.855   4.315   3.543
 3288SOL     OW11769   4.539   4.296   2.187
 3288SOL    HW111770   4.546   4.207   2.141
 3288SOL    HW211771   4.445   4.330   2.179
 3289SOL     OW11772   4.395   4.188   3.131
 3289SOL    HW111773   4.361   4.099   3.101
 3289SOL    HW211774   4.421   4.242   3.051
 3290SOL     OW11775   4.197   4.224   2.053
 3290SOL    HW111776   4.258   4.304   2.057
 3290SOL    HW211777   4.102   4.255   2.060
 3291SOL     OW11778   5.004   4.651   2.534
 3291SOL    HW111779   5.064   4.570   2.536
 3291SOL    HW211780   5.044   4.720   2.474
 3292SOL     OW11781   4.554   4.997   3.284
 3292SOL    HW111782   4.549   5.030   3.379
 3292SOL    HW211783   4.468   5.016   3.238
 3293SOL     OW11784   3.987   4.050   2.582
 3293SOL    HW111785   3.908   4.101   2.548
 3293SOL    HW211786   3.978   4.035   2.680
 3294SOL     OW11787   4.918   5.336   1.893
 3294SOL    HW111788   4.924   5.243   1.930
 3294SOL    HW211789   4.859   5.336   1.813
 3295SOL     OW11790   4.546   4.726   3.234
 3295SOL    HW111791   4.586   4.725   3.142
 3295SOL    HW211792   4.556   4.818   3.274
 3296SOL     OW11793   4.640   4.634   2.153
 3296SOL    HW111794   4.703   4.672   2.085
 3296SOL    HW211795   4.680   4.551   2.192
 3297SOL     OW11796   4.096   5.012   3.352
 3297SOL    HW111797   4.083   5.105   3.318
 3297SOL    HW211798   4.012   4.960   3.339
 3298SOL     OW11799   4.763   4.822   2.558
 3298SOL    HW111800   4.693   4.775   2.612
 3298SOL    HW211801   4.822   4.754   2.515
 3299SOL     OW11802   4.738   3.960   2.833
 3299SOL    HW111803   4.730   3.924   2.740
 3299SOL    HW211804   4.736   3.884   2.898
 3300SOL     OW11805   3.829   4.737   3.588
 3300SOL    HW111806   3.752   4.704   3.642
 3300SOL    HW211807   3.914   4.707   3.630
 3301SOL     OW11808   4.396   3.927   3.351
 3301SOL    HW111809   4.486   3.911   3.311
 3301SOL    HW211810   4.404   3.932   3.450
 3302SOL     OW11811   3.796   3.890   2.180
 3302SOL    HW111812   3.779   3.973   2.126
 3302SOL    HW211813   3.886   3.853   2.158
 3303SOL     OW11814   4.337   4.566   3.293
 3303SOL    HW111815   4.393   4.647   3.276
 3303SOL    HW211816   4.396   4.486   3.296
 3304SOL     OW11817   4.440   4.289   3.570
 3304SOL    HW111818   4.459   4.354   3.644
 3304SOL    HW211819   4.500   4.209   3.579
 3305SOL     OW11820   5.174   4.944   3.495
 3305SOL    HW111821   5.165   4.934   3.594
 3305SOL    HW211822   5.270   4.937   3.469
 3306SOL     OW11823   4.949   4.049   2.311
 3306SOL    HW111824   5.014   3.975   2.300
 3306SOL    HW211825   4.969   4.099   2.395
 3307SOL     OW11826   4.318   4.469   2.514
 3307SOL    HW111827   4.368   4.554   2.495
 3307SOL    HW211828   4.230   4.471   2.466
 3308SOL     OW11829   4.583   4.680   2.723
 3308SOL    HW111830   4.637   4.611   2.771
 3308SOL    HW211831   4.551   4.749   2.789
 3309SOL     OW11832   4.807   4.708   1.949
 3309SOL    HW111833   4.784   4.761   1.867
 3309SOL    HW211834   4.888   4.652   1.930
 3310SOL     OW11835   4.152   4.148   2.382
 3310SOL    HW111836   4.182   4.076   2.320
 3310SOL    HW211837   4.113   4.108   2.465
 3311SOL     OW11838   4.041   4.271   3.142
 3311SOL    HW111839   4.079   4.212   3.214
 3311SOL    HW211840   4.081   4.245   3.054
 3312SOL     OW11841   4.725   3.758   3.016
 3312SOL    HW111842   4.662   3.686   2.985
 3312SOL    HW211843   4.818   3.722   3.016
 3313SOL     OW11844   4.494   5.054   2.163
 3313SOL    HW111845   4.448   4.967   2.180
 3313SOL    HW211846   4.585   5.051   2.204
 3314SOL     OW11847   3.763   4.801   2.162
 3314SOL    HW111848   3.862   4.790   2.153
 3314SOL    HW211849   3.723   4.715   2.194
 3315SOL     OW11850   3.954   4.352   3.837
 3315SOL    HW111851   3.861   4.350   3.874
 3315SOL    HW211852   3.955   4.313   3.745
 3316SOL     OW11853   3.949   3.999   4.720
 3316SOL    HW111854   3.984   3.982   4.812
 3316SOL    HW211855   3.861   3.954   4.708
 3317SOL     OW11856   3.743   4.092   4.371
 3317SOL    HW111857   3.661   4.135   4.410
 3317SOL    HW211858   3.715   4.019   4.308
 3318SOL     OW11859   4.293   4.999   4.889
 3318SOL    HW111860   4.200   4.992   4.852
 3318SOL    HW211861   4.304   5.088   4.933
 3319SOL     OW11862   4.859   4.427   4.441
 3319SOL    HW111863   4.916   4.505   4.416
 3319SOL    HW211864   4.799   4.453   4.517
 3320SOL     OW11865   4.492   4.868   4.747
 3320SOL    HW111866   4.414   4.885   4.807
 3320SOL    HW211867   4.526   4.955   4.711
 3321SOL     OW11868   4.059   5.159   4.785
 3321SOL    HW111869   3.981   5.128   4.732
 3321SOL    HW211870   4.117   5.217   4.728
 3322SOL     OW11871   4.330   4.688   3.847
 3322SOL    HW111872   4.337   4.772   3.793
 3322SOL    HW211873   4.376   4.701   3.935
 3323SOL     OW11874   3.846   4.367   4.287
 3323SOL    HW111875   3.801   4.279   4.304
 3323SOL    HW211876   3.845   4.421   4.371
 3324SOL     OW11877   4.533   3.728   4.226
 3324SOL    HW111878   4.573   3.819   4.217
 3324SOL    HW211879   4.433   3.736   4.232
 3325SOL     OW11880   5.005   4.069   4.668
 3325SOL    HW111881   4.919   4.019   4.655
 3325SOL    HW211882   5.067   4.015   4.724
 3326SOL     OW11883   4.715   4.134   4.966
 3326SOL    HW111884   4.638   4.168   5.020
 3326SOL    HW211885   4.681   4.083   4.887
 3327SOL     OW11886   4.765   4.425   4.153
 3327SOL    HW111887   4.791   4.421   4.249
 3327SOL    HW211888   4.680   4.374   4.139
 3328SOL     OW11889   4.589   4.072   3.919
 3328SOL    HW111890   4.648   4.135   3.870
 3328SOL    HW211891   4.608   3.978   3.890
 3329SOL     OW11892   4.274   3.920   4.609
 3329SOL    HW111893   4.269   3.915   4.709
 3329SOL    HW211894   4.276   4.016   4.580
 3330SOL     OW11895   4.045   4.667   3.966
 3330SOL    HW111896   4.127   4.706   3.924
 3330SOL    HW211897   4.018   4.585   3.917
 3331SOL     OW11898   4.106   4.424   4.204
 3331SOL    HW111899   4.151   4.334   4.201
 3331SOL    HW211900   4.012   4.413   4.237
 3332SOL     OW11901   4.338   3.846   3.841
 3332SOL    HW111902   4.436   3.824   3.848
 3332SOL    HW211903   4.307   3.829   3.748
 3333SOL     OW11904   4.527   5.126   4.648
 3333SOL    HW111905   4.617   5.140   4.606
 3333SOL    HW211906   4.456   5.128   4.577
 3334SOL     OW11907   4.646   4.227   4.623
 3334SOL    HW111908   4.621   4.218   4.527
 3334SOL    HW211909   4.694   4.145   4.654
 3335SOL     OW11910   4.263   3.788   4.236
 3335SOL    HW111911   4.182   3.789   4.294
 3335SOL    HW211912   4.266   3.871   4.181
 3336SOL     OW11913   5.158   4.912   3.765
 3336SOL    HW111914   5.190   4.836   3.822
 3336SOL    HW211915   5.066   4.939   3.795
 3337SOL     OW11916   4.021   3.759   3.895
 3337SOL    HW111917   4.070   3.843   3.874
 3337SOL    HW211918   4.083   3.694   3.940
 3338SOL     OW11919   4.659   3.960   4.204
 3338SOL    HW111920   4.611   4.001   4.126
 3338SOL    HW211921   4.758   3.958   4.185
 3339SOL     OW11922   4.951   5.294   4.517
 3339SOL    HW111923   4.972   5.368   4.452
 3339SOL    HW211924   5.019   5.294   4.590
 3340SOL     OW11925   4.756   4.273   3.740
 3340SOL    HW111926   4.715   4.355   3.701
 3340SOL    HW211927   4.820   4.299   3.813
 3341SOL     OW11928   4.285   3.946   4.871
 3341SOL    HW111929   4.323   3.862   4.908
 3341SOL    HW211930   4.197   3.965   4.915
 3342SOL     OW11931   4.590   4.178   4.366
 3342SOL    HW111932   4.558   4.250   4.304
 3342SOL    HW211933   4.614   4.097   4.313
 3343SOL     OW11934   4.741   3.763   4.477
 3343SOL    HW111935   4.669   3.768   4.408
 3343SOL    HW211936   4.717   3.694   4.546
 3344SOL     OW11937   4.251   3.980   4.052
 3344SOL    HW111938   4.278   3.921   3.977
 3344SOL    HW211939   4.251   4.075   4.021
 3345SOL     OW11940   4.091   4.824   4.225
 3345SOL    HW111941   4.084   4.907   4.169
 3345SOL    HW211942   4.095   4.744   4.165
 3346SOL     OW11943   4.290   4.261   4.589
 3346SOL    HW111944   4.302   4.327   4.515
 3346SOL    HW211945   4.336   4.295   4.672
 3347SOL     OW11946   4.976   5.072   4.112
 3347SOL    HW111947   5.026   5.149   4.152
 3347SOL    HW211948   4.881   5.074   4.144
 3348SOL     OW11949   4.933   4.249   3.999
 3348SOL    HW111950   4.946   4.165   4.053
 3348SOL    HW211951   4.904   4.323   4.059
 3349SOL     OW11952   4.031   3.937   4.955
 3349SOL    HW111953   4.008   3.974   5.045
 3349SOL    HW211954   4.001   3.842   4.949
 3350SOL     OW11955   4.031   3.787   4.342
 3350SOL    HW111956   4.020   3.881   4.375
 3350SOL    HW211957   4.026   3.724   4.419
 3351SOL     OW11958   5.346   4.091   4.098
 3351SOL    HW111959   5.348   4.015   4.162
 3351SOL    HW211960   5.298   4.168   4.138
 3352SOL     OW11961   4.747   4.490   4.690
 3352SOL    HW111962   4.762   4.511   4.786
 3352SOL    HW211963   4.717   4.395   4.681
 3353SOL     OW11964   5.027   4.562   3.766
 3353SOL    HW111965   5.061   4.469   3.781
 3353SOL    HW211966   5.045   4.589   3.671
 3354SOL     OW11967   4.063   4.233   4.730
 3354SOL    HW111968   4.011   4.150   4.713
 3354SOL    HW211969   4.140   4.238   4.666
 3355SOL     OW11970   4.884   3.931   5.201
 3355SOL    HW111971   4.884   3.995   5.278
 3355SOL    HW211972   4.912   3.979   5.118
 3356SOL     OW11973   3.764   4.268   4.838
 3356SOL    HW111974   3.849   4.235   4.797
 3356SOL    HW211975   3.777   4.283   4.936
 3357SOL     OW11976   4.539   4.296   4.049
 3357SOL    HW111977   4.546   4.207   4.003
 3357SOL    HW211978   4.445   4.330   4.041
 3358SOL     OW11979   4.395   4.188   4.993
 3358SOL    HW111980   4.361   4.099   4.963
 3358SOL    HW211981   4.421   4.242   4.913
 3359SOL     OW11982   4.197   4.224   3.915
 3359SOL    HW111983   4.258   4.304   3.919
 3359SOL    HW211984   4.102   4.255   3.922
 3360SOL     OW11985   5.071   4.783   4.958
 3360SOL    HW111986   5.095   4.720   4.884
 3360SOL    HW211987   4.981   4.823   4.940
 3361SOL     OW11988   3.807   4.982   4.746
 3361SOL    HW111989   3.802   4.981   4.846
 3361SOL    HW211990   3.724   4.941   4.708
 3362SOL     OW11991   5.004   4.651   4.396
 3362SOL    HW111992   5.064   4.570   4.398
 3362SOL    HW211993   5.044   4.720   4.336
 3363SOL     OW11994   4.554   4.997   5.146
 3363SOL    HW111995   4.549   5.030   5.241
 3363SOL    HW211996   4.468   5.016   5.100
 3364SOL     OW11997   3.987   4.050   4.444
 3364SOL    HW111998   3.908   4.101   4.410
 3364SOL    HW211999   3.978   4.035   4.542
 3365SOL     OW12000   4.918   5.336   3.755
 3365SOL    HW112001   4.924   5.243   3.792
 3365SOL    HW212002   4.859   5.336   3.675
 3366SOL     OW12003   4.546   4.726   5.096
 3366SOL    HW112004   4.586   4.725   5.004
 3366SOL    HW212005   4.556   4.818   5.136
 3367SOL     OW12006   4.640   4.634   4.015
 3367SOL    HW112007   4.703   4.672   3.947
 3367SOL    HW212008   4.680   4.551   4.054
 3368SOL     OW12009   4.763   4.822   4.420
 3368SOL    HW112010   4.693   4.775   4.474
 3368SOL    HW212011   4.822   4.754   4.377
 3369SOL     OW12012   4.738   3.960   4.695
 3369SOL    HW112013   4.730   3.924   4.602
 3369SOL    HW212014   4.736   3.884   4.760
 3370SOL     OW12015   3.799   4.069   3.757
 3370SOL    HW112016   3.707   4.041   3.728
 3370SOL    HW212017   3.830   4.146   3.701
 3371SOL     OW12018   3.796   3.890   4.042
 3371SOL    HW112019   3.779   3.973   3.988
 3371SOL    HW212020   3.886   3.853   4.020
 3372SOL     OW12021   4.949   4.049   4.173
 3372SOL    HW112022   5.014   3.975   4.162
 3372SOL    HW212023   4.969   4.099   4.257
 3373SOL     OW12024   4.807   4.708   3.811
 3373SOL    HW112025   4.784   4.761   3.729
 3373SOL    HW212026   4.888   4.652   3.792
 3374SOL     OW12027   3.803   4.964   4.377
 3374SOL    HW112028   3.802   4.917   4.465
 3374SOL    HW212029   3.885   4.936   4.326
 3375SOL     OW12030   4.152   4.148   4.244
 3375SOL    HW112031   4.182   4.076   4.182
 3375SOL    HW212032   4.113   4.108   4.327
 3376SOL     OW12033   4.725   3.758   4.878
 3376SOL    HW112034   4.662   3.686   4.847
 3376SOL    HW212035   4.818   3.722   4.878
 3377SOL     OW12036   5.076   3.776   3.892
 3377SOL    HW112037   5.111   3.735   3.808
 3377SOL    HW212038   4.986   3.738   3.912
 3378SOL     OW12039   3.763   4.801   4.024
 3378SOL    HW112040   3.862   4.790   4.015
 3378SOL    HW212041   3.723   4.715   4.056
   5.08970   5.08970   5.08970
