UNITED ATOM STRUCTURE FOR MOLECULE UNK
12190
    0X2IT   H18    1   3.092   2.352   2.583
    0X2IT    N4    2   3.026   2.419   2.548
    0X2IT   H17    3   3.059   2.484   2.478
    0X2IT   C14    4   2.895   2.380   2.546
    0X2IT    O5    5   2.849   2.285   2.607
    0X2IT    O4    6   2.822   2.466   2.469
    0X2IT   C13    7   2.680   2.441   2.463
    0X2IT   C10    8   2.607   2.502   2.584
    0X2IT    C9    9   2.457   2.484   2.578
    0X2IT    C4   10   2.394   2.607   2.582
    0X2IT    C5   11   2.245   2.625   2.577
    0X2IT    O1   12   2.197   2.739   2.585
    0X2IT    C6   13   2.166   2.505   2.564
    0X2IT   C12   14   2.015   2.516   2.558
    0X2IT    C7   15   2.229   2.382   2.561
    0X2IT    C8   16   2.381   2.365   2.567
    0X2IT    O2   17   2.427   2.250   2.559
    0X2IT    N3   18   2.164   2.265   2.551
    0X2IT   H15   19   2.064   2.258   2.544
    0X2IT   H16   20   2.221   2.180   2.548
    0X2IT    N2   21   2.482   2.709   2.599
    0X2IT    C3   22   2.473   2.846   2.546
    0X2IT    C2   23   2.599   2.856   2.461
    0X2IT    H2   24   2.639   2.954   2.435
    0X2IT    N1   25   2.611   2.744   2.365
    0X2IT   H14   26   2.674   2.771   2.289
    0X2IT    C1   27   2.688   2.741   2.491
    0X2IT    H1   28   2.796   2.748   2.490
    0X2IT   C11   29   2.622   2.658   2.600
    0X2IT    O3   30   2.691   2.695   2.718
    0X2IT   C15   31   2.628   2.664   2.843
    1X2IT   H18   32   5.095   1.963   3.167
    1X2IT    N4   33   5.033   2.019   3.223
    1X2IT   H17   34   4.950   2.055   3.178
    1X2IT   C14   35   5.029   1.991   3.356
    1X2IT    O5   36   5.112   1.925   3.417
    1X2IT    O4   37   4.921   2.051   3.414
    1X2IT   C13   38   4.907   2.035   3.557
    1X2IT   C10   39   4.993   2.138   3.633
    1X2IT    C9   40   4.977   2.129   3.783
    1X2IT    C4   41   4.933   2.250   3.833
    1X2IT    C5   42   4.906   2.275   3.979
    1X2IT    O1   43   4.871   2.388   4.016
    1X2IT    C6   44   4.924   2.163   4.068
    1X2IT   C12   45   4.899   2.182   4.216
    1X2IT    C7   46   4.969   2.043   4.018
    1X2IT    C8   47   4.997   2.018   3.869
    1X2IT    O2   48   5.032   1.904   3.835
    1X2IT    N3   49   4.990   1.934   4.093
    1X2IT   H15   50   4.975   1.931   4.192
    1X2IT   H16   51   5.022   1.849   4.045
    1X2IT    N2   52   4.926   2.346   3.737
    1X2IT    C3   53   4.830   2.457   3.728
    1X2IT    C2   54   4.761   2.430   3.595
    1X2IT    H2   55   4.709   2.510   3.543
    1X2IT    N1   56   4.709   2.291   3.587
    1X2IT   H14   57   4.636   2.287   3.515
    1X2IT    C1   58   4.837   2.326   3.521
    1X2IT    H1   59   4.846   2.325   3.413
    1X2IT   C11   60   4.959   2.288   3.604
    1X2IT    O3   61   5.065   2.358   3.541
    1X2IT   C15   62   5.186   2.375   3.617
    2X2IT   H18   63   0.871   3.628   1.007
    2X2IT    N4   64   0.917   3.601   0.922
    2X2IT   H17   65   0.906   3.504   0.893
    2X2IT   C14   66   0.931   3.697   0.826
    2X2IT    O5   67   0.920   3.817   0.845
    2X2IT    O4   68   0.965   3.640   0.707
    2X2IT   C13   69   0.991   3.731   0.598
    2X2IT   C10   70   1.134   3.786   0.602
    2X2IT    C9   71   1.167   3.876   0.485
    2X2IT    C4   72   1.276   3.826   0.415
    2X2IT    C5   73   1.333   3.892   0.293
    2X2IT    O1   74   1.433   3.842   0.239
    2X2IT    C6   75   1.268   4.011   0.247
    2X2IT   C12   76   1.321   4.082   0.124
    2X2IT    C7   77   1.160   4.062   0.317
    2X2IT    C8   78   1.102   3.994   0.442
    2X2IT    O2   79   1.002   4.046   0.495
    2X2IT    N3   80   1.094   4.173   0.283
    2X2IT   H15   81   1.117   4.229   0.203
    2X2IT   H16   82   1.014   4.200   0.342
    2X2IT    N2   83   1.328   3.716   0.475
    2X2IT    C3   84   1.392   3.601   0.410
    2X2IT    C2   85   1.303   3.485   0.455
    2X2IT    H2   86   1.342   3.383   0.452
    2X2IT    N1   87   1.160   3.511   0.428
    2X2IT   H14   88   1.110   3.422   0.426
    2X2IT    C1   89   1.214   3.532   0.564
    2X2IT    H1   90   1.183   3.468   0.646
    2X2IT   C11   91   1.248   3.677   0.594
    2X2IT    O3   92   1.327   3.670   0.711
    2X2IT   C15   93   1.406   3.785   0.743
    3X2IT   H18   94   4.246   0.290   0.341
    3X2IT    N4   95   4.338   0.277   0.380
    3X2IT   H17   96   4.354   0.191   0.431
    3X2IT   C14   97   4.441   0.335   0.312
    3X2IT    O5   98   4.430   0.422   0.228
    3X2IT    O4   99   4.560   0.284   0.357
    3X2IT   C13  100   4.679   0.341   0.299
    3X2IT   C10  101   4.719   0.472   0.369
    3X2IT    C9  102   4.848   0.531   0.316
    3X2IT    C4  103   4.940   0.544   0.418
    3X2IT    C5  104   5.079   0.599   0.399
    3X2IT    O1  105   5.154   0.610   0.497
    3X2IT    C6  106   5.115   0.637   0.265
    3X2IT   C12  107   5.254   0.693   0.239
    3X2IT    C7  108   5.022   0.625   0.163
    3X2IT    C8  109   4.881   0.570   0.184
    3X2IT    O2  110   4.808   0.559   0.085
    3X2IT    N3  111   5.046   0.659   0.036
    3X2IT   H15  112   5.135   0.696   0.004
    3X2IT   H16  113   4.971   0.645  -0.032
    3X2IT    N2  114   4.889   0.509   0.539
    3X2IT    C3  115   4.959   0.446   0.652
    3X2IT    C2  116   4.881   0.316   0.669
    3X2IT    H2  117   4.886   0.262   0.764
    3X2IT    N1  118   4.870   0.240   0.543
    3X2IT   H14  119   4.850   0.142   0.563
    3X2IT    C1  120   4.756   0.322   0.589
    3X2IT    H1  121   4.664   0.275   0.621
    3X2IT   C11  122   4.749   0.458   0.524
    3X2IT    O3  123   4.658   0.531   0.604
    3X2IT   C15  124   4.659   0.674   0.592
    4X2IT   H18  125   5.078   2.244   0.872
    4X2IT    N4  126   5.018   2.210   0.800
    4X2IT   H17  127   4.920   2.235   0.806
    4X2IT   C14  128   5.074   2.193   0.676
    4X2IT    O5  129   5.193   2.189   0.653
    4X2IT    O4  130   4.976   2.178   0.582
    4X2IT   C13  131   5.021   2.152   0.448
    4X2IT   C10  132   5.052   2.003   0.426
    4X2IT    C9  133   5.093   1.971   0.284
    4X2IT    C4  134   5.008   1.876   0.231
    4X2IT    C5  135   5.020   1.822   0.091
    4X2IT    O1  136   4.941   1.734   0.052
    4X2IT    C6  137   5.126   1.877   0.009
    4X2IT   C12  138   5.143   1.827  -0.133
    4X2IT    C7  139   5.211   1.971   0.063
    4X2IT    C8  140   5.198   2.025   0.206
    4X2IT    O2  141   5.278   2.112   0.243
    4X2IT    N3  142   5.313   2.027  -0.004
    4X2IT   H15  143   5.335   2.004  -0.099
    4X2IT   H16  144   5.369   2.097   0.046
    4X2IT    N2  145   4.918   1.831   0.321
    4X2IT    C3  146   4.779   1.788   0.297
    4X2IT    C2  147   4.699   1.885   0.383
    4X2IT    H2  148   4.598   1.860   0.413
    4X2IT    N1  149   4.735   2.026   0.355
    4X2IT   H14  150   4.658   2.087   0.387
    4X2IT    C1  151   4.792   1.958   0.474
    4X2IT    H1  152   4.764   1.989   0.574
    4X2IT   C11  153   4.932   1.904   0.450
    4X2IT    O3  154   4.954   1.816   0.559
    4X2IT   C15  155   5.060   1.721   0.546
    5X2IT   H18  156   4.378   0.880   0.108
    5X2IT    N4  157   4.388   0.943   0.186
    5X2IT   H17  158   4.460   0.921   0.253
    5X2IT   C14  159   4.357   1.074   0.162
    5X2IT    O5  160   4.292   1.115   0.067
    5X2IT    O4  161   4.405   1.152   0.263
    5X2IT   C13  162   4.373   1.293   0.256
    5X2IT   C10  163   4.233   1.322   0.312
    5X2IT    C9  164   4.199   1.469   0.311
    5X2IT    C4  165   4.169   1.512   0.440
    5X2IT    C5  166   4.131   1.653   0.475
    5X2IT    O1  167   4.103   1.681   0.592
    5X2IT    C6  168   4.130   1.748   0.367
    5X2IT   C12  169   4.094   1.892   0.395
    5X2IT    C7  170   4.159   1.706   0.238
    5X2IT    C8  171   4.196   1.561   0.204
    5X2IT    O2  172   4.225   1.535   0.085
    5X2IT    N3  173   4.159   1.786   0.131
    5X2IT   H15  174   4.139   1.885   0.136
    5X2IT   H16  175   4.183   1.744   0.041
    5X2IT    N2  176   4.170   1.409   0.529
    5X2IT    C3  177   4.209   1.413   0.671
    5X2IT    C2  178   4.324   1.314   0.675
    5X2IT    H2  179   4.353   1.269   0.770
    5X2IT    N1  180   4.427   1.343   0.573
    5X2IT   H14  181   4.515   1.299   0.600
    5X2IT    C1  182   4.328   1.237   0.548
    5X2IT    H1  183   4.358   1.133   0.543
    5X2IT   C11  184   4.211   1.282   0.462
    5X2IT    O3  185   4.114   1.180   0.479
    5X2IT   C15  186   3.979   1.212   0.442
    6X2IT   H18  187   4.649   1.592   4.024
    6X2IT    N4  188   4.698   1.592   4.112
    6X2IT   H17  189   4.780   1.533   4.118
    6X2IT   C14  190   4.693   1.708   4.184
    6X2IT    O5  191   4.614   1.799   4.166
    6X2IT    O4  192   4.788   1.706   4.282
    6X2IT   C13  193   4.791   1.820   4.371
    6X2IT   C10  194   4.687   1.805   4.483
    6X2IT    C9  195   4.691   1.919   4.583
    6X2IT    C4  196   4.714   1.871   4.710
    6X2IT    C5  197   4.725   1.957   4.832
    6X2IT    O1  198   4.743   1.905   4.943
    6X2IT    C6  199   4.713   2.100   4.811
    6X2IT   C12  200   4.723   2.193   4.930
    6X2IT    C7  201   4.688   2.148   4.684
    6X2IT    C8  202   4.677   2.058   4.561
    6X2IT    O2  203   4.659   2.113   4.451
    6X2IT    N3  204   4.673   2.278   4.655
    6X2IT   H15  205   4.680   2.351   4.724
    6X2IT   H16  206   4.657   2.303   4.557
    6X2IT    N2  207   4.719   1.735   4.713
    6X2IT    C3  208   4.800   1.649   4.800
    6X2IT    C2  209   4.884   1.571   4.700
    6X2IT    H2  210   4.930   1.477   4.729
    6X2IT    N1  211   4.953   1.659   4.603
    6X2IT   H14  212   5.032   1.609   4.562
    6X2IT    C1  213   4.828   1.591   4.564
    6X2IT    H1  214   4.829   1.514   4.487
    6X2IT   C11  215   4.705   1.679   4.576
    6X2IT    O3  216   4.597   1.588   4.566
    6X2IT   C15  217   4.469   1.633   4.613
    7X2IT   H18  218   2.185   3.068   1.225
    7X2IT    N4  219   2.281   3.079   1.197
    7X2IT   H17  220   2.299   3.092   1.098
    7X2IT   C14  221   2.364   3.140   1.288
    7X2IT    O5  222   2.339   3.154   1.406
    7X2IT    O4  223   2.480   3.177   1.227
    7X2IT   C13  224   2.580   3.237   1.312
    7X2IT   C10  225   2.663   3.129   1.384
    7X2IT    C9  226   2.774   3.187   1.469
    7X2IT    C4  227   2.897   3.138   1.429
    7X2IT    C5  228   3.027   3.175   1.492
    7X2IT    O1  229   3.132   3.123   1.451
    7X2IT    C6  230   3.022   3.272   1.599
    7X2IT   C12  231   3.150   3.315   1.667
    7X2IT    C7  232   2.899   3.321   1.640
    7X2IT    C8  233   2.766   3.281   1.575
    7X2IT    O2  234   2.663   3.334   1.618
    7X2IT    N3  235   2.884   3.409   1.740
    7X2IT   H15  236   2.961   3.448   1.792
    7X2IT   H16  237   2.788   3.440   1.761
    7X2IT    N2  238   2.884   3.045   1.330
    7X2IT    C3  239   2.977   3.017   1.219
    7X2IT    C2  240   2.889   3.043   1.097
    7X2IT    H2  241   2.917   3.001   1.001
    7X2IT    N1  242   2.823   3.175   1.103
    7X2IT   H14  243   2.795   3.204   1.009
    7X2IT    C1  244   2.747   3.054   1.140
    7X2IT    H1  245   2.664   3.020   1.079
    7X2IT   C11  246   2.741   3.030   1.290
    7X2IT    O3  247   2.697   2.896   1.302
    7X2IT   C15  248   2.717   2.831   1.428
    8X2IT   H18  249   1.115   4.162   4.010
    8X2IT    N4  250   1.043   4.183   3.944
    8X2IT   H17  251   0.964   4.238   3.977
    8X2IT   C14  252   1.082   4.194   3.813
    8X2IT    O5  253   1.187   4.154   3.768
    8X2IT    O4  254   0.982   4.251   3.740
    8X2IT   C13  255   1.006   4.263   3.598
    8X2IT   C10  256   0.972   4.133   3.524
    8X2IT    C9  257   0.990   4.143   3.374
    8X2IT    C4  258   0.871   4.114   3.310
    8X2IT    C5  259   0.853   4.116   3.161
    8X2IT    O1  260   0.744   4.084   3.112
    8X2IT    C6  261   0.969   4.154   3.083
    8X2IT   C12  262   0.958   4.158   2.932
    8X2IT    C7  263   1.088   4.182   3.147
    8X2IT    C8  264   1.105   4.179   3.299
    8X2IT    O2  265   1.215   4.210   3.346
    8X2IT    N3  266   1.201   4.216   3.083
    8X2IT   H15  267   1.207   4.225   2.983
    8X2IT   H16  268   1.283   4.237   3.141
    8X2IT    N2  269   0.774   4.076   3.397
    8X2IT    C3  270   0.629   4.099   3.387
    8X2IT    C2  271   0.601   4.179   3.513
    8X2IT    H2  272   0.499   4.184   3.553
    8X2IT    N1  273   0.690   4.297   3.527
    8X2IT   H14  274   0.647   4.365   3.590
    8X2IT    C1  275   0.719   4.173   3.603
    8X2IT    H1  276   0.711   4.172   3.711
    8X2IT   C11  277   0.823   4.084   3.538
    8X2IT    O3  278   0.811   3.961   3.606
    8X2IT   C15  279   0.868   3.845   3.543
    9X2IT   H18  280   2.128  -0.046   0.787
    9X2IT    N4  281   2.218  -0.041   0.742
    9X2IT   H17  282   2.296  -0.082   0.790
    9X2IT   C14  283   2.217  -0.040   0.605
    9X2IT    O5  284   2.120  -0.017   0.535
    9X2IT    O4  285   2.343  -0.063   0.558
    9X2IT   C13  286   2.359  -0.058   0.414
    9X2IT   C10  287   2.377   0.086   0.365
    9X2IT    C9  288   2.401   0.096   0.216
    9X2IT    C4  289   2.522   0.159   0.191
    9X2IT    C5  290   2.576   0.183   0.053
    9X2IT    O1  291   2.683   0.244   0.040
    9X2IT    C6  292   2.497   0.134  -0.057
    9X2IT   C12  293   2.547   0.155  -0.199
    9X2IT    C7  294   2.376   0.072  -0.032
    9X2IT    C8  295   2.322   0.048   0.109
    9X2IT    O2  296   2.214  -0.013   0.120
    9X2IT    N3  297   2.295   0.024  -0.128
    9X2IT   H15  298   2.317   0.030  -0.226
    9X2IT   H16  299   2.209  -0.021  -0.098
    9X2IT    N2  300   2.581   0.203   0.304
    9X2IT    C3  301   2.725   0.212   0.334
    9X2IT    C2  302   2.740   0.122   0.455
    9X2IT    H2  303   2.826   0.132   0.521
    9X2IT    N1  304   2.681  -0.012   0.432
    9X2IT   H14  305   2.722  -0.079   0.498
    9X2IT    C1  306   2.605   0.089   0.508
    9X2IT    H1  307   2.585   0.075   0.614
    9X2IT   C11  308   2.502   0.162   0.424
    9X2IT    O3  309   2.466   0.274   0.504
    9X2IT   C15  310   2.400   0.383   0.438
   10X2IT   H18  311   1.915   1.208   1.863
   10X2IT    N4  312   1.912   1.256   1.951
   10X2IT   H17  313   1.915   1.357   1.949
   10X2IT   C14  314   1.843   1.194   2.052
   10X2IT    O5  315   1.809   1.077   2.052
   10X2IT    O4  316   1.821   1.282   2.154
   10X2IT   C13  317   1.754   1.229   2.270
   10X2IT   C10  318   1.854   1.159   2.364
   10X2IT    C9  319   1.789   1.107   2.491
   10X2IT    C4  320   1.850   1.163   2.602
   10X2IT    C5  321   1.810   1.134   2.743
   10X2IT    O1  322   1.873   1.186   2.837
   10X2IT    C6  323   1.698   1.045   2.762
   10X2IT   C12  324   1.652   1.011   2.902
   10X2IT    C7  325   1.638   0.988   2.651
   10X2IT    C8  326   1.681   1.018   2.507
   10X2IT    O2  327   1.616   0.965   2.415
   10X2IT    N3  328   1.535   0.902   2.658
   10X2IT   H15  329   1.493   0.873   2.744
   10X2IT   H16  330   1.497   0.868   2.569
   10X2IT    N2  331   1.956   1.241   2.568
   10X2IT    C3  332   2.004   1.363   2.635
   10X2IT    C2  333   1.992   1.468   2.525
   10X2IT    H2  334   2.050   1.560   2.532
   10X2IT    N1  335   1.858   1.470   2.464
   10X2IT   H14  336   1.843   1.560   2.418
   10X2IT    C1  337   1.968   1.400   2.395
   10X2IT    H1  338   2.007   1.437   2.301
   10X2IT   C11  339   1.970   1.250   2.420
   10X2IT    O3  340   2.098   1.209   2.376
   10X2IT   C15  341   2.144   1.081   2.421
   11X2IT   H18  342   0.307   3.204   2.068
   11X2IT    N4  343   0.365   3.221   2.148
   11X2IT   H17  344   0.322   3.263   2.229
   11X2IT   C14  345   0.469   3.134   2.167
   11X2IT    O5  346   0.513   3.057   2.082
   11X2IT    O4  347   0.520   3.148   2.293
   11X2IT   C13  348   0.635   3.067   2.324
   11X2IT   C10  349   0.765   3.132   2.274
   11X2IT    C9  350   0.889   3.054   2.311
   11X2IT    C4  351   0.975   3.133   2.386
   11X2IT    C5  352   1.107   3.085   2.440
   11X2IT    O1  353   1.179   3.164   2.502
   11X2IT    C6  354   1.141   2.948   2.413
   11X2IT   C12  355   1.273   2.893   2.465
   11X2IT    C7  356   1.056   2.869   2.338
   11X2IT    C8  357   0.922   2.919   2.283
   11X2IT    O2  358   0.851   2.839   2.220
   11X2IT    N3  359   1.080   2.741   2.306
   11X2IT   H15  360   1.163   2.692   2.336
   11X2IT   H16  361   1.009   2.692   2.252
   11X2IT    N2  362   0.930   3.260   2.398
   11X2IT    C3  363   0.947   3.352   2.511
   11X2IT    C2  364   0.803   3.381   2.552
   11X2IT    H2  365   0.781   3.470   2.611
   11X2IT    N1  366   0.725   3.257   2.573
   11X2IT   H14  367   0.644   3.278   2.632
   11X2IT    C1  368   0.711   3.332   2.446
   11X2IT    H1  369   0.619   3.381   2.421
   11X2IT   C11  370   0.796   3.275   2.334
   11X2IT    O3  371   0.795   3.377   2.235
   11X2IT   C15  372   0.897   3.370   2.134
   12X2IT   H18  373   4.666   0.825   4.571
   12X2IT    N4  374   4.580   0.809   4.622
   12X2IT   H17  375   4.589   0.782   4.719
   12X2IT   C14  376   4.471   0.880   4.582
   12X2IT    O5  377   4.461   0.940   4.476
   12X2IT    O4  378   4.373   0.872   4.676
   12X2IT   C13  379   4.248   0.938   4.644
   12X2IT   C10  380   4.159   0.849   4.556
   12X2IT    C9  381   4.024   0.911   4.526
   12X2IT    C4  382   3.922   0.829   4.570
   12X2IT    C5  383   3.776   0.861   4.557
   12X2IT    O1  384   3.692   0.780   4.596
   12X2IT    C6  385   3.744   0.988   4.497
   12X2IT   C12  386   3.599   1.028   4.480
   12X2IT    C7  387   3.846   1.070   4.452
   12X2IT    C8  388   3.994   1.035   4.465
   12X2IT    O2  389   4.077   1.118   4.425
   12X2IT    N3  390   3.826   1.189   4.393
   12X2IT   H15  391   3.734   1.228   4.378
   12X2IT   H16  392   3.909   1.242   4.365
   12X2IT    N2  393   3.969   0.711   4.620
   12X2IT    C3  394   3.913   0.631   4.730
   12X2IT    C2  395   4.028   0.628   4.830
   12X2IT    H2  396   4.032   0.550   4.906
   12X2IT    N1  397   4.078   0.764   4.861
   12X2IT   H14  398   4.128   0.762   4.950
   12X2IT    C1  399   4.152   0.679   4.765
   12X2IT    H1  400   4.250   0.642   4.788
   12X2IT   C11  401   4.118   0.710   4.620
   12X2IT    O3  402   4.170   0.599   4.548
   12X2IT   C15  403   4.122   0.580   4.414
   13X2IT   H18  404   2.905   2.199   0.441
   13X2IT    N4  405   2.804   2.196   0.442
   13X2IT   H17  406   2.757   2.204   0.353
   13X2IT   C14  407   2.747   2.121   0.540
   13X2IT    O5  408   2.804   2.081   0.641
   13X2IT    O4  409   2.615   2.100   0.512
   13X2IT   C13  410   2.540   2.027   0.611
   13X2IT   C10  411   2.491   2.120   0.724
   13X2IT    C9  412   2.406   2.049   0.827
   13X2IT    C4  413   2.282   2.109   0.835
   13X2IT    C5  414   2.172   2.063   0.927
   13X2IT    O1  415   2.065   2.125   0.931
   13X2IT    C6  416   2.201   1.946   1.007
   13X2IT   C12  417   2.094   1.894   1.102
   13X2IT    C7  418   2.325   1.887   1.000
   13X2IT    C8  419   2.436   1.936   0.906
   13X2IT    O2  420   2.542   1.872   0.904
   13X2IT    N3  421   2.361   1.780   1.072
   13X2IT   H15  422   2.300   1.734   1.137
   13X2IT   H16  423   2.455   1.743   1.056
   13X2IT    N2  424   2.273   2.220   0.757
   13X2IT    C3  425   2.155   2.271   0.686
   13X2IT    C2  426   2.200   2.268   0.541
   13X2IT    H2  427   2.149   2.330   0.467
   13X2IT    N1  428   2.253   2.136   0.501
   13X2IT   H14  429   2.249   2.127   0.400
   13X2IT    C1  430   2.346   2.245   0.535
   13X2IT    H1  431   2.410   2.289   0.460
   13X2IT   C11  432   2.398   2.238   0.678
   13X2IT    O3  433   2.456   2.366   0.700
   13X2IT   C15  434   2.479   2.404   0.836
   14X2IT   H18  435   4.437   0.759   3.210
   14X2IT    N4  436   4.408   0.753   3.114
   14X2IT   H17  437   4.317   0.792   3.091
   14X2IT   C14  438   4.507   0.754   3.020
   14X2IT    O5  439   4.625   0.735   3.042
   14X2IT    O4  440   4.453   0.776   2.897
   14X2IT   C13  441   4.546   0.774   2.786
   14X2IT   C10  442   4.573   0.630   2.738
   14X2IT    C9  443   4.664   0.623   2.618
   14X2IT    C4  444   4.600   0.558   2.514
   14X2IT    C5  445   4.663   0.535   2.379
   14X2IT    O1  446   4.600   0.473   2.292
   14X2IT    C6  447   4.795   0.588   2.360
   14X2IT   C12  448   4.864   0.569   2.226
   14X2IT    C7  449   4.859   0.652   2.464
   14X2IT    C8  450   4.795   0.674   2.601
   14X2IT    O2  451   4.859   0.737   2.687
   14X2IT    N3  452   4.983   0.703   2.456
   14X2IT   H15  453   5.039   0.699   2.373
   14X2IT   H16  454   5.020   0.750   2.540
   14X2IT    N2  455   4.478   0.511   2.550
   14X2IT    C3  456   4.358   0.498   2.466
   14X2IT    C2  457   4.258   0.586   2.539
   14X2IT    H2  458   4.151   0.572   2.523
   14X2IT    N1  459   4.311   0.721   2.566
   14X2IT   H14  460   4.233   0.786   2.582
   14X2IT    C1  461   4.312   0.620   2.673
   14X2IT    H1  462   4.249   0.633   2.761
   14X2IT   C11  463   4.446   0.550   2.690
   14X2IT    O3  464   4.416   0.438   2.771
   14X2IT   C15  465   4.512   0.332   2.772
   15X2IT   H18  466   0.507   4.809   2.496
   15X2IT    N4  467   0.552   4.874   2.557
   15X2IT   H17  468   0.575   4.966   2.520
   15X2IT   C14  469   0.523   4.862   2.690
   15X2IT    O5  470   0.471   4.765   2.742
   15X2IT    O4  471   0.565   4.974   2.757
   15X2IT   C13  472   0.547   4.972   2.900
   15X2IT   C10  473   0.662   4.898   2.971
   15X2IT    C9  474   0.650   4.900   3.122
   15X2IT    C4  475   0.762   4.957   3.178
   15X2IT    C5  476   0.783   4.976   3.325
   15X2IT    O1  477   0.889   5.025   3.367
   15X2IT    C6  478   0.675   4.933   3.411
   15X2IT   C12  479   0.688   4.949   3.561
   15X2IT    C7  480   0.563   4.875   3.355
   15X2IT    C8  481   0.544   4.856   3.204
   15X2IT    O2  482   0.437   4.807   3.165
   15X2IT    N3  483   0.458   4.830   3.427
   15X2IT   H15  484   0.453   4.837   3.527
   15X2IT   H16  485   0.379   4.790   3.375
   15X2IT    N2  486   0.856   4.988   3.084
   15X2IT    C3  487   0.951   5.100   3.085
   15X2IT    C2  488   0.914   5.175   2.957
   15X2IT    H2  489   0.986   5.243   2.911
   15X2IT    N1  490   0.769   5.205   2.951
   15X2IT   H14  491   0.754   5.283   2.886
   15X2IT    C1  492   0.823   5.090   2.875
   15X2IT    H1  493   0.824   5.090   2.767
   15X2IT   C11  494   0.805   4.957   2.947
   15X2IT    O3  495   0.891   4.869   2.878
   15X2IT   C15  496   0.926   4.746   2.944
   16X2IT   H18  497   0.987   2.350   1.182
   16X2IT    N4  498   0.913   2.328   1.245
   16X2IT   H17  499   0.847   2.401   1.268
   16X2IT   C14  500   0.869   2.198   1.244
   16X2IT    O5  501   0.930   2.104   1.195
   16X2IT    O4  502   0.750   2.188   1.310
   16X2IT   C13  503   0.695   2.055   1.323
   16X2IT   C10  504   0.757   1.980   1.442
   16X2IT    C9  505   0.698   1.843   1.463
   16X2IT    C4  506   0.644   1.833   1.590
   16X2IT    C5  507   0.576   1.710   1.643
   16X2IT    O1  508   0.535   1.709   1.760
   16X2IT    C6  509   0.565   1.599   1.553
   16X2IT   C12  510   0.497   1.472   1.600
   16X2IT    C7  511   0.619   1.608   1.426
   16X2IT    C8  512   0.689   1.734   1.373
   16X2IT    O2  513   0.730   1.733   1.256
   16X2IT    N3  514   0.615   1.509   1.335
   16X2IT   H15  515   0.571   1.421   1.352
   16X2IT   H16  516   0.657   1.528   1.244
   16X2IT    N2  517   0.668   1.945   1.664
   16X2IT    C3  518   0.582   2.004   1.768
   16X2IT    C2  519   0.554   2.143   1.712
   16X2IT    H2  520   0.522   2.222   1.779
   16X2IT    N1  521   0.503   2.138   1.573
   16X2IT   H14  522   0.454   2.225   1.552
   16X2IT    C1  523   0.646   2.169   1.598
   16X2IT    H1  524   0.686   2.267   1.576
   16X2IT   C11  525   0.737   2.048   1.583
   16X2IT    O3  526   0.859   2.090   1.642
   16X2IT   C15  527   0.952   1.987   1.678
   17X2IT   H18  528   0.623   0.937   4.101
   17X2IT    N4  529   0.614   1.023   4.051
   17X2IT   H17  530   0.611   1.018   3.950
   17X2IT   C14  531   0.545   1.123   4.114
   17X2IT    O5  532   0.519   1.126   4.233
   17X2IT    O4  533   0.514   1.222   4.025
   17X2IT   C13  534   0.447   1.338   4.079
   17X2IT   C10  535   0.547   1.437   4.140
   17X2IT    C9  536   0.482   1.563   4.192
   17X2IT    C4  537   0.535   1.674   4.129
   17X2IT    C5  538   0.491   1.815   4.157
   17X2IT    O1  539   0.548   1.909   4.099
   17X2IT    C6  540   0.385   1.832   4.253
   17X2IT   C12  541   0.336   1.972   4.285
   17X2IT    C7  542   0.332   1.721   4.316
   17X2IT    C8  543   0.378   1.578   4.288
   17X2IT    O2  544   0.321   1.486   4.348
   17X2IT    N3  545   0.235   1.727   4.408
   17X2IT   H15  546   0.192   1.813   4.437
   17X2IT   H16  547   0.202   1.638   4.448
   17X2IT    N2  548   0.637   1.641   4.046
   17X2IT    C3  549   0.675   1.707   3.919
   17X2IT    C2  550   0.660   1.593   3.819
   17X2IT    H2  551   0.712   1.599   3.723
   17X2IT    N1  552   0.528   1.527   3.827
   17X2IT   H14  553   0.509   1.478   3.739
   17X2IT    C1  554   0.645   1.465   3.891
   17X2IT    H1  555   0.685   1.371   3.855
   17X2IT   C11  556   0.655   1.494   4.040
   17X2IT    O3  557   0.787   1.455   4.074
   17X2IT   C15  558   0.840   1.506   4.198
   18X2IT   H18  559   3.626   1.860   1.680
   18X2IT    N4  560   3.688   1.873   1.758
   18X2IT   H17  561   3.787   1.863   1.740
   18X2IT   C14  562   3.646   1.959   1.855
   18X2IT    O5  563   3.532   1.999   1.870
   18X2IT    O4  564   3.751   1.991   1.937
   18X2IT   C13  565   3.720   2.077   2.049
   18X2IT   C10  566   3.664   1.996   2.168
   18X2IT    C9  567   3.637   2.081   2.290
   18X2IT    C4  568   3.710   2.034   2.398
   18X2IT    C5  569   3.706   2.097   2.534
   18X2IT    O1  570   3.772   2.045   2.626
   18X2IT    C6  571   3.624   2.214   2.549
   18X2IT   C12  572   3.617   2.282   2.684
   18X2IT    C7  573   3.551   2.261   2.442
   18X2IT    C8  574   3.555   2.196   2.303
   18X2IT    O2  575   3.489   2.249   2.212
   18X2IT    N3  576   3.471   2.368   2.446
   18X2IT   H15  577   3.459   2.424   2.529
   18X2IT   H16  578   3.423   2.395   2.360
   18X2IT    N2  579   3.778   1.921   2.368
   18X2IT    C3  580   3.908   1.876   2.421
   18X2IT    C2  581   3.992   1.866   2.295
   18X2IT    H2  582   4.082   1.805   2.295
   18X2IT    N1  583   3.987   1.990   2.214
   18X2IT   H14  584   4.069   1.993   2.152
   18X2IT    C1  585   3.904   1.874   2.176
   18X2IT    H1  586   3.923   1.820   2.084
   18X2IT   C11  587   3.760   1.885   2.224
   18X2IT    O3  588   3.709   1.754   2.208
   18X2IT   C15  589   3.589   1.722   2.280
   19X2IT   H18  590  -0.403   0.637   4.938
   19X2IT    N4  591  -0.324   0.618   4.879
   19X2IT   H17  592  -0.344   0.580   4.787
   19X2IT   C14  593  -0.215   0.698   4.896
   19X2IT    O5  594  -0.195   0.770   4.992
   19X2IT    O4  595  -0.129   0.683   4.790
   19X2IT   C13  596  -0.006   0.757   4.798
   19X2IT   C10  597   0.099   0.683   4.882
   19X2IT    C9  598   0.233   0.754   4.887
   19X2IT    C4  599   0.332   0.672   4.839
   19X2IT    C5  600   0.477   0.712   4.829
   19X2IT    O1  601   0.560   0.629   4.788
   19X2IT    C6  602   0.509   0.846   4.870
   19X2IT   C12  603   0.653   0.893   4.862
   19X2IT    C7  604   0.410   0.928   4.918
   19X2IT    C8  605   0.263   0.886   4.929
   19X2IT    O2  606   0.181   0.970   4.970
   19X2IT    N3  607   0.431   1.054   4.960
   19X2IT   H15  608   0.521   1.099   4.959
   19X2IT   H16  609   0.349   1.107   4.993
   19X2IT    N2  610   0.286   0.547   4.809
   19X2IT    C3  611   0.332   0.457   4.703
   19X2IT    C2  612   0.206   0.438   4.620
   19X2IT    H2  613   0.197   0.351   4.554
   19X2IT    N1  614   0.144   0.567   4.581
   19X2IT   H14  615   0.084   0.552   4.499
   19X2IT    C1  616   0.089   0.491   4.695
   19X2IT    H1  617  -0.009   0.447   4.689
   19X2IT   C11  618   0.139   0.540   4.830
   19X2IT    O3  619   0.103   0.436   4.919
   19X2IT   C15  620   0.169   0.434   5.047
   20X2IT   H18  621   1.566   4.972   2.174
   20X2IT    N4  622   1.619   4.924   2.244
   20X2IT   H17  623   1.707   4.883   2.215
   20X2IT   C14  624   1.606   4.969   2.372
   20X2IT    O5  625   1.517   5.042   2.412
   20X2IT    O4  626   1.705   4.916   2.450
   20X2IT   C13  627   1.699   4.950   2.590
   20X2IT   C10  628   1.602   4.858   2.667
   20X2IT    C9  629   1.599   4.885   2.815
   20X2IT    C4  630   1.633   4.771   2.886
   20X2IT    C5  631   1.640   4.764   3.036
   20X2IT    O1  632   1.668   4.657   3.090
   20X2IT    C6  633   1.613   4.886   3.107
   20X2IT   C12  634   1.619   4.887   3.259
   20X2IT    C7  635   1.578   5.000   3.037
   20X2IT    C8  636   1.570   5.006   2.884
   20X2IT    O2  637   1.542   5.114   2.831
   20X2IT    N3  638   1.549   5.118   3.095
   20X2IT   H15  639   1.551   5.132   3.194
   20X2IT   H16  640   1.526   5.196   3.033
   20X2IT    N2  641   1.651   4.664   2.804
   20X2IT    C3  642   1.745   4.552   2.822
   20X2IT    C2  643   1.831   4.563   2.697
   20X2IT    H2  644   1.888   4.476   2.663
   20X2IT    N1  645   1.887   4.698   2.678
   20X2IT   H14  646   1.969   4.694   2.617
   20X2IT    C1  647   1.768   4.657   2.601
   20X2IT    H1  648   1.774   4.644   2.493
   20X2IT   C11  649   1.637   4.704   2.661
   20X2IT    O3  650   1.539   4.628   2.594
   20X2IT   C15  651   1.409   4.621   2.655
   21X2IT   H18  652   0.867   3.090   3.837
   21X2IT    N4  653   0.957   3.132   3.854
   21X2IT   H17  654   1.002   3.110   3.941
   21X2IT   C14  655   1.033   3.156   3.743
   21X2IT    O5  656   0.993   3.158   3.628
   21X2IT    O4  657   1.162   3.183   3.781
   21X2IT   C13  658   1.253   3.218   3.674
   21X2IT   C10  659   1.243   3.367   3.637
   21X2IT    C9  660   1.342   3.408   3.531
   21X2IT    C4  661   1.422   3.510   3.578
   21X2IT    C5  662   1.532   3.575   3.498
   21X2IT    O1  663   1.596   3.668   3.547
   21X2IT    C6  664   1.554   3.522   3.365
   21X2IT   C12  665   1.663   3.582   3.279
   21X2IT    C7  666   1.473   3.421   3.318
   21X2IT    C8  667   1.361   3.357   3.400
   21X2IT    O2  668   1.297   3.263   3.349
   21X2IT    N3  669   1.484   3.367   3.195
   21X2IT   H15  670   1.554   3.396   3.129
   21X2IT   H16  671   1.420   3.291   3.171
   21X2IT    N2  672   1.385   3.551   3.702
   21X2IT    C3  673   1.472   3.602   3.810
   21X2IT    C2  674   1.446   3.501   3.922
   21X2IT    H2  675   1.469   3.528   4.025
   21X2IT    N1  676   1.465   3.361   3.876
   21X2IT   H14  677   1.482   3.301   3.957
   21X2IT    C1  678   1.329   3.417   3.887
   21X2IT    H1  679   1.259   3.380   3.961
   21X2IT   C11  680   1.274   3.467   3.754
   21X2IT    O3  681   1.161   3.546   3.791
   21X2IT   C15  682   1.111   3.637   3.693
   22X2IT   H18  683   3.362   2.974   0.460
   22X2IT    N4  684   3.462   2.985   0.465
   22X2IT   H17  685   3.518   2.904   0.440
   22X2IT   C14  686   3.512   3.110   0.442
   22X2IT    O5  687   3.446   3.213   0.443
   22X2IT    O4  688   3.646   3.104   0.421
   22X2IT   C13  689   3.714   3.230   0.402
   22X2IT   C10  690   3.747   3.297   0.537
   22X2IT    C9  691   3.823   3.426   0.522
   22X2IT    C4  692   3.944   3.419   0.589
   22X2IT    C5  693   4.045   3.530   0.594
   22X2IT    O1  694   4.148   3.516   0.660
   22X2IT    C6  695   4.012   3.649   0.519
   22X2IT   C12  696   4.110   3.765   0.519
   22X2IT    C7  697   3.892   3.657   0.452
   22X2IT    C8  698   3.789   3.543   0.449
   22X2IT    O2  699   3.686   3.559   0.382
   22X2IT    N3  700   3.852   3.764   0.382
   22X2IT   H15  701   3.908   3.847   0.372
   22X2IT   H16  702   3.761   3.758   0.335
   22X2IT    N2  703   3.956   3.302   0.658
   22X2IT    C3  704   4.080   3.226   0.685
   22X2IT    C2  705   4.050   3.092   0.619
   22X2IT    H2  706   4.106   3.004   0.648
   22X2IT    N1  707   4.006   3.108   0.478
   22X2IT   H14  708   4.021   3.020   0.428
   22X2IT    C1  709   3.906   3.085   0.584
   22X2IT    H1  710   3.849   2.993   0.587
   22X2IT   C11  711   3.840   3.213   0.633
   22X2IT    O3  712   3.775   3.175   0.753
   22X2IT   C15  713   3.737   3.280   0.843
   23X2IT   H18  714   1.812   4.108   1.805
   23X2IT    N4  715   1.831   4.028   1.863
   23X2IT   H17  716   1.752   3.986   1.909
   23X2IT   C14  717   1.936   3.950   1.826
   23X2IT    O5  718   2.024   3.982   1.748
   23X2IT    O4  719   1.931   3.831   1.892
   23X2IT   C13  720   2.041   3.740   1.868
   23X2IT   C10  721   2.162   3.773   1.956
   23X2IT    C9  722   2.277   3.676   1.939
   23X2IT    C4  723   2.308   3.618   2.061
   23X2IT    C5  724   2.417   3.516   2.079
   23X2IT    O1  725   2.441   3.472   2.192
   23X2IT    C6  726   2.489   3.476   1.960
   23X2IT   C12  727   2.599   3.373   1.971
   23X2IT    C7  728   2.458   3.535   1.839
   23X2IT    C8  729   2.347   3.640   1.822
   23X2IT    O2  730   2.325   3.683   1.708
   23X2IT    N3  731   2.520   3.506   1.723
   23X2IT   H15  732   2.593   3.438   1.716
   23X2IT   H16  733   2.487   3.555   1.639
   23X2IT    N2  734   2.235   3.669   2.163
   23X2IT    C3  735   2.188   3.601   2.284
   23X2IT    C2  736   2.037   3.616   2.272
   23X2IT    H2  737   1.975   3.605   2.361
   23X2IT    N1  738   1.986   3.570   2.141
   23X2IT   H14  739   1.886   3.549   2.149
   23X2IT    C1  740   2.005   3.715   2.167
   23X2IT    H1  741   1.920   3.782   2.172
   23X2IT   C11  742   2.136   3.768   2.112
   23X2IT    O3  743   2.151   3.895   2.174
   23X2IT   C15  744   2.281   3.953   2.174
   24X2IT   H18  745   2.976   1.133   4.318
   24X2IT    N4  746   2.898   1.187   4.286
   24X2IT   H17  747   2.864   1.260   4.347
   24X2IT   C14  748   2.885   1.202   4.151
   24X2IT    O5  749   2.943   1.135   4.067
   24X2IT    O4  750   2.795   1.301   4.124
   24X2IT   C13  751   2.767   1.324   3.984
   24X2IT   C10  752   2.661   1.225   3.931
   24X2IT    C9  753   2.623   1.251   3.787
   24X2IT    C4  754   2.487   1.274   3.777
   24X2IT    C5  755   2.417   1.304   3.647
   24X2IT    O1  756   2.294   1.320   3.647
   24X2IT    C6  757   2.499   1.310   3.529
   24X2IT   C12  758   2.435   1.340   3.395
   24X2IT    C7  759   2.635   1.286   3.539
   24X2IT    C8  760   2.705   1.255   3.672
   24X2IT    O2  761   2.828   1.239   3.670
   24X2IT    N3  762   2.719   1.287   3.435
   24X2IT   H15  763   2.690   1.308   3.341
   24X2IT   H16  764   2.818   1.269   3.454
   24X2IT    N2  765   2.424   1.260   3.896
   24X2IT    C3  766   2.306   1.334   3.945
   24X2IT    C2  767   2.360   1.400   4.071
   24X2IT    H2  768   2.291   1.434   4.148
   24X2IT    N1  769   2.485   1.475   4.046
   24X2IT   H14  770   2.498   1.544   4.121
   24X2IT    C1  771   2.492   1.340   4.106
   24X2IT    H1  772   2.525   1.326   4.208
   24X2IT   C11  773   2.521   1.231   4.004
   24X2IT    O3  774   2.490   1.111   4.073
   24X2IT   C15  775   2.471   0.993   3.993
   25X2IT   H18  776   4.205   3.396   3.844
   25X2IT    N4  777   4.177   3.301   3.860
   25X2IT   H17  778   4.161   3.244   3.778
   25X2IT   C14  779   4.222   3.242   3.975
   25X2IT    O5  780   4.269   3.302   4.070
   25X2IT    O4  781   4.203   3.107   3.968
   25X2IT   C13  782   4.240   3.033   4.086
   25X2IT   C10  783   4.128   3.034   4.192
   25X2IT    C9  784   4.160   2.951   4.314
   25X2IT    C4  785   4.064   2.854   4.332
   25X2IT    C5  786   4.066   2.754   4.444
   25X2IT    O1  787   3.973   2.673   4.455
   25X2IT    C6  788   4.179   2.760   4.534
   25X2IT   C12  789   4.188   2.662   4.649
   25X2IT    C7  790   4.275   2.858   4.516
   25X2IT    C8  791   4.271   2.960   4.402
   25X2IT    O2  792   4.365   3.041   4.393
   25X2IT    N3  793   4.382   2.873   4.595
   25X2IT   H15  794   4.401   2.813   4.674
   25X2IT   H16  795   4.448   2.948   4.572
   25X2IT    N2  796   3.963   2.865   4.242
   25X2IT    C3  797   3.882   2.757   4.184
   25X2IT    C2  798   3.910   2.773   4.035
   25X2IT    H2  799   3.842   2.730   3.962
   25X2IT    N1  800   4.055   2.776   4.005
   25X2IT   H14  801   4.071   2.752   3.907
   25X2IT    C1  802   3.979   2.902   4.011
   25X2IT    H1  803   3.963   2.962   3.922
   25X2IT   C11  804   3.990   2.974   4.145
   25X2IT    O3  805   3.886   3.070   4.142
   25X2IT   C15  806   3.846   3.127   4.267
   26X2IT   H18  807   1.727   4.345   1.174
   26X2IT    N4  808   1.738   4.255   1.131
   26X2IT   H17  809   1.682   4.179   1.168
   26X2IT   C14  810   1.769   4.256   0.998
   26X2IT    O5  811   1.812   4.352   0.936
   26X2IT    O4  812   1.750   4.131   0.945
   26X2IT   C13  813   1.786   4.115   0.806
   26X2IT   C10  814   1.937   4.089   0.790
   26X2IT    C9  815   1.978   4.064   0.646
   26X2IT    C4  816   2.038   3.940   0.634
   26X2IT    C5  817   2.090   3.884   0.505
   26X2IT    O1  818   2.146   3.774   0.504
   26X2IT    C6  819   2.071   3.966   0.387
   26X2IT   C12  820   2.120   3.915   0.253
   26X2IT    C7  821   2.011   4.090   0.400
   26X2IT    C8  822   1.960   4.146   0.532
   26X2IT    O2  823   1.903   4.257   0.531
   26X2IT    N3  824   1.991   4.173   0.296
   26X2IT   H15  825   2.016   4.151   0.202
   26X2IT   H16  826   1.944   4.262   0.317
   26X2IT    N2  827   2.053   3.879   0.754
   26X2IT    C3  828   2.048   3.734   0.783
   26X2IT    C2  829   1.932   3.725   0.881
   26X2IT    H2  830   1.923   3.638   0.947
   26X2IT    N1  831   1.809   3.791   0.830
   26X2IT   H14  832   1.728   3.754   0.879
   26X2IT    C1  833   1.895   3.861   0.927
   26X2IT    H1  834   1.859   3.882   1.027
   26X2IT   C11  835   1.991   3.960   0.863
   26X2IT    O3  836   2.084   3.990   0.966
   26X2IT   C15  837   2.208   4.049   0.927
   27X2IT   H18  838   4.382   4.152   0.560
   27X2IT    N4  839   4.333   4.100   0.631
   27X2IT   H17  840   4.315   4.002   0.612
   27X2IT   C14  841   4.353   4.140   0.760
   27X2IT    O5  842   4.401   4.247   0.794
   27X2IT    O4  843   4.309   4.044   0.847
   27X2IT   C13  844   4.317   4.076   0.987
   27X2IT   C10  845   4.197   4.160   1.033
   27X2IT    C9  846   4.199   4.189   1.181
   27X2IT    C4  847   4.083   4.142   1.241
   27X2IT    C5  848   4.053   4.154   1.388
   27X2IT    O1  849   3.946   4.111   1.432
   27X2IT    C6  850   4.155   4.216   1.469
   27X2IT   C12  851   4.131   4.231   1.618
   27X2IT    C7  852   4.270   4.265   1.409
   27X2IT    C8  853   4.298   4.253   1.260
   27X2IT    O2  854   4.407   4.296   1.218
   27X2IT    N3  855   4.368   4.326   1.476
   27X2IT   H15  856   4.367   4.341   1.576
   27X2IT   H16  857   4.450   4.357   1.422
   27X2IT    N2  858   3.997   4.090   1.150
   27X2IT    C3  859   3.903   3.978   1.168
   27X2IT    C2  860   3.950   3.879   1.062
   27X2IT    H2  861   3.883   3.801   1.027
   27X2IT    N1  862   4.096   3.852   1.071
   27X2IT   H14  863   4.117   3.763   1.024
   27X2IT    C1  864   4.045   3.947   0.970
   27X2IT    H1  865   4.052   3.924   0.864
   27X2IT   C11  866   4.056   4.092   1.013
   27X2IT    O3  867   3.974   4.162   0.921
   27X2IT   C15  868   3.932   4.294   0.958
   28X2IT   H18  869   3.597   4.077   2.584
   28X2IT    N4  870   3.502   4.105   2.567
   28X2IT   H17  871   3.488   4.184   2.505
   28X2IT   C14  872   3.407   4.007   2.572
   28X2IT    O5  873   3.423   3.897   2.621
   28X2IT    O4  874   3.291   4.052   2.517
   28X2IT   C13  875   3.179   3.960   2.521
   28X2IT   C10  876   3.107   3.966   2.657
   28X2IT    C9  877   2.985   3.877   2.663
   28X2IT    C4  878   2.872   3.951   2.692
   28X2IT    C5  879   2.734   3.894   2.705
   28X2IT    O1  880   2.640   3.968   2.735
   28X2IT    C6  881   2.721   3.752   2.681
   28X2IT   C12  882   2.585   3.687   2.692
   28X2IT    C7  883   2.834   3.677   2.652
   28X2IT    C8  884   2.974   3.737   2.641
   28X2IT    O2  885   3.068   3.661   2.610
   28X2IT    N3  886   2.832   3.545   2.631
   28X2IT   H15  887   2.748   3.490   2.633
   28X2IT   H16  888   2.922   3.500   2.609
   28X2IT    N2  889   2.902   4.082   2.716
   28X2IT    C3  890   2.820   4.200   2.686
   28X2IT    C2  891   2.910   4.279   2.592
   28X2IT    H2  892   2.894   4.386   2.578
   28X2IT    N1  893   2.959   4.196   2.479
   28X2IT   H14  894   2.988   4.258   2.402
   28X2IT    C1  895   3.047   4.221   2.595
   28X2IT    H1  896   3.137   4.281   2.584
   28X2IT   C11  897   3.047   4.107   2.695
   28X2IT    O3  898   3.108   4.163   2.810
   28X2IT   C15  899   3.089   4.094   2.934
   29X2IT   H18  900   2.610   4.804   5.257
   29X2IT    N4  901   2.566   4.806   5.167
   29X2IT   H17  902   2.473   4.845   5.163
   29X2IT   C14  903   2.648   4.820   5.059
   29X2IT    O5  904   2.769   4.801   5.060
   29X2IT    O4  905   2.575   4.853   4.949
   29X2IT   C13  906   2.649   4.863   4.825
   29X2IT   C10  907   2.669   4.726   4.759
   29X2IT    C9  908   2.739   4.733   4.626
   29X2IT    C4  909   2.660   4.678   4.527
   29X2IT    C5  910   2.700   4.670   4.382
   29X2IT    O1  911   2.624   4.615   4.301
   29X2IT    C6  912   2.828   4.727   4.347
   29X2IT   C12  913   2.874   4.723   4.203
   29X2IT    C7  914   2.907   4.782   4.446
   29X2IT    C8  915   2.865   4.789   4.594
   29X2IT    O2  916   2.943   4.844   4.673
   29X2IT    N3  917   3.028   4.836   4.424
   29X2IT   H15  918   3.069   4.842   4.333
   29X2IT   H16  919   3.077   4.875   4.505
   29X2IT    N2  920   2.546   4.624   4.577
   29X2IT    C3  921   2.414   4.617   4.513
   29X2IT    C2  922   2.326   4.695   4.610
   29X2IT    H2  923   2.218   4.680   4.609
   29X2IT    N1  924   2.382   4.828   4.641
   29X2IT   H14  925   2.308   4.889   4.676
   29X2IT    C1  926   2.401   4.717   4.736
   29X2IT    H1  927   2.353   4.719   4.833
   29X2IT   C11  928   2.536   4.648   4.723
   29X2IT    O3  929   2.521   4.528   4.796
   29X2IT   C15  930   2.617   4.424   4.772
   30X2IT   H18  931  -0.336   0.496   1.055
   30X2IT    N4  932  -0.237   0.510   1.049
   30X2IT   H17  933  -0.201   0.550   0.964
   30X2IT   C14  934  -0.173   0.537   1.167
   30X2IT    O5  935  -0.219   0.517   1.278
   30X2IT    O4  936  -0.047   0.584   1.142
   30X2IT   C13  937   0.035   0.610   1.258
   30X2IT   C10  938   0.104   0.482   1.308
   30X2IT    C9  939   0.196   0.506   1.425
   30X2IT    C4  940   0.324   0.464   1.394
   30X2IT    C5  941   0.441   0.475   1.488
   30X2IT    O1  942   0.552   0.431   1.453
   30X2IT    C6  943   0.415   0.536   1.616
   30X2IT   C12  944   0.529   0.550   1.715
   30X2IT    C7  945   0.287   0.577   1.647
   30X2IT    C8  946   0.169   0.565   1.551
   30X2IT    O2  947   0.059   0.609   1.588
   30X2IT    N3  948   0.253   0.633   1.764
   30X2IT   H15  949   0.319   0.651   1.838
   30X2IT   H16  950   0.156   0.662   1.776
   30X2IT    N2  951   0.331   0.405   1.272
   30X2IT    C3  952   0.442   0.407   1.176
   30X2IT    C2  953   0.379   0.472   1.054
   30X2IT    H2  954   0.424   0.458   0.956
   30X2IT    N1  955   0.313   0.600   1.087
   30X2IT   H14  956   0.303   0.656   1.002
   30X2IT    C1  957   0.232   0.477   1.072
   30X2IT    H1  958   0.162   0.467   0.990
   30X2IT   C11  959   0.198   0.411   1.204
   30X2IT    O3  960   0.152   0.282   1.167
   30X2IT   C15  961   0.149   0.182   1.270
   31X2IT   H18  962   2.325   3.748   0.858
   31X2IT    N4  963   2.348   3.832   0.908
   31X2IT   H17  964   2.290   3.856   0.987
   31X2IT   C14  965   2.480   3.867   0.909
   31X2IT    O5  966   2.565   3.824   0.834
   31X2IT    O4  967   2.502   3.963   1.004
   31X2IT   C13  968   2.636   4.015   1.013
   31X2IT   C10  969   2.659   4.126   0.909
   31X2IT    C9  970   2.797   4.189   0.919
   31X2IT    C4  971   2.786   4.325   0.942
   31X2IT    C5  972   2.904   4.416   0.957
   31X2IT    O1  973   2.885   4.538   0.973
   31X2IT    C6  974   3.034   4.355   0.952
   31X2IT   C12  975   3.158   4.442   0.967
   31X2IT    C7  976   3.045   4.220   0.928
   31X2IT    C8  977   2.924   4.127   0.912
   31X2IT    O2  978   2.946   4.006   0.896
   31X2IT    N3  979   3.162   4.154   0.920
   31X2IT   H15  980   3.251   4.199   0.930
   31X2IT   H16  981   3.158   4.053   0.904
   31X2IT    N2  982   2.657   4.367   0.940
   31X2IT    C3  983   2.596   4.476   1.018
   31X2IT    C2  984   2.489   4.402   1.097
   31X2IT    H2  985   2.405   4.458   1.138
   31X2IT    N1  986   2.542   4.285   1.169
   31X2IT   H14  987   2.479   4.261   1.246
   31X2IT    C1  988   2.471   4.266   1.041
   31X2IT    H1  989   2.375   4.215   1.038
   31X2IT   C11  990   2.564   4.251   0.922
   31X2IT    O3  991   2.480   4.268   0.810
   31X2IT   C15  992   2.543   4.298   0.684
   32X2IT   H18  993   4.101   0.909   3.923
   32X2IT    N4  994   4.183   0.948   3.966
   32X2IT   H17  995   4.171   0.990   4.057
   32X2IT   C14  996   4.303   0.890   3.934
   32X2IT    O5  997   4.322   0.816   3.840
   32X2IT    O4  998   4.399   0.932   4.021
   32X2IT   C13  999   4.533   0.884   3.996
   32X2IT   C10 1000   4.604   0.970   3.890
   32X2IT    C9 1001   4.747   0.927   3.865
   32X2IT    C4 1002   4.833   1.033   3.889
   32X2IT    C5 1003   4.983   1.024   3.875
   32X2IT    O1 1004   5.052   1.124   3.896
   32X2IT    C6 1005   5.036   0.895   3.837
   32X2IT   C12 1006   5.186   0.879   3.821
   32X2IT    C7 1007   4.950   0.790   3.812
   32X2IT    C8 1008   4.798   0.801   3.826
   32X2IT    O2 1009   4.730   0.699   3.805
   32X2IT    N3 1010   4.990   0.668   3.774
   32X2IT   H15 1011   5.087   0.643   3.762
   32X2IT   H16 1012   4.917   0.598   3.759
   32X2IT    N2 1013   4.767   1.147   3.920
   32X2IT    C3 1014   4.809   1.255   4.011
   32X2IT    C2 1015   4.697   1.255   4.114
   32X2IT    H2 1016   4.681   1.344   4.176
   32X2IT    N1 1017   4.672   1.121   4.171
   32X2IT   H14 1018   4.624   1.130   4.261
   32X2IT    C1 1019   4.584   1.173   4.065
   32X2IT    H1 1020   4.480   1.197   4.086
   32X2IT   C11 1021   4.620   1.123   3.926
   32X2IT    O3 1022   4.548   1.208   3.839
   32X2IT   C15 1023   4.591   1.211   3.702
   33X2IT   H18 1024   4.613   2.826   3.196
   33X2IT    N4 1025   4.579   2.765   3.124
   33X2IT   H17 1026   4.533   2.680   3.153
   33X2IT   C14 1027   4.540   2.824   3.007
   33X2IT    O5 1028   4.568   2.938   2.973
   33X2IT    O4 1029   4.469   2.736   2.931
   33X2IT   C13 1030   4.426   2.783   2.802
   33X2IT   C10 1031   4.538   2.767   2.697
   33X2IT    C9 1032   4.496   2.809   2.558
   33X2IT    C4 1033   4.511   2.704   2.470
   33X2IT    C5 1034   4.477   2.711   2.324
   33X2IT    O1 1035   4.498   2.613   2.251
   33X2IT    C6 1036   4.423   2.836   2.277
   33X2IT   C12 1037   4.386   2.850   2.130
   33X2IT    C7 1038   4.408   2.942   2.365
   33X2IT    C8 1039   4.444   2.933   2.513
   33X2IT    O2 1040   4.422   3.033   2.584
   33X2IT    N3 1041   4.360   3.062   2.330
   33X2IT   H15 1042   4.330   3.084   2.236
   33X2IT   H16 1043   4.352   3.132   2.404
   33X2IT    N2 1044   4.568   2.596   2.529
   33X2IT    C3 1045   4.544   2.453   2.499
   33X2IT    C2 1046   4.493   2.401   2.633
   33X2IT    H2 1047   4.497   2.294   2.654
   33X2IT    N1 1048   4.381   2.482   2.686
   33X2IT   H14 1049   4.328   2.426   2.754
   33X2IT    C1 1050   4.517   2.503   2.739
   33X2IT    H1 1051   4.542   2.477   2.841
   33X2IT   C11 1052   4.589   2.620   2.674
   33X2IT    O3 1053   4.725   2.602   2.712
   33X2IT   C15 1054   4.823   2.674   2.637
   34X2IT   H18 1055   1.489  -0.334   4.345
   34X2IT    N4 1056   1.509  -0.250   4.295
   34X2IT   H17 1057   1.590  -0.197   4.326
   34X2IT   C14 1058   1.474  -0.247   4.163
   34X2IT    O5 1059   1.396  -0.324   4.109
   34X2IT    O4 1060   1.534  -0.141   4.101
   34X2IT   C13 1061   1.500  -0.121   3.962
   34X2IT   C10 1062   1.368  -0.043   3.947
   34X2IT    C9 1063   1.333  -0.015   3.803
   34X2IT    C4 1064   1.321   0.122   3.783
   34X2IT    C5 1065   1.287   0.184   3.651
   34X2IT    O1 1066   1.274   0.307   3.643
   34X2IT    C6 1067   1.270   0.095   3.539
   34X2IT   C12 1068   1.237   0.151   3.403
   34X2IT    C7 1069   1.282  -0.042   3.559
   34X2IT    C8 1070   1.315  -0.104   3.695
   34X2IT    O2 1071   1.328  -0.228   3.700
   34X2IT    N3 1072   1.266  -0.133   3.462
   34X2IT   H15 1073   1.246  -0.109   3.367
   34X2IT   H16 1074   1.279  -0.231   3.488
   34X2IT    N2 1075   1.334   0.192   3.899
   34X2IT    C3 1076   1.392   0.326   3.917
   34X2IT    C2 1077   1.508   0.298   4.012
   34X2IT    H2 1078   1.550   0.380   4.070
   34X2IT    N1 1079   1.596   0.190   3.963
   34X2IT   H14 1080   1.688   0.198   4.008
   34X2IT    C1 1081   1.495   0.161   4.067
   34X2IT    H1 1082   1.526   0.135   4.167
   34X2IT   C11 1083   1.367   0.100   4.012
   34X2IT    O3 1084   1.275   0.112   4.118
   34X2IT   C15 1085   1.136   0.099   4.085
   35X2IT   H18 1086   1.535   2.415   3.138
   35X2IT    N4 1087   1.462   2.433   3.203
   35X2IT   H17 1088   1.482   2.498   3.278
   35X2IT   C14 1089   1.334   2.425   3.155
   35X2IT    O5 1090   1.302   2.372   3.050
   35X2IT    O4 1091   1.247   2.482   3.243
   35X2IT   C13 1092   1.107   2.475   3.208
   35X2IT   C10 1093   1.046   2.339   3.249
   35X2IT    C9 1094   0.898   2.330   3.220
   35X2IT    C4 1095   0.828   2.303   3.337
   35X2IT    C5 1096   0.679   2.289   3.344
   35X2IT    O1 1097   0.625   2.261   3.452
   35X2IT    C6 1098   0.607   2.308   3.220
   35X2IT   C12 1099   0.456   2.295   3.220
   35X2IT    C7 1100   0.676   2.333   3.104
   35X2IT    C8 1101   0.829   2.347   3.098
   35X2IT    O2 1102   0.880   2.375   2.988
   35X2IT    N3 1103   0.618   2.350   2.984
   35X2IT   H15 1104   0.518   2.347   2.970
   35X2IT   H16 1105   0.679   2.371   2.904
   35X2IT    N2 1106   0.911   2.284   3.442
   35X2IT    C3 1107   0.887   2.318   3.584
   35X2IT    C2 1108   1.001   2.415   3.613
   35X2IT    H2 1109   1.031   2.433   3.716
   35X2IT    N1 1110   1.008   2.525   3.514
   35X2IT   H14 1111   1.059   2.604   3.555
   35X2IT    C1 1112   1.100   2.410   3.503
   35X2IT    H1 1113   1.206   2.423   3.518
   35X2IT   C11 1114   1.053   2.306   3.403
   35X2IT    O3 1115   1.134   2.193   3.431
   35X2IT   C15 1116   1.089   2.066   3.380
   36X2IT   H18 1117   3.423   0.593   4.278
   36X2IT    N4 1118   3.373   0.660   4.222
   36X2IT   H17 1119   3.325   0.734   4.270
   36X2IT   C14 1120   3.424   0.685   4.097
   36X2IT    O5 1121   3.505   0.614   4.039
   36X2IT    O4 1122   3.367   0.798   4.045
   36X2IT   C13 1123   3.407   0.832   3.911
   36X2IT   C10 1124   3.325   0.754   3.806
   36X2IT    C9 1125   3.359   0.793   3.664
   36X2IT    C4 1126   3.245   0.837   3.599
   36X2IT    C5 1127   3.244   0.884   3.456
   36X2IT    O1 1128   3.136   0.919   3.404
   36X2IT    C6 1129   3.370   0.884   3.387
   36X2IT   C12 1130   3.376   0.931   3.243
   36X2IT    C7 1131   3.483   0.839   3.452
   36X2IT    C8 1132   3.483   0.790   3.597
   36X2IT    O2 1133   3.592   0.756   3.647
   36X2IT    N3 1134   3.605   0.833   3.395
   36X2IT   H15 1135   3.623   0.863   3.301
   36X2IT   H16 1136   3.682   0.799   3.453
   36X2IT    N2 1137   3.134   0.826   3.676
   36X2IT    C3 1138   3.016   0.914   3.678
   36X2IT    C2 1139   3.015   0.964   3.821
   36X2IT    H2 1140   2.923   1.004   3.864
   36X2IT    N1 1141   3.146   1.021   3.862
   36X2IT   H14 1142   3.132   1.083   3.942
   36X2IT    C1 1143   3.110   0.883   3.902
   36X2IT    H1 1144   3.093   0.859   4.006
   36X2IT   C11 1145   3.169   0.777   3.812
   36X2IT    O3 1146   3.098   0.659   3.846
   36X2IT   C15 1147   3.103   0.550   3.752
   37X2IT   H18 1148   0.945   4.101   4.140
   37X2IT    N4 1149   0.873   4.052   4.090
   37X2IT   H17 1150   0.900   3.970   4.038
   37X2IT   C14 1151   0.747   4.059   4.142
   37X2IT    O5 1152   0.710   4.140   4.226
   37X2IT    O4 1153   0.667   3.966   4.084
   37X2IT   C13 1154   0.528   3.966   4.125
   37X2IT   C10 1155   0.447   4.071   4.047
   37X2IT    C9 1156   0.300   4.069   4.082
   37X2IT    C4 1157   0.224   4.047   3.969
   37X2IT    C5 1158   0.074   4.038   3.969
   37X2IT    O1 1159   0.014   4.022   3.861
   37X2IT    C6 1160   0.009   4.052   4.096
   37X2IT   C12 1161  -0.143   4.044   4.103
   37X2IT    C7 1162   0.084   4.076   4.210
   37X2IT    C8 1163   0.237   4.085   4.208
   37X2IT    O2 1164   0.295   4.102   4.317
   37X2IT    N3 1165   0.032   4.092   4.332
   37X2IT   H15 1166  -0.066   4.087   4.351
   37X2IT   H16 1167   0.098   4.107   4.409
   37X2IT    N2 1168   0.300   4.041   3.857
   37X2IT    C3 1169   0.278   3.959   3.736
   37X2IT    C2 1170   0.404   3.874   3.731
   37X2IT    H2 1171   0.434   3.827   3.637
   37X2IT    N1 1172   0.430   3.804   3.859
   37X2IT   H14 1173   0.491   3.724   3.843
   37X2IT    C1 1174   0.504   3.928   3.827
   37X2IT    H1 1175   0.610   3.925   3.808
   37X2IT   C11 1176   0.445   4.052   3.891
   37X2IT    O3 1177   0.507   4.159   3.822
   37X2IT   C15 1178   0.445   4.288   3.831
   38X2IT   H18 1179   3.645   3.609   2.234
   38X2IT    N4 1180   3.647   3.560   2.321
   38X2IT   H17 1181   3.735   3.519   2.349
   38X2IT   C14 1182   3.561   3.603   2.418
   38X2IT    O5 1183   3.465   3.676   2.398
   38X2IT    O4 1184   3.595   3.550   2.538
   38X2IT   C13 1185   3.508   3.582   2.649
   38X2IT   C10 1186   3.385   3.489   2.653
   38X2IT    C9 1187   3.295   3.515   2.771
   38X2IT    C4 1188   3.282   3.401   2.847
   38X2IT    C5 1189   3.199   3.392   2.973
   38X2IT    O1 1190   3.190   3.284   3.032
   38X2IT    C6 1191   3.134   3.514   3.015
   38X2IT   C12 1192   3.050   3.512   3.141
   38X2IT    C7 1193   3.147   3.628   2.939
   38X2IT    C8 1194   3.230   3.635   2.811
   38X2IT    O2 1195   3.238   3.744   2.753
   38X2IT    N3 1196   3.089   3.745   2.970
   38X2IT   H15 1197   3.032   3.759   3.051
   38X2IT   H16 1198   3.106   3.824   2.906
   38X2IT    N2 1199   3.345   3.294   2.791
   38X2IT    C3 1200   3.411   3.182   2.859
   38X2IT    C2 1201   3.554   3.194   2.809
   38X2IT    H2 1202   3.621   3.107   2.815
   38X2IT    N1 1203   3.609   3.330   2.828
   38X2IT   H14 1204   3.712   3.325   2.827
   38X2IT    C1 1205   3.559   3.289   2.695
   38X2IT    H1 1206   3.627   3.277   2.612
   38X2IT   C11 1207   3.417   3.336   2.668
   38X2IT    O3 1208   3.377   3.260   2.555
   38X2IT   C15 1209   3.237   3.253   2.528
   39X2IT   H18 1210   3.406   4.629   3.500
   39X2IT    N4 1211   3.468   4.552   3.518
   39X2IT   H17 1212   3.491   4.493   3.439
   39X2IT   C14 1213   3.560   4.569   3.617
   39X2IT    O5 1214   3.556   4.656   3.702
   39X2IT    O4 1215   3.656   4.472   3.609
   39X2IT   C13 1216   3.757   4.473   3.712
   39X2IT   C10 1217   3.709   4.402   3.839
   39X2IT    C9 1218   3.814   4.396   3.947
   39X2IT    C4 1219   3.839   4.264   3.982
   39X2IT    C5 1220   3.939   4.222   4.086
   39X2IT    O1 1221   3.952   4.102   4.113
   39X2IT    C6 1222   4.014   4.328   4.149
   39X2IT   C12 1223   4.117   4.292   4.254
   39X2IT    C7 1224   3.989   4.459   4.115
   39X2IT    C8 1225   3.886   4.501   4.009
   39X2IT    O2 1226   3.875   4.621   3.984
   39X2IT    N3 1227   4.053   4.564   4.169
   39X2IT   H15 1228   4.125   4.555   4.239
   39X2IT   H16 1229   4.027   4.657   4.135
   39X2IT    N2 1230   3.756   4.178   3.917
   39X2IT    C3 1231   3.786   4.041   3.872
   39X2IT    C2 1232   3.765   4.051   3.722
   39X2IT    H2 1233   3.746   3.960   3.664
   39X2IT    N1 1234   3.841   4.162   3.662
   39X2IT   H14 1235   3.853   4.146   3.561
   39X2IT    C1 1236   3.697   4.179   3.690
   39X2IT    H1 1237   3.625   4.189   3.609
   39X2IT   C11 1238   3.669   4.251   3.821
   39X2IT    O3 1239   3.532   4.226   3.845
   39X2IT   C15 1240   3.484   4.248   3.979
   40X2IT   H18 1241   3.792   0.663   2.844
   40X2IT    N4 1242   3.814   0.735   2.777
   40X2IT   H17 1243   3.867   0.814   2.810
   40X2IT   C14 1244   3.828   0.694   2.647
   40X2IT    O5 1245   3.790   0.587   2.602
   40X2IT    O4 1246   3.887   0.793   2.574
   40X2IT   C13 1247   3.903   0.767   2.433
   40X2IT   C10 1248   3.774   0.799   2.355
   40X2IT    C9 1249   3.788   0.780   2.206
   40X2IT    C4 1250   3.760   0.898   2.140
   40X2IT    C5 1251   3.766   0.913   1.990
   40X2IT    O1 1252   3.735   1.022   1.939
   40X2IT    C6 1253   3.807   0.797   1.915
   40X2IT   C12 1254   3.815   0.806   1.764
   40X2IT    C7 1255   3.834   0.679   1.981
   40X2IT    C8 1256   3.827   0.664   2.134
   40X2IT    O2 1257   3.858   0.555   2.183
   40X2IT    N3 1258   3.871   0.566   1.920
   40X2IT   H15 1259   3.882   0.558   1.820
   40X2IT   H16 1260   3.890   0.485   1.979
   40X2IT    N2 1261   3.719   0.996   2.224
   40X2IT    C3 1262   3.742   1.141   2.213
   40X2IT    C2 1263   3.819   1.171   2.341
   40X2IT    H2 1264   3.822   1.273   2.379
   40X2IT    N1 1265   3.936   1.083   2.359
   40X2IT   H14 1266   4.002   1.126   2.423
   40X2IT    C1 1267   3.811   1.054   2.432
   40X2IT    H1 1268   3.807   1.064   2.540
   40X2IT   C11 1269   3.725   0.948   2.366
   40X2IT    O3 1270   3.599   0.961   2.430
   40X2IT   C15 1271   3.486   0.902   2.365
   41X2IT   H18 1272   4.526   2.899   0.138
   41X2IT    N4 1273   4.540   2.803   0.166
   41X2IT   H17 1274   4.560   2.736   0.094
   41X2IT   C14 1275   4.592   2.784   0.291
   41X2IT    O5 1276   4.597   2.869   0.379
   41X2IT    O4 1277   4.633   2.655   0.305
   41X2IT   C13 1278   4.684   2.618   0.435
   41X2IT   C10 1279   4.571   2.582   0.532
   41X2IT    C9 1280   4.620   2.536   0.667
   41X2IT    C4 1281   4.573   2.409   0.695
   41X2IT    C5 1282   4.605   2.333   0.820
   41X2IT    O1 1283   4.555   2.221   0.838
   41X2IT    C6 1284   4.692   2.399   0.915
   41X2IT   C12 1285   4.728   2.328   1.044
   41X2IT    C7 1286   4.738   2.526   0.888
   41X2IT    C8 1287   4.705   2.602   0.759
   41X2IT    O2 1288   4.756   2.715   0.743
   41X2IT    N3 1289   4.819   2.596   0.970
   41X2IT   H15 1290   4.852   2.560   1.058
   41X2IT   H16 1291   4.848   2.689   0.939
   41X2IT    N2 1292   4.489   2.364   0.598
   41X2IT    C3 1293   4.471   2.225   0.552
   41X2IT    C2 1294   4.507   2.235   0.405
   41X2IT    H2 1295   4.473   2.159   0.335
   41X2IT    N1 1296   4.639   2.299   0.384
   41X2IT   H14 1297   4.675   2.273   0.291
   41X2IT    C1 1298   4.515   2.378   0.365
   41X2IT    H1 1299   4.487   2.414   0.267
   41X2IT   C11 1300   4.479   2.462   0.487
   41X2IT    O3 1301   4.345   2.501   0.463
   41X2IT   C15 1302   4.269   2.548   0.575
   42X2IT   H18 1303   3.668   1.359   3.183
   42X2IT    N4 1304   3.627   1.353   3.274
   42X2IT   H17 1305   3.599   1.262   3.307
   42X2IT   C14 1306   3.670   1.446   3.365
   42X2IT    O5 1307   3.729   1.549   3.338
   42X2IT    O4 1308   3.631   1.409   3.491
   42X2IT   C13 1309   3.664   1.502   3.597
   42X2IT   C10 1310   3.559   1.614   3.607
   42X2IT    C9 1311   3.585   1.709   3.722
   42X2IT    C4 1312   3.477   1.712   3.808
   42X2IT    C5 1313   3.470   1.796   3.932
   42X2IT    O1 1314   3.368   1.795   4.001
   42X2IT    C6 1315   3.587   1.874   3.963
   42X2IT   C12 1316   3.588   1.961   4.087
   42X2IT    C7 1317   3.695   1.872   3.876
   42X2IT    C8 1318   3.700   1.787   3.749
   42X2IT    O2 1319   3.804   1.790   3.681
   42X2IT    N3 1320   3.808   1.944   3.895
   42X2IT   H15 1321   3.822   2.003   3.975
   42X2IT   H16 1322   3.882   1.933   3.826
   42X2IT    N2 1323   3.374   1.636   3.762
   42X2IT    C3 1324   3.275   1.560   3.841
   42X2IT    C2 1325   3.298   1.418   3.792
   42X2IT    H2 1326   3.220   1.343   3.806
   42X2IT    N1 1327   3.441   1.378   3.799
   42X2IT   H14 1328   3.447   1.276   3.800
   42X2IT    C1 1329   3.383   1.420   3.670
   42X2IT    H1 1330   3.371   1.350   3.589
   42X2IT   C11 1331   3.411   1.566   3.636
   42X2IT    O3 1332   3.322   1.595   3.531
   42X2IT   C15 1333   3.297   1.733   3.502
   43X2IT   H18 1334   3.899   3.823   2.409
   43X2IT    N4 1335   3.938   3.863   2.326
   43X2IT   H17 1336   3.891   3.843   2.239
   43X2IT   C14 1337   4.002   3.983   2.340
   43X2IT    O5 1338   4.040   4.030   2.446
   43X2IT    O4 1339   4.023   4.039   2.217
   43X2IT   C13 1340   4.096   4.164   2.216
   43X2IT   C10 1341   4.248   4.139   2.220
   43X2IT    C9 1342   4.329   4.267   2.212
   43X2IT    C4 1343   4.414   4.262   2.102
   43X2IT    C5 1344   4.507   4.374   2.065
   43X2IT    O1 1345   4.583   4.360   1.967
   43X2IT    C6 1346   4.504   4.492   2.148
   43X2IT   C12 1347   4.596   4.608   2.115
   43X2IT    C7 1348   4.420   4.495   2.258
   43X2IT    C8 1349   4.325   4.381   2.295
   43X2IT    O2 1350   4.251   4.397   2.393
   43X2IT    N3 1351   4.411   4.600   2.341
   43X2IT   H15 1352   4.465   4.684   2.330
   43X2IT   H16 1353   4.344   4.592   2.419
   43X2IT    N2 1354   4.408   4.143   2.038
   43X2IT    C3 1355   4.424   4.117   1.894
   43X2IT    C2 1356   4.291   4.054   1.857
   43X2IT    H2 1357   4.283   3.994   1.767
   43X2IT    N1 1358   4.176   4.136   1.901
   43X2IT   H14 1359   4.093   4.111   1.847
   43X2IT    C1 1360   4.217   4.019   1.981
   43X2IT    H1 1361   4.153   3.932   1.989
   43X2IT   C11 1362   4.305   4.055   2.100
   43X2IT    O3 1363   4.360   3.931   2.141
   43X2IT   C15 1364   4.476   3.935   2.225
   44X2IT   H18 1365   4.114   0.983   0.442
   44X2IT    N4 1366   4.139   0.990   0.539
   44X2IT   H17 1367   4.234   1.020   0.560
   44X2IT   C14 1368   4.039   1.022   0.625
   44X2IT    O5 1369   3.920   1.015   0.601
   44X2IT    O4 1370   4.091   1.059   0.746
   44X2IT   C13 1371   3.996   1.089   0.850
   44X2IT   C10 1372   3.948   0.961   0.921
   44X2IT    C9 1373   3.853   0.988   1.035
   44X2IT    C4 1374   3.903   0.935   1.153
   44X2IT    C5 1375   3.834   0.946   1.286
   44X2IT    O1 1376   3.885   0.892   1.385
   44X2IT    C6 1377   3.710   1.019   1.288
   44X2IT   C12 1378   3.635   1.033   1.419
   44X2IT    C7 1379   3.659   1.071   1.171
   44X2IT    C8 1380   3.730   1.059   1.035
   44X2IT    O2 1381   3.677   1.113   0.937
   44X2IT    N3 1382   3.543   1.138   1.163
   44X2IT   H15 1383   3.485   1.157   1.242
   44X2IT   H16 1384   3.516   1.174   1.071
   44X2IT    N2 1385   4.018   0.866   1.132
   44X2IT    C3 1386   4.133   0.853   1.223
   44X2IT    C2 1387   4.247   0.912   1.141
   44X2IT    H2 1388   4.350   0.887   1.166
   44X2IT    N1 1389   4.214   1.046   1.089
   44X2IT   H14 1390   4.301   1.096   1.066
   44X2IT    C1 1391   4.202   0.928   1.000
   44X2IT    H1 1392   4.269   0.916   0.916
   44X2IT   C11 1393   4.060   0.875   0.990
   44X2IT    O3 1394   4.076   0.747   0.931
   44X2IT   C15 1395   3.966   0.656   0.943
   45X2IT   H18 1396   2.411   2.018   2.327
   45X2IT    N4 1397   2.318   2.024   2.290
   45X2IT   H17 1398   2.242   2.028   2.357
   45X2IT   C14 1399   2.303   2.086   2.170
   45X2IT    O5 1400   2.394   2.111   2.092
   45X2IT    O4 1401   2.171   2.114   2.147
   45X2IT   C13 1402   2.140   2.174   2.020
   45X2IT   C10 1403   2.128   2.069   1.908
   45X2IT    C9 1404   2.089   2.127   1.775
   45X2IT    C4 1405   1.971   2.069   1.730
   45X2IT    C5 1406   1.904   2.106   1.601
   45X2IT    O1 1407   1.801   2.045   1.566
   45X2IT    C6 1408   1.966   2.210   1.523
   45X2IT   C12 1409   1.904   2.251   1.391
   45X2IT    C7 1410   2.084   2.267   1.567
   45X2IT    C8 1411   2.152   2.229   1.699
   45X2IT    O2 1412   2.255   2.290   1.731
   45X2IT    N3 1413   2.150   2.363   1.501
   45X2IT   H15 1414   2.118   2.402   1.413
   45X2IT   H16 1415   2.235   2.400   1.544
   45X2IT    N2 1416   1.929   1.970   1.812
   45X2IT    C3 1417   1.790   1.931   1.842
   45X2IT    C2 1418   1.782   1.952   1.992
   45X2IT    H2 1419   1.704   1.901   2.050
   45X2IT    N1 1420   1.827   2.087   2.033
   45X2IT   H14 1421   1.788   2.110   2.125
   45X2IT    C1 1422   1.918   1.972   2.047
   45X2IT    H1 1423   1.949   1.937   2.145
   45X2IT   C11 1424   2.017   1.959   1.932
   45X2IT    O3 1425   2.070   1.829   1.946
   45X2IT   C15 1426   2.136   1.772   1.833
   46X2IT   H18 1427   4.634   3.986   3.782
   46X2IT    N4 1428   4.649   4.081   3.752
   46X2IT   H17 1429   4.659   4.151   3.824
   46X2IT   C14 1430   4.715   4.097   3.633
   46X2IT    O5 1431   4.731   4.010   3.550
   46X2IT    O4 1432   4.756   4.227   3.620
   46X2IT   C13 1433   4.821   4.260   3.496
   46X2IT   C10 1434   4.719   4.291   3.385
   46X2IT    C9 1435   4.784   4.333   3.255
   46X2IT    C4 1436   4.739   4.458   3.217
   46X2IT    C5 1437   4.784   4.530   3.094
   46X2IT    O1 1438   4.735   4.641   3.066
   46X2IT    C6 1439   4.882   4.463   3.013
   46X2IT   C12 1440   4.932   4.530   2.886
   46X2IT    C7 1441   4.927   4.338   3.049
   46X2IT    C8 1442   4.880   4.265   3.176
   46X2IT    O2 1443   4.930   4.155   3.201
   46X2IT    N3 1444   5.017   4.267   2.980
   46X2IT   H15 1445   5.060   4.301   2.895
   46X2IT   H16 1446   5.044   4.176   3.017
   46X2IT    N2 1447   4.643   4.505   3.302
   46X2IT    C3 1448   4.617   4.645   3.340
   46X2IT    C2 1449   4.636   4.640   3.491
   46X2IT    H2 1450   4.592   4.718   3.554
   46X2IT    N1 1451   4.765   4.579   3.530
   46X2IT   H14 1452   4.790   4.609   3.625
   46X2IT    C1 1453   4.642   4.499   3.536
   46X2IT    H1 1454   4.602   4.465   3.631
   46X2IT   C11 1455   4.621   4.410   3.414
   46X2IT    O3 1456   4.486   4.369   3.424
   46X2IT   C15 1457   4.425   4.317   3.305
   47X2IT   H18 1458   0.130   2.886   0.870
   47X2IT    N4 1459   0.197   2.918   0.803
   47X2IT   H17 1460   0.294   2.905   0.824
   47X2IT   C14 1461   0.156   2.917   0.672
   47X2IT    O5 1462   0.041   2.906   0.634
   47X2IT    O4 1463   0.264   2.934   0.590
   47X2IT   C13 1464   0.236   2.941   0.449
   47X2IT   C10 1465   0.194   3.083   0.407
   47X2IT    C9 1466   0.171   3.096   0.258
   47X2IT    C4 1467   0.253   3.194   0.205
   47X2IT    C5 1468   0.256   3.232   0.060
   47X2IT    O1 1469   0.330   3.323   0.022
   47X2IT    C6 1470   0.168   3.158  -0.027
   47X2IT   C12 1471   0.165   3.191  -0.175
   47X2IT    C7 1472   0.084   3.061   0.026
   47X2IT    C8 1473   0.082   3.024   0.174
   47X2IT    O2 1474   0.007   2.932   0.210
   47X2IT    N3 1475  -0.002   2.989  -0.047
   47X2IT   H15 1476  -0.012   2.999  -0.147
   47X2IT   H16 1477  -0.058   2.919   0.002
   47X2IT    N2 1478   0.326   3.257   0.301
   47X2IT    C3 1479   0.462   3.312   0.290
   47X2IT    C2 1480   0.538   3.232   0.395
   47X2IT    H2 1481   0.632   3.271   0.435
   47X2IT    N1 1482   0.520   3.086   0.380
   47X2IT   H14 1483   0.596   3.037   0.427
   47X2IT    C1 1484   0.441   3.159   0.481
   47X2IT    H1 1485   0.457   3.142   0.587
   47X2IT   C11 1486   0.301   3.195   0.435
   47X2IT    O3 1487   0.257   3.291   0.529
   47X2IT   C15 1488   0.145   3.373   0.492
   48X2IT   H18 1489   2.410   4.269   3.828
   48X2IT    N4 1490   2.452   4.284   3.918
   48X2IT   H17 1491   2.537   4.338   3.920
   48X2IT   C14 1492   2.367   4.289   4.025
   48X2IT    O5 1493   2.252   4.250   4.025
   48X2IT    O4 1494   2.433   4.339   4.134
   48X2IT   C13 1495   2.357   4.344   4.257
   48X2IT   C10 1496   2.360   4.208   4.329
   48X2IT    C9 1497   2.287   4.211   4.462
   48X2IT    C4 1498   2.374   4.174   4.564
   48X2IT    C5 1499   2.334   4.167   4.709
   48X2IT    O1 1500   2.417   4.130   4.793
   48X2IT    C6 1501   2.198   4.205   4.740
   48X2IT   C12 1502   2.152   4.201   4.885
   48X2IT    C7 1503   2.112   4.240   4.638
   48X2IT    C8 1504   2.153   4.246   4.491
   48X2IT    O2 1505   2.069   4.284   4.408
   48X2IT    N3 1506   1.984   4.275   4.658
   48X2IT   H15 1507   1.941   4.278   4.748
   48X2IT   H16 1508   1.929   4.301   4.575
   48X2IT    N2 1509   2.496   4.138   4.517
   48X2IT    C3 1510   2.627   4.156   4.582
   48X2IT    C2 1511   2.701   4.242   4.481
   48X2IT    H2 1512   2.810   4.246   4.483
   48X2IT    N1 1513   2.624   4.363   4.443
   48X2IT   H14 1514   2.688   4.433   4.405
   48X2IT    C1 1515   2.625   4.245   4.353
   48X2IT    H1 1516   2.673   4.250   4.256
   48X2IT   C11 1517   2.503   4.156   4.370
   48X2IT    O3 1518   2.538   4.036   4.303
   48X2IT   C15 1519   2.461   3.919   4.333
   49X2IT   H18 1520   2.693   1.537   0.829
   49X2IT    N4 1521   2.732   1.621   0.867
   49X2IT   H17 1522   2.755   1.695   0.803
   49X2IT   C14 1523   2.693   1.653   0.994
   49X2IT    O5 1524   2.639   1.577   1.073
   49X2IT    O4 1525   2.728   1.782   1.023
   49X2IT   C13 1526   2.698   1.828   1.156
   49X2IT   C10 1527   2.809   1.786   1.255
   49X2IT    C9 1528   2.785   1.838   1.395
   49X2IT    C4 1529   2.892   1.916   1.436
   49X2IT    C5 1530   2.901   1.984   1.570
   49X2IT    O1 1531   3.003   2.048   1.599
   49X2IT    C6 1532   2.788   1.967   1.657
   49X2IT   C12 1533   2.790   2.033   1.794
   49X2IT    C7 1534   2.681   1.889   1.617
   49X2IT    C8 1535   2.674   1.820   1.481
   49X2IT    O2 1536   2.571   1.756   1.454
   49X2IT    N3 1537   2.572   1.867   1.693
   49X2IT   H15 1538   2.560   1.906   1.784
   49X2IT   H16 1539   2.499   1.808   1.652
   49X2IT    N2 1540   2.992   1.917   1.344
   49X2IT    C3 1541   3.085   2.027   1.313
   49X2IT    C2 1542   3.056   2.053   1.166
   49X2IT    H2 1543   3.130   2.105   1.104
   49X2IT    N1 1544   2.912   2.073   1.140
   49X2IT   H14 1545   2.900   2.124   1.051
   49X2IT    C1 1546   2.974   1.942   1.111
   49X2IT    H1 1547   2.983   1.906   1.010
   49X2IT   C11 1548   2.953   1.840   1.222
   49X2IT    O3 1549   3.045   1.737   1.192
   49X2IT   C15 1550   3.078   1.646   1.298
   50X2IT   H18 1551   4.430   2.020   2.230
   50X2IT    N4 1552   4.445   1.953   2.303
   50X2IT   H17 1553   4.470   1.859   2.276
   50X2IT   C14 1554   4.492   2.003   2.422
   50X2IT    O5 1555   4.491   2.120   2.454
   50X2IT    O4 1556   4.537   1.900   2.500
   50X2IT   C13 1557   4.583   1.937   2.632
   50X2IT   C10 1558   4.467   1.950   2.731
   50X2IT    C9 1559   4.512   1.982   2.872
   50X2IT    C4 1560   4.467   1.885   2.960
   50X2IT    C5 1561   4.496   1.885   3.107
   50X2IT    O1 1562   4.448   1.796   3.179
   50X2IT    C6 1563   4.577   1.994   3.157
   50X2IT   C12 1564   4.610   2.000   3.304
   50X2IT    C7 1565   4.621   2.091   3.069
   50X2IT    C8 1566   4.591   2.090   2.919
   50X2IT    O2 1567   4.639   2.181   2.849
   50X2IT    N3 1568   4.695   2.197   3.106
   50X2IT   H15 1569   4.726   2.212   3.201
   50X2IT   H16 1570   4.724   2.262   3.033
   50X2IT    N2 1571   4.388   1.793   2.898
   50X2IT    C3 1572   4.376   1.650   2.929
   50X2IT    C2 1573   4.418   1.585   2.798
   50X2IT    H2 1574   4.389   1.482   2.776
   50X2IT    N1 1575   4.549   1.635   2.750
   50X2IT   H14 1576   4.590   1.568   2.685
   50X2IT    C1 1577   4.424   1.688   2.691
   50X2IT    H1 1578   4.399   1.668   2.588
   50X2IT   C11 1579   4.380   1.820   2.752
   50X2IT    O3 1580   4.246   1.836   2.708
   50X2IT   C15 1581   4.165   1.930   2.779
   51X2IT   H18 1582   1.526   3.668   1.661
   51X2IT    N4 1583   1.516   3.690   1.759
   51X2IT   H17 1584   1.542   3.618   1.825
   51X2IT   C14 1585   1.531   3.821   1.794
   51X2IT    O5 1586   1.527   3.915   1.716
   51X2IT    O4 1587   1.546   3.832   1.929
   51X2IT   C13 1588   1.556   3.966   1.981
   51X2IT   C10 1589   1.417   4.029   2.001
   51X2IT    C9 1590   1.423   4.167   2.062
   51X2IT    C4 1591   1.351   4.170   2.180
   51X2IT    C5 1592   1.337   4.292   2.267
   51X2IT    O1 1593   1.266   4.287   2.369
   51X2IT    C6 1594   1.407   4.410   2.223
   51X2IT   C12 1595   1.398   4.537   2.306
   51X2IT    C7 1596   1.479   4.408   2.105
   51X2IT    C8 1597   1.492   4.283   2.017
   51X2IT    O2 1598   1.562   4.290   1.916
   51X2IT    N3 1599   1.546   4.513   2.056
   51X2IT   H15 1600   1.550   4.602   2.102
   51X2IT   H16 1601   1.597   4.499   1.968
   51X2IT    N2 1602   1.287   4.053   2.204
   51X2IT    C3 1603   1.258   3.991   2.334
   51X2IT    C2 1604   1.332   3.858   2.323
   51X2IT    H2 1605   1.304   3.775   2.388
   51X2IT    N1 1606   1.473   3.875   2.283
   51X2IT   H14 1607   1.526   3.792   2.310
   51X2IT    C1 1608   1.373   3.835   2.182
   51X2IT    H1 1609   1.376   3.737   2.136
   51X2IT   C11 1610   1.321   3.952   2.100
   51X2IT    O3 1611   1.206   3.901   2.035
   51X2IT   C15 1612   1.113   3.996   1.981
   52X2IT   H18 1613   5.024   3.420   2.124
   52X2IT    N4 1614   4.977   3.471   2.196
   52X2IT   H17 1615   4.882   3.501   2.178
   52X2IT   C14 1616   5.014   3.443   2.325
   52X2IT    O5 1617   5.115   3.383   2.357
   52X2IT    O4 1618   4.923   3.495   2.412
   52X2IT   C13 1619   4.952   3.478   2.552
   52X2IT   C10 1620   5.049   3.587   2.603
   52X2IT    C9 1621   5.077   3.577   2.751
   52X2IT    C4 1622   5.042   3.695   2.814
   52X2IT    C5 1623   5.056   3.718   2.962
   52X2IT    O1 1624   5.025   3.828   3.009
   52X2IT    C6 1625   5.107   3.608   3.040
   52X2IT   C12 1626   5.124   3.625   3.190
   52X2IT    C7 1627   5.143   3.491   2.976
   52X2IT    C8 1628   5.129   3.469   2.826
   52X2IT    O2 1629   5.161   3.357   2.780
   52X2IT    N3 1630   5.193   3.384   3.040
   52X2IT   H15 1631   5.208   3.381   3.140
   52X2IT   H16 1632   5.215   3.302   2.983
   52X2IT    N2 1633   5.000   3.789   2.726
   52X2IT    C3 1634   4.898   3.894   2.747
   52X2IT    C2 1635   4.796   3.861   2.639
   52X2IT    H2 1636   4.726   3.938   2.606
   52X2IT    N1 1637   4.753   3.719   2.643
   52X2IT   H14 1638   4.663   3.710   2.596
   52X2IT    C1 1639   4.854   3.763   2.544
   52X2IT    H1 1640   4.831   3.762   2.439
   52X2IT   C11 1641   4.997   3.735   2.588
   52X2IT    O3 1642   5.076   3.812   2.499
   52X2IT   C15 1643   5.212   3.838   2.537
   53X2IT   H18 1644   2.691   3.483   0.715
   53X2IT    N4 1645   2.734   3.497   0.626
   53X2IT   H17 1646   2.690   3.453   0.546
   53X2IT   C14 1647   2.802   3.614   0.608
   53X2IT    O5 1648   2.837   3.689   0.697
   53X2IT    O4 1649   2.828   3.633   0.475
   53X2IT   C13 1650   2.905   3.750   0.442
   53X2IT   C10 1651   3.056   3.725   0.459
   53X2IT    C9 1652   3.141   3.844   0.418
   53X2IT    C4 1653   3.229   3.807   0.318
   53X2IT    C5 1654   3.327   3.901   0.254
   53X2IT    O1 1655   3.406   3.859   0.168
   53X2IT    C6 1656   3.324   4.038   0.300
   53X2IT   C12 1657   3.420   4.138   0.240
   53X2IT    C7 1658   3.237   4.074   0.400
   53X2IT    C8 1659   3.138   3.977   0.465
   53X2IT    O2 1660   3.060   4.022   0.551
   53X2IT    N3 1661   3.228   4.199   0.451
   53X2IT   H15 1662   3.284   4.275   0.418
   53X2IT   H16 1663   3.158   4.215   0.524
   53X2IT    N2 1664   3.223   3.674   0.290
   53X2IT    C3 1665   3.243   3.608   0.160
   53X2IT    C2 1666   3.109   3.539   0.137
   53X2IT    H2 1667   3.103   3.456   0.068
   53X2IT    N1 1668   2.995   3.633   0.152
   53X2IT   H14 1669   2.914   3.594   0.103
   53X2IT    C1 1670   3.030   3.542   0.263
   53X2IT    H1 1671   2.964   3.463   0.293
   53X2IT   C11 1672   3.115   3.609   0.370
   53X2IT    O3 1673   3.165   3.501   0.447
   53X2IT   C15 1674   3.278   3.527   0.531
   54X2IT   H18 1675   3.422   4.429   2.984
   54X2IT    N4 1676   3.496   4.480   2.938
   54X2IT   H17 1677   3.584   4.432   2.925
   54X2IT   C14 1678   3.456   4.573   2.846
   54X2IT    O5 1679   3.343   4.618   2.836
   54X2IT    O4 1680   3.563   4.612   2.770
   54X2IT   C13 1681   3.538   4.715   2.673
   54X2IT   C10 1682   3.544   4.855   2.736
   54X2IT    C9 1683   3.524   4.966   2.636
   54X2IT    C4 1684   3.634   5.051   2.637
   54X2IT    C5 1685   3.647   5.172   2.549
   54X2IT    O1 1686   3.747   5.244   2.559
   54X2IT    C6 1687   3.539   5.196   2.456
   54X2IT   C12 1688   3.547   5.316   2.364
   54X2IT    C7 1689   3.430   5.112   2.456
   54X2IT    C8 1690   3.417   4.990   2.547
   54X2IT    O2 1691   3.316   4.919   2.535
   54X2IT    N3 1692   3.324   5.128   2.375
   54X2IT   H15 1693   3.317   5.202   2.307
   54X2IT   H16 1694   3.249   5.058   2.382
   54X2IT    N2 1695   3.724   5.017   2.733
   54X2IT    C3 1696   3.870   5.031   2.729
   54X2IT    C2 1697   3.917   4.887   2.745
   54X2IT    H2 1698   4.019   4.867   2.778
   54X2IT    N1 1699   3.852   4.796   2.648
   54X2IT   H14 1700   3.909   4.711   2.637
   54X2IT    C1 1701   3.803   4.802   2.787
   54X2IT    H1 1702   3.813   4.718   2.853
   54X2IT   C11 1703   3.681   4.893   2.803
   54X2IT    O3 1704   3.671   4.912   2.943
   54X2IT   C15 1705   3.592   5.022   2.989
   55X2IT   H18 1706   3.151   3.214   3.918
   55X2IT    N4 1707   3.217   3.181   3.986
   55X2IT   H17 1708   3.313   3.170   3.956
   55X2IT   C14 1709   3.192   3.213   4.117
   55X2IT    O5 1710   3.085   3.254   4.160
   55X2IT    O4 1711   3.303   3.190   4.192
   55X2IT   C13 1712   3.290   3.214   4.334
   55X2IT   C10 1713   3.227   3.093   4.406
   55X2IT    C9 1714   3.217   3.112   4.556
   55X2IT    C4 1715   3.285   3.011   4.621
   55X2IT    C5 1716   3.296   2.999   4.770
   55X2IT    O1 1717   3.356   2.903   4.820
   55X2IT    C6 1718   3.233   3.104   4.847
   55X2IT   C12 1719   3.241   3.099   4.998
   55X2IT    C7 1720   3.164   3.205   4.782
   55X2IT    C8 1721   3.153   3.214   4.630
   55X2IT    O2 1722   3.093   3.312   4.582
   55X2IT    N3 1723   3.101   3.305   4.845
   55X2IT   H15 1724   3.100   3.315   4.945
   55X2IT   H16 1725   3.055   3.375   4.787
   55X2IT    N2 1726   3.334   2.918   4.534
   55X2IT    C3 1727   3.458   2.839   4.546
   55X2IT    C2 1728   3.535   2.881   4.422
   55X2IT    H2 1729   3.615   2.818   4.384
   55X2IT    N1 1730   3.546   3.028   4.410
   55X2IT   H14 1731   3.625   3.052   4.349
   55X2IT    C1 1732   3.445   2.956   4.331
   55X2IT    H1 1733   3.453   2.951   4.223
   55X2IT   C11 1734   3.307   2.958   4.393
   55X2IT    O3 1735   3.235   2.858   4.323
   55X2IT   C15 1736   3.115   2.809   4.383
   56X2IT   H18 1737   1.936   3.020   5.068
   56X2IT    N4 1738   1.854   3.039   5.012
   56X2IT   H17 1739   1.856   3.009   4.916
   56X2IT   C14 1740   1.735   3.041   5.079
   56X2IT    O5 1741   1.722   3.050   5.200
   56X2IT    O4 1742   1.632   3.036   4.990
   56X2IT   C13 1743   1.499   3.044   5.046
   56X2IT   C10 1744   1.458   3.190   5.072
   56X2IT    C9 1745   1.316   3.203   5.125
   56X2IT    C4 1746   1.241   3.283   5.040
   56X2IT    C5 1747   1.097   3.316   5.063
   56X2IT    O1 1748   1.038   3.391   4.984
   56X2IT    C6 1749   1.034   3.256   5.178
   56X2IT   C12 1750   0.888   3.285   5.207
   56X2IT    C7 1751   1.109   3.177   5.263
   56X2IT    C8 1752   1.257   3.145   5.239
   56X2IT    O2 1753   1.314   3.069   5.320
   56X2IT    N3 1754   1.061   3.119   5.374
   56X2IT   H15 1755   0.965   3.128   5.403
   56X2IT   H16 1756   1.125   3.061   5.428
   56X2IT    N2 1757   1.316   3.335   4.939
   56X2IT    C3 1758   1.273   3.365   4.802
   56X2IT    C2 1759   1.366   3.276   4.719
   56X2IT    H2 1760   1.383   3.299   4.614
   56X2IT    N1 1761   1.364   3.135   4.764
   56X2IT   H14 1762   1.397   3.075   4.689
   56X2IT    C1 1763   1.475   3.224   4.806
   56X2IT    H1 1764   1.575   3.207   4.771
   56X2IT   C11 1765   1.456   3.283   4.945
   56X2IT    O3 1766   1.551   3.387   4.951
   56X2IT   C15 1767   1.532   3.486   5.054
   57X2IT   H18 1768   1.428   2.289   4.420
   57X2IT    N4 1769   1.373   2.234   4.485
   57X2IT   H17 1770   1.371   2.134   4.470
   57X2IT   C14 1771   1.363   2.282   4.612
   57X2IT    O5 1772   1.389   2.396   4.646
   57X2IT    O4 1773   1.314   2.185   4.695
   57X2IT   C13 1774   1.291   2.224   4.832
   57X2IT   C10 1775   1.154   2.294   4.848
   57X2IT    C9 1776   1.123   2.330   4.992
   57X2IT    C4 1777   1.005   2.270   5.032
   57X2IT    C5 1778   0.946   2.285   5.169
   57X2IT    O1 1779   0.838   2.230   5.194
   57X2IT    C6 1780   1.021   2.364   5.263
   57X2IT   C12 1781   0.967   2.382   5.403
   57X2IT    C7 1782   1.139   2.424   5.223
   57X2IT    C8 1783   1.197   2.409   5.083
   57X2IT    O2 1784   1.306   2.464   5.059
   57X2IT    N3 1785   1.214   2.501   5.303
   57X2IT   H15 1786   1.191   2.520   5.399
   57X2IT   H16 1787   1.300   2.540   5.263
   57X2IT    N2 1788   0.945   2.203   4.930
   57X2IT    C3 1789   0.864   2.080   4.938
   57X2IT    C2 1790   0.943   1.984   4.850
   57X2IT    H2 1791   0.893   1.896   4.808
   57X2IT    N1 1792   1.086   1.977   4.888
   57X2IT   H14 1793   1.126   1.890   4.852
   57X2IT    C1 1794   1.045   2.060   4.773
   57X2IT    H1 1795   1.075   2.033   4.672
   57X2IT   C11 1796   1.029   2.207   4.807
   57X2IT    O3 1797   0.959   2.261   4.696
   57X2IT   C15 1798   0.895   2.388   4.715
   58X2IT   H18 1799   0.165   3.911   4.354
   58X2IT    N4 1800   0.151   3.864   4.441
   58X2IT   H17 1801   0.163   3.763   4.442
   58X2IT   C14 1802   0.181   3.934   4.555
   58X2IT    O5 1803   0.196   4.055   4.560
   58X2IT    O4 1804   0.187   3.850   4.662
   58X2IT   C13 1805   0.212   3.912   4.790
   58X2IT   C10 1806   0.082   3.966   4.852
   58X2IT    C9 1807   0.102   4.025   4.990
   58X2IT    C4 1808   0.022   3.960   5.082
   58X2IT    C5 1809   0.018   3.993   5.228
   58X2IT    O1 1810  -0.059   3.932   5.303
   58X2IT    C6 1811   0.107   4.098   5.272
   58X2IT   C12 1812   0.108   4.137   5.419
   58X2IT    C7 1813   0.186   4.164   5.180
   58X2IT    C8 1814   0.188   4.129   5.031
   58X2IT    O2 1815   0.266   4.192   4.958
   58X2IT    N3 1816   0.270   4.264   5.211
   58X2IT   H15 1817   0.282   4.298   5.305
   58X2IT   H16 1818   0.325   4.305   5.135
   58X2IT    N2 1819  -0.058   3.867   5.023
   58X2IT    C3 1820  -0.105   3.739   5.080
   58X2IT    C2 1821  -0.049   3.638   4.980
   58X2IT    H2 1822  -0.092   3.538   4.974
   58X2IT    N1 1823   0.096   3.657   4.957
   58X2IT   H14 1824   0.136   3.570   4.919
   58X2IT    C1 1825  -0.001   3.710   4.859
   58X2IT    H1 1826  -0.008   3.668   4.759
   58X2IT   C11 1827  -0.030   3.858   4.877
   58X2IT    O3 1828  -0.147   3.880   4.800
   58X2IT   C15 1829  -0.222   3.999   4.826
   59X2IT   H18 1830   4.556   1.213   2.285
   59X2IT    N4 1831   4.580   1.310   2.279
   59X2IT   H17 1832   4.524   1.375   2.332
   59X2IT   C14 1833   4.711   1.339   2.256
   59X2IT    O5 1834   4.795   1.260   2.217
   59X2IT    O4 1835   4.735   1.472   2.281
   59X2IT   C13 1836   4.869   1.518   2.255
   59X2IT   C10 1837   4.889   1.551   2.106
   59X2IT    C9 1838   5.027   1.607   2.076
   59X2IT    C4 1839   5.016   1.732   2.017
   59X2IT    C5 1840   5.133   1.816   1.976
   59X2IT    O1 1841   5.114   1.925   1.921
   59X2IT    C6 1842   5.264   1.761   2.002
   59X2IT   C12 1843   5.387   1.840   1.963
   59X2IT    C7 1844   5.275   1.635   2.059
   59X2IT    C8 1845   5.154   1.551   2.101
   59X2IT    O2 1846   5.176   1.441   2.155
   59X2IT    N3 1847   5.392   1.575   2.086
   59X2IT   H15 1848   5.481   1.618   2.067
   59X2IT   H16 1849   5.388   1.483   2.130
   59X2IT    N2 1850   4.886   1.767   1.995
   59X2IT    C3 1851   4.827   1.901   2.000
   59X2IT    C2 1852   4.722   1.887   2.109
   59X2IT    H2 1853   4.639   1.957   2.114
   59X2IT    N1 1854   4.778   1.830   2.234
   59X2IT   H14 1855   4.716   1.854   2.312
   59X2IT    C1 1856   4.704   1.743   2.141
   59X2IT    H1 1857   4.608   1.700   2.169
   59X2IT   C11 1858   4.794   1.663   2.048
   59X2IT    O3 1859   4.706   1.614   1.948
   59X2IT   C15 1860   4.766   1.568   1.826
   60X2IT   H18 1861   4.011   1.992   4.218
   60X2IT    N4 1862   4.013   1.999   4.318
   60X2IT   H17 1863   4.092   1.959   4.366
   60X2IT   C14 1864   3.951   2.109   4.373
   60X2IT    O5 1865   3.873   2.182   4.315
   60X2IT    O4 1866   3.988   2.122   4.504
   60X2IT   C13 1867   3.925   2.230   4.576
   60X2IT   C10 1868   3.786   2.189   4.629
   60X2IT    C9 1869   3.720   2.297   4.711
   60X2IT    C4 1870   3.691   2.250   4.838
   60X2IT    C5 1871   3.626   2.332   4.945
   60X2IT    O1 1872   3.600   2.279   5.055
   60X2IT    C6 1873   3.596   2.469   4.913
   60X2IT   C12 1874   3.531   2.557   5.017
   60X2IT    C7 1875   3.625   2.516   4.786
   60X2IT    C8 1876   3.690   2.431   4.677
   60X2IT    O2 1877   3.715   2.486   4.568
   60X2IT    N3 1878   3.599   2.642   4.746
   60X2IT   H15 1879   3.558   2.711   4.805
   60X2IT   H16 1880   3.625   2.667   4.650
   60X2IT    N2 1881   3.721   2.118   4.851
   60X2IT    C3 1882   3.768   2.047   4.971
   60X2IT    C2 1883   3.903   1.992   4.925
   60X2IT    H2 1884   3.948   1.908   4.979
   60X2IT    N1 1885   3.989   2.097   4.867
   60X2IT   H14 1886   4.087   2.066   4.870
   60X2IT    C1 1887   3.914   2.006   4.778
   60X2IT    H1 1888   3.966   1.934   4.716
   60X2IT   C11 1889   3.784   2.066   4.726
   60X2IT    O3 1890   3.714   1.955   4.673
   60X2IT   C15 1891   3.573   1.971   4.652
   61X2IT   H18 1892   3.950   3.516   1.574
   61X2IT    N4 1893   3.897   3.432   1.591
   61X2IT   H17 1894   3.806   3.426   1.548
   61X2IT   C14 1895   3.970   3.318   1.610
   61X2IT    O5 1896   4.088   3.314   1.637
   61X2IT    O4 1897   3.888   3.209   1.600
   61X2IT   C13 1898   3.949   3.081   1.626
   61X2IT   C10 1899   3.956   3.050   1.776
   61X2IT    C9 1900   4.014   2.914   1.807
   61X2IT    C4 1901   3.923   2.839   1.879
   61X2IT    C5 1902   3.948   2.698   1.925
   61X2IT    O1 1903   3.863   2.640   1.993
   61X2IT    C6 1904   4.075   2.640   1.887
   61X2IT   C12 1905   4.106   2.498   1.929
   61X2IT    C7 1906   4.166   2.715   1.815
   61X2IT    C8 1907   4.139   2.859   1.770
   61X2IT    O2 1908   4.226   2.915   1.702
   61X2IT    N3 1909   4.286   2.670   1.777
   61X2IT   H15 1910   4.319   2.577   1.796
   61X2IT   H16 1911   4.345   2.734   1.722
   61X2IT    N2 1912   3.812   2.910   1.911
   61X2IT    C3 1913   3.674   2.861   1.925
   61X2IT    C2 1914   3.600   2.942   1.819
   61X2IT    H2 1915   3.492   2.954   1.826
   61X2IT    N1 1916   3.665   2.934   1.686
   61X2IT   H14 1917   3.597   2.959   1.614
   61X2IT    C1 1918   3.687   3.052   1.772
   61X2IT    H1 1919   3.649   3.150   1.743
   61X2IT   C11 1920   3.817   3.046   1.851
   61X2IT    O3 1921   3.804   3.148   1.948
   61X2IT   C15 1922   3.891   3.142   2.061
   62X2IT   H18 1923   1.152   1.383   2.269
   62X2IT    N4 1924   1.193   1.448   2.335
   62X2IT   H17 1925   1.198   1.544   2.307
   62X2IT   C14 1926   1.178   1.417   2.467
   62X2IT    O5 1927   1.146   1.309   2.511
   62X2IT    O4 1928   1.210   1.526   2.543
   62X2IT   C13 1929   1.205   1.507   2.686
   62X2IT   C10 1930   1.336   1.444   2.739
   62X2IT    C9 1931   1.338   1.429   2.889
   62X2IT    C4 1932   1.446   1.496   2.943
   62X2IT    C5 1933   1.477   1.502   3.089
   62X2IT    O1 1934   1.578   1.562   3.128
   62X2IT    C6 1935   1.385   1.435   3.177
   62X2IT   C12 1936   1.410   1.437   3.327
   62X2IT    C7 1937   1.277   1.366   3.124
   62X2IT    C8 1938   1.247   1.360   2.974
   62X2IT    O2 1939   1.146   1.299   2.937
   62X2IT    N3 1940   1.188   1.299   3.198
   62X2IT   H15 1941   1.191   1.294   3.298
   62X2IT   H16 1942   1.111   1.253   3.147
   62X2IT    N2 1943   1.525   1.550   2.846
   62X2IT    C3 1944   1.603   1.675   2.853
   62X2IT    C2 1945   1.543   1.756   2.738
   62X2IT    H2 1946   1.600   1.839   2.695
   62X2IT    N1 1947   1.396   1.765   2.746
   62X2IT   H14 1948   1.363   1.845   2.692
   62X2IT    C1 1949   1.458   1.668   2.654
   62X2IT    H1 1950   1.449   1.680   2.547
   62X2IT   C11 1951   1.467   1.527   2.711
   62X2IT    O3 1952   1.557   1.461   2.625
   62X2IT   C15 1953   1.616   1.339   2.673
   63X2IT   H18 1954   0.364   2.501   4.304
   63X2IT    N4 1955   0.335   2.597   4.300
   63X2IT   H17 1956   0.384   2.663   4.360
   63X2IT   C14 1957   0.285   2.641   4.181
   63X2IT    O5 1958   0.246   2.569   4.090
   63X2IT    O4 1959   0.279   2.777   4.180
   63X2IT   C13 1960   0.221   2.837   4.062
   63X2IT   C10 1961   0.068   2.840   4.070
   63X2IT    C9 1962   0.004   2.909   3.951
   63X2IT    C4 1963  -0.074   3.015   3.994
   63X2IT    C5 1964  -0.151   3.105   3.902
   63X2IT    O1 1965  -0.221   3.195   3.949
   63X2IT    C6 1966  -0.139   3.078   3.760
   63X2IT   C12 1967  -0.213   3.165   3.661
   63X2IT    C7 1968  -0.062   2.971   3.718
   63X2IT    C8 1969   0.016   2.880   3.813
   63X2IT    O2 1970   0.085   2.790   3.764
   63X2IT    N3 1971  -0.046   2.937   3.589
   63X2IT   H15 1972  -0.088   2.988   3.513
   63X2IT   H16 1973   0.015   2.857   3.569
   63X2IT    N2 1974  -0.079   3.024   4.129
   63X2IT    C3 1975  -0.089   3.145   4.212
   63X2IT    C2 1976   0.038   3.138   4.296
   63X2IT    H2 1977   0.044   3.194   4.389
   63X2IT    N1 1978   0.159   3.119   4.213
   63X2IT   H14 1979   0.241   3.149   4.266
   63X2IT    C1 1980   0.099   3.003   4.282
   63X2IT    H1 1981   0.151   2.953   4.362
   63X2IT   C11 1982   0.008   2.920   4.192
   63X2IT    O3 1983  -0.064   2.838   4.282
   63X2IT   C15 1984  -0.183   2.776   4.233
   64SOL     OW 1985   0.569   1.275   1.165
   64SOL    HW1 1986   0.476   1.268   1.128
   64SOL    HW2 1987   0.580   1.364   1.209
   65SOL     OW 1988   1.555   1.511   0.703
   65SOL    HW1 1989   1.498   1.495   0.784
   65SOL    HW2 1990   1.496   1.521   0.623
   66SOL     OW 1991   1.135   0.703   0.717
   66SOL    HW1 1992   1.192   0.781   0.692
   66SOL    HW2 1993   1.075   0.729   0.793
   67SOL     OW 1994   1.755   0.607   0.231
   67SOL    HW1 1995   1.743   0.594   0.132
   67SOL    HW2 1996   1.725   0.526   0.280
   68SOL     OW 1997   0.768   1.144   1.023
   68SOL    HW1 1998   0.690   1.161   1.083
   68SOL    HW2 1999   0.802   1.231   0.987
   69SOL     OW 2000   0.850   0.798   1.823
   69SOL    HW1 2001   0.846   0.874   1.888
   69SOL    HW2 2002   0.872   0.834   1.732
   70SOL     OW 2003   0.685   1.012   0.665
   70SOL    HW1 2004   0.754   0.996   0.735
   70SOL    HW2 2005   0.612   1.069   0.703
   71SOL     OW 2006   0.686   1.161   1.803
   71SOL    HW1 2007   0.746   1.240   1.817
   71SOL    HW2 2008   0.600   1.192   1.762
   72SOL     OW 2009   0.335   1.435   1.061
   72SOL    HW1 2010   0.257   1.404   1.008
   72SOL    HW2 2011   0.393   1.493   1.004
   73SOL     OW 2012   1.460   1.505   1.339
   73SOL    HW1 2013   1.484   1.599   1.365
   73SOL    HW2 2014   1.444   1.451   1.421
   74SOL     OW 2015   1.603   0.447   0.737
   74SOL    HW1 2016   1.529   0.493   0.687
   74SOL    HW2 2017   1.654   0.515   0.790
   75SOL     OW 2018   0.231   1.713   0.483
   75SOL    HW1 2019   0.265   1.790   0.537
   75SOL    HW2 2020   0.275   1.713   0.393
   76SOL     OW 2021   1.127   1.341   1.690
   76SOL    HW1 2022   1.174   1.341   1.778
   76SOL    HW2 2023   1.079   1.254   1.679
   77SOL     OW 2024   0.230   1.434   0.538
   77SOL    HW1 2025   0.204   1.530   0.538
   77SOL    HW2 2026   0.159   1.380   0.583
   78SOL     OW 2027   0.240   1.091   0.886
   78SOL    HW1 2028   0.254   1.007   0.938
   78SOL    HW2 2029   0.185   1.155   0.941
   79SOL     OW 2030   0.606   0.964   0.123
   79SOL    HW1 2031   0.613   1.048   0.069
   79SOL    HW2 2032   0.652   0.977   0.211
   80SOL     OW 2033   1.594   0.114   1.480
   80SOL    HW1 2034   1.576   0.181   1.408
   80SOL    HW2 2035   1.591   0.160   1.569
   81SOL     OW 2036   1.842   1.767   0.359
   81SOL    HW1 2037   1.896   1.738   0.439
   81SOL    HW2 2038   1.872   1.857   0.330
   82SOL     OW 2039   0.027   1.596   0.117
   82SOL    HW1 2040   0.008   1.500   0.138
   82SOL    HW2 2041  -0.006   1.654   0.192
   83SOL     OW 2042   1.689   0.922   0.612
   83SOL    HW1 2043   1.784   0.893   0.620
   83SOL    HW2 2044   1.681   0.987   0.537
   84SOL     OW 2045   1.641   1.108   0.432
   84SOL    HW1 2046   1.727   1.110   0.380
   84SOL    HW2 2047   1.655   1.155   0.520
   85SOL     OW 2048   0.613   1.365   0.726
   85SOL    HW1 2049   0.564   1.278   0.735
   85SOL    HW2 2050   0.590   1.408   0.639
   86SOL     OW 2051   1.293   1.228   1.423
   86SOL    HW1 2052   1.330   1.155   1.365
   86SOL    HW2 2053   1.345   1.233   1.508
   87SOL     OW 2054   0.809   0.004   0.502
   87SOL    HW1 2055   0.849   0.095   0.493
   87SOL    HW2 2056   0.709   0.012   0.508
   88SOL     OW 2057   0.197   0.976   1.264
   88SOL    HW1 2058   0.286   0.931   1.250
   88SOL    HW2 2059   0.124   0.911   1.245
   89SOL     OW 2060   1.525   0.999   0.190
   89SOL    HW1 2061   1.462   0.923   0.203
   89SOL    HW2 2062   1.573   1.017   0.276
   90SOL     OW 2063   1.187   1.792   1.616
   90SOL    HW1 2064   1.211   1.852   1.540
   90SOL    HW2 2065   1.194   1.697   1.586
   91SOL     OW 2066   0.317   0.251   1.801
   91SOL    HW1 2067   0.388   0.322   1.807
   91SOL    HW2 2068   0.229   0.290   1.829
   92SOL     OW 2069   1.466   1.417   0.953
   92SOL    HW1 2070   1.407   1.423   1.033
   92SOL    HW2 2071   1.451   1.329   0.907
   93SOL     OW 2072   1.667   1.714   0.572
   93SOL    HW1 2073   1.626   1.691   0.484
   93SOL    HW2 2074   1.649   1.640   0.637
   94SOL     OW 2075   0.598   0.729   0.270
   94SOL    HW1 2076   0.622   0.798   0.202
   94SOL    HW2 2077   0.520   0.762   0.324
   95SOL     OW 2078   1.281   0.345   0.944
   95SOL    HW1 2079   1.195   0.295   0.931
   95SOL    HW2 2080   1.343   0.291   1.000
   96SOL     OW 2081   1.576   1.662   0.307
   96SOL    HW1 2082   1.665   1.708   0.310
   96SOL    HW2 2083   1.555   1.638   0.212
   97SOL     OW 2084   0.807   0.605   1.465
   97SOL    HW1 2085   0.760   0.602   1.554
   97SOL    HW2 2086   0.756   0.550   1.399
   98SOL     OW 2087   1.394   0.469   1.674
   98SOL    HW1 2088   1.374   0.512   1.762
   98SOL    HW2 2089   1.472   0.407   1.683
   99SOL     OW 2090   0.973   0.890   1.572
   99SOL    HW1 2091   1.019   0.806   1.543
   99SOL    HW2 2092   0.917   0.924   1.497
  100SOL     OW 2093   0.991   0.410   1.242
  100SOL    HW1 2094   0.914   0.444   1.296
  100SOL    HW2 2095   0.957   0.359   1.163
  101SOL     OW 2096   1.041   0.701   0.429
  101SOL    HW1 2097   1.067   0.697   0.525
  101SOL    HW2 2098   0.956   0.650   0.415
  102SOL     OW 2099   0.076   0.811   0.789
  102SOL    HW1 2100   0.175   0.799   0.798
  102SOL    HW2 2101   0.052   0.906   0.810
  103SOL     OW 2102   0.130   1.821   1.571
  103SOL    HW1 2103   0.120   1.806   1.670
  103SOL    HW2 2104   0.044   1.857   1.535
  104SOL     OW 2105   0.865   0.348   0.195
  104SOL    HW1 2106   0.924   0.411   0.146
  104SOL    HW2 2107   0.884   0.254   0.166
  105SOL     OW 2108   1.719   0.585   1.831
  105SOL    HW1 2109   1.693   0.674   1.795
  105SOL    HW2 2110   1.717   0.517   1.758
  106SOL     OW 2111   1.362   1.144   0.545
  106SOL    HW1 2112   1.445   1.115   0.497
  106SOL    HW2 2113   1.313   1.211   0.489
  107SOL     OW 2114   0.550   0.196   0.885
  107SOL    HW1 2115   0.545   0.191   0.985
  107SOL    HW2 2116   0.552   0.292   0.856
  108SOL     OW 2117   1.008   1.456   0.477
  108SOL    HW1 2118   0.962   1.528   0.425
  108SOL    HW2 2119   1.004   1.476   0.575
  109SOL     OW 2120   0.351   1.801   0.853
  109SOL    HW1 2121   0.401   1.715   0.859
  109SOL    HW2 2122   0.416   1.878   0.850
  110SOL     OW 2123   1.795   1.066   0.873
  110SOL    HW1 2124   1.733   1.051   0.797
  110SOL    HW2 2125   1.743   1.077   0.958
  111SOL     OW 2126   1.227   1.550   1.506
  111SOL    HW1 2127   1.233   1.473   1.570
  111SOL    HW2 2128   1.175   1.524   1.426
  112SOL     OW 2129   0.321   0.943   0.242
  112SOL    HW1 2130   0.403   0.982   0.200
  112SOL    HW2 2131   0.294   0.861   0.193
  113SOL     OW 2132   1.458   0.735   0.728
  113SOL    HW1 2133   1.453   0.670   0.803
  113SOL    HW2 2134   1.538   0.794   0.741
  114SOL     OW 2135   0.461   1.266   1.727
  114SOL    HW1 2136   0.411   1.267   1.641
  114SOL    HW2 2137   0.398   1.248   1.803
  115SOL     OW 2138   1.111   1.776   0.237
  115SOL    HW1 2139   1.051   1.714   0.287
  115SOL    HW2 2140   1.142   1.732   0.152
  116SOL     OW 2141   0.202   0.285   1.498
  116SOL    HW1 2142   0.122   0.345   1.485
  116SOL    HW2 2143   0.192   0.236   1.584
  117SOL     OW 2144   1.632   1.377   0.081
  117SOL    HW1 2145   1.600   1.471   0.071
  117SOL    HW2 2146   1.556   1.314   0.069
  118SOL     OW 2147   0.464   1.743   0.323
  118SOL    HW1 2148   0.497   1.782   0.409
  118SOL    HW2 2149   0.540   1.736   0.258
  119SOL     OW 2150   1.400   0.107   0.426
  119SOL    HW1 2151   1.376   0.070   0.336
  119SOL    HW2 2152   1.499   0.123   0.430
  120SOL     OW 2153   0.249   1.785   1.241
  120SOL    HW1 2154   0.306   1.720   1.291
  120SOL    HW2 2155   0.233   1.752   1.148
  121SOL     OW 2156   0.940   1.698   0.904
  121SOL    HW1 2157   1.020   1.641   0.925
  121SOL    HW2 2158   0.891   1.658   0.827
  122SOL     OW 2159   0.382   0.700   0.480
  122SOL    HW1 2160   0.427   0.610   0.477
  122SOL    HW2 2161   0.288   0.689   0.513
  123SOL     OW 2162   1.547   0.222   1.729
  123SOL    HW1 2163   1.542   0.259   1.821
  123SOL    HW2 2164   1.475   0.153   1.717
  124SOL     OW 2165   0.614   0.122   0.117
  124SOL    HW1 2166   0.712   0.100   0.124
  124SOL    HW2 2167   0.583   0.105   0.024
  125SOL     OW 2168   0.781   0.264   1.749
  125SOL    HW1 2169   0.848   0.203   1.792
  125SOL    HW2 2170   0.708   0.283   1.814
  126SOL     OW 2171   0.888   1.514   1.195
  126SOL    HW1 2172   0.865   1.489   1.101
  126SOL    HW2 2173   0.949   1.445   1.234
  127SOL     OW 2174   1.351   0.590   1.433
  127SOL    HW1 2175   1.379   0.547   1.518
  127SOL    HW2 2176   1.376   0.686   1.434
  128SOL     OW 2177   0.803   1.402   0.924
  128SOL    HW1 2178   0.893   1.416   0.882
  128SOL    HW2 2179   0.732   1.404   0.853
  129SOL     OW 2180   0.922   0.503   0.899
  129SOL    HW1 2181   0.897   0.494   0.803
  129SOL    HW2 2182   0.970   0.421   0.930
  130SOL     OW 2183   0.539   0.064   0.512
  130SOL    HW1 2184   0.458   0.065   0.570
  130SOL    HW2 2185   0.542   0.147   0.457
  131SOL     OW 2186   1.434   1.188   0.041
  131SOL    HW1 2187   1.466   1.112   0.098
  131SOL    HW2 2188   1.342   1.215   0.071
  132SOL     OW 2189   0.297   0.035   0.171
  132SOL    HW1 2190   0.346   0.119   0.150
  132SOL    HW2 2191   0.359  -0.030   0.216
  133SOL     OW 2192   0.935   0.236   0.480
  133SOL    HW1 2193   0.887   0.277   0.402
  133SOL    HW2 2194   1.034   0.234   0.461
  134SOL     OW 2195   1.076   0.683   1.464
  134SOL    HW1 2196   0.996   0.622   1.467
  134SOL    HW2 2197   1.157   0.630   1.440
  135SOL     OW 2198   1.227   1.570   0.793
  135SOL    HW1 2199   1.248   1.644   0.728
  135SOL    HW2 2200   1.295   1.570   0.866
  136SOL     OW 2201   0.459   1.152   0.741
  136SOL    HW1 2202   0.388   1.125   0.806
  136SOL    HW2 2203   0.433   1.124   0.648
  137SOL     OW 2204   1.271   1.797   0.591
  137SOL    HW1 2205   1.315   1.861   0.527
  137SOL    HW2 2206   1.221   1.849   0.661
  138SOL     OW 2207   1.032   0.549   0.016
  138SOL    HW1 2208   0.991   0.631  -0.023
  138SOL    HW2 2209   1.096   0.575   0.089
  139SOL     OW 2210   0.561   0.222   1.147
  139SOL    HW1 2211   0.599   0.138   1.184
  139SOL    HW2 2212   0.473   0.241   1.191
  140SOL     OW 2213   0.866   0.454   0.642
  140SOL    HW1 2214   0.834   0.526   0.580
  140SOL    HW2 2215   0.890   0.373   0.589
  141SOL     OW 2216   1.017   0.039   0.753
  141SOL    HW1 2217   0.945   0.044   0.684
  141SOL    HW2 2218   0.993  -0.030   0.822
  142SOL     OW 2219   1.429   1.173   0.867
  142SOL    HW1 2220   1.374   1.089   0.860
  142SOL    HW2 2221   1.455   1.202   0.775
  143SOL     OW 2222   1.466   0.590   0.992
  143SOL    HW1 2223   1.436   0.495   0.999
  143SOL    HW2 2224   1.539   0.606   1.058
  144SOL     OW 2225   1.857   0.833   0.377
  144SOL    HW1 2226   1.899   0.769   0.441
  144SOL    HW2 2227   1.819   0.782   0.299
  145SOL     OW 2228   0.488   1.385   0.174
  145SOL    HW1 2229   0.401   1.370   0.221
  145SOL    HW2 2230   0.471   1.411   0.079
  146SOL     OW 2231   1.664   1.280   0.657
  146SOL    HW1 2232   1.763   1.288   0.671
  146SOL    HW2 2233   1.619   1.364   0.688
  147SOL     OW 2234   1.390   0.575   0.078
  147SOL    HW1 2235   1.336   0.554   0.159
  147SOL    HW2 2236   1.481   0.534   0.087
  148SOL     OW 2237   0.527   0.256   0.328
  148SOL    HW1 2238   0.554   0.197   0.253
  148SOL    HW2 2239   0.527   0.351   0.297
  149SOL     OW 2240   1.754   1.223   1.588
  149SOL    HW1 2241   1.845   1.184   1.575
  149SOL    HW2 2242   1.762   1.319   1.612
  150SOL     OW 2243   1.064   1.347   1.340
  150SOL    HW1 2244   0.984   1.324   1.395
  150SOL    HW2 2245   1.147   1.321   1.389
  151SOL     OW 2246   1.592   1.629   1.625
  151SOL    HW1 2247   1.619   1.663   1.535
  151SOL    HW2 2248   1.671   1.591   1.671
  152SOL     OW 2249   1.111   1.195   1.100
  152SOL    HW1 2250   1.071   1.239   1.181
  152SOL    HW2 2251   1.070   1.232   1.017
  153SOL     OW 2252   1.638   1.099   1.079
  153SOL    HW1 2253   1.643   1.180   1.138
  153SOL    HW2 2254   1.552   1.101   1.028
  154SOL     OW 2255   0.915   0.089   1.402
  154SOL    HW1 2256   0.940   0.069   1.307
  154SOL    HW2 2257   0.987   0.145   1.444
  155SOL     OW 2258   0.980   1.116   1.719
  155SOL    HW1 2259   0.881   1.122   1.729
  155SOL    HW2 2260   1.003   1.036   1.663
  156SOL     OW 2261   0.705   1.050   0.368
  156SOL    HW1 2262   0.691   1.057   0.467
  156SOL    HW2 2263   0.789   0.999   0.350
  157SOL     OW 2264   0.410   0.813   1.251
  157SOL    HW1 2265   0.496   0.825   1.301
  157SOL    HW2 2266   0.368   0.726   1.278
  158SOL     OW 2267   1.274   0.386   1.262
  158SOL    HW1 2268   1.295   0.460   1.326
  158SOL    HW2 2269   1.185   0.403   1.219
  159SOL     OW 2270   0.064   1.564   1.331
  159SOL    HW1 2271   0.018   1.646   1.297
  159SOL    HW2 2272   0.162   1.583   1.340
  160SOL     OW 2273   0.367   1.100   0.501
  160SOL    HW1 2274   0.360   1.183   0.445
  160SOL    HW2 2275   0.371   1.020   0.441
  161SOL     OW 2276   0.566   0.537   0.865
  161SOL    HW1 2277   0.578   0.603   0.791
  161SOL    HW2 2278   0.612   0.571   0.948
  162SOL     OW 2279   1.252   1.348   0.388
  162SOL    HW1 2280   1.302   1.425   0.428
  162SOL    HW2 2281   1.157   1.350   0.420
  163SOL     OW 2282   1.272   1.445   1.142
  163SOL    HW1 2283   1.319   1.458   1.229
  163SOL    HW2 2284   1.206   1.371   1.151
  164SOL     OW 2285   1.582   0.639   0.472
  164SOL    HW1 2286   1.551   0.700   0.545
  164SOL    HW2 2287   1.632   0.691   0.403
  165SOL     OW 2288   0.354   1.510   1.329
  165SOL    HW1 2289   0.333   1.466   1.242
  165SOL    HW2 2290   0.451   1.536   1.332
  166SOL     OW 2291   1.587   0.779   1.670
  166SOL    HW1 2292   1.495   0.817   1.665
  166SOL    HW2 2293   1.647   0.826   1.605
  167SOL     OW 2294   1.013   0.105   1.770
  167SOL    HW1 2295   1.019   0.190   1.718
  167SOL    HW2 2296   1.045   0.029   1.713
  168SOL     OW 2297   0.504   0.050   1.740
  168SOL    HW1 2298   0.462  -0.007   1.670
  168SOL    HW2 2299   0.438   0.119   1.772
  169SOL     OW 2300   0.573   0.870   1.029
  169SOL    HW1 2301   0.617   0.959   1.020
  169SOL    HW2 2302   0.510   0.870   1.106
  170SOL     OW 2303   1.360   0.862   1.045
  170SOL    HW1 2304   1.285   0.862   0.979
  170SOL    HW2 2305   1.397   0.770   1.054
  171SOL     OW 2306   1.209   0.525   0.275
  171SOL    HW1 2307   1.222   0.441   0.329
  171SOL    HW2 2308   1.180   0.599   0.335
  172SOL     OW 2309   0.037   1.310   1.282
  172SOL    HW1 2310   0.090   1.261   1.350
  172SOL    HW2 2311   0.059   1.408   1.287
  173SOL     OW 2312   0.732   0.634   1.064
  173SOL    HW1 2313   0.791   0.608   0.988
  173SOL    HW2 2314   0.704   0.730   1.053
  174SOL     OW 2315   1.728   0.935   1.854
  174SOL    HW1 2316   1.682   0.928   1.765
  174SOL    HW2 2317   1.666   0.979   1.920
  175SOL     OW 2318   0.307   0.063   0.618
  175SOL    HW1 2319   0.296   0.157   0.651
  175SOL    HW2 2320   0.302   0.000   0.695
  176SOL     OW 2321   1.622   0.367   0.374
  176SOL    HW1 2322   1.624   0.291   0.438
  176SOL    HW2 2323   1.574   0.444   0.414
  177SOL     OW 2324   1.023   0.766   0.966
  177SOL    HW1 2325   1.038   0.787   1.062
  177SOL    HW2 2326   0.993   0.671   0.957
  178SOL     OW 2327   0.980   1.573   1.700
  178SOL    HW1 2328   0.960   1.617   1.612
  178SOL    HW2 2329   1.019   1.482   1.684
  179SOL     OW 2330   1.859   1.518   1.605
  179SOL    HW1 2331   1.873   1.545   1.510
  179SOL    HW2 2332   1.942   1.540   1.658
  180SOL     OW 2333   0.350   0.898   1.804
  180SOL    HW1 2334   0.426   0.942   1.852
  180SOL    HW2 2335   0.385   0.851   1.722
  181SOL     OW 2336   1.540   0.274   0.125
  181SOL    HW1 2337   1.479   0.199   0.148
  181SOL    HW2 2338   1.562   0.326   0.208
  182SOL     OW 2339   1.303   0.838   0.042
  182SOL    HW1 2340   1.337   0.745   0.057
  182SOL    HW2 2341   1.321   0.865  -0.053
  183SOL     OW 2342   1.068   1.333   0.849
  183SOL    HW1 2343   1.075   1.249   0.794
  183SOL    HW2 2344   1.130   1.402   0.813
  184SOL     OW 2345   1.138   0.380   1.678
  184SOL    HW1 2346   1.093   0.443   1.742
  184SOL    HW2 2347   1.231   0.411   1.661
  185SOL     OW 2348   1.160   0.207   1.477
  185SOL    HW1 2349   1.160   0.271   1.554
  185SOL    HW2 2350   1.188   0.255   1.394
  186SOL     OW 2351   0.008   1.326   0.200
  186SOL    HW1 2352  -0.085   1.347   0.169
  186SOL    HW2 2353   0.018   1.227   0.213
  187SOL     OW 2354   0.088   1.801   0.927
  187SOL    HW1 2355   0.046   1.715   0.900
  187SOL    HW2 2356   0.182   1.804   0.893
  188SOL     OW 2357   0.504   1.568   0.910
  188SOL    HW1 2358   0.570   1.642   0.919
  188SOL    HW2 2359   0.548   1.489   0.868
  189SOL     OW 2360   1.002   0.796   1.238
  189SOL    HW1 2361   1.043   0.764   1.324
  189SOL    HW2 2362   0.906   0.769   1.235
  190SOL     OW 2363   1.369   0.950   1.660
  190SOL    HW1 2364   1.408   1.039   1.680
  190SOL    HW2 2365   1.379   0.930   1.563
  191SOL     OW 2366   0.815   0.572   0.325
  191SOL    HW1 2367   0.822   0.483   0.279
  191SOL    HW2 2368   0.721   0.606   0.317
  192SOL     OW 2369   1.657   0.604   1.206
  192SOL    HW1 2370   1.619   0.535   1.268
  192SOL    HW2 2371   1.739   0.568   1.162
  193SOL     OW 2372   0.252   1.564   1.744
  193SOL    HW1 2373   0.222   1.621   1.820
  193SOL    HW2 2374   0.245   1.467   1.770
  194SOL     OW 2375   0.671   0.464   1.269
  194SOL    HW1 2376   0.637   0.375   1.239
  194SOL    HW2 2377   0.697   0.518   1.189
  195SOL     OW 2378   0.930   1.678   1.465
  195SOL    HW1 2379   0.906   1.660   1.370
  195SOL    HW2 2380   0.960   1.772   1.475
  196SOL     OW 2381   0.473   0.500   0.191
  196SOL    HW1 2382   0.534   0.580   0.195
  196SOL    HW2 2383   0.378   0.531   0.198
  197SOL     OW 2384   0.159   1.137   1.466
  197SOL    HW1 2385   0.181   1.076   1.542
  197SOL    HW2 2386   0.169   1.088   1.380
  198SOL     OW 2387   1.347   1.059   1.234
  198SOL    HW1 2388   1.371   0.996   1.160
  198SOL    HW2 2389   1.257   1.099   1.216
  199SOL     OW 2390   1.302   0.855   0.309
  199SOL    HW1 2391   1.216   0.824   0.351
  199SOL    HW2 2392   1.298   0.841   0.210
  200SOL     OW 2393   1.759   1.747   1.154
  200SOL    HW1 2394   1.820   1.777   1.081
  200SOL    HW2 2395   1.721   1.658   1.132
  201SOL     OW 2396   1.252   1.731   1.128
  201SOL    HW1 2397   1.336   1.736   1.074
  201SOL    HW2 2398   1.229   1.635   1.146
  202SOL     OW 2399   0.083   1.258   1.022
  202SOL    HW1 2400   0.078   1.257   1.122
  202SOL    HW2 2401   0.000   1.217   0.984
  203SOL     OW 2402   0.903   0.086   0.133
  203SOL    HW1 2403   0.954   0.087   0.047
  203SOL    HW2 2404   0.959   0.044   0.204
  204SOL     OW 2405   1.726   0.135   0.523
  204SOL    HW1 2406   1.799   0.118   0.456
  204SOL    HW2 2407   1.695   0.048   0.561
  205SOL     OW 2408   1.388   1.573   0.477
  205SOL    HW1 2409   1.455   1.585   0.403
  205SOL    HW2 2410   1.348   1.662   0.500
  206SOL     OW 2411   1.280   0.927   0.672
  206SOL    HW1 2412   1.340   0.846   0.674
  206SOL    HW2 2413   1.320   0.996   0.612
  207SOL     OW 2414   0.830   1.273   1.422
  207SOL    HW1 2415   0.825   1.306   1.517
  207SOL    HW2 2416   0.744   1.292   1.376
  208SOL     OW 2417   0.672   1.616   0.154
  208SOL    HW1 2418   0.681   1.626   0.055
  208SOL    HW2 2419   0.632   1.527   0.175
  209SOL     OW 2420   1.650   1.720   1.394
  209SOL    HW1 2421   1.703   1.730   1.310
  209SOL    HW2 2422   1.623   1.810   1.428
  210SOL     OW 2423   1.841   0.175   0.963
  210SOL    HW1 2424   1.880   0.090   0.927
  210SOL    HW2 2425   1.743   0.177   0.944
  211SOL     OW 2426   0.263   0.326   0.720
  211SOL    HW1 2427   0.184   0.377   0.686
  211SOL    HW2 2428   0.254   0.311   0.818
  212SOL     OW 2429   1.194   1.612   0.031
  212SOL    HW1 2430   1.200   1.519   0.068
  212SOL    HW2 2431   1.135   1.612  -0.049
  213SOL     OW 2432   0.822   1.002   1.372
  213SOL    HW1 2433   0.862   1.001   1.280
  213SOL    HW2 2434   0.832   1.094   1.412
  214SOL     OW 2435   0.916   0.910   0.291
  214SOL    HW1 2436   0.979   0.948   0.223
  214SOL    HW2 2437   0.956   0.827   0.330
  215SOL     OW 2438   1.504   1.607   0.044
  215SOL    HW1 2439   1.412   1.644   0.051
  215SOL    HW2 2440   1.542   1.627  -0.046
  216SOL     OW 2441   0.372   1.288   1.490
  216SOL    HW1 2442   0.359   1.381   1.456
  216SOL    HW2 2443   0.288   1.236   1.477
  217SOL     OW 2444   1.614   1.292   1.289
  217SOL    HW1 2445   1.674   1.295   1.369
  217SOL    HW2 2446   1.539   1.356   1.302
  218SOL     OW 2447   1.039   1.098   0.696
  218SOL    HW1 2448   0.969   1.051   0.750
  218SOL    HW2 2449   1.098   1.030   0.653
  219SOL     OW 2450   1.014   0.236   0.971
  219SOL    HW1 2451   1.006   0.200   0.878
  219SOL    HW2 2452   1.012   0.160   1.036
  220SOL     OW 2453   0.590   1.487   0.491
  220SOL    HW1 2454   0.632   1.429   0.421
  220SOL    HW2 2455   0.546   1.566   0.447
  221SOL     OW 2456   1.709   0.385   1.381
  221SOL    HW1 2457   1.782   0.454   1.385
  221SOL    HW2 2458   1.737   0.310   1.322
  222SOL     OW 2459   0.255   1.348   0.290
  222SOL    HW1 2460   0.159   1.349   0.263
  222SOL    HW2 2461   0.267   1.401   0.374
  223SOL     OW 2462   0.105   1.013   1.726
  223SOL    HW1 2463   0.028   0.980   1.780
  223SOL    HW2 2464   0.190   0.983   1.768
  224SOL     OW 2465   0.672   0.203   1.489
  224SOL    HW1 2466   0.762   0.187   1.449
  224SOL    HW2 2467   0.680   0.208   1.588
  225SOL     OW 2468   1.440   0.856   1.398
  225SOL    HW1 2469   1.383   0.908   1.335
  225SOL    HW2 2470   1.536   0.868   1.374
  226SOL     OW 2471   0.072   0.166   0.318
  226SOL    HW1 2472   0.055   0.249   0.264
  226SOL    HW2 2473   0.162   0.129   0.296
  227SOL     OW 2474   1.183   1.335   0.119
  227SOL    HW1 2475   1.084   1.324   0.121
  227SOL    HW2 2476   1.217   1.350   0.212
  228SOL     OW 2477   0.613   0.842   1.431
  228SOL    HW1 2478   0.669   0.923   1.414
  228SOL    HW2 2479   0.672   0.762   1.434
  229SOL     OW 2480   1.493   1.767   0.959
  229SOL    HW1 2481   1.526   1.831   0.890
  229SOL    HW2 2482   1.559   1.761   1.034
  230SOL     OW 2483   0.716   0.565   1.708
  230SOL    HW1 2484   0.735   0.630   1.782
  230SOL    HW2 2485   0.776   0.485   1.717
  231SOL     OW 2486   1.450   1.220   1.633
  231SOL    HW1 2487   1.441   1.210   1.732
  231SOL    HW2 2488   1.546   1.213   1.607
  232SOL     OW 2489   0.390   1.741   1.560
  232SOL    HW1 2490   0.299   1.782   1.558
  232SOL    HW2 2491   0.383   1.647   1.592
  233SOL     OW 2492   1.674   0.883   1.254
  233SOL    HW1 2493   1.647   0.794   1.217
  233SOL    HW2 2494   1.675   0.951   1.181
  234SOL     OW 2495   1.225   0.325   0.449
  234SOL    HW1 2496   1.290   0.251   0.438
  234SOL    HW2 2497   1.245   0.375   0.533
  235SOL     OW 2498   0.594   0.745   0.652
  235SOL    HW1 2499   0.644   0.830   0.633
  235SOL    HW2 2500   0.506   0.747   0.604
  236SOL     OW 2501   1.777   0.342   1.642
  236SOL    HW1 2502   1.760   0.373   1.548
  236SOL    HW2 2503   1.693   0.305   1.680
  237SOL     OW 2504   1.730   0.934   1.517
  237SOL    HW1 2505   1.768   1.025   1.532
  237SOL    HW2 2506   1.722   0.917   1.418
  238SOL     OW 2507   0.859   1.374   0.016
  238SOL    HW1 2508   0.813   1.389   0.104
  238SOL    HW2 2509   0.903   1.459  -0.014
  239SOL     OW 2510   0.661   1.790   0.953
  239SOL    HW1 2511   0.615   1.878   0.940
  239SOL    HW2 2512   0.760   1.802   0.946
  240SOL     OW 2513   0.859   0.956   0.861
  240SOL    HW1 2514   0.913   0.887   0.909
  240SOL    HW2 2515   0.827   1.025   0.927
  241SOL     OW 2516   1.083   0.984   0.087
  241SOL    HW1 2517   1.060   1.037   0.005
  241SOL    HW2 2518   1.164   0.928   0.068
  242SOL     OW 2519   1.861   1.569   0.851
  242SOL    HW1 2520   1.790   1.557   0.781
  242SOL    HW2 2521   1.862   1.490   0.911
  243SOL     OW 2522   0.221   1.314   1.844
  243SOL    HW1 2523   0.156   1.241   1.823
  243SOL    HW2 2524   0.225   1.328   1.942
  244SOL     OW 2525   0.079   1.240   0.653
  244SOL    HW1 2526   0.078   1.193   0.741
  244SOL    HW2 2527   0.161   1.212   0.602
  245SOL     OW 2528   0.672   1.391   1.624
  245SOL    HW1 2529   0.594   1.341   1.662
  245SOL    HW2 2530   0.669   1.486   1.655
  246SOL     OW 2531   1.824   0.192   1.227
  246SOL    HW1 2532   1.820   0.102   1.271
  246SOL    HW2 2533   1.827   0.181   1.128
  247SOL     OW 2534   0.428   0.424   0.520
  247SOL    HW1 2535   0.458   0.352   0.458
  247SOL    HW2 2536   0.389   0.384   0.603
  248SOL     OW 2537   1.705   1.487   1.104
  248SOL    HW1 2538   1.612   1.462   1.077
  248SOL    HW2 2539   1.731   1.437   1.186
  249SOL     OW 2540   0.812   1.586   0.687
  249SOL    HW1 2541   0.844   1.596   0.593
  249SOL    HW2 2542   0.733   1.524   0.689
  250SOL     OW 2543   1.424   0.214   1.112
  250SOL    HW1 2544   1.476   0.149   1.167
  250SOL    HW2 2545   1.375   0.277   1.173
  251SOL     OW 2546   1.001   0.034   1.154
  251SOL    HW1 2547   0.938  -0.038   1.123
  251SOL    HW2 2548   1.094  -0.002   1.154
  252SOL     OW 2549   0.770   1.330   0.301
  252SOL    HW1 2550   0.724   1.243   0.318
  252SOL    HW2 2551   0.861   1.327   0.342
  253SOL     OW 2552   1.352   0.052   0.168
  253SOL    HW1 2553   1.387   0.011   0.084
  253SOL    HW2 2554   1.262   0.014   0.188
  254SOL     OW 2555   1.300   0.453   0.691
  254SOL    HW1 2556   1.241   0.533   0.695
  254SOL    HW2 2557   1.315   0.418   0.784
  255SOL     OW 2558   1.593   0.221   0.882
  255SOL    HW1 2559   1.509   0.220   0.936
  255SOL    HW2 2560   1.595   0.304   0.826
  256SOL     OW 2561   0.039   1.077   0.300
  256SOL    HW1 2562   0.138   1.066   0.291
  256SOL    HW2 2563  -0.001   0.991   0.332
  257SOL     OW 2564   0.875   1.646   0.337
  257SOL    HW1 2565   0.798   1.611   0.283
  257SOL    HW2 2566   0.843   1.717   0.399
  258SOL     OW 2567   0.225   0.275   2.858
  258SOL    HW1 2568   0.260   0.258   2.950
  258SOL    HW2 2569   0.137   0.230   2.846
  259SOL     OW 2570   0.019   0.368   2.509
  259SOL    HW1 2571  -0.063   0.411   2.548
  259SOL    HW2 2572  -0.009   0.295   2.446
  260SOL     OW 2573   0.569   1.275   3.027
  260SOL    HW1 2574   0.476   1.268   2.990
  260SOL    HW2 2575   0.580   1.364   3.071
  261SOL     OW 2576   1.135   0.703   2.579
  261SOL    HW1 2577   1.192   0.781   2.554
  261SOL    HW2 2578   1.075   0.729   2.655
  262SOL     OW 2579   1.755   0.607   2.093
  262SOL    HW1 2580   1.743   0.594   1.994
  262SOL    HW2 2581   1.725   0.526   2.142
  263SOL     OW 2582   0.768   1.144   2.885
  263SOL    HW1 2583   0.690   1.161   2.945
  263SOL    HW2 2584   0.802   1.231   2.849
  264SOL     OW 2585   0.850   0.798   3.685
  264SOL    HW1 2586   0.846   0.874   3.750
  264SOL    HW2 2587   0.872   0.834   3.594
  265SOL     OW 2588   0.685   1.012   2.527
  265SOL    HW1 2589   0.754   0.996   2.597
  265SOL    HW2 2590   0.612   1.069   2.565
  266SOL     OW 2591   0.686   1.161   3.665
  266SOL    HW1 2592   0.746   1.240   3.679
  266SOL    HW2 2593   0.600   1.192   3.624
  267SOL     OW 2594   0.335   1.435   2.923
  267SOL    HW1 2595   0.257   1.404   2.870
  267SOL    HW2 2596   0.393   1.493   2.866
  268SOL     OW 2597   0.438   0.392   3.361
  268SOL    HW1 2598   0.520   0.336   3.370
  268SOL    HW2 2599   0.357   0.334   3.365
  269SOL     OW 2600   1.603   0.447   2.599
  269SOL    HW1 2601   1.529   0.493   2.549
  269SOL    HW2 2602   1.654   0.515   2.652
  270SOL     OW 2603   0.231   1.713   2.345
  270SOL    HW1 2604   0.265   1.790   2.399
  270SOL    HW2 2605   0.275   1.713   2.255
  271SOL     OW 2606   1.127   1.341   3.552
  271SOL    HW1 2607   1.174   1.341   3.640
  271SOL    HW2 2608   1.079   1.254   3.541
  272SOL     OW 2609   0.230   1.434   2.400
  272SOL    HW1 2610   0.204   1.530   2.400
  272SOL    HW2 2611   0.159   1.380   2.445
  273SOL     OW 2612   0.240   1.091   2.748
  273SOL    HW1 2613   0.254   1.007   2.800
  273SOL    HW2 2614   0.185   1.155   2.803
  274SOL     OW 2615   0.620   1.786   3.301
  274SOL    HW1 2616   0.528   1.769   3.336
  274SOL    HW2 2617   0.648   1.878   3.327
  275SOL     OW 2618   0.606   0.964   1.985
  275SOL    HW1 2619   0.613   1.048   1.931
  275SOL    HW2 2620   0.652   0.977   2.073
  276SOL     OW 2621   1.594   0.114   3.342
  276SOL    HW1 2622   1.576   0.181   3.270
  276SOL    HW2 2623   1.591   0.160   3.431
  277SOL     OW 2624   0.122   0.643   2.425
  277SOL    HW1 2625   0.077   0.555   2.442
  277SOL    HW2 2626   0.121   0.697   2.509
  278SOL     OW 2627   0.113   0.737   3.459
  278SOL    HW1 2628   0.201   0.724   3.504
  278SOL    HW2 2629   0.100   0.834   3.437
  279SOL     OW 2630   0.613   1.365   2.588
  279SOL    HW1 2631   0.564   1.278   2.597
  279SOL    HW2 2632   0.590   1.408   2.501
  280SOL     OW 2633   0.809   0.004   2.364
  280SOL    HW1 2634   0.849   0.095   2.355
  280SOL    HW2 2635   0.709   0.012   2.370
  281SOL     OW 2636   0.197   0.976   3.126
  281SOL    HW1 2637   0.286   0.931   3.112
  281SOL    HW2 2638   0.124   0.911   3.107
  282SOL     OW 2639   1.525   0.999   2.052
  282SOL    HW1 2640   1.462   0.923   2.065
  282SOL    HW2 2641   1.573   1.017   2.138
  283SOL     OW 2642   1.187   1.792   3.478
  283SOL    HW1 2643   1.211   1.852   3.402
  283SOL    HW2 2644   1.194   1.697   3.448
  284SOL     OW 2645   0.317   0.251   3.663
  284SOL    HW1 2646   0.388   0.322   3.669
  284SOL    HW2 2647   0.229   0.290   3.691
  285SOL     OW 2648   1.667   1.714   2.434
  285SOL    HW1 2649   1.626   1.691   2.346
  285SOL    HW2 2650   1.649   1.640   2.499
  286SOL     OW 2651   0.598   0.729   2.132
  286SOL    HW1 2652   0.622   0.798   2.064
  286SOL    HW2 2653   0.520   0.762   2.186
  287SOL     OW 2654   1.281   0.345   2.806
  287SOL    HW1 2655   1.195   0.295   2.793
  287SOL    HW2 2656   1.343   0.291   2.862
  288SOL     OW 2657   1.576   1.662   2.169
  288SOL    HW1 2658   1.665   1.708   2.172
  288SOL    HW2 2659   1.555   1.638   2.074
  289SOL     OW 2660   0.807   0.605   3.327
  289SOL    HW1 2661   0.760   0.602   3.416
  289SOL    HW2 2662   0.756   0.550   3.261
  290SOL     OW 2663   1.394   0.469   3.536
  290SOL    HW1 2664   1.374   0.512   3.624
  290SOL    HW2 2665   1.472   0.407   3.545
  291SOL     OW 2666   0.973   0.890   3.434
  291SOL    HW1 2667   1.019   0.806   3.405
  291SOL    HW2 2668   0.917   0.924   3.359
  292SOL     OW 2669   0.991   0.410   3.104
  292SOL    HW1 2670   0.914   0.444   3.158
  292SOL    HW2 2671   0.957   0.359   3.025
  293SOL     OW 2672   1.041   0.701   2.291
  293SOL    HW1 2673   1.067   0.697   2.387
  293SOL    HW2 2674   0.956   0.650   2.277
  294SOL     OW 2675   0.076   0.811   2.651
  294SOL    HW1 2676   0.175   0.799   2.660
  294SOL    HW2 2677   0.052   0.906   2.672
  295SOL     OW 2678   0.865   0.348   2.057
  295SOL    HW1 2679   0.924   0.411   2.008
  295SOL    HW2 2680   0.884   0.254   2.028
  296SOL     OW 2681   1.719   0.585   3.693
  296SOL    HW1 2682   1.693   0.674   3.657
  296SOL    HW2 2683   1.717   0.517   3.620
  297SOL     OW 2684   1.362   1.144   2.407
  297SOL    HW1 2685   1.445   1.115   2.359
  297SOL    HW2 2686   1.313   1.211   2.351
  298SOL     OW 2687   0.550   0.196   2.747
  298SOL    HW1 2688   0.545   0.191   2.847
  298SOL    HW2 2689   0.552   0.292   2.718
  299SOL     OW 2690   1.008   1.456   2.339
  299SOL    HW1 2691   0.962   1.528   2.287
  299SOL    HW2 2692   1.004   1.476   2.437
  300SOL     OW 2693   0.351   1.801   2.715
  300SOL    HW1 2694   0.401   1.715   2.721
  300SOL    HW2 2695   0.416   1.878   2.712
  301SOL     OW 2696   1.227   1.550   3.368
  301SOL    HW1 2697   1.233   1.473   3.432
  301SOL    HW2 2698   1.175   1.524   3.288
  302SOL     OW 2699   0.321   0.943   2.104
  302SOL    HW1 2700   0.403   0.982   2.062
  302SOL    HW2 2701   0.294   0.861   2.055
  303SOL     OW 2702   0.461   1.266   3.589
  303SOL    HW1 2703   0.411   1.267   3.503
  303SOL    HW2 2704   0.398   1.248   3.665
  304SOL     OW 2705   1.111   1.776   2.099
  304SOL    HW1 2706   1.051   1.714   2.149
  304SOL    HW2 2707   1.142   1.732   2.014
  305SOL     OW 2708   0.202   0.285   3.360
  305SOL    HW1 2709   0.122   0.345   3.347
  305SOL    HW2 2710   0.192   0.236   3.446
  306SOL     OW 2711   1.632   1.377   1.943
  306SOL    HW1 2712   1.600   1.471   1.933
  306SOL    HW2 2713   1.556   1.314   1.931
  307SOL     OW 2714   0.464   1.743   2.185
  307SOL    HW1 2715   0.497   1.782   2.271
  307SOL    HW2 2716   0.540   1.736   2.120
  308SOL     OW 2717   1.400   0.107   2.288
  308SOL    HW1 2718   1.376   0.070   2.198
  308SOL    HW2 2719   1.499   0.123   2.292
  309SOL     OW 2720   0.249   1.785   3.103
  309SOL    HW1 2721   0.306   1.720   3.153
  309SOL    HW2 2722   0.233   1.752   3.010
  310SOL     OW 2723   0.940   1.698   2.766
  310SOL    HW1 2724   1.020   1.641   2.787
  310SOL    HW2 2725   0.891   1.658   2.689
  311SOL     OW 2726   0.382   0.700   2.342
  311SOL    HW1 2727   0.427   0.610   2.339
  311SOL    HW2 2728   0.288   0.689   2.375
  312SOL     OW 2729   1.547   0.222   3.591
  312SOL    HW1 2730   1.542   0.259   3.683
  312SOL    HW2 2731   1.475   0.153   3.579
  313SOL     OW 2732   0.614   0.122   1.979
  313SOL    HW1 2733   0.712   0.100   1.986
  313SOL    HW2 2734   0.583   0.105   1.886
  314SOL     OW 2735   0.781   0.264   3.611
  314SOL    HW1 2736   0.848   0.203   3.654
  314SOL    HW2 2737   0.708   0.283   3.676
  315SOL     OW 2738   0.888   1.514   3.057
  315SOL    HW1 2739   0.865   1.489   2.963
  315SOL    HW2 2740   0.949   1.445   3.096
  316SOL     OW 2741   1.351   0.590   3.295
  316SOL    HW1 2742   1.379   0.547   3.380
  316SOL    HW2 2743   1.376   0.686   3.296
  317SOL     OW 2744   0.803   1.402   2.786
  317SOL    HW1 2745   0.893   1.416   2.744
  317SOL    HW2 2746   0.732   1.404   2.715
  318SOL     OW 2747   0.922   0.503   2.761
  318SOL    HW1 2748   0.897   0.494   2.665
  318SOL    HW2 2749   0.970   0.421   2.792
  319SOL     OW 2750   0.539   0.064   2.374
  319SOL    HW1 2751   0.458   0.065   2.432
  319SOL    HW2 2752   0.542   0.147   2.319
  320SOL     OW 2753   1.434   1.188   1.903
  320SOL    HW1 2754   1.466   1.112   1.960
  320SOL    HW2 2755   1.342   1.215   1.933
  321SOL     OW 2756   0.297   0.035   2.033
  321SOL    HW1 2757   0.346   0.119   2.012
  321SOL    HW2 2758   0.359  -0.030   2.078
  322SOL     OW 2759   0.935   0.236   2.342
  322SOL    HW1 2760   0.887   0.277   2.264
  322SOL    HW2 2761   1.034   0.234   2.323
  323SOL     OW 2762   1.076   0.683   3.326
  323SOL    HW1 2763   0.996   0.622   3.329
  323SOL    HW2 2764   1.157   0.630   3.302
  324SOL     OW 2765   0.459   1.152   2.603
  324SOL    HW1 2766   0.388   1.125   2.668
  324SOL    HW2 2767   0.433   1.124   2.510
  325SOL     OW 2768   1.271   1.797   2.453
  325SOL    HW1 2769   1.315   1.861   2.389
  325SOL    HW2 2770   1.221   1.849   2.523
  326SOL     OW 2771   1.032   0.549   1.878
  326SOL    HW1 2772   0.991   0.631   1.839
  326SOL    HW2 2773   1.096   0.575   1.951
  327SOL     OW 2774   0.078   0.556   3.248
  327SOL    HW1 2775   0.170   0.555   3.207
  327SOL    HW2 2776   0.072   0.630   3.315
  328SOL     OW 2777   0.561   0.222   3.009
  328SOL    HW1 2778   0.599   0.138   3.046
  328SOL    HW2 2779   0.473   0.241   3.053
  329SOL     OW 2780   0.866   0.454   2.504
  329SOL    HW1 2781   0.834   0.526   2.442
  329SOL    HW2 2782   0.890   0.373   2.451
  330SOL     OW 2783   1.017   0.039   2.615
  330SOL    HW1 2784   0.945   0.044   2.546
  330SOL    HW2 2785   0.993  -0.030   2.684
  331SOL     OW 2786   1.429   1.173   2.729
  331SOL    HW1 2787   1.374   1.089   2.722
  331SOL    HW2 2788   1.455   1.202   2.637
  332SOL     OW 2789   1.466   0.590   2.854
  332SOL    HW1 2790   1.436   0.495   2.861
  332SOL    HW2 2791   1.539   0.606   2.920
  333SOL     OW 2792   1.857   0.833   2.239
  333SOL    HW1 2793   1.899   0.769   2.303
  333SOL    HW2 2794   1.819   0.782   2.161
  334SOL     OW 2795   0.488   1.385   2.036
  334SOL    HW1 2796   0.401   1.370   2.083
  334SOL    HW2 2797   0.471   1.411   1.941
  335SOL     OW 2798   1.390   0.575   1.940
  335SOL    HW1 2799   1.336   0.554   2.021
  335SOL    HW2 2800   1.481   0.534   1.949
  336SOL     OW 2801   0.527   0.256   2.190
  336SOL    HW1 2802   0.554   0.197   2.115
  336SOL    HW2 2803   0.527   0.351   2.159
  337SOL     OW 2804   1.754   1.223   3.450
  337SOL    HW1 2805   1.845   1.184   3.437
  337SOL    HW2 2806   1.762   1.319   3.474
  338SOL     OW 2807   1.592   1.629   3.487
  338SOL    HW1 2808   1.619   1.663   3.397
  338SOL    HW2 2809   1.671   1.591   3.533
  339SOL     OW 2810   0.980   1.116   3.581
  339SOL    HW1 2811   0.881   1.122   3.591
  339SOL    HW2 2812   1.003   1.036   3.525
  340SOL     OW 2813   0.705   1.050   2.230
  340SOL    HW1 2814   0.691   1.057   2.329
  340SOL    HW2 2815   0.789   0.999   2.212
  341SOL     OW 2816   0.410   0.813   3.113
  341SOL    HW1 2817   0.496   0.825   3.163
  341SOL    HW2 2818   0.368   0.726   3.140
  342SOL     OW 2819   1.274   0.386   3.124
  342SOL    HW1 2820   1.295   0.460   3.188
  342SOL    HW2 2821   1.185   0.403   3.081
  343SOL     OW 2822   0.064   1.564   3.193
  343SOL    HW1 2823   0.018   1.646   3.159
  343SOL    HW2 2824   0.162   1.583   3.202
  344SOL     OW 2825   0.367   1.100   2.363
  344SOL    HW1 2826   0.360   1.183   2.307
  344SOL    HW2 2827   0.371   1.020   2.303
  345SOL     OW 2828   0.566   0.537   2.727
  345SOL    HW1 2829   0.578   0.603   2.653
  345SOL    HW2 2830   0.612   0.571   2.810
  346SOL     OW 2831   1.582   0.639   2.334
  346SOL    HW1 2832   1.551   0.700   2.407
  346SOL    HW2 2833   1.632   0.691   2.265
  347SOL     OW 2834   0.354   1.510   3.191
  347SOL    HW1 2835   0.333   1.466   3.104
  347SOL    HW2 2836   0.451   1.536   3.194
  348SOL     OW 2837   0.402   0.751   3.460
  348SOL    HW1 2838   0.470   0.806   3.413
  348SOL    HW2 2839   0.442   0.663   3.487
  349SOL     OW 2840   1.587   0.779   3.532
  349SOL    HW1 2841   1.495   0.817   3.527
  349SOL    HW2 2842   1.647   0.826   3.467
  350SOL     OW 2843   1.013   0.105   3.632
  350SOL    HW1 2844   1.019   0.190   3.580
  350SOL    HW2 2845   1.045   0.029   3.575
  351SOL     OW 2846   0.504   0.050   3.602
  351SOL    HW1 2847   0.462  -0.007   3.532
  351SOL    HW2 2848   0.438   0.119   3.634
  352SOL     OW 2849   0.573   0.870   2.891
  352SOL    HW1 2850   0.617   0.959   2.882
  352SOL    HW2 2851   0.510   0.870   2.968
  353SOL     OW 2852   1.360   0.862   2.907
  353SOL    HW1 2853   1.285   0.862   2.841
  353SOL    HW2 2854   1.397   0.770   2.916
  354SOL     OW 2855   1.209   0.525   2.137
  354SOL    HW1 2856   1.222   0.441   2.191
  354SOL    HW2 2857   1.180   0.599   2.197
  355SOL     OW 2858   0.307   0.213   3.093
  355SOL    HW1 2859   0.284   0.250   3.183
  355SOL    HW2 2860   0.277   0.118   3.087
  356SOL     OW 2861   0.037   1.310   3.144
  356SOL    HW1 2862   0.090   1.261   3.212
  356SOL    HW2 2863   0.059   1.408   3.149
  357SOL     OW 2864   0.732   0.634   2.926
  357SOL    HW1 2865   0.791   0.608   2.850
  357SOL    HW2 2866   0.704   0.730   2.915
  358SOL     OW 2867   1.728   0.935   3.716
  358SOL    HW1 2868   1.682   0.928   3.627
  358SOL    HW2 2869   1.666   0.979   3.782
  359SOL     OW 2870   0.307   0.063   2.480
  359SOL    HW1 2871   0.296   0.157   2.513
  359SOL    HW2 2872   0.302   0.000   2.557
  360SOL     OW 2873   1.622   0.367   2.236
  360SOL    HW1 2874   1.624   0.291   2.300
  360SOL    HW2 2875   1.574   0.444   2.276
  361SOL     OW 2876   1.023   0.766   2.828
  361SOL    HW1 2877   1.038   0.787   2.924
  361SOL    HW2 2878   0.993   0.671   2.819
  362SOL     OW 2879   0.980   1.573   3.562
  362SOL    HW1 2880   0.960   1.617   3.474
  362SOL    HW2 2881   1.019   1.482   3.546
  363SOL     OW 2882   1.859   1.518   3.467
  363SOL    HW1 2883   1.873   1.545   3.372
  363SOL    HW2 2884   1.942   1.540   3.520
  364SOL     OW 2885   0.350   0.898   3.666
  364SOL    HW1 2886   0.426   0.942   3.714
  364SOL    HW2 2887   0.385   0.851   3.584
  365SOL     OW 2888   1.540   0.274   1.987
  365SOL    HW1 2889   1.479   0.199   2.010
  365SOL    HW2 2890   1.562   0.326   2.070
  366SOL     OW 2891   1.303   0.838   1.904
  366SOL    HW1 2892   1.337   0.745   1.919
  366SOL    HW2 2893   1.321   0.865   1.809
  367SOL     OW 2894   0.319   0.810   2.811
  367SOL    HW1 2895   0.412   0.846   2.816
  367SOL    HW2 2896   0.313   0.725   2.863
  368SOL     OW 2897   0.339   0.509   2.868
  368SOL    HW1 2898   0.287   0.426   2.851
  368SOL    HW2 2899   0.416   0.514   2.804
  369SOL     OW 2900   1.138   0.380   3.540
  369SOL    HW1 2901   1.093   0.443   3.604
  369SOL    HW2 2902   1.231   0.411   3.523
  370SOL     OW 2903   0.088   1.801   2.789
  370SOL    HW1 2904   0.046   1.715   2.762
  370SOL    HW2 2905   0.182   1.804   2.755
  371SOL     OW 2906   0.504   1.568   2.772
  371SOL    HW1 2907   0.570   1.642   2.781
  371SOL    HW2 2908   0.548   1.489   2.730
  372SOL     OW 2909   1.002   0.796   3.100
  372SOL    HW1 2910   1.043   0.764   3.186
  372SOL    HW2 2911   0.906   0.769   3.097
  373SOL     OW 2912   0.040   0.544   2.976
  373SOL    HW1 2913   0.125   0.511   2.935
  373SOL    HW2 2914   0.053   0.559   3.074
  374SOL     OW 2915   0.189   0.520   3.584
  374SOL    HW1 2916   0.248   0.480   3.514
  374SOL    HW2 2917   0.131   0.591   3.543
  375SOL     OW 2918   1.369   0.950   3.522
  375SOL    HW1 2919   1.408   1.039   3.542
  375SOL    HW2 2920   1.379   0.930   3.425
  376SOL     OW 2921   0.815   0.572   2.187
  376SOL    HW1 2922   0.822   0.483   2.141
  376SOL    HW2 2923   0.721   0.606   2.179
  377SOL     OW 2924   1.657   0.604   3.068
  377SOL    HW1 2925   1.619   0.535   3.130
  377SOL    HW2 2926   1.739   0.568   3.024
  378SOL     OW 2927   0.252   1.564   3.606
  378SOL    HW1 2928   0.222   1.621   3.682
  378SOL    HW2 2929   0.245   1.467   3.632
  379SOL     OW 2930   0.671   0.464   3.131
  379SOL    HW1 2931   0.637   0.375   3.101
  379SOL    HW2 2932   0.697   0.518   3.051
  380SOL     OW 2933   0.930   1.678   3.327
  380SOL    HW1 2934   0.906   1.660   3.232
  380SOL    HW2 2935   0.960   1.772   3.337
  381SOL     OW 2936   0.473   0.500   2.053
  381SOL    HW1 2937   0.534   0.580   2.057
  381SOL    HW2 2938   0.378   0.531   2.060
  382SOL     OW 2939   0.159   1.137   3.328
  382SOL    HW1 2940   0.181   1.076   3.404
  382SOL    HW2 2941   0.169   1.088   3.242
  383SOL     OW 2942   1.347   1.059   3.096
  383SOL    HW1 2943   1.371   0.996   3.022
  383SOL    HW2 2944   1.257   1.099   3.078
  384SOL     OW 2945   1.302   0.855   2.171
  384SOL    HW1 2946   1.216   0.824   2.213
  384SOL    HW2 2947   1.298   0.841   2.072
  385SOL     OW 2948   1.759   1.747   3.016
  385SOL    HW1 2949   1.820   1.777   2.943
  385SOL    HW2 2950   1.721   1.658   2.994
  386SOL     OW 2951   1.252   1.731   2.990
  386SOL    HW1 2952   1.336   1.736   2.936
  386SOL    HW2 2953   1.229   1.635   3.008
  387SOL     OW 2954   0.083   1.258   2.884
  387SOL    HW1 2955   0.078   1.257   2.984
  387SOL    HW2 2956   0.000   1.217   2.846
  388SOL     OW 2957   0.688   1.662   3.578
  388SOL    HW1 2958   0.632   1.743   3.587
  388SOL    HW2 2959   0.740   1.666   3.492
  389SOL     OW 2960   1.726   0.135   2.385
  389SOL    HW1 2961   1.799   0.118   2.318
  389SOL    HW2 2962   1.695   0.048   2.423
  390SOL     OW 2963   1.388   1.573   2.339
  390SOL    HW1 2964   1.455   1.585   2.265
  390SOL    HW2 2965   1.348   1.662   2.362
  391SOL     OW 2966   0.130   1.794   3.713
  391SOL    HW1 2967   0.089   1.720   3.766
  391SOL    HW2 2968   0.194   1.845   3.771
  392SOL     OW 2969   1.280   0.927   2.534
  392SOL    HW1 2970   1.340   0.846   2.536
  392SOL    HW2 2971   1.320   0.996   2.474
  393SOL     OW 2972   0.830   1.273   3.284
  393SOL    HW1 2973   0.825   1.306   3.379
  393SOL    HW2 2974   0.744   1.292   3.238
  394SOL     OW 2975   0.672   1.616   2.016
  394SOL    HW1 2976   0.681   1.626   1.917
  394SOL    HW2 2977   0.632   1.527   2.037
  395SOL     OW 2978   1.650   1.720   3.256
  395SOL    HW1 2979   1.703   1.730   3.172
  395SOL    HW2 2980   1.623   1.810   3.290
  396SOL     OW 2981   1.841   0.175   2.825
  396SOL    HW1 2982   1.880   0.090   2.789
  396SOL    HW2 2983   1.743   0.177   2.806
  397SOL     OW 2984   0.263   0.326   2.582
  397SOL    HW1 2985   0.184   0.377   2.548
  397SOL    HW2 2986   0.254   0.311   2.680
  398SOL     OW 2987   1.194   1.612   1.893
  398SOL    HW1 2988   1.200   1.519   1.930
  398SOL    HW2 2989   1.135   1.612   1.813
  399SOL     OW 2990   0.822   1.002   3.234
  399SOL    HW1 2991   0.862   1.001   3.142
  399SOL    HW2 2992   0.832   1.094   3.274
  400SOL     OW 2993   0.916   0.910   2.153
  400SOL    HW1 2994   0.979   0.948   2.085
  400SOL    HW2 2995   0.956   0.827   2.192
  401SOL     OW 2996   1.504   1.607   1.906
  401SOL    HW1 2997   1.412   1.644   1.913
  401SOL    HW2 2998   1.542   1.627   1.816
  402SOL     OW 2999   0.372   1.288   3.352
  402SOL    HW1 3000   0.359   1.381   3.318
  402SOL    HW2 3001   0.288   1.236   3.339
  403SOL     OW 3002   1.614   1.292   3.151
  403SOL    HW1 3003   1.674   1.295   3.231
  403SOL    HW2 3004   1.539   1.356   3.164
  404SOL     OW 3005   1.039   1.098   2.558
  404SOL    HW1 3006   0.969   1.051   2.612
  404SOL    HW2 3007   1.098   1.030   2.515
  405SOL     OW 3008   0.590   1.487   2.353
  405SOL    HW1 3009   0.632   1.429   2.283
  405SOL    HW2 3010   0.546   1.566   2.309
  406SOL     OW 3011   1.709   0.385   3.243
  406SOL    HW1 3012   1.782   0.454   3.247
  406SOL    HW2 3013   1.737   0.310   3.184
  407SOL     OW 3014   0.105   1.013   3.588
  407SOL    HW1 3015   0.028   0.980   3.642
  407SOL    HW2 3016   0.190   0.983   3.630
  408SOL     OW 3017   0.672   0.203   3.351
  408SOL    HW1 3018   0.762   0.187   3.311
  408SOL    HW2 3019   0.680   0.208   3.450
  409SOL     OW 3020   0.075   0.345   1.895
  409SOL    HW1 3021  -0.017   0.317   1.866
  409SOL    HW2 3022   0.106   0.422   1.839
  410SOL     OW 3023   1.440   0.856   3.260
  410SOL    HW1 3024   1.383   0.908   3.197
  410SOL    HW2 3025   1.536   0.868   3.236
  411SOL     OW 3026   0.072   0.166   2.180
  411SOL    HW1 3027   0.055   0.249   2.126
  411SOL    HW2 3028   0.162   0.129   2.158
  412SOL     OW 3029   1.183   1.335   1.981
  412SOL    HW1 3030   1.084   1.324   1.983
  412SOL    HW2 3031   1.217   1.350   2.074
  413SOL     OW 3032   0.613   0.842   3.293
  413SOL    HW1 3033   0.669   0.923   3.276
  413SOL    HW2 3034   0.672   0.762   3.296
  414SOL     OW 3035   0.716   0.565   3.570
  414SOL    HW1 3036   0.735   0.630   3.644
  414SOL    HW2 3037   0.776   0.485   3.579
  415SOL     OW 3038   1.450   1.220   3.495
  415SOL    HW1 3039   1.441   1.210   3.594
  415SOL    HW2 3040   1.546   1.213   3.469
  416SOL     OW 3041   0.390   1.741   3.422
  416SOL    HW1 3042   0.299   1.782   3.420
  416SOL    HW2 3043   0.383   1.647   3.454
  417SOL     OW 3044   1.225   0.325   2.311
  417SOL    HW1 3045   1.290   0.251   2.300
  417SOL    HW2 3046   1.245   0.375   2.395
  418SOL     OW 3047   0.594   0.745   2.514
  418SOL    HW1 3048   0.644   0.830   2.495
  418SOL    HW2 3049   0.506   0.747   2.466
  419SOL     OW 3050   1.777   0.342   3.504
  419SOL    HW1 3051   1.760   0.373   3.410
  419SOL    HW2 3052   1.693   0.305   3.542
  420SOL     OW 3053   1.730   0.934   3.379
  420SOL    HW1 3054   1.768   1.025   3.394
  420SOL    HW2 3055   1.722   0.917   3.280
  421SOL     OW 3056   0.859   1.374   1.878
  421SOL    HW1 3057   0.813   1.389   1.966
  421SOL    HW2 3058   0.903   1.459   1.848
  422SOL     OW 3059   0.661   1.790   2.815
  422SOL    HW1 3060   0.615   1.878   2.802
  422SOL    HW2 3061   0.760   1.802   2.808
  423SOL     OW 3062   0.859   0.956   2.723
  423SOL    HW1 3063   0.913   0.887   2.771
  423SOL    HW2 3064   0.827   1.025   2.789
  424SOL     OW 3065   1.083   0.984   1.949
  424SOL    HW1 3066   1.060   1.037   1.867
  424SOL    HW2 3067   1.164   0.928   1.930
  425SOL     OW 3068   1.861   1.569   2.713
  425SOL    HW1 3069   1.790   1.557   2.643
  425SOL    HW2 3070   1.862   1.490   2.773
  426SOL     OW 3071   0.221   1.314   3.706
  426SOL    HW1 3072   0.156   1.241   3.685
  426SOL    HW2 3073   0.225   1.328   3.804
  427SOL     OW 3074   0.079   1.240   2.515
  427SOL    HW1 3075   0.078   1.193   2.603
  427SOL    HW2 3076   0.161   1.212   2.464
  428SOL     OW 3077   0.672   1.391   3.486
  428SOL    HW1 3078   0.594   1.341   3.524
  428SOL    HW2 3079   0.669   1.486   3.517
  429SOL     OW 3080   1.824   0.192   3.089
  429SOL    HW1 3081   1.820   0.102   3.133
  429SOL    HW2 3082   1.827   0.181   2.990
  430SOL     OW 3083   0.428   0.424   2.382
  430SOL    HW1 3084   0.458   0.352   2.320
  430SOL    HW2 3085   0.389   0.384   2.465
  431SOL     OW 3086   0.317   0.547   3.142
  431SOL    HW1 3087   0.355   0.488   3.214
  431SOL    HW2 3088   0.357   0.521   3.054
  432SOL     OW 3089   0.812   1.586   2.549
  432SOL    HW1 3090   0.844   1.596   2.455
  432SOL    HW2 3091   0.733   1.524   2.551
  433SOL     OW 3092   0.770   1.330   2.163
  433SOL    HW1 3093   0.724   1.243   2.180
  433SOL    HW2 3094   0.861   1.327   2.204
  434SOL     OW 3095   0.618   1.567   3.146
  434SOL    HW1 3096   0.613   1.649   3.203
  434SOL    HW2 3097   0.707   1.564   3.101
  435SOL     OW 3098   1.352   0.052   2.030
  435SOL    HW1 3099   1.387   0.011   1.946
  435SOL    HW2 3100   1.262   0.014   2.050
  436SOL     OW 3101   1.300   0.453   2.553
  436SOL    HW1 3102   1.241   0.533   2.557
  436SOL    HW2 3103   1.315   0.418   2.646
  437SOL     OW 3104   1.593   0.221   2.744
  437SOL    HW1 3105   1.509   0.220   2.798
  437SOL    HW2 3106   1.595   0.304   2.688
  438SOL     OW 3107   0.039   1.077   2.162
  438SOL    HW1 3108   0.138   1.066   2.153
  438SOL    HW2 3109  -0.001   0.991   2.194
  439SOL     OW 3110   0.875   1.646   2.199
  439SOL    HW1 3111   0.798   1.611   2.145
  439SOL    HW2 3112   0.843   1.717   2.261
  440SOL     OW 3113   0.230   0.628   3.837
  440SOL    HW1 3114   0.137   0.626   3.874
  440SOL    HW2 3115   0.231   0.589   3.745
  441SOL     OW 3116   0.225   0.275   4.720
  441SOL    HW1 3117   0.260   0.258   4.812
  441SOL    HW2 3118   0.137   0.230   4.708
  442SOL     OW 3119   0.019   0.368   4.371
  442SOL    HW1 3120  -0.063   0.411   4.410
  442SOL    HW2 3121  -0.009   0.295   4.308
  443SOL     OW 3122   0.569   1.275   4.889
  443SOL    HW1 3123   0.476   1.268   4.852
  443SOL    HW2 3124   0.580   1.364   4.933
  444SOL     OW 3125   1.555   1.511   4.427
  444SOL    HW1 3126   1.498   1.495   4.508
  444SOL    HW2 3127   1.496   1.521   4.347
  445SOL     OW 3128   1.135   0.703   4.441
  445SOL    HW1 3129   1.192   0.781   4.416
  445SOL    HW2 3130   1.075   0.729   4.517
  446SOL     OW 3131   1.755   0.607   3.955
  446SOL    HW1 3132   1.743   0.594   3.856
  446SOL    HW2 3133   1.725   0.526   4.004
  447SOL     OW 3134   0.768   1.144   4.747
  447SOL    HW1 3135   0.690   1.161   4.807
  447SOL    HW2 3136   0.802   1.231   4.711
  448SOL     OW 3137   0.685   1.012   4.389
  448SOL    HW1 3138   0.754   0.996   4.459
  448SOL    HW2 3139   0.612   1.069   4.427
  449SOL     OW 3140   0.335   1.435   4.785
  449SOL    HW1 3141   0.257   1.404   4.732
  449SOL    HW2 3142   0.393   1.493   4.728
  450SOL     OW 3143   1.603   0.447   4.461
  450SOL    HW1 3144   1.529   0.493   4.411
  450SOL    HW2 3145   1.654   0.515   4.514
  451SOL     OW 3146   0.240   1.091   4.610
  451SOL    HW1 3147   0.254   1.007   4.662
  451SOL    HW2 3148   0.185   1.155   4.665
  452SOL     OW 3149   0.620   1.786   5.163
  452SOL    HW1 3150   0.528   1.769   5.198
  452SOL    HW2 3151   0.648   1.878   5.189
  453SOL     OW 3152   0.122   0.643   4.287
  453SOL    HW1 3153   0.077   0.555   4.304
  453SOL    HW2 3154   0.121   0.697   4.371
  454SOL     OW 3155   1.842   1.767   4.083
  454SOL    HW1 3156   1.896   1.738   4.163
  454SOL    HW2 3157   1.872   1.857   4.054
  455SOL     OW 3158   0.027   1.596   3.841
  455SOL    HW1 3159   0.008   1.500   3.862
  455SOL    HW2 3160  -0.006   1.654   3.916
  456SOL     OW 3161   1.689   0.922   4.336
  456SOL    HW1 3162   1.784   0.893   4.344
  456SOL    HW2 3163   1.681   0.987   4.261
  457SOL     OW 3164   1.641   1.108   4.156
  457SOL    HW1 3165   1.727   1.110   4.104
  457SOL    HW2 3166   1.655   1.155   4.244
  458SOL     OW 3167   0.613   1.365   4.450
  458SOL    HW1 3168   0.564   1.278   4.459
  458SOL    HW2 3169   0.590   1.408   4.363
  459SOL     OW 3170   0.809   0.004   4.226
  459SOL    HW1 3171   0.849   0.095   4.217
  459SOL    HW2 3172   0.709   0.012   4.232
  460SOL     OW 3173   1.525   0.999   3.914
  460SOL    HW1 3174   1.462   0.923   3.927
  460SOL    HW2 3175   1.573   1.017   4.000
  461SOL     OW 3176   1.466   1.417   4.677
  461SOL    HW1 3177   1.407   1.423   4.757
  461SOL    HW2 3178   1.451   1.329   4.631
  462SOL     OW 3179   1.667   1.714   4.296
  462SOL    HW1 3180   1.626   1.691   4.208
  462SOL    HW2 3181   1.649   1.640   4.361
  463SOL     OW 3182   0.598   0.729   3.994
  463SOL    HW1 3183   0.622   0.798   3.926
  463SOL    HW2 3184   0.520   0.762   4.048
  464SOL     OW 3185   1.281   0.345   4.668
  464SOL    HW1 3186   1.195   0.295   4.655
  464SOL    HW2 3187   1.343   0.291   4.724
  465SOL     OW 3188   1.576   1.662   4.031
  465SOL    HW1 3189   1.665   1.708   4.034
  465SOL    HW2 3190   1.555   1.638   3.936
  466SOL     OW 3191   0.991   0.410   4.966
  466SOL    HW1 3192   0.914   0.444   5.020
  466SOL    HW2 3193   0.957   0.359   4.887
  467SOL     OW 3194   1.041   0.701   4.153
  467SOL    HW1 3195   1.067   0.697   4.249
  467SOL    HW2 3196   0.956   0.650   4.139
  468SOL     OW 3197   0.076   0.811   4.513
  468SOL    HW1 3198   0.175   0.799   4.522
  468SOL    HW2 3199   0.052   0.906   4.534
  469SOL     OW 3200   0.865   0.348   3.919
  469SOL    HW1 3201   0.924   0.411   3.870
  469SOL    HW2 3202   0.884   0.254   3.890
  470SOL     OW 3203   1.362   1.144   4.269
  470SOL    HW1 3204   1.445   1.115   4.221
  470SOL    HW2 3205   1.313   1.211   4.213
  471SOL     OW 3206   0.550   0.196   4.609
  471SOL    HW1 3207   0.545   0.191   4.709
  471SOL    HW2 3208   0.552   0.292   4.580
  472SOL     OW 3209   0.351   1.801   4.577
  472SOL    HW1 3210   0.401   1.715   4.583
  472SOL    HW2 3211   0.416   1.878   4.574
  473SOL     OW 3212   1.795   1.066   4.597
  473SOL    HW1 3213   1.733   1.051   4.521
  473SOL    HW2 3214   1.743   1.077   4.682
  474SOL     OW 3215   0.321   0.943   3.966
  474SOL    HW1 3216   0.403   0.982   3.924
  474SOL    HW2 3217   0.294   0.861   3.917
  475SOL     OW 3218   1.458   0.735   4.452
  475SOL    HW1 3219   1.453   0.670   4.527
  475SOL    HW2 3220   1.538   0.794   4.465
  476SOL     OW 3221   1.111   1.776   3.961
  476SOL    HW1 3222   1.051   1.714   4.011
  476SOL    HW2 3223   1.142   1.732   3.876
  477SOL     OW 3224   1.632   1.377   3.805
  477SOL    HW1 3225   1.600   1.471   3.795
  477SOL    HW2 3226   1.556   1.314   3.793
  478SOL     OW 3227   0.249   1.785   4.965
  478SOL    HW1 3228   0.306   1.720   5.015
  478SOL    HW2 3229   0.233   1.752   4.872
  479SOL     OW 3230   0.940   1.698   4.628
  479SOL    HW1 3231   1.020   1.641   4.649
  479SOL    HW2 3232   0.891   1.658   4.551
  480SOL     OW 3233   0.382   0.700   4.204
  480SOL    HW1 3234   0.427   0.610   4.201
  480SOL    HW2 3235   0.288   0.689   4.237
  481SOL     OW 3236   0.614   0.122   3.841
  481SOL    HW1 3237   0.712   0.100   3.848
  481SOL    HW2 3238   0.583   0.105   3.748
  482SOL     OW 3239   0.803   1.402   4.648
  482SOL    HW1 3240   0.893   1.416   4.606
  482SOL    HW2 3241   0.732   1.404   4.577
  483SOL     OW 3242   0.922   0.503   4.623
  483SOL    HW1 3243   0.897   0.494   4.527
  483SOL    HW2 3244   0.970   0.421   4.654
  484SOL     OW 3245   0.539   0.064   4.236
  484SOL    HW1 3246   0.458   0.065   4.294
  484SOL    HW2 3247   0.542   0.147   4.181
  485SOL     OW 3248   1.434   1.188   3.765
  485SOL    HW1 3249   1.466   1.112   3.822
  485SOL    HW2 3250   1.342   1.215   3.795
  486SOL     OW 3251   0.297   0.035   3.895
  486SOL    HW1 3252   0.346   0.119   3.874
  486SOL    HW2 3253   0.359  -0.030   3.940
  487SOL     OW 3254   0.935   0.236   4.204
  487SOL    HW1 3255   0.887   0.277   4.126
  487SOL    HW2 3256   1.034   0.234   4.185
  488SOL     OW 3257   1.227   1.570   4.517
  488SOL    HW1 3258   1.248   1.644   4.452
  488SOL    HW2 3259   1.295   1.570   4.590
  489SOL     OW 3260   0.459   1.152   4.465
  489SOL    HW1 3261   0.388   1.125   4.530
  489SOL    HW2 3262   0.433   1.124   4.372
  490SOL     OW 3263   1.271   1.797   4.315
  490SOL    HW1 3264   1.315   1.861   4.251
  490SOL    HW2 3265   1.221   1.849   4.385
  491SOL     OW 3266   1.032   0.549   3.740
  491SOL    HW1 3267   0.991   0.631   3.701
  491SOL    HW2 3268   1.096   0.575   3.813
  492SOL     OW 3269   0.561   0.222   4.871
  492SOL    HW1 3270   0.599   0.138   4.908
  492SOL    HW2 3271   0.473   0.241   4.915
  493SOL     OW 3272   0.866   0.454   4.366
  493SOL    HW1 3273   0.834   0.526   4.304
  493SOL    HW2 3274   0.890   0.373   4.313
  494SOL     OW 3275   1.017   0.039   4.477
  494SOL    HW1 3276   0.945   0.044   4.408
  494SOL    HW2 3277   0.993  -0.030   4.546
  495SOL     OW 3278   1.429   1.173   4.591
  495SOL    HW1 3279   1.374   1.089   4.584
  495SOL    HW2 3280   1.455   1.202   4.499
  496SOL     OW 3281   1.466   0.590   4.716
  496SOL    HW1 3282   1.436   0.495   4.723
  496SOL    HW2 3283   1.539   0.606   4.782
  497SOL     OW 3284   1.857   0.833   4.101
  497SOL    HW1 3285   1.899   0.769   4.165
  497SOL    HW2 3286   1.819   0.782   4.023
  498SOL     OW 3287   1.664   1.280   4.381
  498SOL    HW1 3288   1.763   1.288   4.395
  498SOL    HW2 3289   1.619   1.364   4.412
  499SOL     OW 3290   1.390   0.575   3.802
  499SOL    HW1 3291   1.336   0.554   3.883
  499SOL    HW2 3292   1.481   0.534   3.811
  500SOL     OW 3293   0.527   0.256   4.052
  500SOL    HW1 3294   0.554   0.197   3.977
  500SOL    HW2 3295   0.527   0.351   4.021
  501SOL     OW 3296   1.111   1.195   4.824
  501SOL    HW1 3297   1.071   1.239   4.905
  501SOL    HW2 3298   1.070   1.232   4.741
  502SOL     OW 3299   1.638   1.099   4.803
  502SOL    HW1 3300   1.643   1.180   4.862
  502SOL    HW2 3301   1.552   1.101   4.752
  503SOL     OW 3302   1.274   0.386   4.986
  503SOL    HW1 3303   1.295   0.460   5.050
  503SOL    HW2 3304   1.185   0.403   4.943
  504SOL     OW 3305   1.252   1.348   4.112
  504SOL    HW1 3306   1.302   1.425   4.152
  504SOL    HW2 3307   1.157   1.350   4.144
  505SOL     OW 3308   1.272   1.445   4.866
  505SOL    HW1 3309   1.319   1.458   4.953
  505SOL    HW2 3310   1.206   1.371   4.875
  506SOL     OW 3311   1.582   0.639   4.196
  506SOL    HW1 3312   1.551   0.700   4.269
  506SOL    HW2 3313   1.632   0.691   4.127
  507SOL     OW 3314   0.354   1.510   5.053
  507SOL    HW1 3315   0.333   1.466   4.966
  507SOL    HW2 3316   0.451   1.536   5.056
  508SOL     OW 3317   1.360   0.862   4.769
  508SOL    HW1 3318   1.285   0.862   4.703
  508SOL    HW2 3319   1.397   0.770   4.778
  509SOL     OW 3320   1.209   0.525   3.999
  509SOL    HW1 3321   1.222   0.441   4.053
  509SOL    HW2 3322   1.180   0.599   4.059
  510SOL     OW 3323   0.307   0.213   4.955
  510SOL    HW1 3324   0.284   0.250   5.045
  510SOL    HW2 3325   0.277   0.118   4.949
  511SOL     OW 3326   0.037   1.310   5.006
  511SOL    HW1 3327   0.090   1.261   5.074
  511SOL    HW2 3328   0.059   1.408   5.011
  512SOL     OW 3329   0.307   0.063   4.342
  512SOL    HW1 3330   0.296   0.157   4.375
  512SOL    HW2 3331   0.302   0.000   4.419
  513SOL     OW 3332   1.023   0.766   4.690
  513SOL    HW1 3333   1.038   0.787   4.786
  513SOL    HW2 3334   0.993   0.671   4.681
  514SOL     OW 3335   1.303   0.838   3.766
  514SOL    HW1 3336   1.337   0.745   3.781
  514SOL    HW2 3337   1.321   0.865   3.671
  515SOL     OW 3338   1.068   1.333   4.573
  515SOL    HW1 3339   1.075   1.249   4.518
  515SOL    HW2 3340   1.130   1.402   4.537
  516SOL     OW 3341   1.160   0.207   5.201
  516SOL    HW1 3342   1.160   0.271   5.278
  516SOL    HW2 3343   1.188   0.255   5.118
  517SOL     OW 3344   0.088   1.801   4.651
  517SOL    HW1 3345   0.046   1.715   4.624
  517SOL    HW2 3346   0.182   1.804   4.617
  518SOL     OW 3347   0.504   1.568   4.634
  518SOL    HW1 3348   0.570   1.642   4.643
  518SOL    HW2 3349   0.548   1.489   4.592
  519SOL     OW 3350   1.002   0.796   4.962
  519SOL    HW1 3351   1.043   0.764   5.048
  519SOL    HW2 3352   0.906   0.769   4.959
  520SOL     OW 3353   0.815   0.572   4.049
  520SOL    HW1 3354   0.822   0.483   4.003
  520SOL    HW2 3355   0.721   0.606   4.041
  521SOL     OW 3356   1.657   0.604   4.930
  521SOL    HW1 3357   1.619   0.535   4.992
  521SOL    HW2 3358   1.739   0.568   4.886
  522SOL     OW 3359   0.671   0.464   4.993
  522SOL    HW1 3360   0.637   0.375   4.963
  522SOL    HW2 3361   0.697   0.518   4.913
  523SOL     OW 3362   0.930   1.678   5.189
  523SOL    HW1 3363   0.906   1.660   5.094
  523SOL    HW2 3364   0.960   1.772   5.199
  524SOL     OW 3365   0.473   0.500   3.915
  524SOL    HW1 3366   0.534   0.580   3.919
  524SOL    HW2 3367   0.378   0.531   3.922
  525SOL     OW 3368   1.347   1.059   4.958
  525SOL    HW1 3369   1.371   0.996   4.884
  525SOL    HW2 3370   1.257   1.099   4.940
  526SOL     OW 3371   1.302   0.855   4.033
  526SOL    HW1 3372   1.216   0.824   4.075
  526SOL    HW2 3373   1.298   0.841   3.934
  527SOL     OW 3374   1.759   1.747   4.878
  527SOL    HW1 3375   1.820   1.777   4.805
  527SOL    HW2 3376   1.721   1.658   4.856
  528SOL     OW 3377   1.252   1.731   4.852
  528SOL    HW1 3378   1.336   1.736   4.798
  528SOL    HW2 3379   1.229   1.635   4.870
  529SOL     OW 3380   0.083   1.258   4.746
  529SOL    HW1 3381   0.078   1.257   4.846
  529SOL    HW2 3382   0.000   1.217   4.708
  530SOL     OW 3383   1.726   0.135   4.247
  530SOL    HW1 3384   1.799   0.118   4.180
  530SOL    HW2 3385   1.695   0.048   4.285
  531SOL     OW 3386   1.388   1.573   4.201
  531SOL    HW1 3387   1.455   1.585   4.127
  531SOL    HW2 3388   1.348   1.662   4.224
  532SOL     OW 3389   1.280   0.927   4.396
  532SOL    HW1 3390   1.340   0.846   4.398
  532SOL    HW2 3391   1.320   0.996   4.336
  533SOL     OW 3392   1.650   1.720   5.118
  533SOL    HW1 3393   1.703   1.730   5.034
  533SOL    HW2 3394   1.623   1.810   5.152
  534SOL     OW 3395   1.841   0.175   4.687
  534SOL    HW1 3396   1.880   0.090   4.651
  534SOL    HW2 3397   1.743   0.177   4.668
  535SOL     OW 3398   1.194   1.612   3.755
  535SOL    HW1 3399   1.200   1.519   3.792
  535SOL    HW2 3400   1.135   1.612   3.675
  536SOL     OW 3401   0.822   1.002   5.096
  536SOL    HW1 3402   0.862   1.001   5.004
  536SOL    HW2 3403   0.832   1.094   5.136
  537SOL     OW 3404   0.916   0.910   4.015
  537SOL    HW1 3405   0.979   0.948   3.947
  537SOL    HW2 3406   0.956   0.827   4.054
  538SOL     OW 3407   1.504   1.607   3.768
  538SOL    HW1 3408   1.412   1.644   3.775
  538SOL    HW2 3409   1.542   1.627   3.678
  539SOL     OW 3410   1.039   1.098   4.420
  539SOL    HW1 3411   0.969   1.051   4.474
  539SOL    HW2 3412   1.098   1.030   4.377
  540SOL     OW 3413   1.014   0.236   4.695
  540SOL    HW1 3414   1.006   0.200   4.602
  540SOL    HW2 3415   1.012   0.160   4.760
  541SOL     OW 3416   1.709   0.385   5.105
  541SOL    HW1 3417   1.782   0.454   5.109
  541SOL    HW2 3418   1.737   0.310   5.046
  542SOL     OW 3419   0.255   1.348   4.014
  542SOL    HW1 3420   0.159   1.349   3.987
  542SOL    HW2 3421   0.267   1.401   4.098
  543SOL     OW 3422   0.075   0.345   3.757
  543SOL    HW1 3423  -0.017   0.317   3.728
  543SOL    HW2 3424   0.106   0.422   3.701
  544SOL     OW 3425   0.072   0.166   4.042
  544SOL    HW1 3426   0.055   0.249   3.988
  544SOL    HW2 3427   0.162   0.129   4.020
  545SOL     OW 3428   1.183   1.335   3.843
  545SOL    HW1 3429   1.084   1.324   3.845
  545SOL    HW2 3430   1.217   1.350   3.936
  546SOL     OW 3431   1.493   1.767   4.683
  546SOL    HW1 3432   1.526   1.831   4.614
  546SOL    HW2 3433   1.559   1.761   4.758
  547SOL     OW 3434   1.450   1.220   5.357
  547SOL    HW1 3435   1.441   1.210   5.456
  547SOL    HW2 3436   1.546   1.213   5.331
  548SOL     OW 3437   1.674   0.883   4.978
  548SOL    HW1 3438   1.647   0.794   4.941
  548SOL    HW2 3439   1.675   0.951   4.905
  549SOL     OW 3440   0.594   0.745   4.376
  549SOL    HW1 3441   0.644   0.830   4.357
  549SOL    HW2 3442   0.506   0.747   4.328
  550SOL     OW 3443   1.730   0.934   5.241
  550SOL    HW1 3444   1.768   1.025   5.256
  550SOL    HW2 3445   1.722   0.917   5.142
  551SOL     OW 3446   0.661   1.790   4.677
  551SOL    HW1 3447   0.615   1.878   4.664
  551SOL    HW2 3448   0.760   1.802   4.670
  552SOL     OW 3449   0.859   0.956   4.585
  552SOL    HW1 3450   0.913   0.887   4.633
  552SOL    HW2 3451   0.827   1.025   4.651
  553SOL     OW 3452   1.083   0.984   3.811
  553SOL    HW1 3453   1.060   1.037   3.729
  553SOL    HW2 3454   1.164   0.928   3.792
  554SOL     OW 3455   1.861   1.569   4.575
  554SOL    HW1 3456   1.790   1.557   4.505
  554SOL    HW2 3457   1.862   1.490   4.635
  555SOL     OW 3458   0.079   1.240   4.377
  555SOL    HW1 3459   0.078   1.193   4.465
  555SOL    HW2 3460   0.161   1.212   4.326
  556SOL     OW 3461   1.824   0.192   4.951
  556SOL    HW1 3462   1.820   0.102   4.995
  556SOL    HW2 3463   1.827   0.181   4.852
  557SOL     OW 3464   0.428   0.424   4.244
  557SOL    HW1 3465   0.458   0.352   4.182
  557SOL    HW2 3466   0.389   0.384   4.327
  558SOL     OW 3467   1.705   1.487   4.828
  558SOL    HW1 3468   1.612   1.462   4.801
  558SOL    HW2 3469   1.731   1.437   4.910
  559SOL     OW 3470   1.424   0.214   4.836
  559SOL    HW1 3471   1.476   0.149   4.891
  559SOL    HW2 3472   1.375   0.277   4.897
  560SOL     OW 3473   1.001   0.034   4.878
  560SOL    HW1 3474   0.938  -0.038   4.847
  560SOL    HW2 3475   1.094  -0.002   4.878
  561SOL     OW 3476   1.300   0.453   4.415
  561SOL    HW1 3477   1.241   0.533   4.419
  561SOL    HW2 3478   1.315   0.418   4.508
  562SOL     OW 3479   1.593   0.221   4.606
  562SOL    HW1 3480   1.509   0.220   4.660
  562SOL    HW2 3481   1.595   0.304   4.550
  563SOL     OW 3482   0.875   1.646   4.061
  563SOL    HW1 3483   0.798   1.611   4.007
  563SOL    HW2 3484   0.843   1.717   4.123
  564SOL     OW 3485   0.230   2.490   0.113
  564SOL    HW1 3486   0.137   2.488   0.150
  564SOL    HW2 3487   0.231   2.451   0.021
  565SOL     OW 3488   0.225   2.137   0.996
  565SOL    HW1 3489   0.260   2.120   1.088
  565SOL    HW2 3490   0.137   2.092   0.984
  566SOL     OW 3491   0.569   3.137   1.165
  566SOL    HW1 3492   0.476   3.130   1.128
  566SOL    HW2 3493   0.580   3.226   1.209
  567SOL     OW 3494   1.555   3.373   0.703
  567SOL    HW1 3495   1.498   3.357   0.784
  567SOL    HW2 3496   1.496   3.383   0.623
  568SOL     OW 3497   1.135   2.565   0.717
  568SOL    HW1 3498   1.192   2.643   0.692
  568SOL    HW2 3499   1.075   2.591   0.793
  569SOL     OW 3500   1.755   2.469   0.231
  569SOL    HW1 3501   1.743   2.456   0.132
  569SOL    HW2 3502   1.725   2.388   0.280
  570SOL     OW 3503   0.768   3.006   1.023
  570SOL    HW1 3504   0.690   3.023   1.083
  570SOL    HW2 3505   0.802   3.093   0.987
  571SOL     OW 3506   0.850   2.660   1.823
  571SOL    HW1 3507   0.846   2.736   1.888
  571SOL    HW2 3508   0.872   2.696   1.732
  572SOL     OW 3509   0.685   2.874   0.665
  572SOL    HW1 3510   0.754   2.858   0.735
  572SOL    HW2 3511   0.612   2.931   0.703
  573SOL     OW 3512   0.686   3.023   1.803
  573SOL    HW1 3513   0.746   3.102   1.817
  573SOL    HW2 3514   0.600   3.054   1.762
  574SOL     OW 3515   0.335   3.297   1.061
  574SOL    HW1 3516   0.257   3.266   1.008
  574SOL    HW2 3517   0.393   3.355   1.004
  575SOL     OW 3518   1.460   3.367   1.339
  575SOL    HW1 3519   1.484   3.461   1.365
  575SOL    HW2 3520   1.444   3.313   1.421
  576SOL     OW 3521   1.603   2.309   0.737
  576SOL    HW1 3522   1.529   2.355   0.687
  576SOL    HW2 3523   1.654   2.377   0.790
  577SOL     OW 3524   0.231   3.575   0.483
  577SOL    HW1 3525   0.265   3.652   0.537
  577SOL    HW2 3526   0.275   3.575   0.393
  578SOL     OW 3527   1.127   3.203   1.690
  578SOL    HW1 3528   1.174   3.203   1.778
  578SOL    HW2 3529   1.079   3.116   1.679
  579SOL     OW 3530   0.620   3.648   1.439
  579SOL    HW1 3531   0.528   3.631   1.474
  579SOL    HW2 3532   0.648   3.740   1.465
  580SOL     OW 3533   0.606   2.826   0.123
  580SOL    HW1 3534   0.613   2.910   0.069
  580SOL    HW2 3535   0.652   2.839   0.211
  581SOL     OW 3536   1.594   1.976   1.480
  581SOL    HW1 3537   1.576   2.043   1.408
  581SOL    HW2 3538   1.591   2.022   1.569
  582SOL     OW 3539   0.122   2.505   0.563
  582SOL    HW1 3540   0.077   2.417   0.580
  582SOL    HW2 3541   0.121   2.559   0.647
  583SOL     OW 3542   1.842   3.629   0.359
  583SOL    HW1 3543   1.896   3.600   0.439
  583SOL    HW2 3544   1.872   3.719   0.330
  584SOL     OW 3545   0.027   3.458   0.117
  584SOL    HW1 3546   0.008   3.362   0.138
  584SOL    HW2 3547  -0.006   3.516   0.192
  585SOL     OW 3548   1.689   2.784   0.612
  585SOL    HW1 3549   1.784   2.755   0.620
  585SOL    HW2 3550   1.681   2.849   0.537
  586SOL     OW 3551   1.641   2.970   0.432
  586SOL    HW1 3552   1.727   2.972   0.380
  586SOL    HW2 3553   1.655   3.017   0.520
  587SOL     OW 3554   0.113   2.599   1.597
  587SOL    HW1 3555   0.201   2.586   1.642
  587SOL    HW2 3556   0.100   2.696   1.575
  588SOL     OW 3557   0.613   3.227   0.726
  588SOL    HW1 3558   0.564   3.140   0.735
  588SOL    HW2 3559   0.590   3.270   0.639
  589SOL     OW 3560   1.293   3.090   1.423
  589SOL    HW1 3561   1.330   3.017   1.365
  589SOL    HW2 3562   1.345   3.095   1.508
  590SOL     OW 3563   0.809   1.866   0.502
  590SOL    HW1 3564   0.849   1.957   0.493
  590SOL    HW2 3565   0.709   1.874   0.508
  591SOL     OW 3566   0.197   2.838   1.264
  591SOL    HW1 3567   0.286   2.793   1.250
  591SOL    HW2 3568   0.124   2.773   1.245
  592SOL     OW 3569   1.525   2.861   0.190
  592SOL    HW1 3570   1.462   2.785   0.203
  592SOL    HW2 3571   1.573   2.879   0.276
  593SOL     OW 3572   1.187   3.654   1.616
  593SOL    HW1 3573   1.211   3.714   1.540
  593SOL    HW2 3574   1.194   3.559   1.586
  594SOL     OW 3575   0.317   2.113   1.801
  594SOL    HW1 3576   0.388   2.184   1.807
  594SOL    HW2 3577   0.229   2.152   1.829
  595SOL     OW 3578   1.466   3.279   0.953
  595SOL    HW1 3579   1.407   3.285   1.033
  595SOL    HW2 3580   1.451   3.191   0.907
  596SOL     OW 3581   1.667   3.576   0.572
  596SOL    HW1 3582   1.626   3.553   0.484
  596SOL    HW2 3583   1.649   3.502   0.637
  597SOL     OW 3584   0.598   2.591   0.270
  597SOL    HW1 3585   0.622   2.660   0.202
  597SOL    HW2 3586   0.520   2.624   0.324
  598SOL     OW 3587   1.281   2.207   0.944
  598SOL    HW1 3588   1.195   2.157   0.931
  598SOL    HW2 3589   1.343   2.153   1.000
  599SOL     OW 3590   1.576   3.524   0.307
  599SOL    HW1 3591   1.665   3.570   0.310
  599SOL    HW2 3592   1.555   3.500   0.212
  600SOL     OW 3593   0.807   2.467   1.465
  600SOL    HW1 3594   0.760   2.464   1.554
  600SOL    HW2 3595   0.756   2.412   1.399
  601SOL     OW 3596   1.394   2.331   1.674
  601SOL    HW1 3597   1.374   2.374   1.762
  601SOL    HW2 3598   1.472   2.269   1.683
  602SOL     OW 3599   0.973   2.752   1.572
  602SOL    HW1 3600   1.019   2.668   1.543
  602SOL    HW2 3601   0.917   2.786   1.497
  603SOL     OW 3602   1.041   2.563   0.429
  603SOL    HW1 3603   1.067   2.559   0.525
  603SOL    HW2 3604   0.956   2.512   0.415
  604SOL     OW 3605   0.076   2.673   0.789
  604SOL    HW1 3606   0.175   2.661   0.798
  604SOL    HW2 3607   0.052   2.768   0.810
  605SOL     OW 3608   0.130   3.683   1.571
  605SOL    HW1 3609   0.120   3.668   1.670
  605SOL    HW2 3610   0.044   3.719   1.535
  606SOL     OW 3611   1.719   2.447   1.831
  606SOL    HW1 3612   1.693   2.536   1.795
  606SOL    HW2 3613   1.717   2.379   1.758
  607SOL     OW 3614   1.362   3.006   0.545
  607SOL    HW1 3615   1.445   2.977   0.497
  607SOL    HW2 3616   1.313   3.073   0.489
  608SOL     OW 3617   0.550   2.058   0.885
  608SOL    HW1 3618   0.545   2.053   0.985
  608SOL    HW2 3619   0.552   2.154   0.856
  609SOL     OW 3620   0.351   3.663   0.853
  609SOL    HW1 3621   0.401   3.577   0.859
  609SOL    HW2 3622   0.416   3.740   0.850
  610SOL     OW 3623   1.795   2.928   0.873
  610SOL    HW1 3624   1.733   2.913   0.797
  610SOL    HW2 3625   1.743   2.939   0.958
  611SOL     OW 3626   1.227   3.412   1.506
  611SOL    HW1 3627   1.233   3.335   1.570
  611SOL    HW2 3628   1.175   3.386   1.426
  612SOL     OW 3629   0.321   2.805   0.242
  612SOL    HW1 3630   0.403   2.844   0.200
  612SOL    HW2 3631   0.294   2.723   0.193
  613SOL     OW 3632   1.458   2.597   0.728
  613SOL    HW1 3633   1.453   2.532   0.803
  613SOL    HW2 3634   1.538   2.656   0.741
  614SOL     OW 3635   0.461   3.128   1.727
  614SOL    HW1 3636   0.411   3.129   1.641
  614SOL    HW2 3637   0.398   3.110   1.803
  615SOL     OW 3638   1.111   3.638   0.237
  615SOL    HW1 3639   1.051   3.576   0.287
  615SOL    HW2 3640   1.142   3.594   0.152
  616SOL     OW 3641   0.202   2.147   1.498
  616SOL    HW1 3642   0.122   2.207   1.485
  616SOL    HW2 3643   0.192   2.098   1.584
  617SOL     OW 3644   0.464   3.605   0.323
  617SOL    HW1 3645   0.497   3.644   0.409
  617SOL    HW2 3646   0.540   3.598   0.258
  618SOL     OW 3647   1.400   1.969   0.426
  618SOL    HW1 3648   1.376   1.932   0.336
  618SOL    HW2 3649   1.499   1.985   0.430
  619SOL     OW 3650   0.249   3.647   1.241
  619SOL    HW1 3651   0.306   3.582   1.291
  619SOL    HW2 3652   0.233   3.614   1.148
  620SOL     OW 3653   0.382   2.562   0.480
  620SOL    HW1 3654   0.427   2.472   0.477
  620SOL    HW2 3655   0.288   2.551   0.513
  621SOL     OW 3656   1.547   2.084   1.729
  621SOL    HW1 3657   1.542   2.121   1.821
  621SOL    HW2 3658   1.475   2.015   1.717
  622SOL     OW 3659   0.888   3.376   1.195
  622SOL    HW1 3660   0.865   3.351   1.101
  622SOL    HW2 3661   0.949   3.307   1.234
  623SOL     OW 3662   1.351   2.452   1.433
  623SOL    HW1 3663   1.379   2.409   1.518
  623SOL    HW2 3664   1.376   2.548   1.434
  624SOL     OW 3665   0.803   3.264   0.924
  624SOL    HW1 3666   0.893   3.278   0.882
  624SOL    HW2 3667   0.732   3.266   0.853
  625SOL     OW 3668   0.922   2.365   0.899
  625SOL    HW1 3669   0.897   2.356   0.803
  625SOL    HW2 3670   0.970   2.283   0.930
  626SOL     OW 3671   0.539   1.926   0.512
  626SOL    HW1 3672   0.458   1.927   0.570
  626SOL    HW2 3673   0.542   2.009   0.457
  627SOL     OW 3674   0.297   1.897   0.171
  627SOL    HW1 3675   0.346   1.981   0.150
  627SOL    HW2 3676   0.359   1.832   0.216
  628SOL     OW 3677   0.935   2.098   0.480
  628SOL    HW1 3678   0.887   2.139   0.402
  628SOL    HW2 3679   1.034   2.096   0.461
  629SOL     OW 3680   1.076   2.545   1.464
  629SOL    HW1 3681   0.996   2.484   1.467
  629SOL    HW2 3682   1.157   2.492   1.440
  630SOL     OW 3683   0.078   2.418   1.386
  630SOL    HW1 3684   0.170   2.417   1.345
  630SOL    HW2 3685   0.072   2.492   1.453
  631SOL     OW 3686   0.561   2.084   1.147
  631SOL    HW1 3687   0.599   2.000   1.184
  631SOL    HW2 3688   0.473   2.103   1.191
  632SOL     OW 3689   0.866   2.316   0.642
  632SOL    HW1 3690   0.834   2.388   0.580
  632SOL    HW2 3691   0.890   2.235   0.589
  633SOL     OW 3692   1.017   1.901   0.753
  633SOL    HW1 3693   0.945   1.906   0.684
  633SOL    HW2 3694   0.993   1.832   0.822
  634SOL     OW 3695   1.429   3.035   0.867
  634SOL    HW1 3696   1.374   2.951   0.860
  634SOL    HW2 3697   1.455   3.064   0.775
  635SOL     OW 3698   1.466   2.452   0.992
  635SOL    HW1 3699   1.436   2.357   0.999
  635SOL    HW2 3700   1.539   2.468   1.058
  636SOL     OW 3701   1.857   2.695   0.377
  636SOL    HW1 3702   1.899   2.631   0.441
  636SOL    HW2 3703   1.819   2.644   0.299
  637SOL     OW 3704   1.664   3.142   0.657
  637SOL    HW1 3705   1.763   3.150   0.671
  637SOL    HW2 3706   1.619   3.226   0.688
  638SOL     OW 3707   0.527   2.118   0.328
  638SOL    HW1 3708   0.554   2.059   0.253
  638SOL    HW2 3709   0.527   2.213   0.297
  639SOL     OW 3710   1.754   3.085   1.588
  639SOL    HW1 3711   1.845   3.046   1.575
  639SOL    HW2 3712   1.762   3.181   1.612
  640SOL     OW 3713   1.064   3.209   1.340
  640SOL    HW1 3714   0.984   3.186   1.395
  640SOL    HW2 3715   1.147   3.183   1.389
  641SOL     OW 3716   1.592   3.491   1.625
  641SOL    HW1 3717   1.619   3.525   1.535
  641SOL    HW2 3718   1.671   3.453   1.671
  642SOL     OW 3719   1.111   3.057   1.100
  642SOL    HW1 3720   1.071   3.101   1.181
  642SOL    HW2 3721   1.070   3.094   1.017
  643SOL     OW 3722   1.638   2.961   1.079
  643SOL    HW1 3723   1.643   3.042   1.138
  643SOL    HW2 3724   1.552   2.963   1.028
  644SOL     OW 3725   0.980   2.978   1.719
  644SOL    HW1 3726   0.881   2.984   1.729
  644SOL    HW2 3727   1.003   2.898   1.663
  645SOL     OW 3728   0.705   2.912   0.368
  645SOL    HW1 3729   0.691   2.919   0.467
  645SOL    HW2 3730   0.789   2.861   0.350
  646SOL     OW 3731   0.410   2.675   1.251
  646SOL    HW1 3732   0.496   2.687   1.301
  646SOL    HW2 3733   0.368   2.588   1.278
  647SOL     OW 3734   1.274   2.248   1.262
  647SOL    HW1 3735   1.295   2.322   1.326
  647SOL    HW2 3736   1.185   2.265   1.219
  648SOL     OW 3737   0.064   3.426   1.331
  648SOL    HW1 3738   0.018   3.508   1.297
  648SOL    HW2 3739   0.162   3.445   1.340
  649SOL     OW 3740   0.566   2.399   0.865
  649SOL    HW1 3741   0.578   2.465   0.791
  649SOL    HW2 3742   0.612   2.433   0.948
  650SOL     OW 3743   1.272   3.307   1.142
  650SOL    HW1 3744   1.319   3.320   1.229
  650SOL    HW2 3745   1.206   3.233   1.151
  651SOL     OW 3746   1.582   2.501   0.472
  651SOL    HW1 3747   1.551   2.562   0.545
  651SOL    HW2 3748   1.632   2.553   0.403
  652SOL     OW 3749   0.354   3.372   1.329
  652SOL    HW1 3750   0.333   3.328   1.242
  652SOL    HW2 3751   0.451   3.398   1.332
  653SOL     OW 3752   0.402   2.613   1.598
  653SOL    HW1 3753   0.470   2.668   1.551
  653SOL    HW2 3754   0.442   2.525   1.625
  654SOL     OW 3755   1.587   2.641   1.670
  654SOL    HW1 3756   1.495   2.679   1.665
  654SOL    HW2 3757   1.647   2.688   1.605
  655SOL     OW 3758   0.573   2.732   1.029
  655SOL    HW1 3759   0.617   2.821   1.020
  655SOL    HW2 3760   0.510   2.732   1.106
  656SOL     OW 3761   1.360   2.724   1.045
  656SOL    HW1 3762   1.285   2.724   0.979
  656SOL    HW2 3763   1.397   2.632   1.054
  657SOL     OW 3764   0.307   2.075   1.231
  657SOL    HW1 3765   0.284   2.112   1.321
  657SOL    HW2 3766   0.277   1.980   1.225
  658SOL     OW 3767   0.037   3.172   1.282
  658SOL    HW1 3768   0.090   3.123   1.350
  658SOL    HW2 3769   0.059   3.270   1.287
  659SOL     OW 3770   0.732   2.496   1.064
  659SOL    HW1 3771   0.791   2.470   0.988
  659SOL    HW2 3772   0.704   2.592   1.053
  660SOL     OW 3773   1.728   2.797   1.854
  660SOL    HW1 3774   1.682   2.790   1.765
  660SOL    HW2 3775   1.666   2.841   1.920
  661SOL     OW 3776   0.307   1.925   0.618
  661SOL    HW1 3777   0.296   2.019   0.651
  661SOL    HW2 3778   0.302   1.862   0.695
  662SOL     OW 3779   1.622   2.229   0.374
  662SOL    HW1 3780   1.624   2.153   0.438
  662SOL    HW2 3781   1.574   2.306   0.414
  663SOL     OW 3782   1.023   2.628   0.966
  663SOL    HW1 3783   1.038   2.649   1.062
  663SOL    HW2 3784   0.993   2.533   0.957
  664SOL     OW 3785   0.980   3.435   1.700
  664SOL    HW1 3786   0.960   3.479   1.612
  664SOL    HW2 3787   1.019   3.344   1.684
  665SOL     OW 3788   1.859   3.380   1.605
  665SOL    HW1 3789   1.873   3.407   1.510
  665SOL    HW2 3790   1.942   3.402   1.658
  666SOL     OW 3791   0.350   2.760   1.804
  666SOL    HW1 3792   0.426   2.804   1.852
  666SOL    HW2 3793   0.385   2.713   1.722
  667SOL     OW 3794   1.540   2.136   0.125
  667SOL    HW1 3795   1.479   2.061   0.148
  667SOL    HW2 3796   1.562   2.188   0.208
  668SOL     OW 3797   1.303   2.700   0.042
  668SOL    HW1 3798   1.337   2.607   0.057
  668SOL    HW2 3799   1.321   2.727  -0.053
  669SOL     OW 3800   1.068   3.195   0.849
  669SOL    HW1 3801   1.075   3.111   0.794
  669SOL    HW2 3802   1.130   3.264   0.813
  670SOL     OW 3803   0.319   2.672   0.949
  670SOL    HW1 3804   0.412   2.708   0.954
  670SOL    HW2 3805   0.313   2.587   1.001
  671SOL     OW 3806   0.339   2.371   1.006
  671SOL    HW1 3807   0.287   2.288   0.989
  671SOL    HW2 3808   0.416   2.376   0.942
  672SOL     OW 3809   1.138   2.242   1.678
  672SOL    HW1 3810   1.093   2.305   1.742
  672SOL    HW2 3811   1.231   2.273   1.661
  673SOL     OW 3812   1.160   2.069   1.477
  673SOL    HW1 3813   1.160   2.133   1.554
  673SOL    HW2 3814   1.188   2.117   1.394
  674SOL     OW 3815   0.088   3.663   0.927
  674SOL    HW1 3816   0.046   3.577   0.900
  674SOL    HW2 3817   0.182   3.666   0.893
  675SOL     OW 3818   0.504   3.430   0.910
  675SOL    HW1 3819   0.570   3.504   0.919
  675SOL    HW2 3820   0.548   3.351   0.868
  676SOL     OW 3821   1.002   2.658   1.238
  676SOL    HW1 3822   1.043   2.626   1.324
  676SOL    HW2 3823   0.906   2.631   1.235
  677SOL     OW 3824   0.040   2.406   1.114
  677SOL    HW1 3825   0.125   2.373   1.073
  677SOL    HW2 3826   0.053   2.421   1.212
  678SOL     OW 3827   0.189   2.382   1.722
  678SOL    HW1 3828   0.248   2.342   1.652
  678SOL    HW2 3829   0.131   2.453   1.681
  679SOL     OW 3830   1.369   2.812   1.660
  679SOL    HW1 3831   1.408   2.901   1.680
  679SOL    HW2 3832   1.379   2.792   1.563
  680SOL     OW 3833   1.657   2.466   1.206
  680SOL    HW1 3834   1.619   2.397   1.268
  680SOL    HW2 3835   1.739   2.430   1.162
  681SOL     OW 3836   0.252   3.426   1.744
  681SOL    HW1 3837   0.222   3.483   1.820
  681SOL    HW2 3838   0.245   3.329   1.770
  682SOL     OW 3839   0.930   3.540   1.465
  682SOL    HW1 3840   0.906   3.522   1.370
  682SOL    HW2 3841   0.960   3.634   1.475
  683SOL     OW 3842   0.473   2.362   0.191
  683SOL    HW1 3843   0.534   2.442   0.195
  683SOL    HW2 3844   0.378   2.393   0.198
  684SOL     OW 3845   0.159   2.999   1.466
  684SOL    HW1 3846   0.181   2.938   1.542
  684SOL    HW2 3847   0.169   2.950   1.380
  685SOL     OW 3848   1.347   2.921   1.234
  685SOL    HW1 3849   1.371   2.858   1.160
  685SOL    HW2 3850   1.257   2.961   1.216
  686SOL     OW 3851   1.302   2.717   0.309
  686SOL    HW1 3852   1.216   2.686   0.351
  686SOL    HW2 3853   1.298   2.703   0.210
  687SOL     OW 3854   1.759   3.609   1.154
  687SOL    HW1 3855   1.820   3.639   1.081
  687SOL    HW2 3856   1.721   3.520   1.132
  688SOL     OW 3857   1.252   3.593   1.128
  688SOL    HW1 3858   1.336   3.598   1.074
  688SOL    HW2 3859   1.229   3.497   1.146
  689SOL     OW 3860   0.083   3.120   1.022
  689SOL    HW1 3861   0.078   3.119   1.122
  689SOL    HW2 3862   0.000   3.079   0.984
  690SOL     OW 3863   0.688   3.524   1.716
  690SOL    HW1 3864   0.632   3.605   1.725
  690SOL    HW2 3865   0.740   3.528   1.630
  691SOL     OW 3866   0.903   1.948   0.133
  691SOL    HW1 3867   0.954   1.949   0.047
  691SOL    HW2 3868   0.959   1.906   0.204
  692SOL     OW 3869   1.726   1.997   0.523
  692SOL    HW1 3870   1.799   1.980   0.456
  692SOL    HW2 3871   1.695   1.910   0.561
  693SOL     OW 3872   0.130   3.656   1.851
  693SOL    HW1 3873   0.089   3.582   1.904
  693SOL    HW2 3874   0.194   3.707   1.909
  694SOL     OW 3875   1.280   2.789   0.672
  694SOL    HW1 3876   1.340   2.708   0.674
  694SOL    HW2 3877   1.320   2.858   0.612
  695SOL     OW 3878   0.830   3.135   1.422
  695SOL    HW1 3879   0.825   3.168   1.517
  695SOL    HW2 3880   0.744   3.154   1.376
  696SOL     OW 3881   0.672   3.478   0.154
  696SOL    HW1 3882   0.681   3.488   0.055
  696SOL    HW2 3883   0.632   3.389   0.175
  697SOL     OW 3884   1.650   3.582   1.394
  697SOL    HW1 3885   1.703   3.592   1.310
  697SOL    HW2 3886   1.623   3.672   1.428
  698SOL     OW 3887   1.841   2.037   0.963
  698SOL    HW1 3888   1.880   1.952   0.927
  698SOL    HW2 3889   1.743   2.039   0.944
  699SOL     OW 3890   0.822   2.864   1.372
  699SOL    HW1 3891   0.862   2.863   1.280
  699SOL    HW2 3892   0.832   2.956   1.412
  700SOL     OW 3893   0.916   2.772   0.291
  700SOL    HW1 3894   0.979   2.810   0.223
  700SOL    HW2 3895   0.956   2.689   0.330
  701SOL     OW 3896   0.372   3.150   1.490
  701SOL    HW1 3897   0.359   3.243   1.456
  701SOL    HW2 3898   0.288   3.098   1.477
  702SOL     OW 3899   1.614   3.154   1.289
  702SOL    HW1 3900   1.674   3.157   1.369
  702SOL    HW2 3901   1.539   3.218   1.302
  703SOL     OW 3902   1.039   2.960   0.696
  703SOL    HW1 3903   0.969   2.913   0.750
  703SOL    HW2 3904   1.098   2.892   0.653
  704SOL     OW 3905   1.014   2.098   0.971
  704SOL    HW1 3906   1.006   2.062   0.878
  704SOL    HW2 3907   1.012   2.022   1.036
  705SOL     OW 3908   0.105   2.875   1.726
  705SOL    HW1 3909   0.028   2.842   1.780
  705SOL    HW2 3910   0.190   2.845   1.768
  706SOL     OW 3911   0.075   2.207   0.033
  706SOL    HW1 3912  -0.017   2.179   0.004
  706SOL    HW2 3913   0.106   2.284  -0.023
  707SOL     OW 3914   1.440   2.718   1.398
  707SOL    HW1 3915   1.383   2.770   1.335
  707SOL    HW2 3916   1.536   2.730   1.374
  708SOL     OW 3917   0.613   2.704   1.431
  708SOL    HW1 3918   0.669   2.785   1.414
  708SOL    HW2 3919   0.672   2.624   1.434
  709SOL     OW 3920   1.493   3.629   0.959
  709SOL    HW1 3921   1.526   3.693   0.890
  709SOL    HW2 3922   1.559   3.623   1.034
  710SOL     OW 3923   0.716   2.427   1.708
  710SOL    HW1 3924   0.735   2.492   1.782
  710SOL    HW2 3925   0.776   2.347   1.717
  711SOL     OW 3926   1.450   3.082   1.633
  711SOL    HW1 3927   1.441   3.072   1.732
  711SOL    HW2 3928   1.546   3.075   1.607
  712SOL     OW 3929   0.390   3.603   1.560
  712SOL    HW1 3930   0.299   3.644   1.558
  712SOL    HW2 3931   0.383   3.509   1.592
  713SOL     OW 3932   1.674   2.745   1.254
  713SOL    HW1 3933   1.647   2.656   1.217
  713SOL    HW2 3934   1.675   2.813   1.181
  714SOL     OW 3935   1.225   2.187   0.449
  714SOL    HW1 3936   1.290   2.113   0.438
  714SOL    HW2 3937   1.245   2.237   0.533
  715SOL     OW 3938   0.594   2.607   0.652
  715SOL    HW1 3939   0.644   2.692   0.633
  715SOL    HW2 3940   0.506   2.609   0.604
  716SOL     OW 3941   1.730   2.796   1.517
  716SOL    HW1 3942   1.768   2.887   1.532
  716SOL    HW2 3943   1.722   2.779   1.418
  717SOL     OW 3944   0.859   2.818   0.861
  717SOL    HW1 3945   0.913   2.749   0.909
  717SOL    HW2 3946   0.827   2.887   0.927
  718SOL     OW 3947   1.083   2.846   0.087
  718SOL    HW1 3948   1.060   2.899   0.005
  718SOL    HW2 3949   1.164   2.790   0.068
  719SOL     OW 3950   1.861   3.431   0.851
  719SOL    HW1 3951   1.790   3.419   0.781
  719SOL    HW2 3952   1.862   3.352   0.911
  720SOL     OW 3953   0.221   3.176   1.844
  720SOL    HW1 3954   0.156   3.103   1.823
  720SOL    HW2 3955   0.225   3.190   1.942
  721SOL     OW 3956   0.079   3.102   0.653
  721SOL    HW1 3957   0.078   3.055   0.741
  721SOL    HW2 3958   0.161   3.074   0.602
  722SOL     OW 3959   0.672   3.253   1.624
  722SOL    HW1 3960   0.594   3.203   1.662
  722SOL    HW2 3961   0.669   3.348   1.655
  723SOL     OW 3962   1.824   2.054   1.227
  723SOL    HW1 3963   1.820   1.964   1.271
  723SOL    HW2 3964   1.827   2.043   1.128
  724SOL     OW 3965   0.428   2.286   0.520
  724SOL    HW1 3966   0.458   2.214   0.458
  724SOL    HW2 3967   0.389   2.246   0.603
  725SOL     OW 3968   1.705   3.349   1.104
  725SOL    HW1 3969   1.612   3.324   1.077
  725SOL    HW2 3970   1.731   3.299   1.186
  726SOL     OW 3971   0.317   2.409   1.280
  726SOL    HW1 3972   0.355   2.350   1.352
  726SOL    HW2 3973   0.357   2.383   1.192
  727SOL     OW 3974   0.812   3.448   0.687
  727SOL    HW1 3975   0.844   3.458   0.593
  727SOL    HW2 3976   0.733   3.386   0.689
  728SOL     OW 3977   1.424   2.076   1.112
  728SOL    HW1 3978   1.476   2.011   1.167
  728SOL    HW2 3979   1.375   2.139   1.173
  729SOL     OW 3980   1.001   1.896   1.154
  729SOL    HW1 3981   0.938   1.824   1.123
  729SOL    HW2 3982   1.094   1.860   1.154
  730SOL     OW 3983   0.618   3.429   1.284
  730SOL    HW1 3984   0.613   3.511   1.341
  730SOL    HW2 3985   0.707   3.426   1.239
  731SOL     OW 3986   1.352   1.914   0.168
  731SOL    HW1 3987   1.387   1.873   0.084
  731SOL    HW2 3988   1.262   1.876   0.188
  732SOL     OW 3989   1.300   2.315   0.691
  732SOL    HW1 3990   1.241   2.395   0.695
  732SOL    HW2 3991   1.315   2.280   0.784
  733SOL     OW 3992   1.593   2.083   0.882
  733SOL    HW1 3993   1.509   2.082   0.936
  733SOL    HW2 3994   1.595   2.166   0.826
  734SOL     OW 3995   0.875   3.508   0.337
  734SOL    HW1 3996   0.798   3.473   0.283
  734SOL    HW2 3997   0.843   3.579   0.399
  735SOL     OW 3998   0.230   2.490   1.975
  735SOL    HW1 3999   0.137   2.488   2.012
  735SOL    HW2 4000   0.231   2.451   1.883
  736SOL     OW 4001   0.225   2.137   2.858
  736SOL    HW1 4002   0.260   2.120   2.950
  736SOL    HW2 4003   0.137   2.092   2.846
  737SOL     OW 4004   0.019   2.230   2.509
  737SOL    HW1 4005  -0.063   2.273   2.548
  737SOL    HW2 4006  -0.009   2.157   2.446
  738SOL     OW 4007   0.569   3.137   3.027
  738SOL    HW1 4008   0.476   3.130   2.990
  738SOL    HW2 4009   0.580   3.226   3.071
  739SOL     OW 4010   1.555   3.373   2.565
  739SOL    HW1 4011   1.498   3.357   2.646
  739SOL    HW2 4012   1.496   3.383   2.485
  740SOL     OW 4013   1.135   2.565   2.579
  740SOL    HW1 4014   1.192   2.643   2.554
  740SOL    HW2 4015   1.075   2.591   2.655
  741SOL     OW 4016   1.755   2.469   2.093
  741SOL    HW1 4017   1.743   2.456   1.994
  741SOL    HW2 4018   1.725   2.388   2.142
  742SOL     OW 4019   0.768   3.006   2.885
  742SOL    HW1 4020   0.690   3.023   2.945
  742SOL    HW2 4021   0.802   3.093   2.849
  743SOL     OW 4022   0.850   2.660   3.685
  743SOL    HW1 4023   0.846   2.736   3.750
  743SOL    HW2 4024   0.872   2.696   3.594
  744SOL     OW 4025   0.685   2.874   2.527
  744SOL    HW1 4026   0.754   2.858   2.597
  744SOL    HW2 4027   0.612   2.931   2.565
  745SOL     OW 4028   0.686   3.023   3.665
  745SOL    HW1 4029   0.746   3.102   3.679
  745SOL    HW2 4030   0.600   3.054   3.624
  746SOL     OW 4031   0.335   3.297   2.923
  746SOL    HW1 4032   0.257   3.266   2.870
  746SOL    HW2 4033   0.393   3.355   2.866
  747SOL     OW 4034   1.603   2.309   2.599
  747SOL    HW1 4035   1.529   2.355   2.549
  747SOL    HW2 4036   1.654   2.377   2.652
  748SOL     OW 4037   0.231   3.575   2.345
  748SOL    HW1 4038   0.265   3.652   2.399
  748SOL    HW2 4039   0.275   3.575   2.255
  749SOL     OW 4040   0.230   3.296   2.400
  749SOL    HW1 4041   0.204   3.392   2.400
  749SOL    HW2 4042   0.159   3.242   2.445
  750SOL     OW 4043   0.240   2.953   2.748
  750SOL    HW1 4044   0.254   2.869   2.800
  750SOL    HW2 4045   0.185   3.017   2.803
  751SOL     OW 4046   0.620   3.648   3.301
  751SOL    HW1 4047   0.528   3.631   3.336
  751SOL    HW2 4048   0.648   3.740   3.327
  752SOL     OW 4049   0.606   2.826   1.985
  752SOL    HW1 4050   0.613   2.910   1.931
  752SOL    HW2 4051   0.652   2.839   2.073
  753SOL     OW 4052   1.594   1.976   3.342
  753SOL    HW1 4053   1.576   2.043   3.270
  753SOL    HW2 4054   1.591   2.022   3.431
  754SOL     OW 4055   0.122   2.505   2.425
  754SOL    HW1 4056   0.077   2.417   2.442
  754SOL    HW2 4057   0.121   2.559   2.509
  755SOL     OW 4058   1.689   2.784   2.474
  755SOL    HW1 4059   1.784   2.755   2.482
  755SOL    HW2 4060   1.681   2.849   2.399
  756SOL     OW 4061   1.641   2.970   2.294
  756SOL    HW1 4062   1.727   2.972   2.242
  756SOL    HW2 4063   1.655   3.017   2.382
  757SOL     OW 4064   0.113   2.599   3.459
  757SOL    HW1 4065   0.201   2.586   3.504
  757SOL    HW2 4066   0.100   2.696   3.437
  758SOL     OW 4067   1.293   3.090   3.285
  758SOL    HW1 4068   1.330   3.017   3.227
  758SOL    HW2 4069   1.345   3.095   3.370
  759SOL     OW 4070   0.809   1.866   2.364
  759SOL    HW1 4071   0.849   1.957   2.355
  759SOL    HW2 4072   0.709   1.874   2.370
  760SOL     OW 4073   0.197   2.838   3.126
  760SOL    HW1 4074   0.286   2.793   3.112
  760SOL    HW2 4075   0.124   2.773   3.107
  761SOL     OW 4076   1.525   2.861   2.052
  761SOL    HW1 4077   1.462   2.785   2.065
  761SOL    HW2 4078   1.573   2.879   2.138
  762SOL     OW 4079   1.187   3.654   3.478
  762SOL    HW1 4080   1.211   3.714   3.402
  762SOL    HW2 4081   1.194   3.559   3.448
  763SOL     OW 4082   0.317   2.113   3.663
  763SOL    HW1 4083   0.388   2.184   3.669
  763SOL    HW2 4084   0.229   2.152   3.691
  764SOL     OW 4085   1.466   3.279   2.815
  764SOL    HW1 4086   1.407   3.285   2.895
  764SOL    HW2 4087   1.451   3.191   2.769
  765SOL     OW 4088   1.667   3.576   2.434
  765SOL    HW1 4089   1.626   3.553   2.346
  765SOL    HW2 4090   1.649   3.502   2.499
  766SOL     OW 4091   0.598   2.591   2.132
  766SOL    HW1 4092   0.622   2.660   2.064
  766SOL    HW2 4093   0.520   2.624   2.186
  767SOL     OW 4094   1.281   2.207   2.806
  767SOL    HW1 4095   1.195   2.157   2.793
  767SOL    HW2 4096   1.343   2.153   2.862
  768SOL     OW 4097   1.576   3.524   2.169
  768SOL    HW1 4098   1.665   3.570   2.172
  768SOL    HW2 4099   1.555   3.500   2.074
  769SOL     OW 4100   1.394   2.331   3.536
  769SOL    HW1 4101   1.374   2.374   3.624
  769SOL    HW2 4102   1.472   2.269   3.545
  770SOL     OW 4103   0.973   2.752   3.434
  770SOL    HW1 4104   1.019   2.668   3.405
  770SOL    HW2 4105   0.917   2.786   3.359
  771SOL     OW 4106   0.076   2.673   2.651
  771SOL    HW1 4107   0.175   2.661   2.660
  771SOL    HW2 4108   0.052   2.768   2.672
  772SOL     OW 4109   0.130   3.683   3.433
  772SOL    HW1 4110   0.120   3.668   3.532
  772SOL    HW2 4111   0.044   3.719   3.397
  773SOL     OW 4112   0.865   2.210   2.057
  773SOL    HW1 4113   0.924   2.273   2.008
  773SOL    HW2 4114   0.884   2.116   2.028
  774SOL     OW 4115   1.719   2.447   3.693
  774SOL    HW1 4116   1.693   2.536   3.657
  774SOL    HW2 4117   1.717   2.379   3.620
  775SOL     OW 4118   0.550   2.058   2.747
  775SOL    HW1 4119   0.545   2.053   2.847
  775SOL    HW2 4120   0.552   2.154   2.718
  776SOL     OW 4121   0.351   3.663   2.715
  776SOL    HW1 4122   0.401   3.577   2.721
  776SOL    HW2 4123   0.416   3.740   2.712
  777SOL     OW 4124   1.795   2.928   2.735
  777SOL    HW1 4125   1.733   2.913   2.659
  777SOL    HW2 4126   1.743   2.939   2.820
  778SOL     OW 4127   0.321   2.805   2.104
  778SOL    HW1 4128   0.403   2.844   2.062
  778SOL    HW2 4129   0.294   2.723   2.055
  779SOL     OW 4130   1.458   2.597   2.590
  779SOL    HW1 4131   1.453   2.532   2.665
  779SOL    HW2 4132   1.538   2.656   2.603
  780SOL     OW 4133   0.461   3.128   3.589
  780SOL    HW1 4134   0.411   3.129   3.503
  780SOL    HW2 4135   0.398   3.110   3.665
  781SOL     OW 4136   1.111   3.638   2.099
  781SOL    HW1 4137   1.051   3.576   2.149
  781SOL    HW2 4138   1.142   3.594   2.014
  782SOL     OW 4139   0.202   2.147   3.360
  782SOL    HW1 4140   0.122   2.207   3.347
  782SOL    HW2 4141   0.192   2.098   3.446
  783SOL     OW 4142   1.632   3.239   1.943
  783SOL    HW1 4143   1.600   3.333   1.933
  783SOL    HW2 4144   1.556   3.176   1.931
  784SOL     OW 4145   0.464   3.605   2.185
  784SOL    HW1 4146   0.497   3.644   2.271
  784SOL    HW2 4147   0.540   3.598   2.120
  785SOL     OW 4148   1.400   1.969   2.288
  785SOL    HW1 4149   1.376   1.932   2.198
  785SOL    HW2 4150   1.499   1.985   2.292
  786SOL     OW 4151   0.249   3.647   3.103
  786SOL    HW1 4152   0.306   3.582   3.153
  786SOL    HW2 4153   0.233   3.614   3.010
  787SOL     OW 4154   0.940   3.560   2.766
  787SOL    HW1 4155   1.020   3.503   2.787
  787SOL    HW2 4156   0.891   3.520   2.689
  788SOL     OW 4157   0.382   2.562   2.342
  788SOL    HW1 4158   0.427   2.472   2.339
  788SOL    HW2 4159   0.288   2.551   2.375
  789SOL     OW 4160   1.547   2.084   3.591
  789SOL    HW1 4161   1.542   2.121   3.683
  789SOL    HW2 4162   1.475   2.015   3.579
  790SOL     OW 4163   0.781   2.126   3.611
  790SOL    HW1 4164   0.848   2.065   3.654
  790SOL    HW2 4165   0.708   2.145   3.676
  791SOL     OW 4166   0.888   3.376   3.057
  791SOL    HW1 4167   0.865   3.351   2.963
  791SOL    HW2 4168   0.949   3.307   3.096
  792SOL     OW 4169   0.922   2.365   2.761
  792SOL    HW1 4170   0.897   2.356   2.665
  792SOL    HW2 4171   0.970   2.283   2.792
  793SOL     OW 4172   0.539   1.926   2.374
  793SOL    HW1 4173   0.458   1.927   2.432
  793SOL    HW2 4174   0.542   2.009   2.319
  794SOL     OW 4175   1.434   3.050   1.903
  794SOL    HW1 4176   1.466   2.974   1.960
  794SOL    HW2 4177   1.342   3.077   1.933
  795SOL     OW 4178   0.935   2.098   2.342
  795SOL    HW1 4179   0.887   2.139   2.264
  795SOL    HW2 4180   1.034   2.096   2.323
  796SOL     OW 4181   1.227   3.432   2.655
  796SOL    HW1 4182   1.248   3.506   2.590
  796SOL    HW2 4183   1.295   3.432   2.728
  797SOL     OW 4184   0.459   3.014   2.603
  797SOL    HW1 4185   0.388   2.987   2.668
  797SOL    HW2 4186   0.433   2.986   2.510
  798SOL     OW 4187   1.032   2.411   1.878
  798SOL    HW1 4188   0.991   2.493   1.839
  798SOL    HW2 4189   1.096   2.437   1.951
  799SOL     OW 4190   0.078   2.418   3.248
  799SOL    HW1 4191   0.170   2.417   3.207
  799SOL    HW2 4192   0.072   2.492   3.315
  800SOL     OW 4193   0.561   2.084   3.009
  800SOL    HW1 4194   0.599   2.000   3.046
  800SOL    HW2 4195   0.473   2.103   3.053
  801SOL     OW 4196   0.866   2.316   2.504
  801SOL    HW1 4197   0.834   2.388   2.442
  801SOL    HW2 4198   0.890   2.235   2.451
  802SOL     OW 4199   1.017   1.901   2.615
  802SOL    HW1 4200   0.945   1.906   2.546
  802SOL    HW2 4201   0.993   1.832   2.684
  803SOL     OW 4202   1.429   3.035   2.729
  803SOL    HW1 4203   1.374   2.951   2.722
  803SOL    HW2 4204   1.455   3.064   2.637
  804SOL     OW 4205   1.466   2.452   2.854
  804SOL    HW1 4206   1.436   2.357   2.861
  804SOL    HW2 4207   1.539   2.468   2.920
  805SOL     OW 4208   1.857   2.695   2.239
  805SOL    HW1 4209   1.899   2.631   2.303
  805SOL    HW2 4210   1.819   2.644   2.161
  806SOL     OW 4211   1.664   3.142   2.519
  806SOL    HW1 4212   1.763   3.150   2.533
  806SOL    HW2 4213   1.619   3.226   2.550
  807SOL     OW 4214   1.390   2.437   1.940
  807SOL    HW1 4215   1.336   2.416   2.021
  807SOL    HW2 4216   1.481   2.396   1.949
  808SOL     OW 4217   0.527   2.118   2.190
  808SOL    HW1 4218   0.554   2.059   2.115
  808SOL    HW2 4219   0.527   2.213   2.159
  809SOL     OW 4220   1.754   3.085   3.450
  809SOL    HW1 4221   1.845   3.046   3.437
  809SOL    HW2 4222   1.762   3.181   3.474
  810SOL     OW 4223   1.064   3.209   3.202
  810SOL    HW1 4224   0.984   3.186   3.257
  810SOL    HW2 4225   1.147   3.183   3.251
  811SOL     OW 4226   1.111   3.057   2.962
  811SOL    HW1 4227   1.071   3.101   3.043
  811SOL    HW2 4228   1.070   3.094   2.879
  812SOL     OW 4229   1.638   2.961   2.941
  812SOL    HW1 4230   1.643   3.042   3.000
  812SOL    HW2 4231   1.552   2.963   2.890
  813SOL     OW 4232   0.980   2.978   3.581
  813SOL    HW1 4233   0.881   2.984   3.591
  813SOL    HW2 4234   1.003   2.898   3.525
  814SOL     OW 4235   0.410   2.675   3.113
  814SOL    HW1 4236   0.496   2.687   3.163
  814SOL    HW2 4237   0.368   2.588   3.140
  815SOL     OW 4238   0.367   2.962   2.363
  815SOL    HW1 4239   0.360   3.045   2.307
  815SOL    HW2 4240   0.371   2.882   2.303
  816SOL     OW 4241   1.252   3.210   2.250
  816SOL    HW1 4242   1.302   3.287   2.290
  816SOL    HW2 4243   1.157   3.212   2.282
  817SOL     OW 4244   1.582   2.501   2.334
  817SOL    HW1 4245   1.551   2.562   2.407
  817SOL    HW2 4246   1.632   2.553   2.265
  818SOL     OW 4247   0.354   3.372   3.191
  818SOL    HW1 4248   0.333   3.328   3.104
  818SOL    HW2 4249   0.451   3.398   3.194
  819SOL     OW 4250   0.402   2.613   3.460
  819SOL    HW1 4251   0.470   2.668   3.413
  819SOL    HW2 4252   0.442   2.525   3.487
  820SOL     OW 4253   1.587   2.641   3.532
  820SOL    HW1 4254   1.495   2.679   3.527
  820SOL    HW2 4255   1.647   2.688   3.467
  821SOL     OW 4256   1.013   1.967   3.632
  821SOL    HW1 4257   1.019   2.052   3.580
  821SOL    HW2 4258   1.045   1.891   3.575
  822SOL     OW 4259   0.504   1.912   3.602
  822SOL    HW1 4260   0.462   1.855   3.532
  822SOL    HW2 4261   0.438   1.981   3.634
  823SOL     OW 4262   0.573   2.732   2.891
  823SOL    HW1 4263   0.617   2.821   2.882
  823SOL    HW2 4264   0.510   2.732   2.968
  824SOL     OW 4265   1.360   2.724   2.907
  824SOL    HW1 4266   1.285   2.724   2.841
  824SOL    HW2 4267   1.397   2.632   2.916
  825SOL     OW 4268   1.209   2.387   2.137
  825SOL    HW1 4269   1.222   2.303   2.191
  825SOL    HW2 4270   1.180   2.461   2.197
  826SOL     OW 4271   0.307   2.075   3.093
  826SOL    HW1 4272   0.284   2.112   3.183
  826SOL    HW2 4273   0.277   1.980   3.087
  827SOL     OW 4274   1.728   2.797   3.716
  827SOL    HW1 4275   1.682   2.790   3.627
  827SOL    HW2 4276   1.666   2.841   3.782
  828SOL     OW 4277   0.307   1.925   2.480
  828SOL    HW1 4278   0.296   2.019   2.513
  828SOL    HW2 4279   0.302   1.862   2.557
  829SOL     OW 4280   1.622   2.229   2.236
  829SOL    HW1 4281   1.624   2.153   2.300
  829SOL    HW2 4282   1.574   2.306   2.276
  830SOL     OW 4283   1.023   2.628   2.828
  830SOL    HW1 4284   1.038   2.649   2.924
  830SOL    HW2 4285   0.993   2.533   2.819
  831SOL     OW 4286   0.980   3.435   3.562
  831SOL    HW1 4287   0.960   3.479   3.474
  831SOL    HW2 4288   1.019   3.344   3.546
  832SOL     OW 4289   1.859   3.380   3.467
  832SOL    HW1 4290   1.873   3.407   3.372
  832SOL    HW2 4291   1.942   3.402   3.520
  833SOL     OW 4292   0.350   2.760   3.666
  833SOL    HW1 4293   0.426   2.804   3.714
  833SOL    HW2 4294   0.385   2.713   3.584
  834SOL     OW 4295   1.540   2.136   1.987
  834SOL    HW1 4296   1.479   2.061   2.010
  834SOL    HW2 4297   1.562   2.188   2.070
  835SOL     OW 4298   1.303   2.700   1.904
  835SOL    HW1 4299   1.337   2.607   1.919
  835SOL    HW2 4300   1.321   2.727   1.809
  836SOL     OW 4301   1.068   3.195   2.711
  836SOL    HW1 4302   1.075   3.111   2.656
  836SOL    HW2 4303   1.130   3.264   2.675
  837SOL     OW 4304   0.319   2.672   2.811
  837SOL    HW1 4305   0.412   2.708   2.816
  837SOL    HW2 4306   0.313   2.587   2.863
  838SOL     OW 4307   0.339   2.371   2.868
  838SOL    HW1 4308   0.287   2.288   2.851
  838SOL    HW2 4309   0.416   2.376   2.804
  839SOL     OW 4310   0.008   3.188   2.062
  839SOL    HW1 4311  -0.085   3.209   2.031
  839SOL    HW2 4312   0.018   3.089   2.075
  840SOL     OW 4313   0.504   3.430   2.772
  840SOL    HW1 4314   0.570   3.504   2.781
  840SOL    HW2 4315   0.548   3.351   2.730
  841SOL     OW 4316   1.002   2.658   3.100
  841SOL    HW1 4317   1.043   2.626   3.186
  841SOL    HW2 4318   0.906   2.631   3.097
  842SOL     OW 4319   0.040   2.406   2.976
  842SOL    HW1 4320   0.125   2.373   2.935
  842SOL    HW2 4321   0.053   2.421   3.074
  843SOL     OW 4322   1.369   2.812   3.522
  843SOL    HW1 4323   1.408   2.901   3.542
  843SOL    HW2 4324   1.379   2.792   3.425
  844SOL     OW 4325   0.815   2.434   2.187
  844SOL    HW1 4326   0.822   2.345   2.141
  844SOL    HW2 4327   0.721   2.468   2.179
  845SOL     OW 4328   0.252   3.426   3.606
  845SOL    HW1 4329   0.222   3.483   3.682
  845SOL    HW2 4330   0.245   3.329   3.632
  846SOL     OW 4331   0.930   3.540   3.327
  846SOL    HW1 4332   0.906   3.522   3.232
  846SOL    HW2 4333   0.960   3.634   3.337
  847SOL     OW 4334   0.473   2.362   2.053
  847SOL    HW1 4335   0.534   2.442   2.057
  847SOL    HW2 4336   0.378   2.393   2.060
  848SOL     OW 4337   0.159   2.999   3.328
  848SOL    HW1 4338   0.181   2.938   3.404
  848SOL    HW2 4339   0.169   2.950   3.242
  849SOL     OW 4340   1.347   2.921   3.096
  849SOL    HW1 4341   1.371   2.858   3.022
  849SOL    HW2 4342   1.257   2.961   3.078
  850SOL     OW 4343   1.759   3.609   3.016
  850SOL    HW1 4344   1.820   3.639   2.943
  850SOL    HW2 4345   1.721   3.520   2.994
  851SOL     OW 4346   1.252   3.593   2.990
  851SOL    HW1 4347   1.336   3.598   2.936
  851SOL    HW2 4348   1.229   3.497   3.008
  852SOL     OW 4349   0.083   3.120   2.884
  852SOL    HW1 4350   0.078   3.119   2.984
  852SOL    HW2 4351   0.000   3.079   2.846
  853SOL     OW 4352   0.688   3.524   3.578
  853SOL    HW1 4353   0.632   3.605   3.587
  853SOL    HW2 4354   0.740   3.528   3.492
  854SOL     OW 4355   1.726   1.997   2.385
  854SOL    HW1 4356   1.799   1.980   2.318
  854SOL    HW2 4357   1.695   1.910   2.423
  855SOL     OW 4358   1.388   3.435   2.339
  855SOL    HW1 4359   1.455   3.447   2.265
  855SOL    HW2 4360   1.348   3.524   2.362
  856SOL     OW 4361   0.130   3.656   3.713
  856SOL    HW1 4362   0.089   3.582   3.766
  856SOL    HW2 4363   0.194   3.707   3.771
  857SOL     OW 4364   0.830   3.135   3.284
  857SOL    HW1 4365   0.825   3.168   3.379
  857SOL    HW2 4366   0.744   3.154   3.238
  858SOL     OW 4367   0.672   3.478   2.016
  858SOL    HW1 4368   0.681   3.488   1.917
  858SOL    HW2 4369   0.632   3.389   2.037
  859SOL     OW 4370   1.841   2.037   2.825
  859SOL    HW1 4371   1.880   1.952   2.789
  859SOL    HW2 4372   1.743   2.039   2.806
  860SOL     OW 4373   0.263   2.188   2.582
  860SOL    HW1 4374   0.184   2.239   2.548
  860SOL    HW2 4375   0.254   2.173   2.680
  861SOL     OW 4376   1.194   3.474   1.893
  861SOL    HW1 4377   1.200   3.381   1.930
  861SOL    HW2 4378   1.135   3.474   1.813
  862SOL     OW 4379   0.822   2.864   3.234
  862SOL    HW1 4380   0.862   2.863   3.142
  862SOL    HW2 4381   0.832   2.956   3.274
  863SOL     OW 4382   0.372   3.150   3.352
  863SOL    HW1 4383   0.359   3.243   3.318
  863SOL    HW2 4384   0.288   3.098   3.339
  864SOL     OW 4385   1.614   3.154   3.151
  864SOL    HW1 4386   1.674   3.157   3.231
  864SOL    HW2 4387   1.539   3.218   3.164
  865SOL     OW 4388   1.014   2.098   2.833
  865SOL    HW1 4389   1.006   2.062   2.740
  865SOL    HW2 4390   1.012   2.022   2.898
  866SOL     OW 4391   1.709   2.247   3.243
  866SOL    HW1 4392   1.782   2.316   3.247
  866SOL    HW2 4393   1.737   2.172   3.184
  867SOL     OW 4394   0.672   2.065   3.351
  867SOL    HW1 4395   0.762   2.049   3.311
  867SOL    HW2 4396   0.680   2.070   3.450
  868SOL     OW 4397   0.075   2.207   1.895
  868SOL    HW1 4398  -0.017   2.179   1.866
  868SOL    HW2 4399   0.106   2.284   1.839
  869SOL     OW 4400   1.440   2.718   3.260
  869SOL    HW1 4401   1.383   2.770   3.197
  869SOL    HW2 4402   1.536   2.730   3.236
  870SOL     OW 4403   0.072   2.028   2.180
  870SOL    HW1 4404   0.055   2.111   2.126
  870SOL    HW2 4405   0.162   1.991   2.158
  871SOL     OW 4406   1.183   3.197   1.981
  871SOL    HW1 4407   1.084   3.186   1.983
  871SOL    HW2 4408   1.217   3.212   2.074
  872SOL     OW 4409   0.613   2.704   3.293
  872SOL    HW1 4410   0.669   2.785   3.276
  872SOL    HW2 4411   0.672   2.624   3.296
  873SOL     OW 4412   1.493   3.629   2.821
  873SOL    HW1 4413   1.526   3.693   2.752
  873SOL    HW2 4414   1.559   3.623   2.896
  874SOL     OW 4415   1.450   3.082   3.495
  874SOL    HW1 4416   1.441   3.072   3.594
  874SOL    HW2 4417   1.546   3.075   3.469
  875SOL     OW 4418   0.390   3.603   3.422
  875SOL    HW1 4419   0.299   3.644   3.420
  875SOL    HW2 4420   0.383   3.509   3.454
  876SOL     OW 4421   1.674   2.745   3.116
  876SOL    HW1 4422   1.647   2.656   3.079
  876SOL    HW2 4423   1.675   2.813   3.043
  877SOL     OW 4424   1.225   2.187   2.311
  877SOL    HW1 4425   1.290   2.113   2.300
  877SOL    HW2 4426   1.245   2.237   2.395
  878SOL     OW 4427   0.594   2.607   2.514
  878SOL    HW1 4428   0.644   2.692   2.495
  878SOL    HW2 4429   0.506   2.609   2.466
  879SOL     OW 4430   1.777   2.204   3.504
  879SOL    HW1 4431   1.760   2.235   3.410
  879SOL    HW2 4432   1.693   2.167   3.542
  880SOL     OW 4433   1.730   2.796   3.379
  880SOL    HW1 4434   1.768   2.887   3.394
  880SOL    HW2 4435   1.722   2.779   3.280
  881SOL     OW 4436   0.859   3.236   1.878
  881SOL    HW1 4437   0.813   3.251   1.966
  881SOL    HW2 4438   0.903   3.321   1.848
  882SOL     OW 4439   0.661   3.652   2.815
  882SOL    HW1 4440   0.615   3.740   2.802
  882SOL    HW2 4441   0.760   3.664   2.808
  883SOL     OW 4442   0.859   2.818   2.723
  883SOL    HW1 4443   0.913   2.749   2.771
  883SOL    HW2 4444   0.827   2.887   2.789
  884SOL     OW 4445   1.083   2.846   1.949
  884SOL    HW1 4446   1.060   2.899   1.867
  884SOL    HW2 4447   1.164   2.790   1.930
  885SOL     OW 4448   1.861   3.431   2.713
  885SOL    HW1 4449   1.790   3.419   2.643
  885SOL    HW2 4450   1.862   3.352   2.773
  886SOL     OW 4451   0.221   3.176   3.706
  886SOL    HW1 4452   0.156   3.103   3.685
  886SOL    HW2 4453   0.225   3.190   3.804
  887SOL     OW 4454   0.079   3.102   2.515
  887SOL    HW1 4455   0.078   3.055   2.603
  887SOL    HW2 4456   0.161   3.074   2.464
  888SOL     OW 4457   0.672   3.253   3.486
  888SOL    HW1 4458   0.594   3.203   3.524
  888SOL    HW2 4459   0.669   3.348   3.517
  889SOL     OW 4460   1.824   2.054   3.089
  889SOL    HW1 4461   1.820   1.964   3.133
  889SOL    HW2 4462   1.827   2.043   2.990
  890SOL     OW 4463   0.428   2.286   2.382
  890SOL    HW1 4464   0.458   2.214   2.320
  890SOL    HW2 4465   0.389   2.246   2.465
  891SOL     OW 4466   1.705   3.349   2.966
  891SOL    HW1 4467   1.612   3.324   2.939
  891SOL    HW2 4468   1.731   3.299   3.048
  892SOL     OW 4469   1.424   2.076   2.974
  892SOL    HW1 4470   1.476   2.011   3.029
  892SOL    HW2 4471   1.375   2.139   3.035
  893SOL     OW 4472   1.001   1.896   3.016
  893SOL    HW1 4473   0.938   1.824   2.985
  893SOL    HW2 4474   1.094   1.860   3.016
  894SOL     OW 4475   0.618   3.429   3.146
  894SOL    HW1 4476   0.613   3.511   3.203
  894SOL    HW2 4477   0.707   3.426   3.101
  895SOL     OW 4478   1.352   1.914   2.030
  895SOL    HW1 4479   1.387   1.873   1.946
  895SOL    HW2 4480   1.262   1.876   2.050
  896SOL     OW 4481   1.300   2.315   2.553
  896SOL    HW1 4482   1.241   2.395   2.557
  896SOL    HW2 4483   1.315   2.280   2.646
  897SOL     OW 4484   1.593   2.083   2.744
  897SOL    HW1 4485   1.509   2.082   2.798
  897SOL    HW2 4486   1.595   2.166   2.688
  898SOL     OW 4487   0.039   2.939   2.162
  898SOL    HW1 4488   0.138   2.928   2.153
  898SOL    HW2 4489  -0.001   2.853   2.194
  899SOL     OW 4490   0.230   2.490   3.837
  899SOL    HW1 4491   0.137   2.488   3.874
  899SOL    HW2 4492   0.231   2.451   3.745
  900SOL     OW 4493   0.225   2.137   4.720
  900SOL    HW1 4494   0.260   2.120   4.812
  900SOL    HW2 4495   0.137   2.092   4.708
  901SOL     OW 4496   0.019   2.230   4.371
  901SOL    HW1 4497  -0.063   2.273   4.410
  901SOL    HW2 4498  -0.009   2.157   4.308
  902SOL     OW 4499   0.569   3.137   4.889
  902SOL    HW1 4500   0.476   3.130   4.852
  902SOL    HW2 4501   0.580   3.226   4.933
  903SOL     OW 4502   1.555   3.373   4.427
  903SOL    HW1 4503   1.498   3.357   4.508
  903SOL    HW2 4504   1.496   3.383   4.347
  904SOL     OW 4505   1.135   2.565   4.441
  904SOL    HW1 4506   1.192   2.643   4.416
  904SOL    HW2 4507   1.075   2.591   4.517
  905SOL     OW 4508   1.755   2.469   3.955
  905SOL    HW1 4509   1.743   2.456   3.856
  905SOL    HW2 4510   1.725   2.388   4.004
  906SOL     OW 4511   0.768   3.006   4.747
  906SOL    HW1 4512   0.690   3.023   4.807
  906SOL    HW2 4513   0.802   3.093   4.711
  907SOL     OW 4514   0.685   2.874   4.389
  907SOL    HW1 4515   0.754   2.858   4.459
  907SOL    HW2 4516   0.612   2.931   4.427
  908SOL     OW 4517   0.335   3.297   4.785
  908SOL    HW1 4518   0.257   3.266   4.732
  908SOL    HW2 4519   0.393   3.355   4.728
  909SOL     OW 4520   0.231   3.575   4.207
  909SOL    HW1 4521   0.265   3.652   4.261
  909SOL    HW2 4522   0.275   3.575   4.117
  910SOL     OW 4523   0.240   2.953   4.610
  910SOL    HW1 4524   0.254   2.869   4.662
  910SOL    HW2 4525   0.185   3.017   4.665
  911SOL     OW 4526   0.620   3.648   5.163
  911SOL    HW1 4527   0.528   3.631   5.198
  911SOL    HW2 4528   0.648   3.740   5.189
  912SOL     OW 4529   0.606   2.826   3.847
  912SOL    HW1 4530   0.613   2.910   3.793
  912SOL    HW2 4531   0.652   2.839   3.935
  913SOL     OW 4532   0.122   2.505   4.287
  913SOL    HW1 4533   0.077   2.417   4.304
  913SOL    HW2 4534   0.121   2.559   4.371
  914SOL     OW 4535   1.842   3.629   4.083
  914SOL    HW1 4536   1.896   3.600   4.163
  914SOL    HW2 4537   1.872   3.719   4.054
  915SOL     OW 4538   0.027   3.458   3.841
  915SOL    HW1 4539   0.008   3.362   3.862
  915SOL    HW2 4540  -0.006   3.516   3.916
  916SOL     OW 4541   1.689   2.784   4.336
  916SOL    HW1 4542   1.784   2.755   4.344
  916SOL    HW2 4543   1.681   2.849   4.261
  917SOL     OW 4544   1.641   2.970   4.156
  917SOL    HW1 4545   1.727   2.972   4.104
  917SOL    HW2 4546   1.655   3.017   4.244
  918SOL     OW 4547   0.613   3.227   4.450
  918SOL    HW1 4548   0.564   3.140   4.459
  918SOL    HW2 4549   0.590   3.270   4.363
  919SOL     OW 4550   0.809   1.866   4.226
  919SOL    HW1 4551   0.849   1.957   4.217
  919SOL    HW2 4552   0.709   1.874   4.232
  920SOL     OW 4553   0.197   2.838   4.988
  920SOL    HW1 4554   0.286   2.793   4.974
  920SOL    HW2 4555   0.124   2.773   4.969
  921SOL     OW 4556   1.525   2.861   3.914
  921SOL    HW1 4557   1.462   2.785   3.927
  921SOL    HW2 4558   1.573   2.879   4.000
  922SOL     OW 4559   1.667   3.576   4.296
  922SOL    HW1 4560   1.626   3.553   4.208
  922SOL    HW2 4561   1.649   3.502   4.361
  923SOL     OW 4562   0.598   2.591   3.994
  923SOL    HW1 4563   0.622   2.660   3.926
  923SOL    HW2 4564   0.520   2.624   4.048
  924SOL     OW 4565   1.041   2.563   4.153
  924SOL    HW1 4566   1.067   2.559   4.249
  924SOL    HW2 4567   0.956   2.512   4.139
  925SOL     OW 4568   0.076   2.673   4.513
  925SOL    HW1 4569   0.175   2.661   4.522
  925SOL    HW2 4570   0.052   2.768   4.534
  926SOL     OW 4571   0.130   3.683   5.295
  926SOL    HW1 4572   0.120   3.668   5.394
  926SOL    HW2 4573   0.044   3.719   5.259
  927SOL     OW 4574   0.865   2.210   3.919
  927SOL    HW1 4575   0.924   2.273   3.870
  927SOL    HW2 4576   0.884   2.116   3.890
  928SOL     OW 4577   1.362   3.006   4.269
  928SOL    HW1 4578   1.445   2.977   4.221
  928SOL    HW2 4579   1.313   3.073   4.213
  929SOL     OW 4580   0.550   2.058   4.609
  929SOL    HW1 4581   0.545   2.053   4.709
  929SOL    HW2 4582   0.552   2.154   4.580
  930SOL     OW 4583   1.008   3.318   4.201
  930SOL    HW1 4584   0.962   3.390   4.149
  930SOL    HW2 4585   1.004   3.338   4.299
  931SOL     OW 4586   0.351   3.663   4.577
  931SOL    HW1 4587   0.401   3.577   4.583
  931SOL    HW2 4588   0.416   3.740   4.574
  932SOL     OW 4589   1.795   2.928   4.597
  932SOL    HW1 4590   1.733   2.913   4.521
  932SOL    HW2 4591   1.743   2.939   4.682
  933SOL     OW 4592   1.458   2.597   4.452
  933SOL    HW1 4593   1.453   2.532   4.527
  933SOL    HW2 4594   1.538   2.656   4.465
  934SOL     OW 4595   1.632   3.239   3.805
  934SOL    HW1 4596   1.600   3.333   3.795
  934SOL    HW2 4597   1.556   3.176   3.793
  935SOL     OW 4598   0.464   3.605   4.047
  935SOL    HW1 4599   0.497   3.644   4.133
  935SOL    HW2 4600   0.540   3.598   3.982
  936SOL     OW 4601   1.400   1.969   4.150
  936SOL    HW1 4602   1.376   1.932   4.060
  936SOL    HW2 4603   1.499   1.985   4.154
  937SOL     OW 4604   0.940   3.560   4.628
  937SOL    HW1 4605   1.020   3.503   4.649
  937SOL    HW2 4606   0.891   3.520   4.551
  938SOL     OW 4607   0.614   1.984   3.841
  938SOL    HW1 4608   0.712   1.962   3.848
  938SOL    HW2 4609   0.583   1.967   3.748
  939SOL     OW 4610   0.803   3.264   4.648
  939SOL    HW1 4611   0.893   3.278   4.606
  939SOL    HW2 4612   0.732   3.266   4.577
  940SOL     OW 4613   1.434   3.050   3.765
  940SOL    HW1 4614   1.466   2.974   3.822
  940SOL    HW2 4615   1.342   3.077   3.795
  941SOL     OW 4616   0.297   1.897   3.895
  941SOL    HW1 4617   0.346   1.981   3.874
  941SOL    HW2 4618   0.359   1.832   3.940
  942SOL     OW 4619   0.935   2.098   4.204
  942SOL    HW1 4620   0.887   2.139   4.126
  942SOL    HW2 4621   1.034   2.096   4.185
  943SOL     OW 4622   1.227   3.432   4.517
  943SOL    HW1 4623   1.248   3.506   4.452
  943SOL    HW2 4624   1.295   3.432   4.590
  944SOL     OW 4625   0.459   3.014   4.465
  944SOL    HW1 4626   0.388   2.987   4.530
  944SOL    HW2 4627   0.433   2.986   4.372
  945SOL     OW 4628   1.271   3.659   4.315
  945SOL    HW1 4629   1.315   3.723   4.251
  945SOL    HW2 4630   1.221   3.711   4.385
  946SOL     OW 4631   0.561   2.084   4.871
  946SOL    HW1 4632   0.599   2.000   4.908
  946SOL    HW2 4633   0.473   2.103   4.915
  947SOL     OW 4634   0.866   2.316   4.366
  947SOL    HW1 4635   0.834   2.388   4.304
  947SOL    HW2 4636   0.890   2.235   4.313
  948SOL     OW 4637   1.017   1.901   4.477
  948SOL    HW1 4638   0.945   1.906   4.408
  948SOL    HW2 4639   0.993   1.832   4.546
  949SOL     OW 4640   1.857   2.695   4.101
  949SOL    HW1 4641   1.899   2.631   4.165
  949SOL    HW2 4642   1.819   2.644   4.023
  950SOL     OW 4643   0.488   3.247   3.898
  950SOL    HW1 4644   0.401   3.232   3.945
  950SOL    HW2 4645   0.471   3.273   3.803
  951SOL     OW 4646   1.664   3.142   4.381
  951SOL    HW1 4647   1.763   3.150   4.395
  951SOL    HW2 4648   1.619   3.226   4.412
  952SOL     OW 4649   1.390   2.437   3.802
  952SOL    HW1 4650   1.336   2.416   3.883
  952SOL    HW2 4651   1.481   2.396   3.811
  953SOL     OW 4652   0.527   2.118   4.052
  953SOL    HW1 4653   0.554   2.059   3.977
  953SOL    HW2 4654   0.527   2.213   4.021
  954SOL     OW 4655   1.111   3.057   4.824
  954SOL    HW1 4656   1.071   3.101   4.905
  954SOL    HW2 4657   1.070   3.094   4.741
  955SOL     OW 4658   0.705   2.912   4.092
  955SOL    HW1 4659   0.691   2.919   4.191
  955SOL    HW2 4660   0.789   2.861   4.074
  956SOL     OW 4661   0.410   2.675   4.975
  956SOL    HW1 4662   0.496   2.687   5.025
  956SOL    HW2 4663   0.368   2.588   5.002
  957SOL     OW 4664   0.566   2.399   4.589
  957SOL    HW1 4665   0.578   2.465   4.515
  957SOL    HW2 4666   0.612   2.433   4.672
  958SOL     OW 4667   1.252   3.210   4.112
  958SOL    HW1 4668   1.302   3.287   4.152
  958SOL    HW2 4669   1.157   3.212   4.144
  959SOL     OW 4670   1.582   2.501   4.196
  959SOL    HW1 4671   1.551   2.562   4.269
  959SOL    HW2 4672   1.632   2.553   4.127
  960SOL     OW 4673   0.573   2.732   4.753
  960SOL    HW1 4674   0.617   2.821   4.744
  960SOL    HW2 4675   0.510   2.732   4.830
  961SOL     OW 4676   1.360   2.724   4.769
  961SOL    HW1 4677   1.285   2.724   4.703
  961SOL    HW2 4678   1.397   2.632   4.778
  962SOL     OW 4679   1.209   2.387   3.999
  962SOL    HW1 4680   1.222   2.303   4.053
  962SOL    HW2 4681   1.180   2.461   4.059
  963SOL     OW 4682   1.622   2.229   4.098
  963SOL    HW1 4683   1.624   2.153   4.162
  963SOL    HW2 4684   1.574   2.306   4.138
  964SOL     OW 4685   1.023   2.628   4.690
  964SOL    HW1 4686   1.038   2.649   4.786
  964SOL    HW2 4687   0.993   2.533   4.681
  965SOL     OW 4688   1.540   2.136   3.849
  965SOL    HW1 4689   1.479   2.061   3.872
  965SOL    HW2 4690   1.562   2.188   3.932
  966SOL     OW 4691   1.303   2.700   3.766
  966SOL    HW1 4692   1.337   2.607   3.781
  966SOL    HW2 4693   1.321   2.727   3.671
  967SOL     OW 4694   1.068   3.195   4.573
  967SOL    HW1 4695   1.075   3.111   4.518
  967SOL    HW2 4696   1.130   3.264   4.537
  968SOL     OW 4697   0.319   2.672   4.673
  968SOL    HW1 4698   0.412   2.708   4.678
  968SOL    HW2 4699   0.313   2.587   4.725
  969SOL     OW 4700   0.339   2.371   4.730
  969SOL    HW1 4701   0.287   2.288   4.713
  969SOL    HW2 4702   0.416   2.376   4.666
  970SOL     OW 4703   1.160   2.069   5.201
  970SOL    HW1 4704   1.160   2.133   5.278
  970SOL    HW2 4705   1.188   2.117   5.118
  971SOL     OW 4706   0.504   3.430   4.634
  971SOL    HW1 4707   0.570   3.504   4.643
  971SOL    HW2 4708   0.548   3.351   4.592
  972SOL     OW 4709   1.002   2.658   4.962
  972SOL    HW1 4710   1.043   2.626   5.048
  972SOL    HW2 4711   0.906   2.631   4.959
  973SOL     OW 4712   0.040   2.406   4.838
  973SOL    HW1 4713   0.125   2.373   4.797
  973SOL    HW2 4714   0.053   2.421   4.936
  974SOL     OW 4715   0.815   2.434   4.049
  974SOL    HW1 4716   0.822   2.345   4.003
  974SOL    HW2 4717   0.721   2.468   4.041
  975SOL     OW 4718   1.657   2.466   4.930
  975SOL    HW1 4719   1.619   2.397   4.992
  975SOL    HW2 4720   1.739   2.430   4.886
  976SOL     OW 4721   0.671   2.326   4.993
  976SOL    HW1 4722   0.637   2.237   4.963
  976SOL    HW2 4723   0.697   2.380   4.913
  977SOL     OW 4724   0.930   3.540   5.189
  977SOL    HW1 4725   0.906   3.522   5.094
  977SOL    HW2 4726   0.960   3.634   5.199
  978SOL     OW 4727   0.473   2.362   3.915
  978SOL    HW1 4728   0.534   2.442   3.919
  978SOL    HW2 4729   0.378   2.393   3.922
  979SOL     OW 4730   1.347   2.921   4.958
  979SOL    HW1 4731   1.371   2.858   4.884
  979SOL    HW2 4732   1.257   2.961   4.940
  980SOL     OW 4733   1.302   2.717   4.033
  980SOL    HW1 4734   1.216   2.686   4.075
  980SOL    HW2 4735   1.298   2.703   3.934
  981SOL     OW 4736   1.759   3.609   4.878
  981SOL    HW1 4737   1.820   3.639   4.805
  981SOL    HW2 4738   1.721   3.520   4.856
  982SOL     OW 4739   1.726   1.997   4.247
  982SOL    HW1 4740   1.799   1.980   4.180
  982SOL    HW2 4741   1.695   1.910   4.285
  983SOL     OW 4742   1.280   2.789   4.396
  983SOL    HW1 4743   1.340   2.708   4.398
  983SOL    HW2 4744   1.320   2.858   4.336
  984SOL     OW 4745   0.672   3.478   3.878
  984SOL    HW1 4746   0.681   3.488   3.779
  984SOL    HW2 4747   0.632   3.389   3.899
  985SOL     OW 4748   1.841   2.037   4.687
  985SOL    HW1 4749   1.880   1.952   4.651
  985SOL    HW2 4750   1.743   2.039   4.668
  986SOL     OW 4751   0.263   2.188   4.444
  986SOL    HW1 4752   0.184   2.239   4.410
  986SOL    HW2 4753   0.254   2.173   4.542
  987SOL     OW 4754   0.822   2.864   5.096
  987SOL    HW1 4755   0.862   2.863   5.004
  987SOL    HW2 4756   0.832   2.956   5.136
  988SOL     OW 4757   0.916   2.772   4.015
  988SOL    HW1 4758   0.979   2.810   3.947
  988SOL    HW2 4759   0.956   2.689   4.054
  989SOL     OW 4760   1.039   2.960   4.420
  989SOL    HW1 4761   0.969   2.913   4.474
  989SOL    HW2 4762   1.098   2.892   4.377
  990SOL     OW 4763   0.590   3.349   4.215
  990SOL    HW1 4764   0.632   3.291   4.145
  990SOL    HW2 4765   0.546   3.428   4.171
  991SOL     OW 4766   1.709   2.247   5.105
  991SOL    HW1 4767   1.782   2.316   5.109
  991SOL    HW2 4768   1.737   2.172   5.046
  992SOL     OW 4769   0.255   3.210   4.014
  992SOL    HW1 4770   0.159   3.211   3.987
  992SOL    HW2 4771   0.267   3.263   4.098
  993SOL     OW 4772   0.072   2.028   4.042
  993SOL    HW1 4773   0.055   2.111   3.988
  993SOL    HW2 4774   0.162   1.991   4.020
  994SOL     OW 4775   1.493   3.629   4.683
  994SOL    HW1 4776   1.526   3.693   4.614
  994SOL    HW2 4777   1.559   3.623   4.758
  995SOL     OW 4778   1.674   2.745   4.978
  995SOL    HW1 4779   1.647   2.656   4.941
  995SOL    HW2 4780   1.675   2.813   4.905
  996SOL     OW 4781   1.225   2.187   4.173
  996SOL    HW1 4782   1.290   2.113   4.162
  996SOL    HW2 4783   1.245   2.237   4.257
  997SOL     OW 4784   0.594   2.607   4.376
  997SOL    HW1 4785   0.644   2.692   4.357
  997SOL    HW2 4786   0.506   2.609   4.328
  998SOL     OW 4787   1.730   2.796   5.241
  998SOL    HW1 4788   1.768   2.887   5.256
  998SOL    HW2 4789   1.722   2.779   5.142
  999SOL     OW 4790   0.859   3.236   3.740
  999SOL    HW1 4791   0.813   3.251   3.828
  999SOL    HW2 4792   0.903   3.321   3.710
 1000SOL     OW 4793   0.661   3.652   4.677
 1000SOL    HW1 4794   0.615   3.740   4.664
 1000SOL    HW2 4795   0.760   3.664   4.670
 1001SOL     OW 4796   0.859   2.818   4.585
 1001SOL    HW1 4797   0.913   2.749   4.633
 1001SOL    HW2 4798   0.827   2.887   4.651
 1002SOL     OW 4799   1.083   2.846   3.811
 1002SOL    HW1 4800   1.060   2.899   3.729
 1002SOL    HW2 4801   1.164   2.790   3.792
 1003SOL     OW 4802   1.861   3.431   4.575
 1003SOL    HW1 4803   1.790   3.419   4.505
 1003SOL    HW2 4804   1.862   3.352   4.635
 1004SOL     OW 4805   1.824   2.054   4.951
 1004SOL    HW1 4806   1.820   1.964   4.995
 1004SOL    HW2 4807   1.827   2.043   4.852
 1005SOL     OW 4808   0.428   2.286   4.244
 1005SOL    HW1 4809   0.458   2.214   4.182
 1005SOL    HW2 4810   0.389   2.246   4.327
 1006SOL     OW 4811   0.812   3.448   4.411
 1006SOL    HW1 4812   0.844   3.458   4.317
 1006SOL    HW2 4813   0.733   3.386   4.413
 1007SOL     OW 4814   0.770   3.192   4.025
 1007SOL    HW1 4815   0.724   3.105   4.042
 1007SOL    HW2 4816   0.861   3.189   4.066
 1008SOL     OW 4817   1.352   1.914   3.892
 1008SOL    HW1 4818   1.387   1.873   3.808
 1008SOL    HW2 4819   1.262   1.876   3.912
 1009SOL     OW 4820   1.593   2.083   4.606
 1009SOL    HW1 4821   1.509   2.082   4.660
 1009SOL    HW2 4822   1.595   2.166   4.550
 1010SOL     OW 4823   0.875   3.508   4.061
 1010SOL    HW1 4824   0.798   3.473   4.007
 1010SOL    HW2 4825   0.843   3.579   4.123
 1011SOL     OW 4826   0.225   3.999   0.996
 1011SOL    HW1 4827   0.260   3.982   1.088
 1011SOL    HW2 4828   0.137   3.954   0.984
 1012SOL     OW 4829   0.019   4.092   0.647
 1012SOL    HW1 4830  -0.063   4.135   0.686
 1012SOL    HW2 4831  -0.009   4.019   0.584
 1013SOL     OW 4832   0.569   4.999   1.165
 1013SOL    HW1 4833   0.476   4.992   1.128
 1013SOL    HW2 4834   0.580   5.088   1.209
 1014SOL     OW 4835   1.555   5.235   0.703
 1014SOL    HW1 4836   1.498   5.219   0.784
 1014SOL    HW2 4837   1.496   5.245   0.623
 1015SOL     OW 4838   1.135   4.427   0.717
 1015SOL    HW1 4839   1.192   4.505   0.692
 1015SOL    HW2 4840   1.075   4.453   0.793
 1016SOL     OW 4841   1.755   4.331   0.231
 1016SOL    HW1 4842   1.743   4.318   0.132
 1016SOL    HW2 4843   1.725   4.250   0.280
 1017SOL     OW 4844   0.768   4.868   1.023
 1017SOL    HW1 4845   0.690   4.885   1.083
 1017SOL    HW2 4846   0.802   4.955   0.987
 1018SOL     OW 4847   0.850   4.522   1.823
 1018SOL    HW1 4848   0.846   4.598   1.888
 1018SOL    HW2 4849   0.872   4.558   1.732
 1019SOL     OW 4850   0.685   4.736   0.665
 1019SOL    HW1 4851   0.754   4.720   0.735
 1019SOL    HW2 4852   0.612   4.793   0.703
 1020SOL     OW 4853   0.686   4.885   1.803
 1020SOL    HW1 4854   0.746   4.964   1.817
 1020SOL    HW2 4855   0.600   4.916   1.762
 1021SOL     OW 4856   0.335   5.159   1.061
 1021SOL    HW1 4857   0.257   5.128   1.008
 1021SOL    HW2 4858   0.393   5.217   1.004
 1022SOL     OW 4859   0.438   4.116   1.499
 1022SOL    HW1 4860   0.520   4.060   1.508
 1022SOL    HW2 4861   0.357   4.058   1.503
 1023SOL     OW 4862   1.603   4.171   0.737
 1023SOL    HW1 4863   1.529   4.217   0.687
 1023SOL    HW2 4864   1.654   4.239   0.790
 1024SOL     OW 4865   0.240   4.815   0.886
 1024SOL    HW1 4866   0.254   4.731   0.938
 1024SOL    HW2 4867   0.185   4.879   0.941
 1025SOL     OW 4868   0.606   4.688   0.123
 1025SOL    HW1 4869   0.613   4.772   0.069
 1025SOL    HW2 4870   0.652   4.701   0.211
 1026SOL     OW 4871   1.594   3.838   1.480
 1026SOL    HW1 4872   1.576   3.905   1.408
 1026SOL    HW2 4873   1.591   3.884   1.569
 1027SOL     OW 4874   0.122   4.367   0.563
 1027SOL    HW1 4875   0.077   4.279   0.580
 1027SOL    HW2 4876   0.121   4.421   0.647
 1028SOL     OW 4877   1.689   4.646   0.612
 1028SOL    HW1 4878   1.784   4.617   0.620
 1028SOL    HW2 4879   1.681   4.711   0.537
 1029SOL     OW 4880   1.641   4.832   0.432
 1029SOL    HW1 4881   1.727   4.834   0.380
 1029SOL    HW2 4882   1.655   4.879   0.520
 1030SOL     OW 4883   0.113   4.461   1.597
 1030SOL    HW1 4884   0.201   4.448   1.642
 1030SOL    HW2 4885   0.100   4.558   1.575
 1031SOL     OW 4886   1.293   4.952   1.423
 1031SOL    HW1 4887   1.330   4.879   1.365
 1031SOL    HW2 4888   1.345   4.957   1.508
 1032SOL     OW 4889   0.809   3.728   0.502
 1032SOL    HW1 4890   0.849   3.819   0.493
 1032SOL    HW2 4891   0.709   3.736   0.508
 1033SOL     OW 4892   0.197   4.700   1.264
 1033SOL    HW1 4893   0.286   4.655   1.250
 1033SOL    HW2 4894   0.124   4.635   1.245
 1034SOL     OW 4895   1.525   4.723   0.190
 1034SOL    HW1 4896   1.462   4.647   0.203
 1034SOL    HW2 4897   1.573   4.741   0.276
 1035SOL     OW 4898   0.317   3.975   1.801
 1035SOL    HW1 4899   0.388   4.046   1.807
 1035SOL    HW2 4900   0.229   4.014   1.829
 1036SOL     OW 4901   1.466   5.141   0.953
 1036SOL    HW1 4902   1.407   5.147   1.033
 1036SOL    HW2 4903   1.451   5.053   0.907
 1037SOL     OW 4904   0.598   4.453   0.270
 1037SOL    HW1 4905   0.622   4.522   0.202
 1037SOL    HW2 4906   0.520   4.486   0.324
 1038SOL     OW 4907   1.281   4.069   0.944
 1038SOL    HW1 4908   1.195   4.019   0.931
 1038SOL    HW2 4909   1.343   4.015   1.000
 1039SOL     OW 4910   0.807   4.329   1.465
 1039SOL    HW1 4911   0.760   4.326   1.554
 1039SOL    HW2 4912   0.756   4.274   1.399
 1040SOL     OW 4913   1.394   4.193   1.674
 1040SOL    HW1 4914   1.374   4.236   1.762
 1040SOL    HW2 4915   1.472   4.131   1.683
 1041SOL     OW 4916   0.973   4.614   1.572
 1041SOL    HW1 4917   1.019   4.530   1.543
 1041SOL    HW2 4918   0.917   4.648   1.497
 1042SOL     OW 4919   0.991   4.134   1.242
 1042SOL    HW1 4920   0.914   4.168   1.296
 1042SOL    HW2 4921   0.957   4.083   1.163
 1043SOL     OW 4922   1.041   4.425   0.429
 1043SOL    HW1 4923   1.067   4.421   0.525
 1043SOL    HW2 4924   0.956   4.374   0.415
 1044SOL     OW 4925   0.076   4.535   0.789
 1044SOL    HW1 4926   0.175   4.523   0.798
 1044SOL    HW2 4927   0.052   4.630   0.810
 1045SOL     OW 4928   0.865   4.072   0.195
 1045SOL    HW1 4929   0.924   4.135   0.146
 1045SOL    HW2 4930   0.884   3.978   0.166
 1046SOL     OW 4931   1.719   4.309   1.831
 1046SOL    HW1 4932   1.693   4.398   1.795
 1046SOL    HW2 4933   1.717   4.241   1.758
 1047SOL     OW 4934   1.362   4.868   0.545
 1047SOL    HW1 4935   1.445   4.839   0.497
 1047SOL    HW2 4936   1.313   4.935   0.489
 1048SOL     OW 4937   0.550   3.920   0.885
 1048SOL    HW1 4938   0.545   3.915   0.985
 1048SOL    HW2 4939   0.552   4.016   0.856
 1049SOL     OW 4940   1.795   4.790   0.873
 1049SOL    HW1 4941   1.733   4.775   0.797
 1049SOL    HW2 4942   1.743   4.801   0.958
 1050SOL     OW 4943   0.321   4.667   0.242
 1050SOL    HW1 4944   0.403   4.706   0.200
 1050SOL    HW2 4945   0.294   4.585   0.193
 1051SOL     OW 4946   1.458   4.459   0.728
 1051SOL    HW1 4947   1.453   4.394   0.803
 1051SOL    HW2 4948   1.538   4.518   0.741
 1052SOL     OW 4949   0.202   4.009   1.498
 1052SOL    HW1 4950   0.122   4.069   1.485
 1052SOL    HW2 4951   0.192   3.960   1.584
 1053SOL     OW 4952   1.632   5.101   0.081
 1053SOL    HW1 4953   1.600   5.195   0.071
 1053SOL    HW2 4954   1.556   5.038   0.069
 1054SOL     OW 4955   0.382   4.424   0.480
 1054SOL    HW1 4956   0.427   4.334   0.477
 1054SOL    HW2 4957   0.288   4.413   0.513
 1055SOL     OW 4958   0.781   3.988   1.749
 1055SOL    HW1 4959   0.848   3.927   1.792
 1055SOL    HW2 4960   0.708   4.007   1.814
 1056SOL     OW 4961   1.351   4.314   1.433
 1056SOL    HW1 4962   1.379   4.271   1.518
 1056SOL    HW2 4963   1.376   4.410   1.434
 1057SOL     OW 4964   0.803   5.126   0.924
 1057SOL    HW1 4965   0.893   5.140   0.882
 1057SOL    HW2 4966   0.732   5.128   0.853
 1058SOL     OW 4967   0.922   4.227   0.899
 1058SOL    HW1 4968   0.897   4.218   0.803
 1058SOL    HW2 4969   0.970   4.145   0.930
 1059SOL     OW 4970   0.539   3.788   0.512
 1059SOL    HW1 4971   0.458   3.789   0.570
 1059SOL    HW2 4972   0.542   3.871   0.457
 1060SOL     OW 4973   1.434   4.912   0.041
 1060SOL    HW1 4974   1.466   4.836   0.098
 1060SOL    HW2 4975   1.342   4.939   0.071
 1061SOL     OW 4976   0.297   3.759   0.171
 1061SOL    HW1 4977   0.346   3.843   0.150
 1061SOL    HW2 4978   0.359   3.694   0.216
 1062SOL     OW 4979   1.076   4.407   1.464
 1062SOL    HW1 4980   0.996   4.346   1.467
 1062SOL    HW2 4981   1.157   4.354   1.440
 1063SOL     OW 4982   1.227   5.294   0.793
 1063SOL    HW1 4983   1.248   5.368   0.728
 1063SOL    HW2 4984   1.295   5.294   0.866
 1064SOL     OW 4985   0.459   4.876   0.741
 1064SOL    HW1 4986   0.388   4.849   0.806
 1064SOL    HW2 4987   0.433   4.848   0.648
 1065SOL     OW 4988   0.078   4.280   1.386
 1065SOL    HW1 4989   0.170   4.279   1.345
 1065SOL    HW2 4990   0.072   4.354   1.453
 1066SOL     OW 4991   0.561   3.946   1.147
 1066SOL    HW1 4992   0.599   3.862   1.184
 1066SOL    HW2 4993   0.473   3.965   1.191
 1067SOL     OW 4994   1.429   4.897   0.867
 1067SOL    HW1 4995   1.374   4.813   0.860
 1067SOL    HW2 4996   1.455   4.926   0.775
 1068SOL     OW 4997   1.466   4.314   0.992
 1068SOL    HW1 4998   1.436   4.219   0.999
 1068SOL    HW2 4999   1.539   4.330   1.058
 1069SOL     OW 5000   1.857   4.557   0.377
 1069SOL    HW1 5001   1.899   4.493   0.441
 1069SOL    HW2 5002   1.819   4.506   0.299
 1070SOL     OW 5003   1.664   5.004   0.657
 1070SOL    HW1 5004   1.763   5.012   0.671
 1070SOL    HW2 5005   1.619   5.088   0.688
 1071SOL     OW 5006   1.390   4.299   0.078
 1071SOL    HW1 5007   1.336   4.278   0.159
 1071SOL    HW2 5008   1.481   4.258   0.087
 1072SOL     OW 5009   0.527   3.980   0.328
 1072SOL    HW1 5010   0.554   3.921   0.253
 1072SOL    HW2 5011   0.527   4.075   0.297
 1073SOL     OW 5012   1.754   4.947   1.588
 1073SOL    HW1 5013   1.845   4.908   1.575
 1073SOL    HW2 5014   1.762   5.043   1.612
 1074SOL     OW 5015   1.638   4.823   1.079
 1074SOL    HW1 5016   1.643   4.904   1.138
 1074SOL    HW2 5017   1.552   4.825   1.028
 1075SOL     OW 5018   0.915   3.813   1.402
 1075SOL    HW1 5019   0.940   3.793   1.307
 1075SOL    HW2 5020   0.987   3.869   1.444
 1076SOL     OW 5021   0.980   4.840   1.719
 1076SOL    HW1 5022   0.881   4.846   1.729
 1076SOL    HW2 5023   1.003   4.760   1.663
 1077SOL     OW 5024   0.705   4.774   0.368
 1077SOL    HW1 5025   0.691   4.781   0.467
 1077SOL    HW2 5026   0.789   4.723   0.350
 1078SOL     OW 5027   0.410   4.537   1.251
 1078SOL    HW1 5028   0.496   4.549   1.301
 1078SOL    HW2 5029   0.368   4.450   1.278
 1079SOL     OW 5030   1.274   4.110   1.262
 1079SOL    HW1 5031   1.295   4.184   1.326
 1079SOL    HW2 5032   1.185   4.127   1.219
 1080SOL     OW 5033   0.367   4.824   0.501
 1080SOL    HW1 5034   0.360   4.907   0.445
 1080SOL    HW2 5035   0.371   4.744   0.441
 1081SOL     OW 5036   0.566   4.261   0.865
 1081SOL    HW1 5037   0.578   4.327   0.791
 1081SOL    HW2 5038   0.612   4.295   0.948
 1082SOL     OW 5039   1.582   4.363   0.472
 1082SOL    HW1 5040   1.551   4.424   0.545
 1082SOL    HW2 5041   1.632   4.415   0.403
 1083SOL     OW 5042   0.402   4.475   1.598
 1083SOL    HW1 5043   0.470   4.530   1.551
 1083SOL    HW2 5044   0.442   4.387   1.625
 1084SOL     OW 5045   1.587   4.503   1.670
 1084SOL    HW1 5046   1.495   4.541   1.665
 1084SOL    HW2 5047   1.647   4.550   1.605
 1085SOL     OW 5048   1.013   3.829   1.770
 1085SOL    HW1 5049   1.019   3.914   1.718
 1085SOL    HW2 5050   1.045   3.753   1.713
 1086SOL     OW 5051   0.504   3.774   1.740
 1086SOL    HW1 5052   0.462   3.717   1.670
 1086SOL    HW2 5053   0.438   3.843   1.772
 1087SOL     OW 5054   0.573   4.594   1.029
 1087SOL    HW1 5055   0.617   4.683   1.020
 1087SOL    HW2 5056   0.510   4.594   1.106
 1088SOL     OW 5057   1.360   4.586   1.045
 1088SOL    HW1 5058   1.285   4.586   0.979
 1088SOL    HW2 5059   1.397   4.494   1.054
 1089SOL     OW 5060   0.307   3.937   1.231
 1089SOL    HW1 5061   0.284   3.974   1.321
 1089SOL    HW2 5062   0.277   3.842   1.225
 1090SOL     OW 5063   0.037   5.034   1.282
 1090SOL    HW1 5064   0.090   4.985   1.350
 1090SOL    HW2 5065   0.059   5.132   1.287
 1091SOL     OW 5066   0.732   4.358   1.064
 1091SOL    HW1 5067   0.791   4.332   0.988
 1091SOL    HW2 5068   0.704   4.454   1.053
 1092SOL     OW 5069   1.728   4.659   1.854
 1092SOL    HW1 5070   1.682   4.652   1.765
 1092SOL    HW2 5071   1.666   4.703   1.920
 1093SOL     OW 5072   0.307   3.787   0.618
 1093SOL    HW1 5073   0.296   3.881   0.651
 1093SOL    HW2 5074   0.302   3.724   0.695
 1094SOL     OW 5075   1.622   4.091   0.374
 1094SOL    HW1 5076   1.624   4.015   0.438
 1094SOL    HW2 5077   1.574   4.168   0.414
 1095SOL     OW 5078   1.023   4.490   0.966
 1095SOL    HW1 5079   1.038   4.511   1.062
 1095SOL    HW2 5080   0.993   4.395   0.957
 1096SOL     OW 5081   1.859   5.242   1.605
 1096SOL    HW1 5082   1.873   5.269   1.510
 1096SOL    HW2 5083   1.942   5.264   1.658
 1097SOL     OW 5084   0.350   4.622   1.804
 1097SOL    HW1 5085   0.426   4.666   1.852
 1097SOL    HW2 5086   0.385   4.575   1.722
 1098SOL     OW 5087   1.303   4.562   0.042
 1098SOL    HW1 5088   1.337   4.469   0.057
 1098SOL    HW2 5089   1.321   4.589  -0.053
 1099SOL     OW 5090   0.319   4.534   0.949
 1099SOL    HW1 5091   0.412   4.570   0.954
 1099SOL    HW2 5092   0.313   4.449   1.001
 1100SOL     OW 5093   0.339   4.233   1.006
 1100SOL    HW1 5094   0.287   4.150   0.989
 1100SOL    HW2 5095   0.416   4.238   0.942
 1101SOL     OW 5096   1.138   4.104   1.678
 1101SOL    HW1 5097   1.093   4.167   1.742
 1101SOL    HW2 5098   1.231   4.135   1.661
 1102SOL     OW 5099   1.160   3.931   1.477
 1102SOL    HW1 5100   1.160   3.995   1.554
 1102SOL    HW2 5101   1.188   3.979   1.394
 1103SOL     OW 5102   0.008   5.050   0.200
 1103SOL    HW1 5103  -0.085   5.071   0.169
 1103SOL    HW2 5104   0.018   4.951   0.213
 1104SOL     OW 5105   1.002   4.520   1.238
 1104SOL    HW1 5106   1.043   4.488   1.324
 1104SOL    HW2 5107   0.906   4.493   1.235
 1105SOL     OW 5108   0.040   4.268   1.114
 1105SOL    HW1 5109   0.125   4.235   1.073
 1105SOL    HW2 5110   0.053   4.283   1.212
 1106SOL     OW 5111   0.189   4.244   1.722
 1106SOL    HW1 5112   0.248   4.204   1.652
 1106SOL    HW2 5113   0.131   4.315   1.681
 1107SOL     OW 5114   1.369   4.674   1.660
 1107SOL    HW1 5115   1.408   4.763   1.680
 1107SOL    HW2 5116   1.379   4.654   1.563
 1108SOL     OW 5117   0.815   4.296   0.325
 1108SOL    HW1 5118   0.822   4.207   0.279
 1108SOL    HW2 5119   0.721   4.330   0.317
 1109SOL     OW 5120   0.671   4.188   1.269
 1109SOL    HW1 5121   0.637   4.099   1.239
 1109SOL    HW2 5122   0.697   4.242   1.189
 1110SOL     OW 5123   0.159   4.861   1.466
 1110SOL    HW1 5124   0.181   4.800   1.542
 1110SOL    HW2 5125   0.169   4.812   1.380
 1111SOL     OW 5126   1.347   4.783   1.234
 1111SOL    HW1 5127   1.371   4.720   1.160
 1111SOL    HW2 5128   1.257   4.823   1.216
 1112SOL     OW 5129   1.302   4.579   0.309
 1112SOL    HW1 5130   1.216   4.548   0.351
 1112SOL    HW2 5131   1.298   4.565   0.210
 1113SOL     OW 5132   0.083   4.982   1.022
 1113SOL    HW1 5133   0.078   4.981   1.122
 1113SOL    HW2 5134   0.000   4.941   0.984
 1114SOL     OW 5135   0.903   3.810   0.133
 1114SOL    HW1 5136   0.954   3.811   0.047
 1114SOL    HW2 5137   0.959   3.768   0.204
 1115SOL     OW 5138   1.726   3.859   0.523
 1115SOL    HW1 5139   1.799   3.842   0.456
 1115SOL    HW2 5140   1.695   3.772   0.561
 1116SOL     OW 5141   1.280   4.651   0.672
 1116SOL    HW1 5142   1.340   4.570   0.674
 1116SOL    HW2 5143   1.320   4.720   0.612
 1117SOL     OW 5144   0.830   4.997   1.422
 1117SOL    HW1 5145   0.825   5.030   1.517
 1117SOL    HW2 5146   0.744   5.016   1.376
 1118SOL     OW 5147   0.263   4.050   0.720
 1118SOL    HW1 5148   0.184   4.101   0.686
 1118SOL    HW2 5149   0.254   4.035   0.818
 1119SOL     OW 5150   0.822   4.726   1.372
 1119SOL    HW1 5151   0.862   4.725   1.280
 1119SOL    HW2 5152   0.832   4.818   1.412
 1120SOL     OW 5153   0.916   4.634   0.291
 1120SOL    HW1 5154   0.979   4.672   0.223
 1120SOL    HW2 5155   0.956   4.551   0.330
 1121SOL     OW 5156   0.372   5.012   1.490
 1121SOL    HW1 5157   0.359   5.105   1.456
 1121SOL    HW2 5158   0.288   4.960   1.477
 1122SOL     OW 5159   1.614   5.016   1.289
 1122SOL    HW1 5160   1.674   5.019   1.369
 1122SOL    HW2 5161   1.539   5.080   1.302
 1123SOL     OW 5162   1.039   4.822   0.696
 1123SOL    HW1 5163   0.969   4.775   0.750
 1123SOL    HW2 5164   1.098   4.754   0.653
 1124SOL     OW 5165   1.709   4.109   1.381
 1124SOL    HW1 5166   1.782   4.178   1.385
 1124SOL    HW2 5167   1.737   4.034   1.322
 1125SOL     OW 5168   0.105   4.737   1.726
 1125SOL    HW1 5169   0.028   4.704   1.780
 1125SOL    HW2 5170   0.190   4.707   1.768
 1126SOL     OW 5171   0.672   3.927   1.489
 1126SOL    HW1 5172   0.762   3.911   1.449
 1126SOL    HW2 5173   0.680   3.932   1.588
 1127SOL     OW 5174   1.440   4.580   1.398
 1127SOL    HW1 5175   1.383   4.632   1.335
 1127SOL    HW2 5176   1.536   4.592   1.374
 1128SOL     OW 5177   0.613   4.566   1.431
 1128SOL    HW1 5178   0.669   4.647   1.414
 1128SOL    HW2 5179   0.672   4.486   1.434
 1129SOL     OW 5180   0.716   4.289   1.708
 1129SOL    HW1 5181   0.735   4.354   1.782
 1129SOL    HW2 5182   0.776   4.209   1.717
 1130SOL     OW 5183   1.450   4.944   1.633
 1130SOL    HW1 5184   1.441   4.934   1.732
 1130SOL    HW2 5185   1.546   4.937   1.607
 1131SOL     OW 5186   1.674   4.607   1.254
 1131SOL    HW1 5187   1.647   4.518   1.217
 1131SOL    HW2 5188   1.675   4.675   1.181
 1132SOL     OW 5189   0.594   4.469   0.652
 1132SOL    HW1 5190   0.644   4.554   0.633
 1132SOL    HW2 5191   0.506   4.471   0.604
 1133SOL     OW 5192   1.777   4.066   1.642
 1133SOL    HW1 5193   1.760   4.097   1.548
 1133SOL    HW2 5194   1.693   4.029   1.680
 1134SOL     OW 5195   1.730   4.658   1.517
 1134SOL    HW1 5196   1.768   4.749   1.532
 1134SOL    HW2 5197   1.722   4.641   1.418
 1135SOL     OW 5198   0.859   4.680   0.861
 1135SOL    HW1 5199   0.913   4.611   0.909
 1135SOL    HW2 5200   0.827   4.749   0.927
 1136SOL     OW 5201   1.083   4.708   0.087
 1136SOL    HW1 5202   1.060   4.761   0.005
 1136SOL    HW2 5203   1.164   4.652   0.068
 1137SOL     OW 5204   0.079   4.964   0.653
 1137SOL    HW1 5205   0.078   4.917   0.741
 1137SOL    HW2 5206   0.161   4.936   0.602
 1138SOL     OW 5207   0.428   4.148   0.520
 1138SOL    HW1 5208   0.458   4.076   0.458
 1138SOL    HW2 5209   0.389   4.108   0.603
 1139SOL     OW 5210   0.317   4.271   1.280
 1139SOL    HW1 5211   0.355   4.212   1.352
 1139SOL    HW2 5212   0.357   4.245   1.192
 1140SOL     OW 5213   1.424   3.938   1.112
 1140SOL    HW1 5214   1.476   3.873   1.167
 1140SOL    HW2 5215   1.375   4.001   1.173
 1141SOL     OW 5216   1.001   3.758   1.154
 1141SOL    HW1 5217   0.938   3.686   1.123
 1141SOL    HW2 5218   1.094   3.722   1.154
 1142SOL     OW 5219   0.770   5.054   0.301
 1142SOL    HW1 5220   0.724   4.967   0.318
 1142SOL    HW2 5221   0.861   5.051   0.342
 1143SOL     OW 5222   1.300   4.177   0.691
 1143SOL    HW1 5223   1.241   4.257   0.695
 1143SOL    HW2 5224   1.315   4.142   0.784
 1144SOL     OW 5225   1.593   3.945   0.882
 1144SOL    HW1 5226   1.509   3.944   0.936
 1144SOL    HW2 5227   1.595   4.028   0.826
 1145SOL     OW 5228   0.039   4.801   0.300
 1145SOL    HW1 5229   0.138   4.790   0.291
 1145SOL    HW2 5230  -0.001   4.715   0.332
 1146SOL     OW 5231   0.230   4.352   1.975
 1146SOL    HW1 5232   0.137   4.350   2.012
 1146SOL    HW2 5233   0.231   4.313   1.883
 1147SOL     OW 5234   0.225   3.999   2.858
 1147SOL    HW1 5235   0.260   3.982   2.950
 1147SOL    HW2 5236   0.137   3.954   2.846
 1148SOL     OW 5237   0.019   4.092   2.509
 1148SOL    HW1 5238  -0.063   4.135   2.548
 1148SOL    HW2 5239  -0.009   4.019   2.446
 1149SOL     OW 5240   1.555   5.235   2.565
 1149SOL    HW1 5241   1.498   5.219   2.646
 1149SOL    HW2 5242   1.496   5.245   2.485
 1150SOL     OW 5243   1.135   4.427   2.579
 1150SOL    HW1 5244   1.192   4.505   2.554
 1150SOL    HW2 5245   1.075   4.453   2.655
 1151SOL     OW 5246   1.755   4.331   2.093
 1151SOL    HW1 5247   1.743   4.318   1.994
 1151SOL    HW2 5248   1.725   4.250   2.142
 1152SOL     OW 5249   0.850   4.522   3.685
 1152SOL    HW1 5250   0.846   4.598   3.750
 1152SOL    HW2 5251   0.872   4.558   3.594
 1153SOL     OW 5252   0.335   5.159   2.923
 1153SOL    HW1 5253   0.257   5.128   2.870
 1153SOL    HW2 5254   0.393   5.217   2.866
 1154SOL     OW 5255   1.603   4.171   2.599
 1154SOL    HW1 5256   1.529   4.217   2.549
 1154SOL    HW2 5257   1.654   4.239   2.652
 1155SOL     OW 5258   0.240   4.815   2.748
 1155SOL    HW1 5259   0.254   4.731   2.800
 1155SOL    HW2 5260   0.185   4.879   2.803
 1156SOL     OW 5261   0.606   4.688   1.985
 1156SOL    HW1 5262   0.613   4.772   1.931
 1156SOL    HW2 5263   0.652   4.701   2.073
 1157SOL     OW 5264   1.594   3.838   3.342
 1157SOL    HW1 5265   1.576   3.905   3.270
 1157SOL    HW2 5266   1.591   3.884   3.431
 1158SOL     OW 5267   0.122   4.367   2.425
 1158SOL    HW1 5268   0.077   4.279   2.442
 1158SOL    HW2 5269   0.121   4.421   2.509
 1159SOL     OW 5270   0.113   4.461   3.459
 1159SOL    HW1 5271   0.201   4.448   3.504
 1159SOL    HW2 5272   0.100   4.558   3.437
 1160SOL     OW 5273   0.809   3.728   2.364
 1160SOL    HW1 5274   0.849   3.819   2.355
 1160SOL    HW2 5275   0.709   3.736   2.370
 1161SOL     OW 5276   0.197   4.700   3.126
 1161SOL    HW1 5277   0.286   4.655   3.112
 1161SOL    HW2 5278   0.124   4.635   3.107
 1162SOL     OW 5279   0.598   4.453   2.132
 1162SOL    HW1 5280   0.622   4.522   2.064
 1162SOL    HW2 5281   0.520   4.486   2.186
 1163SOL     OW 5282   1.281   4.069   2.806
 1163SOL    HW1 5283   1.195   4.019   2.793
 1163SOL    HW2 5284   1.343   4.015   2.862
 1164SOL     OW 5285   1.394   4.193   3.536
 1164SOL    HW1 5286   1.374   4.236   3.624
 1164SOL    HW2 5287   1.472   4.131   3.545
 1165SOL     OW 5288   0.973   4.614   3.434
 1165SOL    HW1 5289   1.019   4.530   3.405
 1165SOL    HW2 5290   0.917   4.648   3.359
 1166SOL     OW 5291   1.041   4.425   2.291
 1166SOL    HW1 5292   1.067   4.421   2.387
 1166SOL    HW2 5293   0.956   4.374   2.277
 1167SOL     OW 5294   0.076   4.535   2.651
 1167SOL    HW1 5295   0.175   4.523   2.660
 1167SOL    HW2 5296   0.052   4.630   2.672
 1168SOL     OW 5297   0.865   4.072   2.057
 1168SOL    HW1 5298   0.924   4.135   2.008
 1168SOL    HW2 5299   0.884   3.978   2.028
 1169SOL     OW 5300   1.719   4.309   3.693
 1169SOL    HW1 5301   1.693   4.398   3.657
 1169SOL    HW2 5302   1.717   4.241   3.620
 1170SOL     OW 5303   1.362   4.868   2.407
 1170SOL    HW1 5304   1.445   4.839   2.359
 1170SOL    HW2 5305   1.313   4.935   2.351
 1171SOL     OW 5306   0.550   3.920   2.747
 1171SOL    HW1 5307   0.545   3.915   2.847
 1171SOL    HW2 5308   0.552   4.016   2.718
 1172SOL     OW 5309   0.321   4.667   2.104
 1172SOL    HW1 5310   0.403   4.706   2.062
 1172SOL    HW2 5311   0.294   4.585   2.055
 1173SOL     OW 5312   0.202   4.009   3.360
 1173SOL    HW1 5313   0.122   4.069   3.347
 1173SOL    HW2 5314   0.192   3.960   3.446
 1174SOL     OW 5315   1.632   5.101   1.943
 1174SOL    HW1 5316   1.600   5.195   1.933
 1174SOL    HW2 5317   1.556   5.038   1.931
 1175SOL     OW 5318   0.382   4.424   2.342
 1175SOL    HW1 5319   0.427   4.334   2.339
 1175SOL    HW2 5320   0.288   4.413   2.375
 1176SOL     OW 5321   1.547   3.946   3.591
 1176SOL    HW1 5322   1.542   3.983   3.683
 1176SOL    HW2 5323   1.475   3.877   3.579
 1177SOL     OW 5324   0.614   3.846   1.979
 1177SOL    HW1 5325   0.712   3.824   1.986
 1177SOL    HW2 5326   0.583   3.829   1.886
 1178SOL     OW 5327   1.351   4.314   3.295
 1178SOL    HW1 5328   1.379   4.271   3.380
 1178SOL    HW2 5329   1.376   4.410   3.296
 1179SOL     OW 5330   0.539   3.788   2.374
 1179SOL    HW1 5331   0.458   3.789   2.432
 1179SOL    HW2 5332   0.542   3.871   2.319
 1180SOL     OW 5333   1.434   4.912   1.903
 1180SOL    HW1 5334   1.466   4.836   1.960
 1180SOL    HW2 5335   1.342   4.939   1.933
 1181SOL     OW 5336   0.297   3.759   2.033
 1181SOL    HW1 5337   0.346   3.843   2.012
 1181SOL    HW2 5338   0.359   3.694   2.078
 1182SOL     OW 5339   0.935   3.960   2.342
 1182SOL    HW1 5340   0.887   4.001   2.264
 1182SOL    HW2 5341   1.034   3.958   2.323
 1183SOL     OW 5342   1.076   4.407   3.326
 1183SOL    HW1 5343   0.996   4.346   3.329
 1183SOL    HW2 5344   1.157   4.354   3.302
 1184SOL     OW 5345   1.227   5.294   2.655
 1184SOL    HW1 5346   1.248   5.368   2.590
 1184SOL    HW2 5347   1.295   5.294   2.728
 1185SOL     OW 5348   1.032   4.273   1.878
 1185SOL    HW1 5349   0.991   4.355   1.839
 1185SOL    HW2 5350   1.096   4.299   1.951
 1186SOL     OW 5351   0.078   4.280   3.248
 1186SOL    HW1 5352   0.170   4.279   3.207
 1186SOL    HW2 5353   0.072   4.354   3.315
 1187SOL     OW 5354   0.561   3.946   3.009
 1187SOL    HW1 5355   0.599   3.862   3.046
 1187SOL    HW2 5356   0.473   3.965   3.053
 1188SOL     OW 5357   0.866   4.178   2.504
 1188SOL    HW1 5358   0.834   4.250   2.442
 1188SOL    HW2 5359   0.890   4.097   2.451
 1189SOL     OW 5360   1.017   3.763   2.615
 1189SOL    HW1 5361   0.945   3.768   2.546
 1189SOL    HW2 5362   0.993   3.694   2.684
 1190SOL     OW 5363   1.466   4.314   2.854
 1190SOL    HW1 5364   1.436   4.219   2.861
 1190SOL    HW2 5365   1.539   4.330   2.920
 1191SOL     OW 5366   1.857   4.557   2.239
 1191SOL    HW1 5367   1.899   4.493   2.303
 1191SOL    HW2 5368   1.819   4.506   2.161
 1192SOL     OW 5369   0.527   3.980   2.190
 1192SOL    HW1 5370   0.554   3.921   2.115
 1192SOL    HW2 5371   0.527   4.075   2.159
 1193SOL     OW 5372   1.754   4.947   3.450
 1193SOL    HW1 5373   1.845   4.908   3.437
 1193SOL    HW2 5374   1.762   5.043   3.474
 1194SOL     OW 5375   0.915   3.813   3.264
 1194SOL    HW1 5376   0.940   3.793   3.169
 1194SOL    HW2 5377   0.987   3.869   3.306
 1195SOL     OW 5378   0.980   4.840   3.581
 1195SOL    HW1 5379   0.881   4.846   3.591
 1195SOL    HW2 5380   1.003   4.760   3.525
 1196SOL     OW 5381   0.705   4.774   2.230
 1196SOL    HW1 5382   0.691   4.781   2.329
 1196SOL    HW2 5383   0.789   4.723   2.212
 1197SOL     OW 5384   0.410   4.537   3.113
 1197SOL    HW1 5385   0.496   4.549   3.163
 1197SOL    HW2 5386   0.368   4.450   3.140
 1198SOL     OW 5387   0.367   4.824   2.363
 1198SOL    HW1 5388   0.360   4.907   2.307
 1198SOL    HW2 5389   0.371   4.744   2.303
 1199SOL     OW 5390   0.566   4.261   2.727
 1199SOL    HW1 5391   0.578   4.327   2.653
 1199SOL    HW2 5392   0.612   4.295   2.810
 1200SOL     OW 5393   1.582   4.363   2.334
 1200SOL    HW1 5394   1.551   4.424   2.407
 1200SOL    HW2 5395   1.632   4.415   2.265
 1201SOL     OW 5396   0.402   4.475   3.460
 1201SOL    HW1 5397   0.470   4.530   3.413
 1201SOL    HW2 5398   0.442   4.387   3.487
 1202SOL     OW 5399   1.587   4.503   3.532
 1202SOL    HW1 5400   1.495   4.541   3.527
 1202SOL    HW2 5401   1.647   4.550   3.467
 1203SOL     OW 5402   0.573   4.594   2.891
 1203SOL    HW1 5403   0.617   4.683   2.882
 1203SOL    HW2 5404   0.510   4.594   2.968
 1204SOL     OW 5405   1.360   4.586   2.907
 1204SOL    HW1 5406   1.285   4.586   2.841
 1204SOL    HW2 5407   1.397   4.494   2.916
 1205SOL     OW 5408   0.307   3.937   3.093
 1205SOL    HW1 5409   0.284   3.974   3.183
 1205SOL    HW2 5410   0.277   3.842   3.087
 1206SOL     OW 5411   0.037   5.034   3.144
 1206SOL    HW1 5412   0.090   4.985   3.212
 1206SOL    HW2 5413   0.059   5.132   3.149
 1207SOL     OW 5414   0.732   4.358   2.926
 1207SOL    HW1 5415   0.791   4.332   2.850
 1207SOL    HW2 5416   0.704   4.454   2.915
 1208SOL     OW 5417   1.728   4.659   3.716
 1208SOL    HW1 5418   1.682   4.652   3.627
 1208SOL    HW2 5419   1.666   4.703   3.782
 1209SOL     OW 5420   0.307   3.787   2.480
 1209SOL    HW1 5421   0.296   3.881   2.513
 1209SOL    HW2 5422   0.302   3.724   2.557
 1210SOL     OW 5423   1.622   4.091   2.236
 1210SOL    HW1 5424   1.624   4.015   2.300
 1210SOL    HW2 5425   1.574   4.168   2.276
 1211SOL     OW 5426   1.023   4.490   2.828
 1211SOL    HW1 5427   1.038   4.511   2.924
 1211SOL    HW2 5428   0.993   4.395   2.819
 1212SOL     OW 5429   1.859   5.242   3.467
 1212SOL    HW1 5430   1.873   5.269   3.372
 1212SOL    HW2 5431   1.942   5.264   3.520
 1213SOL     OW 5432   0.350   4.622   3.666
 1213SOL    HW1 5433   0.426   4.666   3.714
 1213SOL    HW2 5434   0.385   4.575   3.584
 1214SOL     OW 5435   1.303   4.562   1.904
 1214SOL    HW1 5436   1.337   4.469   1.919
 1214SOL    HW2 5437   1.321   4.589   1.809
 1215SOL     OW 5438   0.319   4.534   2.811
 1215SOL    HW1 5439   0.412   4.570   2.816
 1215SOL    HW2 5440   0.313   4.449   2.863
 1216SOL     OW 5441   0.339   4.233   2.868
 1216SOL    HW1 5442   0.287   4.150   2.851
 1216SOL    HW2 5443   0.416   4.238   2.804
 1217SOL     OW 5444   1.160   3.931   3.339
 1217SOL    HW1 5445   1.160   3.995   3.416
 1217SOL    HW2 5446   1.188   3.979   3.256
 1218SOL     OW 5447   0.008   5.050   2.062
 1218SOL    HW1 5448  -0.085   5.071   2.031
 1218SOL    HW2 5449   0.018   4.951   2.075
 1219SOL     OW 5450   1.002   4.520   3.100
 1219SOL    HW1 5451   1.043   4.488   3.186
 1219SOL    HW2 5452   0.906   4.493   3.097
 1220SOL     OW 5453   0.189   4.244   3.584
 1220SOL    HW1 5454   0.248   4.204   3.514
 1220SOL    HW2 5455   0.131   4.315   3.543
 1221SOL     OW 5456   1.369   4.674   3.522
 1221SOL    HW1 5457   1.408   4.763   3.542
 1221SOL    HW2 5458   1.379   4.654   3.425
 1222SOL     OW 5459   0.815   4.296   2.187
 1222SOL    HW1 5460   0.822   4.207   2.141
 1222SOL    HW2 5461   0.721   4.330   2.179
 1223SOL     OW 5462   1.657   4.328   3.068
 1223SOL    HW1 5463   1.619   4.259   3.130
 1223SOL    HW2 5464   1.739   4.292   3.024
 1224SOL     OW 5465   0.473   4.224   2.053
 1224SOL    HW1 5466   0.534   4.304   2.057
 1224SOL    HW2 5467   0.378   4.255   2.060
 1225SOL     OW 5468   0.159   4.861   3.328
 1225SOL    HW1 5469   0.181   4.800   3.404
 1225SOL    HW2 5470   0.169   4.812   3.242
 1226SOL     OW 5471   1.347   4.783   3.096
 1226SOL    HW1 5472   1.371   4.720   3.022
 1226SOL    HW2 5473   1.257   4.823   3.078
 1227SOL     OW 5474   0.083   4.982   2.884
 1227SOL    HW1 5475   0.078   4.981   2.984
 1227SOL    HW2 5476   0.000   4.941   2.846
 1228SOL     OW 5477   1.726   3.859   2.385
 1228SOL    HW1 5478   1.799   3.842   2.318
 1228SOL    HW2 5479   1.695   3.772   2.423
 1229SOL     OW 5480   1.841   3.899   2.825
 1229SOL    HW1 5481   1.880   3.814   2.789
 1229SOL    HW2 5482   1.743   3.901   2.806
 1230SOL     OW 5483   0.263   4.050   2.582
 1230SOL    HW1 5484   0.184   4.101   2.548
 1230SOL    HW2 5485   0.254   4.035   2.680
 1231SOL     OW 5486   1.194   5.336   1.893
 1231SOL    HW1 5487   1.200   5.243   1.930
 1231SOL    HW2 5488   1.135   5.336   1.813
 1232SOL     OW 5489   0.822   4.726   3.234
 1232SOL    HW1 5490   0.862   4.725   3.142
 1232SOL    HW2 5491   0.832   4.818   3.274
 1233SOL     OW 5492   0.916   4.634   2.153
 1233SOL    HW1 5493   0.979   4.672   2.085
 1233SOL    HW2 5494   0.956   4.551   2.192
 1234SOL     OW 5495   0.372   5.012   3.352
 1234SOL    HW1 5496   0.359   5.105   3.318
 1234SOL    HW2 5497   0.288   4.960   3.339
 1235SOL     OW 5498   1.039   4.822   2.558
 1235SOL    HW1 5499   0.969   4.775   2.612
 1235SOL    HW2 5500   1.098   4.754   2.515
 1236SOL     OW 5501   1.014   3.960   2.833
 1236SOL    HW1 5502   1.006   3.924   2.740
 1236SOL    HW2 5503   1.012   3.884   2.898
 1237SOL     OW 5504   1.709   4.109   3.243
 1237SOL    HW1 5505   1.782   4.178   3.247
 1237SOL    HW2 5506   1.737   4.034   3.184
 1238SOL     OW 5507   0.105   4.737   3.588
 1238SOL    HW1 5508   0.028   4.704   3.642
 1238SOL    HW2 5509   0.190   4.707   3.630
 1239SOL     OW 5510   0.075   4.069   1.895
 1239SOL    HW1 5511  -0.017   4.041   1.866
 1239SOL    HW2 5512   0.106   4.146   1.839
 1240SOL     OW 5513   1.440   4.580   3.260
 1240SOL    HW1 5514   1.383   4.632   3.197
 1240SOL    HW2 5515   1.536   4.592   3.236
 1241SOL     OW 5516   0.072   3.890   2.180
 1241SOL    HW1 5517   0.055   3.973   2.126
 1241SOL    HW2 5518   0.162   3.853   2.158
 1242SOL     OW 5519   0.613   4.566   3.293
 1242SOL    HW1 5520   0.669   4.647   3.276
 1242SOL    HW2 5521   0.672   4.486   3.296
 1243SOL     OW 5522   1.450   4.944   3.495
 1243SOL    HW1 5523   1.441   4.934   3.594
 1243SOL    HW2 5524   1.546   4.937   3.469
 1244SOL     OW 5525   0.594   4.469   2.514
 1244SOL    HW1 5526   0.644   4.554   2.495
 1244SOL    HW2 5527   0.506   4.471   2.466
 1245SOL     OW 5528   1.777   4.066   3.504
 1245SOL    HW1 5529   1.760   4.097   3.410
 1245SOL    HW2 5530   1.693   4.029   3.542
 1246SOL     OW 5531   1.730   4.658   3.379
 1246SOL    HW1 5532   1.768   4.749   3.394
 1246SOL    HW2 5533   1.722   4.641   3.280
 1247SOL     OW 5534   0.859   4.680   2.723
 1247SOL    HW1 5535   0.913   4.611   2.771
 1247SOL    HW2 5536   0.827   4.749   2.789
 1248SOL     OW 5537   1.083   4.708   1.949
 1248SOL    HW1 5538   1.060   4.761   1.867
 1248SOL    HW2 5539   1.164   4.652   1.930
 1249SOL     OW 5540   0.079   4.964   2.515
 1249SOL    HW1 5541   0.078   4.917   2.603
 1249SOL    HW2 5542   0.161   4.936   2.464
 1250SOL     OW 5543   1.824   3.916   3.089
 1250SOL    HW1 5544   1.820   3.826   3.133
 1250SOL    HW2 5545   1.827   3.905   2.990
 1251SOL     OW 5546   0.428   4.148   2.382
 1251SOL    HW1 5547   0.458   4.076   2.320
 1251SOL    HW2 5548   0.389   4.108   2.465
 1252SOL     OW 5549   0.317   4.271   3.142
 1252SOL    HW1 5550   0.355   4.212   3.214
 1252SOL    HW2 5551   0.357   4.245   3.054
 1253SOL     OW 5552   1.424   3.938   2.974
 1253SOL    HW1 5553   1.476   3.873   3.029
 1253SOL    HW2 5554   1.375   4.001   3.035
 1254SOL     OW 5555   1.001   3.758   3.016
 1254SOL    HW1 5556   0.938   3.686   2.985
 1254SOL    HW2 5557   1.094   3.722   3.016
 1255SOL     OW 5558   0.770   5.054   2.163
 1255SOL    HW1 5559   0.724   4.967   2.180
 1255SOL    HW2 5560   0.861   5.051   2.204
 1256SOL     OW 5561   1.300   4.177   2.553
 1256SOL    HW1 5562   1.241   4.257   2.557
 1256SOL    HW2 5563   1.315   4.142   2.646
 1257SOL     OW 5564   1.593   3.945   2.744
 1257SOL    HW1 5565   1.509   3.944   2.798
 1257SOL    HW2 5566   1.595   4.028   2.688
 1258SOL     OW 5567   0.039   4.801   2.162
 1258SOL    HW1 5568   0.138   4.790   2.153
 1258SOL    HW2 5569  -0.001   4.715   2.194
 1259SOL     OW 5570   0.230   4.352   3.837
 1259SOL    HW1 5571   0.137   4.350   3.874
 1259SOL    HW2 5572   0.231   4.313   3.745
 1260SOL     OW 5573   0.569   4.999   4.889
 1260SOL    HW1 5574   0.476   4.992   4.852
 1260SOL    HW2 5575   0.580   5.088   4.933
 1261SOL     OW 5576   1.555   5.235   4.427
 1261SOL    HW1 5577   1.498   5.219   4.508
 1261SOL    HW2 5578   1.496   5.245   4.347
 1262SOL     OW 5579   1.135   4.427   4.441
 1262SOL    HW1 5580   1.192   4.505   4.416
 1262SOL    HW2 5581   1.075   4.453   4.517
 1263SOL     OW 5582   1.755   4.331   3.955
 1263SOL    HW1 5583   1.743   4.318   3.856
 1263SOL    HW2 5584   1.725   4.250   4.004
 1264SOL     OW 5585   0.768   4.868   4.747
 1264SOL    HW1 5586   0.690   4.885   4.807
 1264SOL    HW2 5587   0.802   4.955   4.711
 1265SOL     OW 5588   0.685   4.736   4.389
 1265SOL    HW1 5589   0.754   4.720   4.459
 1265SOL    HW2 5590   0.612   4.793   4.427
 1266SOL     OW 5591   0.335   5.159   4.785
 1266SOL    HW1 5592   0.257   5.128   4.732
 1266SOL    HW2 5593   0.393   5.217   4.728
 1267SOL     OW 5594   1.603   4.171   4.461
 1267SOL    HW1 5595   1.529   4.217   4.411
 1267SOL    HW2 5596   1.654   4.239   4.514
 1268SOL     OW 5597   0.240   4.815   4.610
 1268SOL    HW1 5598   0.254   4.731   4.662
 1268SOL    HW2 5599   0.185   4.879   4.665
 1269SOL     OW 5600   0.606   4.688   3.847
 1269SOL    HW1 5601   0.613   4.772   3.793
 1269SOL    HW2 5602   0.652   4.701   3.935
 1270SOL     OW 5603   0.122   4.367   4.287
 1270SOL    HW1 5604   0.077   4.279   4.304
 1270SOL    HW2 5605   0.121   4.421   4.371
 1271SOL     OW 5606   1.689   4.646   4.336
 1271SOL    HW1 5607   1.784   4.617   4.344
 1271SOL    HW2 5608   1.681   4.711   4.261
 1272SOL     OW 5609   0.809   3.728   4.226
 1272SOL    HW1 5610   0.849   3.819   4.217
 1272SOL    HW2 5611   0.709   3.736   4.232
 1273SOL     OW 5612   0.197   4.700   4.988
 1273SOL    HW1 5613   0.286   4.655   4.974
 1273SOL    HW2 5614   0.124   4.635   4.969
 1274SOL     OW 5615   1.525   4.723   3.914
 1274SOL    HW1 5616   1.462   4.647   3.927
 1274SOL    HW2 5617   1.573   4.741   4.000
 1275SOL     OW 5618   1.466   5.141   4.677
 1275SOL    HW1 5619   1.407   5.147   4.757
 1275SOL    HW2 5620   1.451   5.053   4.631
 1276SOL     OW 5621   0.598   4.453   3.994
 1276SOL    HW1 5622   0.622   4.522   3.926
 1276SOL    HW2 5623   0.520   4.486   4.048
 1277SOL     OW 5624   1.281   4.069   4.668
 1277SOL    HW1 5625   1.195   4.019   4.655
 1277SOL    HW2 5626   1.343   4.015   4.724
 1278SOL     OW 5627   0.991   4.134   4.966
 1278SOL    HW1 5628   0.914   4.168   5.020
 1278SOL    HW2 5629   0.957   4.083   4.887
 1279SOL     OW 5630   1.041   4.425   4.153
 1279SOL    HW1 5631   1.067   4.421   4.249
 1279SOL    HW2 5632   0.956   4.374   4.139
 1280SOL     OW 5633   0.076   4.535   4.513
 1280SOL    HW1 5634   0.175   4.523   4.522
 1280SOL    HW2 5635   0.052   4.630   4.534
 1281SOL     OW 5636   0.550   3.920   4.609
 1281SOL    HW1 5637   0.545   3.915   4.709
 1281SOL    HW2 5638   0.552   4.016   4.580
 1282SOL     OW 5639   1.795   4.790   4.597
 1282SOL    HW1 5640   1.733   4.775   4.521
 1282SOL    HW2 5641   1.743   4.801   4.682
 1283SOL     OW 5642   0.321   4.667   3.966
 1283SOL    HW1 5643   0.403   4.706   3.924
 1283SOL    HW2 5644   0.294   4.585   3.917
 1284SOL     OW 5645   1.458   4.459   4.452
 1284SOL    HW1 5646   1.453   4.394   4.527
 1284SOL    HW2 5647   1.538   4.518   4.465
 1285SOL     OW 5648   1.632   5.101   3.805
 1285SOL    HW1 5649   1.600   5.195   3.795
 1285SOL    HW2 5650   1.556   5.038   3.793
 1286SOL     OW 5651   1.400   3.831   4.150
 1286SOL    HW1 5652   1.376   3.794   4.060
 1286SOL    HW2 5653   1.499   3.847   4.154
 1287SOL     OW 5654   0.382   4.424   4.204
 1287SOL    HW1 5655   0.427   4.334   4.201
 1287SOL    HW2 5656   0.288   4.413   4.237
 1288SOL     OW 5657   0.803   5.126   4.648
 1288SOL    HW1 5658   0.893   5.140   4.606
 1288SOL    HW2 5659   0.732   5.128   4.577
 1289SOL     OW 5660   0.922   4.227   4.623
 1289SOL    HW1 5661   0.897   4.218   4.527
 1289SOL    HW2 5662   0.970   4.145   4.654
 1290SOL     OW 5663   1.227   5.294   4.517
 1290SOL    HW1 5664   1.248   5.368   4.452
 1290SOL    HW2 5665   1.295   5.294   4.590
 1291SOL     OW 5666   0.459   4.876   4.465
 1291SOL    HW1 5667   0.388   4.849   4.530
 1291SOL    HW2 5668   0.433   4.848   4.372
 1292SOL     OW 5669   0.561   3.946   4.871
 1292SOL    HW1 5670   0.599   3.862   4.908
 1292SOL    HW2 5671   0.473   3.965   4.915
 1293SOL     OW 5672   0.866   4.178   4.366
 1293SOL    HW1 5673   0.834   4.250   4.304
 1293SOL    HW2 5674   0.890   4.097   4.313
 1294SOL     OW 5675   1.017   3.763   4.477
 1294SOL    HW1 5676   0.945   3.768   4.408
 1294SOL    HW2 5677   0.993   3.694   4.546
 1295SOL     OW 5678   1.429   4.897   4.591
 1295SOL    HW1 5679   1.374   4.813   4.584
 1295SOL    HW2 5680   1.455   4.926   4.499
 1296SOL     OW 5681   1.466   4.314   4.716
 1296SOL    HW1 5682   1.436   4.219   4.723
 1296SOL    HW2 5683   1.539   4.330   4.782
 1297SOL     OW 5684   1.857   4.557   4.101
 1297SOL    HW1 5685   1.899   4.493   4.165
 1297SOL    HW2 5686   1.819   4.506   4.023
 1298SOL     OW 5687   1.390   4.299   3.802
 1298SOL    HW1 5688   1.336   4.278   3.883
 1298SOL    HW2 5689   1.481   4.258   3.811
 1299SOL     OW 5690   1.638   4.823   4.803
 1299SOL    HW1 5691   1.643   4.904   4.862
 1299SOL    HW2 5692   1.552   4.825   4.752
 1300SOL     OW 5693   0.705   4.774   4.092
 1300SOL    HW1 5694   0.691   4.781   4.191
 1300SOL    HW2 5695   0.789   4.723   4.074
 1301SOL     OW 5696   0.410   4.537   4.975
 1301SOL    HW1 5697   0.496   4.549   5.025
 1301SOL    HW2 5698   0.368   4.450   5.002
 1302SOL     OW 5699   1.274   4.110   4.986
 1302SOL    HW1 5700   1.295   4.184   5.050
 1302SOL    HW2 5701   1.185   4.127   4.943
 1303SOL     OW 5702   0.367   4.824   4.225
 1303SOL    HW1 5703   0.360   4.907   4.169
 1303SOL    HW2 5704   0.371   4.744   4.165
 1304SOL     OW 5705   0.566   4.261   4.589
 1304SOL    HW1 5706   0.578   4.327   4.515
 1304SOL    HW2 5707   0.612   4.295   4.672
 1305SOL     OW 5708   1.582   4.363   4.196
 1305SOL    HW1 5709   1.551   4.424   4.269
 1305SOL    HW2 5710   1.632   4.415   4.127
 1306SOL     OW 5711   0.573   4.594   4.753
 1306SOL    HW1 5712   0.617   4.683   4.744
 1306SOL    HW2 5713   0.510   4.594   4.830
 1307SOL     OW 5714   1.360   4.586   4.769
 1307SOL    HW1 5715   1.285   4.586   4.703
 1307SOL    HW2 5716   1.397   4.494   4.778
 1308SOL     OW 5717   0.307   3.937   4.955
 1308SOL    HW1 5718   0.284   3.974   5.045
 1308SOL    HW2 5719   0.277   3.842   4.949
 1309SOL     OW 5720   0.037   5.034   5.006
 1309SOL    HW1 5721   0.090   4.985   5.074
 1309SOL    HW2 5722   0.059   5.132   5.011
 1310SOL     OW 5723   0.732   4.358   4.788
 1310SOL    HW1 5724   0.791   4.332   4.712
 1310SOL    HW2 5725   0.704   4.454   4.777
 1311SOL     OW 5726   1.622   4.091   4.098
 1311SOL    HW1 5727   1.624   4.015   4.162
 1311SOL    HW2 5728   1.574   4.168   4.138
 1312SOL     OW 5729   1.023   4.490   4.690
 1312SOL    HW1 5730   1.038   4.511   4.786
 1312SOL    HW2 5731   0.993   4.395   4.681
 1313SOL     OW 5732   1.540   3.998   3.849
 1313SOL    HW1 5733   1.479   3.923   3.872
 1313SOL    HW2 5734   1.562   4.050   3.932
 1314SOL     OW 5735   1.303   4.562   3.766
 1314SOL    HW1 5736   1.337   4.469   3.781
 1314SOL    HW2 5737   1.321   4.589   3.671
 1315SOL     OW 5738   0.319   4.534   4.673
 1315SOL    HW1 5739   0.412   4.570   4.678
 1315SOL    HW2 5740   0.313   4.449   4.725
 1316SOL     OW 5741   0.339   4.233   4.730
 1316SOL    HW1 5742   0.287   4.150   4.713
 1316SOL    HW2 5743   0.416   4.238   4.666
 1317SOL     OW 5744   0.008   5.050   3.924
 1317SOL    HW1 5745  -0.085   5.071   3.893
 1317SOL    HW2 5746   0.018   4.951   3.937
 1318SOL     OW 5747   1.002   4.520   4.962
 1318SOL    HW1 5748   1.043   4.488   5.048
 1318SOL    HW2 5749   0.906   4.493   4.959
 1319SOL     OW 5750   0.040   4.268   4.838
 1319SOL    HW1 5751   0.125   4.235   4.797
 1319SOL    HW2 5752   0.053   4.283   4.936
 1320SOL     OW 5753   0.815   4.296   4.049
 1320SOL    HW1 5754   0.822   4.207   4.003
 1320SOL    HW2 5755   0.721   4.330   4.041
 1321SOL     OW 5756   1.657   4.328   4.930
 1321SOL    HW1 5757   1.619   4.259   4.992
 1321SOL    HW2 5758   1.739   4.292   4.886
 1322SOL     OW 5759   0.671   4.188   4.993
 1322SOL    HW1 5760   0.637   4.099   4.963
 1322SOL    HW2 5761   0.697   4.242   4.913
 1323SOL     OW 5762   1.347   4.783   4.958
 1323SOL    HW1 5763   1.371   4.720   4.884
 1323SOL    HW2 5764   1.257   4.823   4.940
 1324SOL     OW 5765   1.302   4.579   4.033
 1324SOL    HW1 5766   1.216   4.548   4.075
 1324SOL    HW2 5767   1.298   4.565   3.934
 1325SOL     OW 5768   0.083   4.982   4.746
 1325SOL    HW1 5769   0.078   4.981   4.846
 1325SOL    HW2 5770   0.000   4.941   4.708
 1326SOL     OW 5771   1.726   3.859   4.247
 1326SOL    HW1 5772   1.799   3.842   4.180
 1326SOL    HW2 5773   1.695   3.772   4.285
 1327SOL     OW 5774   1.280   4.651   4.396
 1327SOL    HW1 5775   1.340   4.570   4.398
 1327SOL    HW2 5776   1.320   4.720   4.336
 1328SOL     OW 5777   0.830   4.997   5.146
 1328SOL    HW1 5778   0.825   5.030   5.241
 1328SOL    HW2 5779   0.744   5.016   5.100
 1329SOL     OW 5780   1.841   3.899   4.687
 1329SOL    HW1 5781   1.880   3.814   4.651
 1329SOL    HW2 5782   1.743   3.901   4.668
 1330SOL     OW 5783   0.822   4.726   5.096
 1330SOL    HW1 5784   0.862   4.725   5.004
 1330SOL    HW2 5785   0.832   4.818   5.136
 1331SOL     OW 5786   0.916   4.634   4.015
 1331SOL    HW1 5787   0.979   4.672   3.947
 1331SOL    HW2 5788   0.956   4.551   4.054
 1332SOL     OW 5789   1.039   4.822   4.420
 1332SOL    HW1 5790   0.969   4.775   4.474
 1332SOL    HW2 5791   1.098   4.754   4.377
 1333SOL     OW 5792   1.014   3.960   4.695
 1333SOL    HW1 5793   1.006   3.924   4.602
 1333SOL    HW2 5794   1.012   3.884   4.760
 1334SOL     OW 5795   1.709   4.109   5.105
 1334SOL    HW1 5796   1.782   4.178   5.109
 1334SOL    HW2 5797   1.737   4.034   5.046
 1335SOL     OW 5798   1.450   4.944   5.357
 1335SOL    HW1 5799   1.441   4.934   5.456
 1335SOL    HW2 5800   1.546   4.937   5.331
 1336SOL     OW 5801   1.674   4.607   4.978
 1336SOL    HW1 5802   1.647   4.518   4.941
 1336SOL    HW2 5803   1.675   4.675   4.905
 1337SOL     OW 5804   1.225   4.049   4.173
 1337SOL    HW1 5805   1.290   3.975   4.162
 1337SOL    HW2 5806   1.245   4.099   4.257
 1338SOL     OW 5807   0.594   4.469   4.376
 1338SOL    HW1 5808   0.644   4.554   4.357
 1338SOL    HW2 5809   0.506   4.471   4.328
 1339SOL     OW 5810   1.730   4.658   5.241
 1339SOL    HW1 5811   1.768   4.749   5.256
 1339SOL    HW2 5812   1.722   4.641   5.142
 1340SOL     OW 5813   0.859   4.680   4.585
 1340SOL    HW1 5814   0.913   4.611   4.633
 1340SOL    HW2 5815   0.827   4.749   4.651
 1341SOL     OW 5816   1.083   4.708   3.811
 1341SOL    HW1 5817   1.060   4.761   3.729
 1341SOL    HW2 5818   1.164   4.652   3.792
 1342SOL     OW 5819   0.079   4.964   4.377
 1342SOL    HW1 5820   0.078   4.917   4.465
 1342SOL    HW2 5821   0.161   4.936   4.326
 1343SOL     OW 5822   1.824   3.916   4.951
 1343SOL    HW1 5823   1.820   3.826   4.995
 1343SOL    HW2 5824   1.827   3.905   4.852
 1344SOL     OW 5825   1.424   3.938   4.836
 1344SOL    HW1 5826   1.476   3.873   4.891
 1344SOL    HW2 5827   1.375   4.001   4.897
 1345SOL     OW 5828   1.001   3.758   4.878
 1345SOL    HW1 5829   0.938   3.686   4.847
 1345SOL    HW2 5830   1.094   3.722   4.878
 1346SOL     OW 5831   0.770   5.054   4.025
 1346SOL    HW1 5832   0.724   4.967   4.042
 1346SOL    HW2 5833   0.861   5.051   4.066
 1347SOL     OW 5834   1.300   4.177   4.415
 1347SOL    HW1 5835   1.241   4.257   4.419
 1347SOL    HW2 5836   1.315   4.142   4.508
 1348SOL     OW 5837   1.593   3.945   4.606
 1348SOL    HW1 5838   1.509   3.944   4.660
 1348SOL    HW2 5839   1.595   4.028   4.550
 1349SOL     OW 5840   0.039   4.801   4.024
 1349SOL    HW1 5841   0.138   4.790   4.015
 1349SOL    HW2 5842  -0.001   4.715   4.056
 1350SOL     OW 5843   2.092   0.628   0.113
 1350SOL    HW1 5844   1.999   0.626   0.150
 1350SOL    HW2 5845   2.093   0.589   0.021
 1351SOL     OW 5846   2.087   0.275   0.996
 1351SOL    HW1 5847   2.122   0.258   1.088
 1351SOL    HW2 5848   1.999   0.230   0.984
 1352SOL     OW 5849   1.881   0.368   0.647
 1352SOL    HW1 5850   1.799   0.411   0.686
 1352SOL    HW2 5851   1.853   0.295   0.584
 1353SOL     OW 5852   2.431   1.275   1.165
 1353SOL    HW1 5853   2.338   1.268   1.128
 1353SOL    HW2 5854   2.442   1.364   1.209
 1354SOL     OW 5855   3.417   1.511   0.703
 1354SOL    HW1 5856   3.360   1.495   0.784
 1354SOL    HW2 5857   3.358   1.521   0.623
 1355SOL     OW 5858   2.997   0.703   0.717
 1355SOL    HW1 5859   3.054   0.781   0.692
 1355SOL    HW2 5860   2.937   0.729   0.793
 1356SOL     OW 5861   3.617   0.607   0.231
 1356SOL    HW1 5862   3.605   0.594   0.132
 1356SOL    HW2 5863   3.587   0.526   0.280
 1357SOL     OW 5864   2.630   1.144   1.023
 1357SOL    HW1 5865   2.552   1.161   1.083
 1357SOL    HW2 5866   2.664   1.231   0.987
 1358SOL     OW 5867   2.712   0.798   1.823
 1358SOL    HW1 5868   2.708   0.874   1.888
 1358SOL    HW2 5869   2.734   0.834   1.732
 1359SOL     OW 5870   2.547   1.012   0.665
 1359SOL    HW1 5871   2.616   0.996   0.735
 1359SOL    HW2 5872   2.474   1.069   0.703
 1360SOL     OW 5873   2.548   1.161   1.803
 1360SOL    HW1 5874   2.608   1.240   1.817
 1360SOL    HW2 5875   2.462   1.192   1.762
 1361SOL     OW 5876   2.197   1.435   1.061
 1361SOL    HW1 5877   2.119   1.404   1.008
 1361SOL    HW2 5878   2.255   1.493   1.004
 1362SOL     OW 5879   3.322   1.505   1.339
 1362SOL    HW1 5880   3.346   1.599   1.365
 1362SOL    HW2 5881   3.306   1.451   1.421
 1363SOL     OW 5882   2.300   0.392   1.499
 1363SOL    HW1 5883   2.382   0.336   1.508
 1363SOL    HW2 5884   2.219   0.334   1.503
 1364SOL     OW 5885   3.465   0.447   0.737
 1364SOL    HW1 5886   3.391   0.493   0.687
 1364SOL    HW2 5887   3.516   0.515   0.790
 1365SOL     OW 5888   2.093   1.713   0.483
 1365SOL    HW1 5889   2.127   1.790   0.537
 1365SOL    HW2 5890   2.137   1.713   0.393
 1366SOL     OW 5891   2.989   1.341   1.690
 1366SOL    HW1 5892   3.036   1.341   1.778
 1366SOL    HW2 5893   2.941   1.254   1.679
 1367SOL     OW 5894   2.092   1.434   0.538
 1367SOL    HW1 5895   2.066   1.530   0.538
 1367SOL    HW2 5896   2.021   1.380   0.583
 1368SOL     OW 5897   2.102   1.091   0.886
 1368SOL    HW1 5898   2.116   1.007   0.938
 1368SOL    HW2 5899   2.047   1.155   0.941
 1369SOL     OW 5900   2.468   0.964   0.123
 1369SOL    HW1 5901   2.475   1.048   0.069
 1369SOL    HW2 5902   2.514   0.977   0.211
 1370SOL     OW 5903   3.456   0.114   1.480
 1370SOL    HW1 5904   3.438   0.181   1.408
 1370SOL    HW2 5905   3.453   0.160   1.569
 1371SOL     OW 5906   1.984   0.643   0.563
 1371SOL    HW1 5907   1.939   0.555   0.580
 1371SOL    HW2 5908   1.983   0.697   0.647
 1372SOL     OW 5909   3.704   1.767   0.359
 1372SOL    HW1 5910   3.758   1.738   0.439
 1372SOL    HW2 5911   3.734   1.857   0.330
 1373SOL     OW 5912   1.889   1.596   0.117
 1373SOL    HW1 5913   1.870   1.500   0.138
 1373SOL    HW2 5914   1.856   1.654   0.192
 1374SOL     OW 5915   3.551   0.922   0.612
 1374SOL    HW1 5916   3.646   0.893   0.620
 1374SOL    HW2 5917   3.543   0.987   0.537
 1375SOL     OW 5918   3.503   1.108   0.432
 1375SOL    HW1 5919   3.589   1.110   0.380
 1375SOL    HW2 5920   3.517   1.155   0.520
 1376SOL     OW 5921   1.975   0.737   1.597
 1376SOL    HW1 5922   2.063   0.724   1.642
 1376SOL    HW2 5923   1.962   0.834   1.575
 1377SOL     OW 5924   2.475   1.365   0.726
 1377SOL    HW1 5925   2.426   1.278   0.735
 1377SOL    HW2 5926   2.452   1.408   0.639
 1378SOL     OW 5927   3.155   1.228   1.423
 1378SOL    HW1 5928   3.192   1.155   1.365
 1378SOL    HW2 5929   3.207   1.233   1.508
 1379SOL     OW 5930   2.059   0.976   1.264
 1379SOL    HW1 5931   2.148   0.931   1.250
 1379SOL    HW2 5932   1.986   0.911   1.245
 1380SOL     OW 5933   3.387   0.999   0.190
 1380SOL    HW1 5934   3.324   0.923   0.203
 1380SOL    HW2 5935   3.435   1.017   0.276
 1381SOL     OW 5936   3.049   1.792   1.616
 1381SOL    HW1 5937   3.073   1.852   1.540
 1381SOL    HW2 5938   3.056   1.697   1.586
 1382SOL     OW 5939   2.179   0.251   1.801
 1382SOL    HW1 5940   2.250   0.322   1.807
 1382SOL    HW2 5941   2.091   0.290   1.829
 1383SOL     OW 5942   3.328   1.417   0.953
 1383SOL    HW1 5943   3.269   1.423   1.033
 1383SOL    HW2 5944   3.313   1.329   0.907
 1384SOL     OW 5945   3.529   1.714   0.572
 1384SOL    HW1 5946   3.488   1.691   0.484
 1384SOL    HW2 5947   3.511   1.640   0.637
 1385SOL     OW 5948   2.460   0.729   0.270
 1385SOL    HW1 5949   2.484   0.798   0.202
 1385SOL    HW2 5950   2.382   0.762   0.324
 1386SOL     OW 5951   3.143   0.345   0.944
 1386SOL    HW1 5952   3.057   0.295   0.931
 1386SOL    HW2 5953   3.205   0.291   1.000
 1387SOL     OW 5954   3.438   1.662   0.307
 1387SOL    HW1 5955   3.527   1.708   0.310
 1387SOL    HW2 5956   3.417   1.638   0.212
 1388SOL     OW 5957   2.669   0.605   1.465
 1388SOL    HW1 5958   2.622   0.602   1.554
 1388SOL    HW2 5959   2.618   0.550   1.399
 1389SOL     OW 5960   3.256   0.469   1.674
 1389SOL    HW1 5961   3.236   0.512   1.762
 1389SOL    HW2 5962   3.334   0.407   1.683
 1390SOL     OW 5963   2.835   0.890   1.572
 1390SOL    HW1 5964   2.881   0.806   1.543
 1390SOL    HW2 5965   2.779   0.924   1.497
 1391SOL     OW 5966   2.853   0.410   1.242
 1391SOL    HW1 5967   2.776   0.444   1.296
 1391SOL    HW2 5968   2.819   0.359   1.163
 1392SOL     OW 5969   2.903   0.701   0.429
 1392SOL    HW1 5970   2.929   0.697   0.525
 1392SOL    HW2 5971   2.818   0.650   0.415
 1393SOL     OW 5972   1.938   0.811   0.789
 1393SOL    HW1 5973   2.037   0.799   0.798
 1393SOL    HW2 5974   1.914   0.906   0.810
 1394SOL     OW 5975   1.992   1.821   1.571
 1394SOL    HW1 5976   1.982   1.806   1.670
 1394SOL    HW2 5977   1.906   1.857   1.535
 1395SOL     OW 5978   3.581   0.585   1.831
 1395SOL    HW1 5979   3.555   0.674   1.795
 1395SOL    HW2 5980   3.579   0.517   1.758
 1396SOL     OW 5981   3.224   1.144   0.545
 1396SOL    HW1 5982   3.307   1.115   0.497
 1396SOL    HW2 5983   3.175   1.211   0.489
 1397SOL     OW 5984   2.412   0.196   0.885
 1397SOL    HW1 5985   2.407   0.191   0.985
 1397SOL    HW2 5986   2.414   0.292   0.856
 1398SOL     OW 5987   2.870   1.456   0.477
 1398SOL    HW1 5988   2.824   1.528   0.425
 1398SOL    HW2 5989   2.866   1.476   0.575
 1399SOL     OW 5990   3.089   1.550   1.506
 1399SOL    HW1 5991   3.095   1.473   1.570
 1399SOL    HW2 5992   3.037   1.524   1.426
 1400SOL     OW 5993   2.183   0.943   0.242
 1400SOL    HW1 5994   2.265   0.982   0.200
 1400SOL    HW2 5995   2.156   0.861   0.193
 1401SOL     OW 5996   3.320   0.735   0.728
 1401SOL    HW1 5997   3.315   0.670   0.803
 1401SOL    HW2 5998   3.400   0.794   0.741
 1402SOL     OW 5999   2.323   1.266   1.727
 1402SOL    HW1 6000   2.273   1.267   1.641
 1402SOL    HW2 6001   2.260   1.248   1.803
 1403SOL     OW 6002   2.973   1.776   0.237
 1403SOL    HW1 6003   2.913   1.714   0.287
 1403SOL    HW2 6004   3.004   1.732   0.152
 1404SOL     OW 6005   2.064   0.285   1.498
 1404SOL    HW1 6006   1.984   0.345   1.485
 1404SOL    HW2 6007   2.054   0.236   1.584
 1405SOL     OW 6008   3.494   1.377   0.081
 1405SOL    HW1 6009   3.462   1.471   0.071
 1405SOL    HW2 6010   3.418   1.314   0.069
 1406SOL     OW 6011   2.326   1.743   0.323
 1406SOL    HW1 6012   2.359   1.782   0.409
 1406SOL    HW2 6013   2.402   1.736   0.258
 1407SOL     OW 6014   3.262   0.107   0.426
 1407SOL    HW1 6015   3.238   0.070   0.336
 1407SOL    HW2 6016   3.361   0.123   0.430
 1408SOL     OW 6017   2.244   0.700   0.480
 1408SOL    HW1 6018   2.289   0.610   0.477
 1408SOL    HW2 6019   2.150   0.689   0.513
 1409SOL     OW 6020   3.409   0.222   1.729
 1409SOL    HW1 6021   3.404   0.259   1.821
 1409SOL    HW2 6022   3.337   0.153   1.717
 1410SOL     OW 6023   2.643   0.264   1.749
 1410SOL    HW1 6024   2.710   0.203   1.792
 1410SOL    HW2 6025   2.570   0.283   1.814
 1411SOL     OW 6026   3.213   0.590   1.433
 1411SOL    HW1 6027   3.241   0.547   1.518
 1411SOL    HW2 6028   3.238   0.686   1.434
 1412SOL     OW 6029   2.665   1.402   0.924
 1412SOL    HW1 6030   2.755   1.416   0.882
 1412SOL    HW2 6031   2.594   1.404   0.853
 1413SOL     OW 6032   2.784   0.503   0.899
 1413SOL    HW1 6033   2.759   0.494   0.803
 1413SOL    HW2 6034   2.832   0.421   0.930
 1414SOL     OW 6035   3.296   1.188   0.041
 1414SOL    HW1 6036   3.328   1.112   0.098
 1414SOL    HW2 6037   3.204   1.215   0.071
 1415SOL     OW 6038   2.938   0.683   1.464
 1415SOL    HW1 6039   2.858   0.622   1.467
 1415SOL    HW2 6040   3.019   0.630   1.440
 1416SOL     OW 6041   3.089   1.570   0.793
 1416SOL    HW1 6042   3.110   1.644   0.728
 1416SOL    HW2 6043   3.157   1.570   0.866
 1417SOL     OW 6044   2.321   1.152   0.741
 1417SOL    HW1 6045   2.250   1.125   0.806
 1417SOL    HW2 6046   2.295   1.124   0.648
 1418SOL     OW 6047   3.133   1.797   0.591
 1418SOL    HW1 6048   3.177   1.861   0.527
 1418SOL    HW2 6049   3.083   1.849   0.661
 1419SOL     OW 6050   2.894   0.549   0.016
 1419SOL    HW1 6051   2.853   0.631  -0.023
 1419SOL    HW2 6052   2.958   0.575   0.089
 1420SOL     OW 6053   1.940   0.556   1.386
 1420SOL    HW1 6054   2.032   0.555   1.345
 1420SOL    HW2 6055   1.934   0.630   1.453
 1421SOL     OW 6056   2.423   0.222   1.147
 1421SOL    HW1 6057   2.461   0.138   1.184
 1421SOL    HW2 6058   2.335   0.241   1.191
 1422SOL     OW 6059   2.728   0.454   0.642
 1422SOL    HW1 6060   2.696   0.526   0.580
 1422SOL    HW2 6061   2.752   0.373   0.589
 1423SOL     OW 6062   2.879   0.039   0.753
 1423SOL    HW1 6063   2.807   0.044   0.684
 1423SOL    HW2 6064   2.855  -0.030   0.822
 1424SOL     OW 6065   3.291   1.173   0.867
 1424SOL    HW1 6066   3.236   1.089   0.860
 1424SOL    HW2 6067   3.317   1.202   0.775
 1425SOL     OW 6068   3.328   0.590   0.992
 1425SOL    HW1 6069   3.298   0.495   0.999
 1425SOL    HW2 6070   3.401   0.606   1.058
 1426SOL     OW 6071   3.719   0.833   0.377
 1426SOL    HW1 6072   3.761   0.769   0.441
 1426SOL    HW2 6073   3.681   0.782   0.299
 1427SOL     OW 6074   2.350   1.385   0.174
 1427SOL    HW1 6075   2.263   1.370   0.221
 1427SOL    HW2 6076   2.333   1.411   0.079
 1428SOL     OW 6077   3.526   1.280   0.657
 1428SOL    HW1 6078   3.625   1.288   0.671
 1428SOL    HW2 6079   3.481   1.364   0.688
 1429SOL     OW 6080   3.252   0.575   0.078
 1429SOL    HW1 6081   3.198   0.554   0.159
 1429SOL    HW2 6082   3.343   0.534   0.087
 1430SOL     OW 6083   3.616   1.223   1.588
 1430SOL    HW1 6084   3.707   1.184   1.575
 1430SOL    HW2 6085   3.624   1.319   1.612
 1431SOL     OW 6086   2.926   1.347   1.340
 1431SOL    HW1 6087   2.846   1.324   1.395
 1431SOL    HW2 6088   3.009   1.321   1.389
 1432SOL     OW 6089   3.454   1.629   1.625
 1432SOL    HW1 6090   3.481   1.663   1.535
 1432SOL    HW2 6091   3.533   1.591   1.671
 1433SOL     OW 6092   2.973   1.195   1.100
 1433SOL    HW1 6093   2.933   1.239   1.181
 1433SOL    HW2 6094   2.932   1.232   1.017
 1434SOL     OW 6095   2.777   0.089   1.402
 1434SOL    HW1 6096   2.802   0.069   1.307
 1434SOL    HW2 6097   2.849   0.145   1.444
 1435SOL     OW 6098   2.842   1.116   1.719
 1435SOL    HW1 6099   2.743   1.122   1.729
 1435SOL    HW2 6100   2.865   1.036   1.663
 1436SOL     OW 6101   2.567   1.050   0.368
 1436SOL    HW1 6102   2.553   1.057   0.467
 1436SOL    HW2 6103   2.651   0.999   0.350
 1437SOL     OW 6104   2.272   0.813   1.251
 1437SOL    HW1 6105   2.358   0.825   1.301
 1437SOL    HW2 6106   2.230   0.726   1.278
 1438SOL     OW 6107   3.136   0.386   1.262
 1438SOL    HW1 6108   3.157   0.460   1.326
 1438SOL    HW2 6109   3.047   0.403   1.219
 1439SOL     OW 6110   1.926   1.564   1.331
 1439SOL    HW1 6111   1.880   1.646   1.297
 1439SOL    HW2 6112   2.024   1.583   1.340
 1440SOL     OW 6113   2.229   1.100   0.501
 1440SOL    HW1 6114   2.222   1.183   0.445
 1440SOL    HW2 6115   2.233   1.020   0.441
 1441SOL     OW 6116   2.428   0.537   0.865
 1441SOL    HW1 6117   2.440   0.603   0.791
 1441SOL    HW2 6118   2.474   0.571   0.948
 1442SOL     OW 6119   3.114   1.348   0.388
 1442SOL    HW1 6120   3.164   1.425   0.428
 1442SOL    HW2 6121   3.019   1.350   0.420
 1443SOL     OW 6122   3.134   1.445   1.142
 1443SOL    HW1 6123   3.181   1.458   1.229
 1443SOL    HW2 6124   3.068   1.371   1.151
 1444SOL     OW 6125   3.444   0.639   0.472
 1444SOL    HW1 6126   3.413   0.700   0.545
 1444SOL    HW2 6127   3.494   0.691   0.403
 1445SOL     OW 6128   2.216   1.510   1.329
 1445SOL    HW1 6129   2.195   1.466   1.242
 1445SOL    HW2 6130   2.313   1.536   1.332
 1446SOL     OW 6131   2.264   0.751   1.598
 1446SOL    HW1 6132   2.332   0.806   1.551
 1446SOL    HW2 6133   2.304   0.663   1.625
 1447SOL     OW 6134   3.449   0.779   1.670
 1447SOL    HW1 6135   3.357   0.817   1.665
 1447SOL    HW2 6136   3.509   0.826   1.605
 1448SOL     OW 6137   2.875   0.105   1.770
 1448SOL    HW1 6138   2.881   0.190   1.718
 1448SOL    HW2 6139   2.907   0.029   1.713
 1449SOL     OW 6140   2.366   0.050   1.740
 1449SOL    HW1 6141   2.324  -0.007   1.670
 1449SOL    HW2 6142   2.300   0.119   1.772
 1450SOL     OW 6143   2.435   0.870   1.029
 1450SOL    HW1 6144   2.479   0.959   1.020
 1450SOL    HW2 6145   2.372   0.870   1.106
 1451SOL     OW 6146   3.222   0.862   1.045
 1451SOL    HW1 6147   3.147   0.862   0.979
 1451SOL    HW2 6148   3.259   0.770   1.054
 1452SOL     OW 6149   3.071   0.525   0.275
 1452SOL    HW1 6150   3.084   0.441   0.329
 1452SOL    HW2 6151   3.042   0.599   0.335
 1453SOL     OW 6152   2.169   0.213   1.231
 1453SOL    HW1 6153   2.146   0.250   1.321
 1453SOL    HW2 6154   2.139   0.118   1.225
 1454SOL     OW 6155   1.899   1.310   1.282
 1454SOL    HW1 6156   1.952   1.261   1.350
 1454SOL    HW2 6157   1.921   1.408   1.287
 1455SOL     OW 6158   2.594   0.634   1.064
 1455SOL    HW1 6159   2.653   0.608   0.988
 1455SOL    HW2 6160   2.566   0.730   1.053
 1456SOL     OW 6161   3.590   0.935   1.854
 1456SOL    HW1 6162   3.544   0.928   1.765
 1456SOL    HW2 6163   3.528   0.979   1.920
 1457SOL     OW 6164   3.484   0.367   0.374
 1457SOL    HW1 6165   3.486   0.291   0.438
 1457SOL    HW2 6166   3.436   0.444   0.414
 1458SOL     OW 6167   2.885   0.766   0.966
 1458SOL    HW1 6168   2.900   0.787   1.062
 1458SOL    HW2 6169   2.855   0.671   0.957
 1459SOL     OW 6170   2.842   1.573   1.700
 1459SOL    HW1 6171   2.822   1.617   1.612
 1459SOL    HW2 6172   2.881   1.482   1.684
 1460SOL     OW 6173   3.721   1.518   1.605
 1460SOL    HW1 6174   3.735   1.545   1.510
 1460SOL    HW2 6175   3.804   1.540   1.658
 1461SOL     OW 6176   2.212   0.898   1.804
 1461SOL    HW1 6177   2.288   0.942   1.852
 1461SOL    HW2 6178   2.247   0.851   1.722
 1462SOL     OW 6179   3.402   0.274   0.125
 1462SOL    HW1 6180   3.341   0.199   0.148
 1462SOL    HW2 6181   3.424   0.326   0.208
 1463SOL     OW 6182   3.165   0.838   0.042
 1463SOL    HW1 6183   3.199   0.745   0.057
 1463SOL    HW2 6184   3.183   0.865  -0.053
 1464SOL     OW 6185   2.930   1.333   0.849
 1464SOL    HW1 6186   2.937   1.249   0.794
 1464SOL    HW2 6187   2.992   1.402   0.813
 1465SOL     OW 6188   2.181   0.810   0.949
 1465SOL    HW1 6189   2.274   0.846   0.954
 1465SOL    HW2 6190   2.175   0.725   1.001
 1466SOL     OW 6191   2.201   0.509   1.006
 1466SOL    HW1 6192   2.149   0.426   0.989
 1466SOL    HW2 6193   2.278   0.514   0.942
 1467SOL     OW 6194   3.000   0.380   1.678
 1467SOL    HW1 6195   2.955   0.443   1.742
 1467SOL    HW2 6196   3.093   0.411   1.661
 1468SOL     OW 6197   3.022   0.207   1.477
 1468SOL    HW1 6198   3.022   0.271   1.554
 1468SOL    HW2 6199   3.050   0.255   1.394
 1469SOL     OW 6200   1.950   1.801   0.927
 1469SOL    HW1 6201   1.908   1.715   0.900
 1469SOL    HW2 6202   2.044   1.804   0.893
 1470SOL     OW 6203   2.366   1.568   0.910
 1470SOL    HW1 6204   2.432   1.642   0.919
 1470SOL    HW2 6205   2.410   1.489   0.868
 1471SOL     OW 6206   2.864   0.796   1.238
 1471SOL    HW1 6207   2.905   0.764   1.324
 1471SOL    HW2 6208   2.768   0.769   1.235
 1472SOL     OW 6209   1.902   0.544   1.114
 1472SOL    HW1 6210   1.987   0.511   1.073
 1472SOL    HW2 6211   1.915   0.559   1.212
 1473SOL     OW 6212   2.051   0.520   1.722
 1473SOL    HW1 6213   2.110   0.480   1.652
 1473SOL    HW2 6214   1.993   0.591   1.681
 1474SOL     OW 6215   3.231   0.950   1.660
 1474SOL    HW1 6216   3.270   1.039   1.680
 1474SOL    HW2 6217   3.241   0.930   1.563
 1475SOL     OW 6218   2.677   0.572   0.325
 1475SOL    HW1 6219   2.684   0.483   0.279
 1475SOL    HW2 6220   2.583   0.606   0.317
 1476SOL     OW 6221   3.519   0.604   1.206
 1476SOL    HW1 6222   3.481   0.535   1.268
 1476SOL    HW2 6223   3.601   0.568   1.162
 1477SOL     OW 6224   2.533   0.464   1.269
 1477SOL    HW1 6225   2.499   0.375   1.239
 1477SOL    HW2 6226   2.559   0.518   1.189
 1478SOL     OW 6227   2.335   0.500   0.191
 1478SOL    HW1 6228   2.396   0.580   0.195
 1478SOL    HW2 6229   2.240   0.531   0.198
 1479SOL     OW 6230   2.021   1.137   1.466
 1479SOL    HW1 6231   2.043   1.076   1.542
 1479SOL    HW2 6232   2.031   1.088   1.380
 1480SOL     OW 6233   3.209   1.059   1.234
 1480SOL    HW1 6234   3.233   0.996   1.160
 1480SOL    HW2 6235   3.119   1.099   1.216
 1481SOL     OW 6236   3.164   0.855   0.309
 1481SOL    HW1 6237   3.078   0.824   0.351
 1481SOL    HW2 6238   3.160   0.841   0.210
 1482SOL     OW 6239   3.621   1.747   1.154
 1482SOL    HW1 6240   3.682   1.777   1.081
 1482SOL    HW2 6241   3.583   1.658   1.132
 1483SOL     OW 6242   1.945   1.258   1.022
 1483SOL    HW1 6243   1.940   1.257   1.122
 1483SOL    HW2 6244   1.862   1.217   0.984
 1484SOL     OW 6245   2.765   0.086   0.133
 1484SOL    HW1 6246   2.816   0.087   0.047
 1484SOL    HW2 6247   2.821   0.044   0.204
 1485SOL     OW 6248   3.588   0.135   0.523
 1485SOL    HW1 6249   3.661   0.118   0.456
 1485SOL    HW2 6250   3.557   0.048   0.561
 1486SOL     OW 6251   3.250   1.573   0.477
 1486SOL    HW1 6252   3.317   1.585   0.403
 1486SOL    HW2 6253   3.210   1.662   0.500
 1487SOL     OW 6254   3.142   0.927   0.672
 1487SOL    HW1 6255   3.202   0.846   0.674
 1487SOL    HW2 6256   3.182   0.996   0.612
 1488SOL     OW 6257   2.692   1.273   1.422
 1488SOL    HW1 6258   2.687   1.306   1.517
 1488SOL    HW2 6259   2.606   1.292   1.376
 1489SOL     OW 6260   2.534   1.616   0.154
 1489SOL    HW1 6261   2.543   1.626   0.055
 1489SOL    HW2 6262   2.494   1.527   0.175
 1490SOL     OW 6263   3.512   1.720   1.394
 1490SOL    HW1 6264   3.565   1.730   1.310
 1490SOL    HW2 6265   3.485   1.810   1.428
 1491SOL     OW 6266   3.703   0.175   0.963
 1491SOL    HW1 6267   3.742   0.090   0.927
 1491SOL    HW2 6268   3.605   0.177   0.944
 1492SOL     OW 6269   2.125   0.326   0.720
 1492SOL    HW1 6270   2.046   0.377   0.686
 1492SOL    HW2 6271   2.116   0.311   0.818
 1493SOL     OW 6272   3.056   1.612   0.031
 1493SOL    HW1 6273   3.062   1.519   0.068
 1493SOL    HW2 6274   2.997   1.612  -0.049
 1494SOL     OW 6275   2.684   1.002   1.372
 1494SOL    HW1 6276   2.724   1.001   1.280
 1494SOL    HW2 6277   2.694   1.094   1.412
 1495SOL     OW 6278   2.778   0.910   0.291
 1495SOL    HW1 6279   2.841   0.948   0.223
 1495SOL    HW2 6280   2.818   0.827   0.330
 1496SOL     OW 6281   3.366   1.607   0.044
 1496SOL    HW1 6282   3.274   1.644   0.051
 1496SOL    HW2 6283   3.404   1.627  -0.046
 1497SOL     OW 6284   2.234   1.288   1.490
 1497SOL    HW1 6285   2.221   1.381   1.456
 1497SOL    HW2 6286   2.150   1.236   1.477
 1498SOL     OW 6287   2.901   1.098   0.696
 1498SOL    HW1 6288   2.831   1.051   0.750
 1498SOL    HW2 6289   2.960   1.030   0.653
 1499SOL     OW 6290   2.876   0.236   0.971
 1499SOL    HW1 6291   2.868   0.200   0.878
 1499SOL    HW2 6292   2.874   0.160   1.036
 1500SOL     OW 6293   2.452   1.487   0.491
 1500SOL    HW1 6294   2.494   1.429   0.421
 1500SOL    HW2 6295   2.408   1.566   0.447
 1501SOL     OW 6296   3.571   0.385   1.381
 1501SOL    HW1 6297   3.644   0.454   1.385
 1501SOL    HW2 6298   3.599   0.310   1.322
 1502SOL     OW 6299   2.117   1.348   0.290
 1502SOL    HW1 6300   2.021   1.349   0.263
 1502SOL    HW2 6301   2.129   1.401   0.374
 1503SOL     OW 6302   1.967   1.013   1.726
 1503SOL    HW1 6303   1.890   0.980   1.780
 1503SOL    HW2 6304   2.052   0.983   1.768
 1504SOL     OW 6305   2.534   0.203   1.489
 1504SOL    HW1 6306   2.624   0.187   1.449
 1504SOL    HW2 6307   2.542   0.208   1.588
 1505SOL     OW 6308   3.302   0.856   1.398
 1505SOL    HW1 6309   3.245   0.908   1.335
 1505SOL    HW2 6310   3.398   0.868   1.374
 1506SOL     OW 6311   1.934   0.166   0.318
 1506SOL    HW1 6312   1.917   0.249   0.264
 1506SOL    HW2 6313   2.024   0.129   0.296
 1507SOL     OW 6314   3.045   1.335   0.119
 1507SOL    HW1 6315   2.946   1.324   0.121
 1507SOL    HW2 6316   3.079   1.350   0.212
 1508SOL     OW 6317   2.475   0.842   1.431
 1508SOL    HW1 6318   2.531   0.923   1.414
 1508SOL    HW2 6319   2.534   0.762   1.434
 1509SOL     OW 6320   3.355   1.767   0.959
 1509SOL    HW1 6321   3.388   1.831   0.890
 1509SOL    HW2 6322   3.421   1.761   1.034
 1510SOL     OW 6323   2.578   0.565   1.708
 1510SOL    HW1 6324   2.597   0.630   1.782
 1510SOL    HW2 6325   2.638   0.485   1.717
 1511SOL     OW 6326   3.312   1.220   1.633
 1511SOL    HW1 6327   3.303   1.210   1.732
 1511SOL    HW2 6328   3.408   1.213   1.607
 1512SOL     OW 6329   2.252   1.741   1.560
 1512SOL    HW1 6330   2.161   1.782   1.558
 1512SOL    HW2 6331   2.245   1.647   1.592
 1513SOL     OW 6332   3.536   0.883   1.254
 1513SOL    HW1 6333   3.509   0.794   1.217
 1513SOL    HW2 6334   3.537   0.951   1.181
 1514SOL     OW 6335   3.087   0.325   0.449
 1514SOL    HW1 6336   3.152   0.251   0.438
 1514SOL    HW2 6337   3.107   0.375   0.533
 1515SOL     OW 6338   2.456   0.745   0.652
 1515SOL    HW1 6339   2.506   0.830   0.633
 1515SOL    HW2 6340   2.368   0.747   0.604
 1516SOL     OW 6341   3.639   0.342   1.642
 1516SOL    HW1 6342   3.622   0.373   1.548
 1516SOL    HW2 6343   3.555   0.305   1.680
 1517SOL     OW 6344   2.721   1.374   0.016
 1517SOL    HW1 6345   2.675   1.389   0.104
 1517SOL    HW2 6346   2.765   1.459  -0.014
 1518SOL     OW 6347   2.721   0.956   0.861
 1518SOL    HW1 6348   2.775   0.887   0.909
 1518SOL    HW2 6349   2.689   1.025   0.927
 1519SOL     OW 6350   2.945   0.984   0.087
 1519SOL    HW1 6351   2.922   1.037   0.005
 1519SOL    HW2 6352   3.026   0.928   0.068
 1520SOL     OW 6353   3.723   1.569   0.851
 1520SOL    HW1 6354   3.652   1.557   0.781
 1520SOL    HW2 6355   3.724   1.490   0.911
 1521SOL     OW 6356   1.941   1.240   0.653
 1521SOL    HW1 6357   1.940   1.193   0.741
 1521SOL    HW2 6358   2.023   1.212   0.602
 1522SOL     OW 6359   2.534   1.391   1.624
 1522SOL    HW1 6360   2.456   1.341   1.662
 1522SOL    HW2 6361   2.531   1.486   1.655
 1523SOL     OW 6362   3.686   0.192   1.227
 1523SOL    HW1 6363   3.682   0.102   1.271
 1523SOL    HW2 6364   3.689   0.181   1.128
 1524SOL     OW 6365   3.567   1.487   1.104
 1524SOL    HW1 6366   3.474   1.462   1.077
 1524SOL    HW2 6367   3.593   1.437   1.186
 1525SOL     OW 6368   2.179   0.547   1.280
 1525SOL    HW1 6369   2.217   0.488   1.352
 1525SOL    HW2 6370   2.219   0.521   1.192
 1526SOL     OW 6371   3.286   0.214   1.112
 1526SOL    HW1 6372   3.338   0.149   1.167
 1526SOL    HW2 6373   3.237   0.277   1.173
 1527SOL     OW 6374   2.863   0.034   1.154
 1527SOL    HW1 6375   2.800  -0.038   1.123
 1527SOL    HW2 6376   2.956  -0.002   1.154
 1528SOL     OW 6377   2.632   1.330   0.301
 1528SOL    HW1 6378   2.586   1.243   0.318
 1528SOL    HW2 6379   2.723   1.327   0.342
 1529SOL     OW 6380   2.480   1.567   1.284
 1529SOL    HW1 6381   2.475   1.649   1.341
 1529SOL    HW2 6382   2.569   1.564   1.239
 1530SOL     OW 6383   3.214   0.052   0.168
 1530SOL    HW1 6384   3.249   0.011   0.084
 1530SOL    HW2 6385   3.124   0.014   0.188
 1531SOL     OW 6386   3.162   0.453   0.691
 1531SOL    HW1 6387   3.103   0.533   0.695
 1531SOL    HW2 6388   3.177   0.418   0.784
 1532SOL     OW 6389   3.455   0.221   0.882
 1532SOL    HW1 6390   3.371   0.220   0.936
 1532SOL    HW2 6391   3.457   0.304   0.826
 1533SOL     OW 6392   1.901   1.077   0.300
 1533SOL    HW1 6393   2.000   1.066   0.291
 1533SOL    HW2 6394   1.861   0.991   0.332
 1534SOL     OW 6395   2.737   1.646   0.337
 1534SOL    HW1 6396   2.660   1.611   0.283
 1534SOL    HW2 6397   2.705   1.717   0.399
 1535SOL     OW 6398   2.092   0.628   1.975
 1535SOL    HW1 6399   1.999   0.626   2.012
 1535SOL    HW2 6400   2.093   0.589   1.883
 1536SOL     OW 6401   2.087   0.275   2.858
 1536SOL    HW1 6402   2.122   0.258   2.950
 1536SOL    HW2 6403   1.999   0.230   2.846
 1537SOL     OW 6404   1.881   0.368   2.509
 1537SOL    HW1 6405   1.799   0.411   2.548
 1537SOL    HW2 6406   1.853   0.295   2.446
 1538SOL     OW 6407   2.431   1.275   3.027
 1538SOL    HW1 6408   2.338   1.268   2.990
 1538SOL    HW2 6409   2.442   1.364   3.071
 1539SOL     OW 6410   3.417   1.511   2.565
 1539SOL    HW1 6411   3.360   1.495   2.646
 1539SOL    HW2 6412   3.358   1.521   2.485
 1540SOL     OW 6413   2.997   0.703   2.579
 1540SOL    HW1 6414   3.054   0.781   2.554
 1540SOL    HW2 6415   2.937   0.729   2.655
 1541SOL     OW 6416   3.617   0.607   2.093
 1541SOL    HW1 6417   3.605   0.594   1.994
 1541SOL    HW2 6418   3.587   0.526   2.142
 1542SOL     OW 6419   2.630   1.144   2.885
 1542SOL    HW1 6420   2.552   1.161   2.945
 1542SOL    HW2 6421   2.664   1.231   2.849
 1543SOL     OW 6422   2.712   0.798   3.685
 1543SOL    HW1 6423   2.708   0.874   3.750
 1543SOL    HW2 6424   2.734   0.834   3.594
 1544SOL     OW 6425   2.547   1.012   2.527
 1544SOL    HW1 6426   2.616   0.996   2.597
 1544SOL    HW2 6427   2.474   1.069   2.565
 1545SOL     OW 6428   2.197   1.435   2.923
 1545SOL    HW1 6429   2.119   1.404   2.870
 1545SOL    HW2 6430   2.255   1.493   2.866
 1546SOL     OW 6431   3.322   1.505   3.201
 1546SOL    HW1 6432   3.346   1.599   3.227
 1546SOL    HW2 6433   3.306   1.451   3.283
 1547SOL     OW 6434   2.300   0.392   3.361
 1547SOL    HW1 6435   2.382   0.336   3.370
 1547SOL    HW2 6436   2.219   0.334   3.365
 1548SOL     OW 6437   3.465   0.447   2.599
 1548SOL    HW1 6438   3.391   0.493   2.549
 1548SOL    HW2 6439   3.516   0.515   2.652
 1549SOL     OW 6440   2.093   1.713   2.345
 1549SOL    HW1 6441   2.127   1.790   2.399
 1549SOL    HW2 6442   2.137   1.713   2.255
 1550SOL     OW 6443   2.989   1.341   3.552
 1550SOL    HW1 6444   3.036   1.341   3.640
 1550SOL    HW2 6445   2.941   1.254   3.541
 1551SOL     OW 6446   2.102   1.091   2.748
 1551SOL    HW1 6447   2.116   1.007   2.800
 1551SOL    HW2 6448   2.047   1.155   2.803
 1552SOL     OW 6449   2.482   1.786   3.301
 1552SOL    HW1 6450   2.390   1.769   3.336
 1552SOL    HW2 6451   2.510   1.878   3.327
 1553SOL     OW 6452   2.468   0.964   1.985
 1553SOL    HW1 6453   2.475   1.048   1.931
 1553SOL    HW2 6454   2.514   0.977   2.073
 1554SOL     OW 6455   3.456   0.114   3.342
 1554SOL    HW1 6456   3.438   0.181   3.270
 1554SOL    HW2 6457   3.453   0.160   3.431
 1555SOL     OW 6458   1.984   0.643   2.425
 1555SOL    HW1 6459   1.939   0.555   2.442
 1555SOL    HW2 6460   1.983   0.697   2.509
 1556SOL     OW 6461   1.889   1.596   1.979
 1556SOL    HW1 6462   1.870   1.500   2.000
 1556SOL    HW2 6463   1.856   1.654   2.054
 1557SOL     OW 6464   1.975   0.737   3.459
 1557SOL    HW1 6465   2.063   0.724   3.504
 1557SOL    HW2 6466   1.962   0.834   3.437
 1558SOL     OW 6467   2.475   1.365   2.588
 1558SOL    HW1 6468   2.426   1.278   2.597
 1558SOL    HW2 6469   2.452   1.408   2.501
 1559SOL     OW 6470   3.155   1.228   3.285
 1559SOL    HW1 6471   3.192   1.155   3.227
 1559SOL    HW2 6472   3.207   1.233   3.370
 1560SOL     OW 6473   2.671   0.004   2.364
 1560SOL    HW1 6474   2.711   0.095   2.355
 1560SOL    HW2 6475   2.571   0.012   2.370
 1561SOL     OW 6476   2.059   0.976   3.126
 1561SOL    HW1 6477   2.148   0.931   3.112
 1561SOL    HW2 6478   1.986   0.911   3.107
 1562SOL     OW 6479   3.387   0.999   2.052
 1562SOL    HW1 6480   3.324   0.923   2.065
 1562SOL    HW2 6481   3.435   1.017   2.138
 1563SOL     OW 6482   3.049   1.792   3.478
 1563SOL    HW1 6483   3.073   1.852   3.402
 1563SOL    HW2 6484   3.056   1.697   3.448
 1564SOL     OW 6485   2.179   0.251   3.663
 1564SOL    HW1 6486   2.250   0.322   3.669
 1564SOL    HW2 6487   2.091   0.290   3.691
 1565SOL     OW 6488   3.328   1.417   2.815
 1565SOL    HW1 6489   3.269   1.423   2.895
 1565SOL    HW2 6490   3.313   1.329   2.769
 1566SOL     OW 6491   2.460   0.729   2.132
 1566SOL    HW1 6492   2.484   0.798   2.064
 1566SOL    HW2 6493   2.382   0.762   2.186
 1567SOL     OW 6494   3.143   0.345   2.806
 1567SOL    HW1 6495   3.057   0.295   2.793
 1567SOL    HW2 6496   3.205   0.291   2.862
 1568SOL     OW 6497   2.669   0.605   3.327
 1568SOL    HW1 6498   2.622   0.602   3.416
 1568SOL    HW2 6499   2.618   0.550   3.261
 1569SOL     OW 6500   3.256   0.469   3.536
 1569SOL    HW1 6501   3.236   0.512   3.624
 1569SOL    HW2 6502   3.334   0.407   3.545
 1570SOL     OW 6503   2.835   0.890   3.434
 1570SOL    HW1 6504   2.881   0.806   3.405
 1570SOL    HW2 6505   2.779   0.924   3.359
 1571SOL     OW 6506   2.853   0.410   3.104
 1571SOL    HW1 6507   2.776   0.444   3.158
 1571SOL    HW2 6508   2.819   0.359   3.025
 1572SOL     OW 6509   2.903   0.701   2.291
 1572SOL    HW1 6510   2.929   0.697   2.387
 1572SOL    HW2 6511   2.818   0.650   2.277
 1573SOL     OW 6512   1.938   0.811   2.651
 1573SOL    HW1 6513   2.037   0.799   2.660
 1573SOL    HW2 6514   1.914   0.906   2.672
 1574SOL     OW 6515   1.992   1.821   3.433
 1574SOL    HW1 6516   1.982   1.806   3.532
 1574SOL    HW2 6517   1.906   1.857   3.397
 1575SOL     OW 6518   2.727   0.348   2.057
 1575SOL    HW1 6519   2.786   0.411   2.008
 1575SOL    HW2 6520   2.746   0.254   2.028
 1576SOL     OW 6521   3.224   1.144   2.407
 1576SOL    HW1 6522   3.307   1.115   2.359
 1576SOL    HW2 6523   3.175   1.211   2.351
 1577SOL     OW 6524   2.412   0.196   2.747
 1577SOL    HW1 6525   2.407   0.191   2.847
 1577SOL    HW2 6526   2.414   0.292   2.718
 1578SOL     OW 6527   2.870   1.456   2.339
 1578SOL    HW1 6528   2.824   1.528   2.287
 1578SOL    HW2 6529   2.866   1.476   2.437
 1579SOL     OW 6530   2.213   1.801   2.715
 1579SOL    HW1 6531   2.263   1.715   2.721
 1579SOL    HW2 6532   2.278   1.878   2.712
 1580SOL     OW 6533   3.657   1.066   2.735
 1580SOL    HW1 6534   3.595   1.051   2.659
 1580SOL    HW2 6535   3.605   1.077   2.820
 1581SOL     OW 6536   3.089   1.550   3.368
 1581SOL    HW1 6537   3.095   1.473   3.432
 1581SOL    HW2 6538   3.037   1.524   3.288
 1582SOL     OW 6539   2.183   0.943   2.104
 1582SOL    HW1 6540   2.265   0.982   2.062
 1582SOL    HW2 6541   2.156   0.861   2.055
 1583SOL     OW 6542   3.320   0.735   2.590
 1583SOL    HW1 6543   3.315   0.670   2.665
 1583SOL    HW2 6544   3.400   0.794   2.603
 1584SOL     OW 6545   2.973   1.776   2.099
 1584SOL    HW1 6546   2.913   1.714   2.149
 1584SOL    HW2 6547   3.004   1.732   2.014
 1585SOL     OW 6548   2.064   0.285   3.360
 1585SOL    HW1 6549   1.984   0.345   3.347
 1585SOL    HW2 6550   2.054   0.236   3.446
 1586SOL     OW 6551   3.494   1.377   1.943
 1586SOL    HW1 6552   3.462   1.471   1.933
 1586SOL    HW2 6553   3.418   1.314   1.931
 1587SOL     OW 6554   2.326   1.743   2.185
 1587SOL    HW1 6555   2.359   1.782   2.271
 1587SOL    HW2 6556   2.402   1.736   2.120
 1588SOL     OW 6557   2.111   1.785   3.103
 1588SOL    HW1 6558   2.168   1.720   3.153
 1588SOL    HW2 6559   2.095   1.752   3.010
 1589SOL     OW 6560   2.802   1.698   2.766
 1589SOL    HW1 6561   2.882   1.641   2.787
 1589SOL    HW2 6562   2.753   1.658   2.689
 1590SOL     OW 6563   2.244   0.700   2.342
 1590SOL    HW1 6564   2.289   0.610   2.339
 1590SOL    HW2 6565   2.150   0.689   2.375
 1591SOL     OW 6566   3.409   0.222   3.591
 1591SOL    HW1 6567   3.404   0.259   3.683
 1591SOL    HW2 6568   3.337   0.153   3.579
 1592SOL     OW 6569   2.476   0.122   1.979
 1592SOL    HW1 6570   2.574   0.100   1.986
 1592SOL    HW2 6571   2.445   0.105   1.886
 1593SOL     OW 6572   2.643   0.264   3.611
 1593SOL    HW1 6573   2.710   0.203   3.654
 1593SOL    HW2 6574   2.570   0.283   3.676
 1594SOL     OW 6575   2.750   1.514   3.057
 1594SOL    HW1 6576   2.727   1.489   2.963
 1594SOL    HW2 6577   2.811   1.445   3.096
 1595SOL     OW 6578   3.213   0.590   3.295
 1595SOL    HW1 6579   3.241   0.547   3.380
 1595SOL    HW2 6580   3.238   0.686   3.296
 1596SOL     OW 6581   2.665   1.402   2.786
 1596SOL    HW1 6582   2.755   1.416   2.744
 1596SOL    HW2 6583   2.594   1.404   2.715
 1597SOL     OW 6584   2.784   0.503   2.761
 1597SOL    HW1 6585   2.759   0.494   2.665
 1597SOL    HW2 6586   2.832   0.421   2.792
 1598SOL     OW 6587   2.401   0.064   2.374
 1598SOL    HW1 6588   2.320   0.065   2.432
 1598SOL    HW2 6589   2.404   0.147   2.319
 1599SOL     OW 6590   3.296   1.188   1.903
 1599SOL    HW1 6591   3.328   1.112   1.960
 1599SOL    HW2 6592   3.204   1.215   1.933
 1600SOL     OW 6593   2.159   0.035   2.033
 1600SOL    HW1 6594   2.208   0.119   2.012
 1600SOL    HW2 6595   2.221  -0.030   2.078
 1601SOL     OW 6596   2.797   0.236   2.342
 1601SOL    HW1 6597   2.749   0.277   2.264
 1601SOL    HW2 6598   2.896   0.234   2.323
 1602SOL     OW 6599   2.938   0.683   3.326
 1602SOL    HW1 6600   2.858   0.622   3.329
 1602SOL    HW2 6601   3.019   0.630   3.302
 1603SOL     OW 6602   3.089   1.570   2.655
 1603SOL    HW1 6603   3.110   1.644   2.590
 1603SOL    HW2 6604   3.157   1.570   2.728
 1604SOL     OW 6605   2.321   1.152   2.603
 1604SOL    HW1 6606   2.250   1.125   2.668
 1604SOL    HW2 6607   2.295   1.124   2.510
 1605SOL     OW 6608   3.133   1.797   2.453
 1605SOL    HW1 6609   3.177   1.861   2.389
 1605SOL    HW2 6610   3.083   1.849   2.523
 1606SOL     OW 6611   2.894   0.549   1.878
 1606SOL    HW1 6612   2.853   0.631   1.839
 1606SOL    HW2 6613   2.958   0.575   1.951
 1607SOL     OW 6614   1.940   0.556   3.248
 1607SOL    HW1 6615   2.032   0.555   3.207
 1607SOL    HW2 6616   1.934   0.630   3.315
 1608SOL     OW 6617   2.423   0.222   3.009
 1608SOL    HW1 6618   2.461   0.138   3.046
 1608SOL    HW2 6619   2.335   0.241   3.053
 1609SOL     OW 6620   2.728   0.454   2.504
 1609SOL    HW1 6621   2.696   0.526   2.442
 1609SOL    HW2 6622   2.752   0.373   2.451
 1610SOL     OW 6623   2.879   0.039   2.615
 1610SOL    HW1 6624   2.807   0.044   2.546
 1610SOL    HW2 6625   2.855  -0.030   2.684
 1611SOL     OW 6626   3.291   1.173   2.729
 1611SOL    HW1 6627   3.236   1.089   2.722
 1611SOL    HW2 6628   3.317   1.202   2.637
 1612SOL     OW 6629   3.328   0.590   2.854
 1612SOL    HW1 6630   3.298   0.495   2.861
 1612SOL    HW2 6631   3.401   0.606   2.920
 1613SOL     OW 6632   2.350   1.385   2.036
 1613SOL    HW1 6633   2.263   1.370   2.083
 1613SOL    HW2 6634   2.333   1.411   1.941
 1614SOL     OW 6635   3.526   1.280   2.519
 1614SOL    HW1 6636   3.625   1.288   2.533
 1614SOL    HW2 6637   3.481   1.364   2.550
 1615SOL     OW 6638   3.252   0.575   1.940
 1615SOL    HW1 6639   3.198   0.554   2.021
 1615SOL    HW2 6640   3.343   0.534   1.949
 1616SOL     OW 6641   2.389   0.256   2.190
 1616SOL    HW1 6642   2.416   0.197   2.115
 1616SOL    HW2 6643   2.389   0.351   2.159
 1617SOL     OW 6644   2.926   1.347   3.202
 1617SOL    HW1 6645   2.846   1.324   3.257
 1617SOL    HW2 6646   3.009   1.321   3.251
 1618SOL     OW 6647   2.973   1.195   2.962
 1618SOL    HW1 6648   2.933   1.239   3.043
 1618SOL    HW2 6649   2.932   1.232   2.879
 1619SOL     OW 6650   3.500   1.099   2.941
 1619SOL    HW1 6651   3.505   1.180   3.000
 1619SOL    HW2 6652   3.414   1.101   2.890
 1620SOL     OW 6653   2.777   0.089   3.264
 1620SOL    HW1 6654   2.802   0.069   3.169
 1620SOL    HW2 6655   2.849   0.145   3.306
 1621SOL     OW 6656   2.567   1.050   2.230
 1621SOL    HW1 6657   2.553   1.057   2.329
 1621SOL    HW2 6658   2.651   0.999   2.212
 1622SOL     OW 6659   2.272   0.813   3.113
 1622SOL    HW1 6660   2.358   0.825   3.163
 1622SOL    HW2 6661   2.230   0.726   3.140
 1623SOL     OW 6662   3.136   0.386   3.124
 1623SOL    HW1 6663   3.157   0.460   3.188
 1623SOL    HW2 6664   3.047   0.403   3.081
 1624SOL     OW 6665   1.926   1.564   3.193
 1624SOL    HW1 6666   1.880   1.646   3.159
 1624SOL    HW2 6667   2.024   1.583   3.202
 1625SOL     OW 6668   2.428   0.537   2.727
 1625SOL    HW1 6669   2.440   0.603   2.653
 1625SOL    HW2 6670   2.474   0.571   2.810
 1626SOL     OW 6671   3.114   1.348   2.250
 1626SOL    HW1 6672   3.164   1.425   2.290
 1626SOL    HW2 6673   3.019   1.350   2.282
 1627SOL     OW 6674   3.134   1.445   3.004
 1627SOL    HW1 6675   3.181   1.458   3.091
 1627SOL    HW2 6676   3.068   1.371   3.013
 1628SOL     OW 6677   3.444   0.639   2.334
 1628SOL    HW1 6678   3.413   0.700   2.407
 1628SOL    HW2 6679   3.494   0.691   2.265
 1629SOL     OW 6680   2.216   1.510   3.191
 1629SOL    HW1 6681   2.195   1.466   3.104
 1629SOL    HW2 6682   2.313   1.536   3.194
 1630SOL     OW 6683   2.264   0.751   3.460
 1630SOL    HW1 6684   2.332   0.806   3.413
 1630SOL    HW2 6685   2.304   0.663   3.487
 1631SOL     OW 6686   2.875   0.105   3.632
 1631SOL    HW1 6687   2.881   0.190   3.580
 1631SOL    HW2 6688   2.907   0.029   3.575
 1632SOL     OW 6689   2.366   0.050   3.602
 1632SOL    HW1 6690   2.324  -0.007   3.532
 1632SOL    HW2 6691   2.300   0.119   3.634
 1633SOL     OW 6692   2.435   0.870   2.891
 1633SOL    HW1 6693   2.479   0.959   2.882
 1633SOL    HW2 6694   2.372   0.870   2.968
 1634SOL     OW 6695   3.222   0.862   2.907
 1634SOL    HW1 6696   3.147   0.862   2.841
 1634SOL    HW2 6697   3.259   0.770   2.916
 1635SOL     OW 6698   3.071   0.525   2.137
 1635SOL    HW1 6699   3.084   0.441   2.191
 1635SOL    HW2 6700   3.042   0.599   2.197
 1636SOL     OW 6701   2.169   0.213   3.093
 1636SOL    HW1 6702   2.146   0.250   3.183
 1636SOL    HW2 6703   2.139   0.118   3.087
 1637SOL     OW 6704   1.899   1.310   3.144
 1637SOL    HW1 6705   1.952   1.261   3.212
 1637SOL    HW2 6706   1.921   1.408   3.149
 1638SOL     OW 6707   2.594   0.634   2.926
 1638SOL    HW1 6708   2.653   0.608   2.850
 1638SOL    HW2 6709   2.566   0.730   2.915
 1639SOL     OW 6710   2.169   0.063   2.480
 1639SOL    HW1 6711   2.158   0.157   2.513
 1639SOL    HW2 6712   2.164   0.000   2.557
 1640SOL     OW 6713   2.885   0.766   2.828
 1640SOL    HW1 6714   2.900   0.787   2.924
 1640SOL    HW2 6715   2.855   0.671   2.819
 1641SOL     OW 6716   2.842   1.573   3.562
 1641SOL    HW1 6717   2.822   1.617   3.474
 1641SOL    HW2 6718   2.881   1.482   3.546
 1642SOL     OW 6719   2.212   0.898   3.666
 1642SOL    HW1 6720   2.288   0.942   3.714
 1642SOL    HW2 6721   2.247   0.851   3.584
 1643SOL     OW 6722   3.402   0.274   1.987
 1643SOL    HW1 6723   3.341   0.199   2.010
 1643SOL    HW2 6724   3.424   0.326   2.070
 1644SOL     OW 6725   3.165   0.838   1.904
 1644SOL    HW1 6726   3.199   0.745   1.919
 1644SOL    HW2 6727   3.183   0.865   1.809
 1645SOL     OW 6728   2.930   1.333   2.711
 1645SOL    HW1 6729   2.937   1.249   2.656
 1645SOL    HW2 6730   2.992   1.402   2.675
 1646SOL     OW 6731   2.181   0.810   2.811
 1646SOL    HW1 6732   2.274   0.846   2.816
 1646SOL    HW2 6733   2.175   0.725   2.863
 1647SOL     OW 6734   2.201   0.509   2.868
 1647SOL    HW1 6735   2.149   0.426   2.851
 1647SOL    HW2 6736   2.278   0.514   2.804
 1648SOL     OW 6737   3.000   0.380   3.540
 1648SOL    HW1 6738   2.955   0.443   3.604
 1648SOL    HW2 6739   3.093   0.411   3.523
 1649SOL     OW 6740   3.022   0.207   3.339
 1649SOL    HW1 6741   3.022   0.271   3.416
 1649SOL    HW2 6742   3.050   0.255   3.256
 1650SOL     OW 6743   1.950   1.801   2.789
 1650SOL    HW1 6744   1.908   1.715   2.762
 1650SOL    HW2 6745   2.044   1.804   2.755
 1651SOL     OW 6746   2.366   1.568   2.772
 1651SOL    HW1 6747   2.432   1.642   2.781
 1651SOL    HW2 6748   2.410   1.489   2.730
 1652SOL     OW 6749   2.864   0.796   3.100
 1652SOL    HW1 6750   2.905   0.764   3.186
 1652SOL    HW2 6751   2.768   0.769   3.097
 1653SOL     OW 6752   1.902   0.544   2.976
 1653SOL    HW1 6753   1.987   0.511   2.935
 1653SOL    HW2 6754   1.915   0.559   3.074
 1654SOL     OW 6755   2.051   0.520   3.584
 1654SOL    HW1 6756   2.110   0.480   3.514
 1654SOL    HW2 6757   1.993   0.591   3.543
 1655SOL     OW 6758   2.677   0.572   2.187
 1655SOL    HW1 6759   2.684   0.483   2.141
 1655SOL    HW2 6760   2.583   0.606   2.179
 1656SOL     OW 6761   3.519   0.604   3.068
 1656SOL    HW1 6762   3.481   0.535   3.130
 1656SOL    HW2 6763   3.601   0.568   3.024
 1657SOL     OW 6764   2.114   1.564   3.606
 1657SOL    HW1 6765   2.084   1.621   3.682
 1657SOL    HW2 6766   2.107   1.467   3.632
 1658SOL     OW 6767   2.533   0.464   3.131
 1658SOL    HW1 6768   2.499   0.375   3.101
 1658SOL    HW2 6769   2.559   0.518   3.051
 1659SOL     OW 6770   2.792   1.678   3.327
 1659SOL    HW1 6771   2.768   1.660   3.232
 1659SOL    HW2 6772   2.822   1.772   3.337
 1660SOL     OW 6773   2.335   0.500   2.053
 1660SOL    HW1 6774   2.396   0.580   2.057
 1660SOL    HW2 6775   2.240   0.531   2.060
 1661SOL     OW 6776   2.021   1.137   3.328
 1661SOL    HW1 6777   2.043   1.076   3.404
 1661SOL    HW2 6778   2.031   1.088   3.242
 1662SOL     OW 6779   3.209   1.059   3.096
 1662SOL    HW1 6780   3.233   0.996   3.022
 1662SOL    HW2 6781   3.119   1.099   3.078
 1663SOL     OW 6782   3.164   0.855   2.171
 1663SOL    HW1 6783   3.078   0.824   2.213
 1663SOL    HW2 6784   3.160   0.841   2.072
 1664SOL     OW 6785   3.621   1.747   3.016
 1664SOL    HW1 6786   3.682   1.777   2.943
 1664SOL    HW2 6787   3.583   1.658   2.994
 1665SOL     OW 6788   3.114   1.731   2.990
 1665SOL    HW1 6789   3.198   1.736   2.936
 1665SOL    HW2 6790   3.091   1.635   3.008
 1666SOL     OW 6791   2.550   1.662   3.578
 1666SOL    HW1 6792   2.494   1.743   3.587
 1666SOL    HW2 6793   2.602   1.666   3.492
 1667SOL     OW 6794   3.250   1.573   2.339
 1667SOL    HW1 6795   3.317   1.585   2.265
 1667SOL    HW2 6796   3.210   1.662   2.362
 1668SOL     OW 6797   1.992   1.794   3.713
 1668SOL    HW1 6798   1.951   1.720   3.766
 1668SOL    HW2 6799   2.056   1.845   3.771
 1669SOL     OW 6800   3.142   0.927   2.534
 1669SOL    HW1 6801   3.202   0.846   2.536
 1669SOL    HW2 6802   3.182   0.996   2.474
 1670SOL     OW 6803   2.534   1.616   2.016
 1670SOL    HW1 6804   2.543   1.626   1.917
 1670SOL    HW2 6805   2.494   1.527   2.037
 1671SOL     OW 6806   3.512   1.720   3.256
 1671SOL    HW1 6807   3.565   1.730   3.172
 1671SOL    HW2 6808   3.485   1.810   3.290
 1672SOL     OW 6809   3.703   0.175   2.825
 1672SOL    HW1 6810   3.742   0.090   2.789
 1672SOL    HW2 6811   3.605   0.177   2.806
 1673SOL     OW 6812   2.125   0.326   2.582
 1673SOL    HW1 6813   2.046   0.377   2.548
 1673SOL    HW2 6814   2.116   0.311   2.680
 1674SOL     OW 6815   3.056   1.612   1.893
 1674SOL    HW1 6816   3.062   1.519   1.930
 1674SOL    HW2 6817   2.997   1.612   1.813
 1675SOL     OW 6818   2.684   1.002   3.234
 1675SOL    HW1 6819   2.724   1.001   3.142
 1675SOL    HW2 6820   2.694   1.094   3.274
 1676SOL     OW 6821   2.778   0.910   2.153
 1676SOL    HW1 6822   2.841   0.948   2.085
 1676SOL    HW2 6823   2.818   0.827   2.192
 1677SOL     OW 6824   3.366   1.607   1.906
 1677SOL    HW1 6825   3.274   1.644   1.913
 1677SOL    HW2 6826   3.404   1.627   1.816
 1678SOL     OW 6827   2.234   1.288   3.352
 1678SOL    HW1 6828   2.221   1.381   3.318
 1678SOL    HW2 6829   2.150   1.236   3.339
 1679SOL     OW 6830   2.901   1.098   2.558
 1679SOL    HW1 6831   2.831   1.051   2.612
 1679SOL    HW2 6832   2.960   1.030   2.515
 1680SOL     OW 6833   2.876   0.236   2.833
 1680SOL    HW1 6834   2.868   0.200   2.740
 1680SOL    HW2 6835   2.874   0.160   2.898
 1681SOL     OW 6836   2.452   1.487   2.353
 1681SOL    HW1 6837   2.494   1.429   2.283
 1681SOL    HW2 6838   2.408   1.566   2.309
 1682SOL     OW 6839   3.571   0.385   3.243
 1682SOL    HW1 6840   3.644   0.454   3.247
 1682SOL    HW2 6841   3.599   0.310   3.184
 1683SOL     OW 6842   2.117   1.348   2.152
 1683SOL    HW1 6843   2.021   1.349   2.125
 1683SOL    HW2 6844   2.129   1.401   2.236
 1684SOL     OW 6845   1.967   1.013   3.588
 1684SOL    HW1 6846   1.890   0.980   3.642
 1684SOL    HW2 6847   2.052   0.983   3.630
 1685SOL     OW 6848   2.534   0.203   3.351
 1685SOL    HW1 6849   2.624   0.187   3.311
 1685SOL    HW2 6850   2.542   0.208   3.450
 1686SOL     OW 6851   1.937   0.345   1.895
 1686SOL    HW1 6852   1.845   0.317   1.866
 1686SOL    HW2 6853   1.968   0.422   1.839
 1687SOL     OW 6854   1.934   0.166   2.180
 1687SOL    HW1 6855   1.917   0.249   2.126
 1687SOL    HW2 6856   2.024   0.129   2.158
 1688SOL     OW 6857   3.045   1.335   1.981
 1688SOL    HW1 6858   2.946   1.324   1.983
 1688SOL    HW2 6859   3.079   1.350   2.074
 1689SOL     OW 6860   2.475   0.842   3.293
 1689SOL    HW1 6861   2.531   0.923   3.276
 1689SOL    HW2 6862   2.534   0.762   3.296
 1690SOL     OW 6863   3.355   1.767   2.821
 1690SOL    HW1 6864   3.388   1.831   2.752
 1690SOL    HW2 6865   3.421   1.761   2.896
 1691SOL     OW 6866   2.578   0.565   3.570
 1691SOL    HW1 6867   2.597   0.630   3.644
 1691SOL    HW2 6868   2.638   0.485   3.579
 1692SOL     OW 6869   3.312   1.220   3.495
 1692SOL    HW1 6870   3.303   1.210   3.594
 1692SOL    HW2 6871   3.408   1.213   3.469
 1693SOL     OW 6872   2.252   1.741   3.422
 1693SOL    HW1 6873   2.161   1.782   3.420
 1693SOL    HW2 6874   2.245   1.647   3.454
 1694SOL     OW 6875   3.536   0.883   3.116
 1694SOL    HW1 6876   3.509   0.794   3.079
 1694SOL    HW2 6877   3.537   0.951   3.043
 1695SOL     OW 6878   3.087   0.325   2.311
 1695SOL    HW1 6879   3.152   0.251   2.300
 1695SOL    HW2 6880   3.107   0.375   2.395
 1696SOL     OW 6881   2.456   0.745   2.514
 1696SOL    HW1 6882   2.506   0.830   2.495
 1696SOL    HW2 6883   2.368   0.747   2.466
 1697SOL     OW 6884   3.639   0.342   3.504
 1697SOL    HW1 6885   3.622   0.373   3.410
 1697SOL    HW2 6886   3.555   0.305   3.542
 1698SOL     OW 6887   2.721   1.374   1.878
 1698SOL    HW1 6888   2.675   1.389   1.966
 1698SOL    HW2 6889   2.765   1.459   1.848
 1699SOL     OW 6890   2.523   1.790   2.815
 1699SOL    HW1 6891   2.477   1.878   2.802
 1699SOL    HW2 6892   2.622   1.802   2.808
 1700SOL     OW 6893   2.721   0.956   2.723
 1700SOL    HW1 6894   2.775   0.887   2.771
 1700SOL    HW2 6895   2.689   1.025   2.789
 1701SOL     OW 6896   2.945   0.984   1.949
 1701SOL    HW1 6897   2.922   1.037   1.867
 1701SOL    HW2 6898   3.026   0.928   1.930
 1702SOL     OW 6899   3.723   1.569   2.713
 1702SOL    HW1 6900   3.652   1.557   2.643
 1702SOL    HW2 6901   3.724   1.490   2.773
 1703SOL     OW 6902   2.083   1.314   3.706
 1703SOL    HW1 6903   2.018   1.241   3.685
 1703SOL    HW2 6904   2.087   1.328   3.804
 1704SOL     OW 6905   3.686   0.192   3.089
 1704SOL    HW1 6906   3.682   0.102   3.133
 1704SOL    HW2 6907   3.689   0.181   2.990
 1705SOL     OW 6908   2.290   0.424   2.382
 1705SOL    HW1 6909   2.320   0.352   2.320
 1705SOL    HW2 6910   2.251   0.384   2.465
 1706SOL     OW 6911   3.567   1.487   2.966
 1706SOL    HW1 6912   3.474   1.462   2.939
 1706SOL    HW2 6913   3.593   1.437   3.048
 1707SOL     OW 6914   2.179   0.547   3.142
 1707SOL    HW1 6915   2.217   0.488   3.214
 1707SOL    HW2 6916   2.219   0.521   3.054
 1708SOL     OW 6917   2.674   1.586   2.549
 1708SOL    HW1 6918   2.706   1.596   2.455
 1708SOL    HW2 6919   2.595   1.524   2.551
 1709SOL     OW 6920   3.286   0.214   2.974
 1709SOL    HW1 6921   3.338   0.149   3.029
 1709SOL    HW2 6922   3.237   0.277   3.035
 1710SOL     OW 6923   2.863   0.034   3.016
 1710SOL    HW1 6924   2.800  -0.038   2.985
 1710SOL    HW2 6925   2.956  -0.002   3.016
 1711SOL     OW 6926   2.632   1.330   2.163
 1711SOL    HW1 6927   2.586   1.243   2.180
 1711SOL    HW2 6928   2.723   1.327   2.204
 1712SOL     OW 6929   2.480   1.567   3.146
 1712SOL    HW1 6930   2.475   1.649   3.203
 1712SOL    HW2 6931   2.569   1.564   3.101
 1713SOL     OW 6932   3.214   0.052   2.030
 1713SOL    HW1 6933   3.249   0.011   1.946
 1713SOL    HW2 6934   3.124   0.014   2.050
 1714SOL     OW 6935   3.162   0.453   2.553
 1714SOL    HW1 6936   3.103   0.533   2.557
 1714SOL    HW2 6937   3.177   0.418   2.646
 1715SOL     OW 6938   3.455   0.221   2.744
 1715SOL    HW1 6939   3.371   0.220   2.798
 1715SOL    HW2 6940   3.457   0.304   2.688
 1716SOL     OW 6941   2.737   1.646   2.199
 1716SOL    HW1 6942   2.660   1.611   2.145
 1716SOL    HW2 6943   2.705   1.717   2.261
 1717SOL     OW 6944   2.092   0.628   3.837
 1717SOL    HW1 6945   1.999   0.626   3.874
 1717SOL    HW2 6946   2.093   0.589   3.745
 1718SOL     OW 6947   2.087   0.275   4.720
 1718SOL    HW1 6948   2.122   0.258   4.812
 1718SOL    HW2 6949   1.999   0.230   4.708
 1719SOL     OW 6950   1.881   0.368   4.371
 1719SOL    HW1 6951   1.799   0.411   4.410
 1719SOL    HW2 6952   1.853   0.295   4.308
 1720SOL     OW 6953   2.431   1.275   4.889
 1720SOL    HW1 6954   2.338   1.268   4.852
 1720SOL    HW2 6955   2.442   1.364   4.933
 1721SOL     OW 6956   3.417   1.511   4.427
 1721SOL    HW1 6957   3.360   1.495   4.508
 1721SOL    HW2 6958   3.358   1.521   4.347
 1722SOL     OW 6959   2.997   0.703   4.441
 1722SOL    HW1 6960   3.054   0.781   4.416
 1722SOL    HW2 6961   2.937   0.729   4.517
 1723SOL     OW 6962   2.630   1.144   4.747
 1723SOL    HW1 6963   2.552   1.161   4.807
 1723SOL    HW2 6964   2.664   1.231   4.711
 1724SOL     OW 6965   2.547   1.012   4.389
 1724SOL    HW1 6966   2.616   0.996   4.459
 1724SOL    HW2 6967   2.474   1.069   4.427
 1725SOL     OW 6968   2.197   1.435   4.785
 1725SOL    HW1 6969   2.119   1.404   4.732
 1725SOL    HW2 6970   2.255   1.493   4.728
 1726SOL     OW 6971   3.465   0.447   4.461
 1726SOL    HW1 6972   3.391   0.493   4.411
 1726SOL    HW2 6973   3.516   0.515   4.514
 1727SOL     OW 6974   2.093   1.713   4.207
 1727SOL    HW1 6975   2.127   1.790   4.261
 1727SOL    HW2 6976   2.137   1.713   4.117
 1728SOL     OW 6977   2.092   1.434   4.262
 1728SOL    HW1 6978   2.066   1.530   4.262
 1728SOL    HW2 6979   2.021   1.380   4.307
 1729SOL     OW 6980   2.102   1.091   4.610
 1729SOL    HW1 6981   2.116   1.007   4.662
 1729SOL    HW2 6982   2.047   1.155   4.665
 1730SOL     OW 6983   2.482   1.786   5.163
 1730SOL    HW1 6984   2.390   1.769   5.198
 1730SOL    HW2 6985   2.510   1.878   5.189
 1731SOL     OW 6986   1.984   0.643   4.287
 1731SOL    HW1 6987   1.939   0.555   4.304
 1731SOL    HW2 6988   1.983   0.697   4.371
 1732SOL     OW 6989   3.704   1.767   4.083
 1732SOL    HW1 6990   3.758   1.738   4.163
 1732SOL    HW2 6991   3.734   1.857   4.054
 1733SOL     OW 6992   1.889   1.596   3.841
 1733SOL    HW1 6993   1.870   1.500   3.862
 1733SOL    HW2 6994   1.856   1.654   3.916
 1734SOL     OW 6995   3.551   0.922   4.336
 1734SOL    HW1 6996   3.646   0.893   4.344
 1734SOL    HW2 6997   3.543   0.987   4.261
 1735SOL     OW 6998   3.503   1.108   4.156
 1735SOL    HW1 6999   3.589   1.110   4.104
 1735SOL    HW2 7000   3.517   1.155   4.244
 1736SOL     OW 7001   2.475   1.365   4.450
 1736SOL    HW1 7002   2.426   1.278   4.459
 1736SOL    HW2 7003   2.452   1.408   4.363
 1737SOL     OW 7004   2.671   0.004   4.226
 1737SOL    HW1 7005   2.711   0.095   4.217
 1737SOL    HW2 7006   2.571   0.012   4.232
 1738SOL     OW 7007   2.059   0.976   4.988
 1738SOL    HW1 7008   2.148   0.931   4.974
 1738SOL    HW2 7009   1.986   0.911   4.969
 1739SOL     OW 7010   3.328   1.417   4.677
 1739SOL    HW1 7011   3.269   1.423   4.757
 1739SOL    HW2 7012   3.313   1.329   4.631
 1740SOL     OW 7013   3.529   1.714   4.296
 1740SOL    HW1 7014   3.488   1.691   4.208
 1740SOL    HW2 7015   3.511   1.640   4.361
 1741SOL     OW 7016   2.460   0.729   3.994
 1741SOL    HW1 7017   2.484   0.798   3.926
 1741SOL    HW2 7018   2.382   0.762   4.048
 1742SOL     OW 7019   3.143   0.345   4.668
 1742SOL    HW1 7020   3.057   0.295   4.655
 1742SOL    HW2 7021   3.205   0.291   4.724
 1743SOL     OW 7022   2.853   0.410   4.966
 1743SOL    HW1 7023   2.776   0.444   5.020
 1743SOL    HW2 7024   2.819   0.359   4.887
 1744SOL     OW 7025   2.903   0.701   4.153
 1744SOL    HW1 7026   2.929   0.697   4.249
 1744SOL    HW2 7027   2.818   0.650   4.139
 1745SOL     OW 7028   1.938   0.811   4.513
 1745SOL    HW1 7029   2.037   0.799   4.522
 1745SOL    HW2 7030   1.914   0.906   4.534
 1746SOL     OW 7031   2.727   0.348   3.919
 1746SOL    HW1 7032   2.786   0.411   3.870
 1746SOL    HW2 7033   2.746   0.254   3.890
 1747SOL     OW 7034   3.224   1.144   4.269
 1747SOL    HW1 7035   3.307   1.115   4.221
 1747SOL    HW2 7036   3.175   1.211   4.213
 1748SOL     OW 7037   2.412   0.196   4.609
 1748SOL    HW1 7038   2.407   0.191   4.709
 1748SOL    HW2 7039   2.414   0.292   4.580
 1749SOL     OW 7040   2.870   1.456   4.201
 1749SOL    HW1 7041   2.824   1.528   4.149
 1749SOL    HW2 7042   2.866   1.476   4.299
 1750SOL     OW 7043   2.213   1.801   4.577
 1750SOL    HW1 7044   2.263   1.715   4.583
 1750SOL    HW2 7045   2.278   1.878   4.574
 1751SOL     OW 7046   2.183   0.943   3.966
 1751SOL    HW1 7047   2.265   0.982   3.924
 1751SOL    HW2 7048   2.156   0.861   3.917
 1752SOL     OW 7049   3.320   0.735   4.452
 1752SOL    HW1 7050   3.315   0.670   4.527
 1752SOL    HW2 7051   3.400   0.794   4.465
 1753SOL     OW 7052   2.973   1.776   3.961
 1753SOL    HW1 7053   2.913   1.714   4.011
 1753SOL    HW2 7054   3.004   1.732   3.876
 1754SOL     OW 7055   2.326   1.743   4.047
 1754SOL    HW1 7056   2.359   1.782   4.133
 1754SOL    HW2 7057   2.402   1.736   3.982
 1755SOL     OW 7058   3.262   0.107   4.150
 1755SOL    HW1 7059   3.238   0.070   4.060
 1755SOL    HW2 7060   3.361   0.123   4.154
 1756SOL     OW 7061   2.111   1.785   4.965
 1756SOL    HW1 7062   2.168   1.720   5.015
 1756SOL    HW2 7063   2.095   1.752   4.872
 1757SOL     OW 7064   2.802   1.698   4.628
 1757SOL    HW1 7065   2.882   1.641   4.649
 1757SOL    HW2 7066   2.753   1.658   4.551
 1758SOL     OW 7067   2.244   0.700   4.204
 1758SOL    HW1 7068   2.289   0.610   4.201
 1758SOL    HW2 7069   2.150   0.689   4.237
 1759SOL     OW 7070   2.476   0.122   3.841
 1759SOL    HW1 7071   2.574   0.100   3.848
 1759SOL    HW2 7072   2.445   0.105   3.748
 1760SOL     OW 7073   2.665   1.402   4.648
 1760SOL    HW1 7074   2.755   1.416   4.606
 1760SOL    HW2 7075   2.594   1.404   4.577
 1761SOL     OW 7076   2.784   0.503   4.623
 1761SOL    HW1 7077   2.759   0.494   4.527
 1761SOL    HW2 7078   2.832   0.421   4.654
 1762SOL     OW 7079   2.401   0.064   4.236
 1762SOL    HW1 7080   2.320   0.065   4.294
 1762SOL    HW2 7081   2.404   0.147   4.181
 1763SOL     OW 7082   2.159   0.035   3.895
 1763SOL    HW1 7083   2.208   0.119   3.874
 1763SOL    HW2 7084   2.221  -0.030   3.940
 1764SOL     OW 7085   2.797   0.236   4.204
 1764SOL    HW1 7086   2.749   0.277   4.126
 1764SOL    HW2 7087   2.896   0.234   4.185
 1765SOL     OW 7088   3.089   1.570   4.517
 1765SOL    HW1 7089   3.110   1.644   4.452
 1765SOL    HW2 7090   3.157   1.570   4.590
 1766SOL     OW 7091   2.321   1.152   4.465
 1766SOL    HW1 7092   2.250   1.125   4.530
 1766SOL    HW2 7093   2.295   1.124   4.372
 1767SOL     OW 7094   3.133   1.797   4.315
 1767SOL    HW1 7095   3.177   1.861   4.251
 1767SOL    HW2 7096   3.083   1.849   4.385
 1768SOL     OW 7097   2.728   0.454   4.366
 1768SOL    HW1 7098   2.696   0.526   4.304
 1768SOL    HW2 7099   2.752   0.373   4.313
 1769SOL     OW 7100   2.879   0.039   4.477
 1769SOL    HW1 7101   2.807   0.044   4.408
 1769SOL    HW2 7102   2.855  -0.030   4.546
 1770SOL     OW 7103   3.291   1.173   4.591
 1770SOL    HW1 7104   3.236   1.089   4.584
 1770SOL    HW2 7105   3.317   1.202   4.499
 1771SOL     OW 7106   3.328   0.590   4.716
 1771SOL    HW1 7107   3.298   0.495   4.723
 1771SOL    HW2 7108   3.401   0.606   4.782
 1772SOL     OW 7109   3.719   0.833   4.101
 1772SOL    HW1 7110   3.761   0.769   4.165
 1772SOL    HW2 7111   3.681   0.782   4.023
 1773SOL     OW 7112   2.389   0.256   4.052
 1773SOL    HW1 7113   2.416   0.197   3.977
 1773SOL    HW2 7114   2.389   0.351   4.021
 1774SOL     OW 7115   2.973   1.195   4.824
 1774SOL    HW1 7116   2.933   1.239   4.905
 1774SOL    HW2 7117   2.932   1.232   4.741
 1775SOL     OW 7118   3.500   1.099   4.803
 1775SOL    HW1 7119   3.505   1.180   4.862
 1775SOL    HW2 7120   3.414   1.101   4.752
 1776SOL     OW 7121   2.272   0.813   4.975
 1776SOL    HW1 7122   2.358   0.825   5.025
 1776SOL    HW2 7123   2.230   0.726   5.002
 1777SOL     OW 7124   3.136   0.386   4.986
 1777SOL    HW1 7125   3.157   0.460   5.050
 1777SOL    HW2 7126   3.047   0.403   4.943
 1778SOL     OW 7127   2.229   1.100   4.225
 1778SOL    HW1 7128   2.222   1.183   4.169
 1778SOL    HW2 7129   2.233   1.020   4.165
 1779SOL     OW 7130   2.428   0.537   4.589
 1779SOL    HW1 7131   2.440   0.603   4.515
 1779SOL    HW2 7132   2.474   0.571   4.672
 1780SOL     OW 7133   3.114   1.348   4.112
 1780SOL    HW1 7134   3.164   1.425   4.152
 1780SOL    HW2 7135   3.019   1.350   4.144
 1781SOL     OW 7136   3.134   1.445   4.866
 1781SOL    HW1 7137   3.181   1.458   4.953
 1781SOL    HW2 7138   3.068   1.371   4.875
 1782SOL     OW 7139   2.216   1.510   5.053
 1782SOL    HW1 7140   2.195   1.466   4.966
 1782SOL    HW2 7141   2.313   1.536   5.056
 1783SOL     OW 7142   2.435   0.870   4.753
 1783SOL    HW1 7143   2.479   0.959   4.744
 1783SOL    HW2 7144   2.372   0.870   4.830
 1784SOL     OW 7145   3.222   0.862   4.769
 1784SOL    HW1 7146   3.147   0.862   4.703
 1784SOL    HW2 7147   3.259   0.770   4.778
 1785SOL     OW 7148   3.071   0.525   3.999
 1785SOL    HW1 7149   3.084   0.441   4.053
 1785SOL    HW2 7150   3.042   0.599   4.059
 1786SOL     OW 7151   2.169   0.213   4.955
 1786SOL    HW1 7152   2.146   0.250   5.045
 1786SOL    HW2 7153   2.139   0.118   4.949
 1787SOL     OW 7154   1.899   1.310   5.006
 1787SOL    HW1 7155   1.952   1.261   5.074
 1787SOL    HW2 7156   1.921   1.408   5.011
 1788SOL     OW 7157   2.594   0.634   4.788
 1788SOL    HW1 7158   2.653   0.608   4.712
 1788SOL    HW2 7159   2.566   0.730   4.777
 1789SOL     OW 7160   2.169   0.063   4.342
 1789SOL    HW1 7161   2.158   0.157   4.375
 1789SOL    HW2 7162   2.164   0.000   4.419
 1790SOL     OW 7163   3.484   0.367   4.098
 1790SOL    HW1 7164   3.486   0.291   4.162
 1790SOL    HW2 7165   3.436   0.444   4.138
 1791SOL     OW 7166   2.885   0.766   4.690
 1791SOL    HW1 7167   2.900   0.787   4.786
 1791SOL    HW2 7168   2.855   0.671   4.681
 1792SOL     OW 7169   3.402   0.274   3.849
 1792SOL    HW1 7170   3.341   0.199   3.872
 1792SOL    HW2 7171   3.424   0.326   3.932
 1793SOL     OW 7172   2.930   1.333   4.573
 1793SOL    HW1 7173   2.937   1.249   4.518
 1793SOL    HW2 7174   2.992   1.402   4.537
 1794SOL     OW 7175   2.181   0.810   4.673
 1794SOL    HW1 7176   2.274   0.846   4.678
 1794SOL    HW2 7177   2.175   0.725   4.725
 1795SOL     OW 7178   2.201   0.509   4.730
 1795SOL    HW1 7179   2.149   0.426   4.713
 1795SOL    HW2 7180   2.278   0.514   4.666
 1796SOL     OW 7181   3.022   0.207   5.201
 1796SOL    HW1 7182   3.022   0.271   5.278
 1796SOL    HW2 7183   3.050   0.255   5.118
 1797SOL     OW 7184   1.870   1.326   3.924
 1797SOL    HW1 7185   1.777   1.347   3.893
 1797SOL    HW2 7186   1.880   1.227   3.937
 1798SOL     OW 7187   1.950   1.801   4.651
 1798SOL    HW1 7188   1.908   1.715   4.624
 1798SOL    HW2 7189   2.044   1.804   4.617
 1799SOL     OW 7190   2.366   1.568   4.634
 1799SOL    HW1 7191   2.432   1.642   4.643
 1799SOL    HW2 7192   2.410   1.489   4.592
 1800SOL     OW 7193   2.864   0.796   4.962
 1800SOL    HW1 7194   2.905   0.764   5.048
 1800SOL    HW2 7195   2.768   0.769   4.959
 1801SOL     OW 7196   1.902   0.544   4.838
 1801SOL    HW1 7197   1.987   0.511   4.797
 1801SOL    HW2 7198   1.915   0.559   4.936
 1802SOL     OW 7199   2.677   0.572   4.049
 1802SOL    HW1 7200   2.684   0.483   4.003
 1802SOL    HW2 7201   2.583   0.606   4.041
 1803SOL     OW 7202   3.519   0.604   4.930
 1803SOL    HW1 7203   3.481   0.535   4.992
 1803SOL    HW2 7204   3.601   0.568   4.886
 1804SOL     OW 7205   2.533   0.464   4.993
 1804SOL    HW1 7206   2.499   0.375   4.963
 1804SOL    HW2 7207   2.559   0.518   4.913
 1805SOL     OW 7208   2.792   1.678   5.189
 1805SOL    HW1 7209   2.768   1.660   5.094
 1805SOL    HW2 7210   2.822   1.772   5.199
 1806SOL     OW 7211   2.335   0.500   3.915
 1806SOL    HW1 7212   2.396   0.580   3.919
 1806SOL    HW2 7213   2.240   0.531   3.922
 1807SOL     OW 7214   3.209   1.059   4.958
 1807SOL    HW1 7215   3.233   0.996   4.884
 1807SOL    HW2 7216   3.119   1.099   4.940
 1808SOL     OW 7217   3.621   1.747   4.878
 1808SOL    HW1 7218   3.682   1.777   4.805
 1808SOL    HW2 7219   3.583   1.658   4.856
 1809SOL     OW 7220   3.114   1.731   4.852
 1809SOL    HW1 7221   3.198   1.736   4.798
 1809SOL    HW2 7222   3.091   1.635   4.870
 1810SOL     OW 7223   1.945   1.258   4.746
 1810SOL    HW1 7224   1.940   1.257   4.846
 1810SOL    HW2 7225   1.862   1.217   4.708
 1811SOL     OW 7226   3.588   0.135   4.247
 1811SOL    HW1 7227   3.661   0.118   4.180
 1811SOL    HW2 7228   3.557   0.048   4.285
 1812SOL     OW 7229   3.250   1.573   4.201
 1812SOL    HW1 7230   3.317   1.585   4.127
 1812SOL    HW2 7231   3.210   1.662   4.224
 1813SOL     OW 7232   3.142   0.927   4.396
 1813SOL    HW1 7233   3.202   0.846   4.398
 1813SOL    HW2 7234   3.182   0.996   4.336
 1814SOL     OW 7235   3.512   1.720   5.118
 1814SOL    HW1 7236   3.565   1.730   5.034
 1814SOL    HW2 7237   3.485   1.810   5.152
 1815SOL     OW 7238   3.703   0.175   4.687
 1815SOL    HW1 7239   3.742   0.090   4.651
 1815SOL    HW2 7240   3.605   0.177   4.668
 1816SOL     OW 7241   2.125   0.326   4.444
 1816SOL    HW1 7242   2.046   0.377   4.410
 1816SOL    HW2 7243   2.116   0.311   4.542
 1817SOL     OW 7244   3.056   1.612   3.755
 1817SOL    HW1 7245   3.062   1.519   3.792
 1817SOL    HW2 7246   2.997   1.612   3.675
 1818SOL     OW 7247   2.684   1.002   5.096
 1818SOL    HW1 7248   2.724   1.001   5.004
 1818SOL    HW2 7249   2.694   1.094   5.136
 1819SOL     OW 7250   2.876   0.236   4.695
 1819SOL    HW1 7251   2.868   0.200   4.602
 1819SOL    HW2 7252   2.874   0.160   4.760
 1820SOL     OW 7253   3.571   0.385   5.105
 1820SOL    HW1 7254   3.644   0.454   5.109
 1820SOL    HW2 7255   3.599   0.310   5.046
 1821SOL     OW 7256   2.117   1.348   4.014
 1821SOL    HW1 7257   2.021   1.349   3.987
 1821SOL    HW2 7258   2.129   1.401   4.098
 1822SOL     OW 7259   1.937   0.345   3.757
 1822SOL    HW1 7260   1.845   0.317   3.728
 1822SOL    HW2 7261   1.968   0.422   3.701
 1823SOL     OW 7262   1.934   0.166   4.042
 1823SOL    HW1 7263   1.917   0.249   3.988
 1823SOL    HW2 7264   2.024   0.129   4.020
 1824SOL     OW 7265   3.045   1.335   3.843
 1824SOL    HW1 7266   2.946   1.324   3.845
 1824SOL    HW2 7267   3.079   1.350   3.936
 1825SOL     OW 7268   3.355   1.767   4.683
 1825SOL    HW1 7269   3.388   1.831   4.614
 1825SOL    HW2 7270   3.421   1.761   4.758
 1826SOL     OW 7271   3.312   1.220   5.357
 1826SOL    HW1 7272   3.303   1.210   5.456
 1826SOL    HW2 7273   3.408   1.213   5.331
 1827SOL     OW 7274   3.536   0.883   4.978
 1827SOL    HW1 7275   3.509   0.794   4.941
 1827SOL    HW2 7276   3.537   0.951   4.905
 1828SOL     OW 7277   3.087   0.325   4.173
 1828SOL    HW1 7278   3.152   0.251   4.162
 1828SOL    HW2 7279   3.107   0.375   4.257
 1829SOL     OW 7280   2.456   0.745   4.376
 1829SOL    HW1 7281   2.506   0.830   4.357
 1829SOL    HW2 7282   2.368   0.747   4.328
 1830SOL     OW 7283   3.592   0.934   5.241
 1830SOL    HW1 7284   3.630   1.025   5.256
 1830SOL    HW2 7285   3.584   0.917   5.142
 1831SOL     OW 7286   2.523   1.790   4.677
 1831SOL    HW1 7287   2.477   1.878   4.664
 1831SOL    HW2 7288   2.622   1.802   4.670
 1832SOL     OW 7289   2.721   0.956   4.585
 1832SOL    HW1 7290   2.775   0.887   4.633
 1832SOL    HW2 7291   2.689   1.025   4.651
 1833SOL     OW 7292   3.723   1.569   4.575
 1833SOL    HW1 7293   3.652   1.557   4.505
 1833SOL    HW2 7294   3.724   1.490   4.635
 1834SOL     OW 7295   1.941   1.240   4.377
 1834SOL    HW1 7296   1.940   1.193   4.465
 1834SOL    HW2 7297   2.023   1.212   4.326
 1835SOL     OW 7298   3.686   0.192   4.951
 1835SOL    HW1 7299   3.682   0.102   4.995
 1835SOL    HW2 7300   3.689   0.181   4.852
 1836SOL     OW 7301   2.290   0.424   4.244
 1836SOL    HW1 7302   2.320   0.352   4.182
 1836SOL    HW2 7303   2.251   0.384   4.327
 1837SOL     OW 7304   3.567   1.487   4.828
 1837SOL    HW1 7305   3.474   1.462   4.801
 1837SOL    HW2 7306   3.593   1.437   4.910
 1838SOL     OW 7307   2.674   1.586   4.411
 1838SOL    HW1 7308   2.706   1.596   4.317
 1838SOL    HW2 7309   2.595   1.524   4.413
 1839SOL     OW 7310   3.286   0.214   4.836
 1839SOL    HW1 7311   3.338   0.149   4.891
 1839SOL    HW2 7312   3.237   0.277   4.897
 1840SOL     OW 7313   2.863   0.034   4.878
 1840SOL    HW1 7314   2.800  -0.038   4.847
 1840SOL    HW2 7315   2.956  -0.002   4.878
 1841SOL     OW 7316   3.214   0.052   3.892
 1841SOL    HW1 7317   3.249   0.011   3.808
 1841SOL    HW2 7318   3.124   0.014   3.912
 1842SOL     OW 7319   3.162   0.453   4.415
 1842SOL    HW1 7320   3.103   0.533   4.419
 1842SOL    HW2 7321   3.177   0.418   4.508
 1843SOL     OW 7322   3.455   0.221   4.606
 1843SOL    HW1 7323   3.371   0.220   4.660
 1843SOL    HW2 7324   3.457   0.304   4.550
 1844SOL     OW 7325   1.901   1.077   4.024
 1844SOL    HW1 7326   2.000   1.066   4.015
 1844SOL    HW2 7327   1.861   0.991   4.056
 1845SOL     OW 7328   2.737   1.646   4.061
 1845SOL    HW1 7329   2.660   1.611   4.007
 1845SOL    HW2 7330   2.705   1.717   4.123
 1846SOL     OW 7331   2.092   2.490   0.113
 1846SOL    HW1 7332   1.999   2.488   0.150
 1846SOL    HW2 7333   2.093   2.451   0.021
 1847SOL     OW 7334   1.881   2.230   0.647
 1847SOL    HW1 7335   1.799   2.273   0.686
 1847SOL    HW2 7336   1.853   2.157   0.584
 1848SOL     OW 7337   3.417   3.373   0.703
 1848SOL    HW1 7338   3.360   3.357   0.784
 1848SOL    HW2 7339   3.358   3.383   0.623
 1849SOL     OW 7340   2.997   2.565   0.717
 1849SOL    HW1 7341   3.054   2.643   0.692
 1849SOL    HW2 7342   2.937   2.591   0.793
 1850SOL     OW 7343   3.617   2.469   0.231
 1850SOL    HW1 7344   3.605   2.456   0.132
 1850SOL    HW2 7345   3.587   2.388   0.280
 1851SOL     OW 7346   2.712   2.660   1.823
 1851SOL    HW1 7347   2.708   2.736   1.888
 1851SOL    HW2 7348   2.734   2.696   1.732
 1852SOL     OW 7349   2.547   2.874   0.665
 1852SOL    HW1 7350   2.616   2.858   0.735
 1852SOL    HW2 7351   2.474   2.931   0.703
 1853SOL     OW 7352   2.548   3.023   1.803
 1853SOL    HW1 7353   2.608   3.102   1.817
 1853SOL    HW2 7354   2.462   3.054   1.762
 1854SOL     OW 7355   2.197   3.297   1.061
 1854SOL    HW1 7356   2.119   3.266   1.008
 1854SOL    HW2 7357   2.255   3.355   1.004
 1855SOL     OW 7358   3.322   3.367   1.339
 1855SOL    HW1 7359   3.346   3.461   1.365
 1855SOL    HW2 7360   3.306   3.313   1.421
 1856SOL     OW 7361   2.300   2.254   1.499
 1856SOL    HW1 7362   2.382   2.198   1.508
 1856SOL    HW2 7363   2.219   2.196   1.503
 1857SOL     OW 7364   3.465   2.309   0.737
 1857SOL    HW1 7365   3.391   2.355   0.687
 1857SOL    HW2 7366   3.516   2.377   0.790
 1858SOL     OW 7367   2.092   3.296   0.538
 1858SOL    HW1 7368   2.066   3.392   0.538
 1858SOL    HW2 7369   2.021   3.242   0.583
 1859SOL     OW 7370   2.102   2.953   0.886
 1859SOL    HW1 7371   2.116   2.869   0.938
 1859SOL    HW2 7372   2.047   3.017   0.941
 1860SOL     OW 7373   2.482   3.648   1.439
 1860SOL    HW1 7374   2.390   3.631   1.474
 1860SOL    HW2 7375   2.510   3.740   1.465
 1861SOL     OW 7376   2.468   2.826   0.123
 1861SOL    HW1 7377   2.475   2.910   0.069
 1861SOL    HW2 7378   2.514   2.839   0.211
 1862SOL     OW 7379   3.456   1.976   1.480
 1862SOL    HW1 7380   3.438   2.043   1.408
 1862SOL    HW2 7381   3.453   2.022   1.569
 1863SOL     OW 7382   1.984   2.505   0.563
 1863SOL    HW1 7383   1.939   2.417   0.580
 1863SOL    HW2 7384   1.983   2.559   0.647
 1864SOL     OW 7385   1.889   3.458   0.117
 1864SOL    HW1 7386   1.870   3.362   0.138
 1864SOL    HW2 7387   1.856   3.516   0.192
 1865SOL     OW 7388   1.975   2.599   1.597
 1865SOL    HW1 7389   2.063   2.586   1.642
 1865SOL    HW2 7390   1.962   2.696   1.575
 1866SOL     OW 7391   2.475   3.227   0.726
 1866SOL    HW1 7392   2.426   3.140   0.735
 1866SOL    HW2 7393   2.452   3.270   0.639
 1867SOL     OW 7394   2.671   1.866   0.502
 1867SOL    HW1 7395   2.711   1.957   0.493
 1867SOL    HW2 7396   2.571   1.874   0.508
 1868SOL     OW 7397   2.059   2.838   1.264
 1868SOL    HW1 7398   2.148   2.793   1.250
 1868SOL    HW2 7399   1.986   2.773   1.245
 1869SOL     OW 7400   3.387   2.861   0.190
 1869SOL    HW1 7401   3.324   2.785   0.203
 1869SOL    HW2 7402   3.435   2.879   0.276
 1870SOL     OW 7403   3.049   3.654   1.616
 1870SOL    HW1 7404   3.073   3.714   1.540
 1870SOL    HW2 7405   3.056   3.559   1.586
 1871SOL     OW 7406   3.328   3.279   0.953
 1871SOL    HW1 7407   3.269   3.285   1.033
 1871SOL    HW2 7408   3.313   3.191   0.907
 1872SOL     OW 7409   3.529   3.576   0.572
 1872SOL    HW1 7410   3.488   3.553   0.484
 1872SOL    HW2 7411   3.511   3.502   0.637
 1873SOL     OW 7412   2.460   2.591   0.270
 1873SOL    HW1 7413   2.484   2.660   0.202
 1873SOL    HW2 7414   2.382   2.624   0.324
 1874SOL     OW 7415   3.143   2.207   0.944
 1874SOL    HW1 7416   3.057   2.157   0.931
 1874SOL    HW2 7417   3.205   2.153   1.000
 1875SOL     OW 7418   3.438   3.524   0.307
 1875SOL    HW1 7419   3.527   3.570   0.310
 1875SOL    HW2 7420   3.417   3.500   0.212
 1876SOL     OW 7421   2.669   2.467   1.465
 1876SOL    HW1 7422   2.622   2.464   1.554
 1876SOL    HW2 7423   2.618   2.412   1.399
 1877SOL     OW 7424   3.256   2.331   1.674
 1877SOL    HW1 7425   3.236   2.374   1.762
 1877SOL    HW2 7426   3.334   2.269   1.683
 1878SOL     OW 7427   2.853   2.272   1.242
 1878SOL    HW1 7428   2.776   2.306   1.296
 1878SOL    HW2 7429   2.819   2.221   1.163
 1879SOL     OW 7430   2.903   2.563   0.429
 1879SOL    HW1 7431   2.929   2.559   0.525
 1879SOL    HW2 7432   2.818   2.512   0.415
 1880SOL     OW 7433   1.938   2.673   0.789
 1880SOL    HW1 7434   2.037   2.661   0.798
 1880SOL    HW2 7435   1.914   2.768   0.810
 1881SOL     OW 7436   1.992   3.683   1.571
 1881SOL    HW1 7437   1.982   3.668   1.670
 1881SOL    HW2 7438   1.906   3.719   1.535
 1882SOL     OW 7439   2.727   2.210   0.195
 1882SOL    HW1 7440   2.786   2.273   0.146
 1882SOL    HW2 7441   2.746   2.116   0.166
 1883SOL     OW 7442   3.581   2.447   1.831
 1883SOL    HW1 7443   3.555   2.536   1.795
 1883SOL    HW2 7444   3.579   2.379   1.758
 1884SOL     OW 7445   2.870   3.318   0.477
 1884SOL    HW1 7446   2.824   3.390   0.425
 1884SOL    HW2 7447   2.866   3.338   0.575
 1885SOL     OW 7448   3.657   2.928   0.873
 1885SOL    HW1 7449   3.595   2.913   0.797
 1885SOL    HW2 7450   3.605   2.939   0.958
 1886SOL     OW 7451   2.183   2.805   0.242
 1886SOL    HW1 7452   2.265   2.844   0.200
 1886SOL    HW2 7453   2.156   2.723   0.193
 1887SOL     OW 7454   3.320   2.597   0.728
 1887SOL    HW1 7455   3.315   2.532   0.803
 1887SOL    HW2 7456   3.400   2.656   0.741
 1888SOL     OW 7457   2.323   3.128   1.727
 1888SOL    HW1 7458   2.273   3.129   1.641
 1888SOL    HW2 7459   2.260   3.110   1.803
 1889SOL     OW 7460   3.494   3.239   0.081
 1889SOL    HW1 7461   3.462   3.333   0.071
 1889SOL    HW2 7462   3.418   3.176   0.069
 1890SOL     OW 7463   2.326   3.605   0.323
 1890SOL    HW1 7464   2.359   3.644   0.409
 1890SOL    HW2 7465   2.402   3.598   0.258
 1891SOL     OW 7466   3.262   1.969   0.426
 1891SOL    HW1 7467   3.238   1.932   0.336
 1891SOL    HW2 7468   3.361   1.985   0.430
 1892SOL     OW 7469   2.111   3.647   1.241
 1892SOL    HW1 7470   2.168   3.582   1.291
 1892SOL    HW2 7471   2.095   3.614   1.148
 1893SOL     OW 7472   2.244   2.562   0.480
 1893SOL    HW1 7473   2.289   2.472   0.477
 1893SOL    HW2 7474   2.150   2.551   0.513
 1894SOL     OW 7475   3.409   2.084   1.729
 1894SOL    HW1 7476   3.404   2.121   1.821
 1894SOL    HW2 7477   3.337   2.015   1.717
 1895SOL     OW 7478   2.750   3.376   1.195
 1895SOL    HW1 7479   2.727   3.351   1.101
 1895SOL    HW2 7480   2.811   3.307   1.234
 1896SOL     OW 7481   3.213   2.452   1.433
 1896SOL    HW1 7482   3.241   2.409   1.518
 1896SOL    HW2 7483   3.238   2.548   1.434
 1897SOL     OW 7484   2.665   3.264   0.924
 1897SOL    HW1 7485   2.755   3.278   0.882
 1897SOL    HW2 7486   2.594   3.266   0.853
 1898SOL     OW 7487   2.784   2.365   0.899
 1898SOL    HW1 7488   2.759   2.356   0.803
 1898SOL    HW2 7489   2.832   2.283   0.930
 1899SOL     OW 7490   2.401   1.926   0.512
 1899SOL    HW1 7491   2.320   1.927   0.570
 1899SOL    HW2 7492   2.404   2.009   0.457
 1900SOL     OW 7493   2.159   1.897   0.171
 1900SOL    HW1 7494   2.208   1.981   0.150
 1900SOL    HW2 7495   2.221   1.832   0.216
 1901SOL     OW 7496   2.938   2.545   1.464
 1901SOL    HW1 7497   2.858   2.484   1.467
 1901SOL    HW2 7498   3.019   2.492   1.440
 1902SOL     OW 7499   3.089   3.432   0.793
 1902SOL    HW1 7500   3.110   3.506   0.728
 1902SOL    HW2 7501   3.157   3.432   0.866
 1903SOL     OW 7502   2.321   3.014   0.741
 1903SOL    HW1 7503   2.250   2.987   0.806
 1903SOL    HW2 7504   2.295   2.986   0.648
 1904SOL     OW 7505   2.894   2.411   0.016
 1904SOL    HW1 7506   2.853   2.493  -0.023
 1904SOL    HW2 7507   2.958   2.437   0.089
 1905SOL     OW 7508   2.423   2.084   1.147
 1905SOL    HW1 7509   2.461   2.000   1.184
 1905SOL    HW2 7510   2.335   2.103   1.191
 1906SOL     OW 7511   2.879   1.901   0.753
 1906SOL    HW1 7512   2.807   1.906   0.684
 1906SOL    HW2 7513   2.855   1.832   0.822
 1907SOL     OW 7514   3.291   3.035   0.867
 1907SOL    HW1 7515   3.236   2.951   0.860
 1907SOL    HW2 7516   3.317   3.064   0.775
 1908SOL     OW 7517   3.328   2.452   0.992
 1908SOL    HW1 7518   3.298   2.357   0.999
 1908SOL    HW2 7519   3.401   2.468   1.058
 1909SOL     OW 7520   3.719   2.695   0.377
 1909SOL    HW1 7521   3.761   2.631   0.441
 1909SOL    HW2 7522   3.681   2.644   0.299
 1910SOL     OW 7523   2.350   3.247   0.174
 1910SOL    HW1 7524   2.263   3.232   0.221
 1910SOL    HW2 7525   2.333   3.273   0.079
 1911SOL     OW 7526   3.526   3.142   0.657
 1911SOL    HW1 7527   3.625   3.150   0.671
 1911SOL    HW2 7528   3.481   3.226   0.688
 1912SOL     OW 7529   3.252   2.437   0.078
 1912SOL    HW1 7530   3.198   2.416   0.159
 1912SOL    HW2 7531   3.343   2.396   0.087
 1913SOL     OW 7532   2.389   2.118   0.328
 1913SOL    HW1 7533   2.416   2.059   0.253
 1913SOL    HW2 7534   2.389   2.213   0.297
 1914SOL     OW 7535   3.454   3.491   1.625
 1914SOL    HW1 7536   3.481   3.525   1.535
 1914SOL    HW2 7537   3.533   3.453   1.671
 1915SOL     OW 7538   3.500   2.961   1.079
 1915SOL    HW1 7539   3.505   3.042   1.138
 1915SOL    HW2 7540   3.414   2.963   1.028
 1916SOL     OW 7541   2.842   2.978   1.719
 1916SOL    HW1 7542   2.743   2.984   1.729
 1916SOL    HW2 7543   2.865   2.898   1.663
 1917SOL     OW 7544   2.567   2.912   0.368
 1917SOL    HW1 7545   2.553   2.919   0.467
 1917SOL    HW2 7546   2.651   2.861   0.350
 1918SOL     OW 7547   2.272   2.675   1.251
 1918SOL    HW1 7548   2.358   2.687   1.301
 1918SOL    HW2 7549   2.230   2.588   1.278
 1919SOL     OW 7550   3.136   2.248   1.262
 1919SOL    HW1 7551   3.157   2.322   1.326
 1919SOL    HW2 7552   3.047   2.265   1.219
 1920SOL     OW 7553   1.926   3.426   1.331
 1920SOL    HW1 7554   1.880   3.508   1.297
 1920SOL    HW2 7555   2.024   3.445   1.340
 1921SOL     OW 7556   2.229   2.962   0.501
 1921SOL    HW1 7557   2.222   3.045   0.445
 1921SOL    HW2 7558   2.233   2.882   0.441
 1922SOL     OW 7559   3.114   3.210   0.388
 1922SOL    HW1 7560   3.164   3.287   0.428
 1922SOL    HW2 7561   3.019   3.212   0.420
 1923SOL     OW 7562   3.134   3.307   1.142
 1923SOL    HW1 7563   3.181   3.320   1.229
 1923SOL    HW2 7564   3.068   3.233   1.151
 1924SOL     OW 7565   3.444   2.501   0.472
 1924SOL    HW1 7566   3.413   2.562   0.545
 1924SOL    HW2 7567   3.494   2.553   0.403
 1925SOL     OW 7568   2.216   3.372   1.329
 1925SOL    HW1 7569   2.195   3.328   1.242
 1925SOL    HW2 7570   2.313   3.398   1.332
 1926SOL     OW 7571   2.264   2.613   1.598
 1926SOL    HW1 7572   2.332   2.668   1.551
 1926SOL    HW2 7573   2.304   2.525   1.625
 1927SOL     OW 7574   3.449   2.641   1.670
 1927SOL    HW1 7575   3.357   2.679   1.665
 1927SOL    HW2 7576   3.509   2.688   1.605
 1928SOL     OW 7577   2.366   1.912   1.740
 1928SOL    HW1 7578   2.324   1.855   1.670
 1928SOL    HW2 7579   2.300   1.981   1.772
 1929SOL     OW 7580   2.435   2.732   1.029
 1929SOL    HW1 7581   2.479   2.821   1.020
 1929SOL    HW2 7582   2.372   2.732   1.106
 1930SOL     OW 7583   3.222   2.724   1.045
 1930SOL    HW1 7584   3.147   2.724   0.979
 1930SOL    HW2 7585   3.259   2.632   1.054
 1931SOL     OW 7586   3.071   2.387   0.275
 1931SOL    HW1 7587   3.084   2.303   0.329
 1931SOL    HW2 7588   3.042   2.461   0.335
 1932SOL     OW 7589   1.899   3.172   1.282
 1932SOL    HW1 7590   1.952   3.123   1.350
 1932SOL    HW2 7591   1.921   3.270   1.287
 1933SOL     OW 7592   2.594   2.496   1.064
 1933SOL    HW1 7593   2.653   2.470   0.988
 1933SOL    HW2 7594   2.566   2.592   1.053
 1934SOL     OW 7595   2.169   1.925   0.618
 1934SOL    HW1 7596   2.158   2.019   0.651
 1934SOL    HW2 7597   2.164   1.862   0.695
 1935SOL     OW 7598   3.484   2.229   0.374
 1935SOL    HW1 7599   3.486   2.153   0.438
 1935SOL    HW2 7600   3.436   2.306   0.414
 1936SOL     OW 7601   2.885   2.628   0.966
 1936SOL    HW1 7602   2.900   2.649   1.062
 1936SOL    HW2 7603   2.855   2.533   0.957
 1937SOL     OW 7604   2.212   2.760   1.804
 1937SOL    HW1 7605   2.288   2.804   1.852
 1937SOL    HW2 7606   2.247   2.713   1.722
 1938SOL     OW 7607   3.402   2.136   0.125
 1938SOL    HW1 7608   3.341   2.061   0.148
 1938SOL    HW2 7609   3.424   2.188   0.208
 1939SOL     OW 7610   3.165   2.700   0.042
 1939SOL    HW1 7611   3.199   2.607   0.057
 1939SOL    HW2 7612   3.183   2.727  -0.053
 1940SOL     OW 7613   2.930   3.195   0.849
 1940SOL    HW1 7614   2.937   3.111   0.794
 1940SOL    HW2 7615   2.992   3.264   0.813
 1941SOL     OW 7616   2.181   2.672   0.949
 1941SOL    HW1 7617   2.274   2.708   0.954
 1941SOL    HW2 7618   2.175   2.587   1.001
 1942SOL     OW 7619   2.201   2.371   1.006
 1942SOL    HW1 7620   2.149   2.288   0.989
 1942SOL    HW2 7621   2.278   2.376   0.942
 1943SOL     OW 7622   3.000   2.242   1.678
 1943SOL    HW1 7623   2.955   2.305   1.742
 1943SOL    HW2 7624   3.093   2.273   1.661
 1944SOL     OW 7625   2.366   3.430   0.910
 1944SOL    HW1 7626   2.432   3.504   0.919
 1944SOL    HW2 7627   2.410   3.351   0.868
 1945SOL     OW 7628   2.864   2.658   1.238
 1945SOL    HW1 7629   2.905   2.626   1.324
 1945SOL    HW2 7630   2.768   2.631   1.235
 1946SOL     OW 7631   1.902   2.406   1.114
 1946SOL    HW1 7632   1.987   2.373   1.073
 1946SOL    HW2 7633   1.915   2.421   1.212
 1947SOL     OW 7634   3.231   2.812   1.660
 1947SOL    HW1 7635   3.270   2.901   1.680
 1947SOL    HW2 7636   3.241   2.792   1.563
 1948SOL     OW 7637   2.677   2.434   0.325
 1948SOL    HW1 7638   2.684   2.345   0.279
 1948SOL    HW2 7639   2.583   2.468   0.317
 1949SOL     OW 7640   3.519   2.466   1.206
 1949SOL    HW1 7641   3.481   2.397   1.268
 1949SOL    HW2 7642   3.601   2.430   1.162
 1950SOL     OW 7643   2.114   3.426   1.744
 1950SOL    HW1 7644   2.084   3.483   1.820
 1950SOL    HW2 7645   2.107   3.329   1.770
 1951SOL     OW 7646   2.533   2.326   1.269
 1951SOL    HW1 7647   2.499   2.237   1.239
 1951SOL    HW2 7648   2.559   2.380   1.189
 1952SOL     OW 7649   2.792   3.540   1.465
 1952SOL    HW1 7650   2.768   3.522   1.370
 1952SOL    HW2 7651   2.822   3.634   1.475
 1953SOL     OW 7652   2.335   2.362   0.191
 1953SOL    HW1 7653   2.396   2.442   0.195
 1953SOL    HW2 7654   2.240   2.393   0.198
 1954SOL     OW 7655   2.021   2.999   1.466
 1954SOL    HW1 7656   2.043   2.938   1.542
 1954SOL    HW2 7657   2.031   2.950   1.380
 1955SOL     OW 7658   3.164   2.717   0.309
 1955SOL    HW1 7659   3.078   2.686   0.351
 1955SOL    HW2 7660   3.160   2.703   0.210
 1956SOL     OW 7661   3.621   3.609   1.154
 1956SOL    HW1 7662   3.682   3.639   1.081
 1956SOL    HW2 7663   3.583   3.520   1.132
 1957SOL     OW 7664   3.114   3.593   1.128
 1957SOL    HW1 7665   3.198   3.598   1.074
 1957SOL    HW2 7666   3.091   3.497   1.146
 1958SOL     OW 7667   1.945   3.120   1.022
 1958SOL    HW1 7668   1.940   3.119   1.122
 1958SOL    HW2 7669   1.862   3.079   0.984
 1959SOL     OW 7670   2.765   1.948   0.133
 1959SOL    HW1 7671   2.816   1.949   0.047
 1959SOL    HW2 7672   2.821   1.906   0.204
 1960SOL     OW 7673   3.588   1.997   0.523
 1960SOL    HW1 7674   3.661   1.980   0.456
 1960SOL    HW2 7675   3.557   1.910   0.561
 1961SOL     OW 7676   3.142   2.789   0.672
 1961SOL    HW1 7677   3.202   2.708   0.674
 1961SOL    HW2 7678   3.182   2.858   0.612
 1962SOL     OW 7679   2.534   3.478   0.154
 1962SOL    HW1 7680   2.543   3.488   0.055
 1962SOL    HW2 7681   2.494   3.389   0.175
 1963SOL     OW 7682   3.512   3.582   1.394
 1963SOL    HW1 7683   3.565   3.592   1.310
 1963SOL    HW2 7684   3.485   3.672   1.428
 1964SOL     OW 7685   3.703   2.037   0.963
 1964SOL    HW1 7686   3.742   1.952   0.927
 1964SOL    HW2 7687   3.605   2.039   0.944
 1965SOL     OW 7688   2.778   2.772   0.291
 1965SOL    HW1 7689   2.841   2.810   0.223
 1965SOL    HW2 7690   2.818   2.689   0.330
 1966SOL     OW 7691   3.476   3.154   1.289
 1966SOL    HW1 7692   3.536   3.157   1.369
 1966SOL    HW2 7693   3.401   3.218   1.302
 1967SOL     OW 7694   2.901   2.960   0.696
 1967SOL    HW1 7695   2.831   2.913   0.750
 1967SOL    HW2 7696   2.960   2.892   0.653
 1968SOL     OW 7697   2.452   3.349   0.491
 1968SOL    HW1 7698   2.494   3.291   0.421
 1968SOL    HW2 7699   2.408   3.428   0.447
 1969SOL     OW 7700   3.571   2.247   1.381
 1969SOL    HW1 7701   3.644   2.316   1.385
 1969SOL    HW2 7702   3.599   2.172   1.322
 1970SOL     OW 7703   2.117   3.210   0.290
 1970SOL    HW1 7704   2.021   3.211   0.263
 1970SOL    HW2 7705   2.129   3.263   0.374
 1971SOL     OW 7706   1.967   2.875   1.726
 1971SOL    HW1 7707   1.890   2.842   1.780
 1971SOL    HW2 7708   2.052   2.845   1.768
 1972SOL     OW 7709   2.534   2.065   1.489
 1972SOL    HW1 7710   2.624   2.049   1.449
 1972SOL    HW2 7711   2.542   2.070   1.588
 1973SOL     OW 7712   3.302   2.718   1.398
 1973SOL    HW1 7713   3.245   2.770   1.335
 1973SOL    HW2 7714   3.398   2.730   1.374
 1974SOL     OW 7715   1.934   2.028   0.318
 1974SOL    HW1 7716   1.917   2.111   0.264
 1974SOL    HW2 7717   2.024   1.991   0.296
 1975SOL     OW 7718   3.045   3.197   0.119
 1975SOL    HW1 7719   2.946   3.186   0.121
 1975SOL    HW2 7720   3.079   3.212   0.212
 1976SOL     OW 7721   2.475   2.704   1.431
 1976SOL    HW1 7722   2.531   2.785   1.414
 1976SOL    HW2 7723   2.534   2.624   1.434
 1977SOL     OW 7724   3.355   3.629   0.959
 1977SOL    HW1 7725   3.388   3.693   0.890
 1977SOL    HW2 7726   3.421   3.623   1.034
 1978SOL     OW 7727   2.578   2.427   1.708
 1978SOL    HW1 7728   2.597   2.492   1.782
 1978SOL    HW2 7729   2.638   2.347   1.717
 1979SOL     OW 7730   3.312   3.082   1.633
 1979SOL    HW1 7731   3.303   3.072   1.732
 1979SOL    HW2 7732   3.408   3.075   1.607
 1980SOL     OW 7733   2.252   3.603   1.560
 1980SOL    HW1 7734   2.161   3.644   1.558
 1980SOL    HW2 7735   2.245   3.509   1.592
 1981SOL     OW 7736   3.536   2.745   1.254
 1981SOL    HW1 7737   3.509   2.656   1.217
 1981SOL    HW2 7738   3.537   2.813   1.181
 1982SOL     OW 7739   3.087   2.187   0.449
 1982SOL    HW1 7740   3.152   2.113   0.438
 1982SOL    HW2 7741   3.107   2.237   0.533
 1983SOL     OW 7742   2.456   2.607   0.652
 1983SOL    HW1 7743   2.506   2.692   0.633
 1983SOL    HW2 7744   2.368   2.609   0.604
 1984SOL     OW 7745   3.639   2.204   1.642
 1984SOL    HW1 7746   3.622   2.235   1.548
 1984SOL    HW2 7747   3.555   2.167   1.680
 1985SOL     OW 7748   2.721   3.236   0.016
 1985SOL    HW1 7749   2.675   3.251   0.104
 1985SOL    HW2 7750   2.765   3.321  -0.014
 1986SOL     OW 7751   2.721   2.818   0.861
 1986SOL    HW1 7752   2.775   2.749   0.909
 1986SOL    HW2 7753   2.689   2.887   0.927
 1987SOL     OW 7754   2.945   2.846   0.087
 1987SOL    HW1 7755   2.922   2.899   0.005
 1987SOL    HW2 7756   3.026   2.790   0.068
 1988SOL     OW 7757   2.083   3.176   1.844
 1988SOL    HW1 7758   2.018   3.103   1.823
 1988SOL    HW2 7759   2.087   3.190   1.942
 1989SOL     OW 7760   1.941   3.102   0.653
 1989SOL    HW1 7761   1.940   3.055   0.741
 1989SOL    HW2 7762   2.023   3.074   0.602
 1990SOL     OW 7763   3.686   2.054   1.227
 1990SOL    HW1 7764   3.682   1.964   1.271
 1990SOL    HW2 7765   3.689   2.043   1.128
 1991SOL     OW 7766   3.567   3.349   1.104
 1991SOL    HW1 7767   3.474   3.324   1.077
 1991SOL    HW2 7768   3.593   3.299   1.186
 1992SOL     OW 7769   2.632   3.192   0.301
 1992SOL    HW1 7770   2.586   3.105   0.318
 1992SOL    HW2 7771   2.723   3.189   0.342
 1993SOL     OW 7772   2.480   3.429   1.284
 1993SOL    HW1 7773   2.475   3.511   1.341
 1993SOL    HW2 7774   2.569   3.426   1.239
 1994SOL     OW 7775   3.214   1.914   0.168
 1994SOL    HW1 7776   3.249   1.873   0.084
 1994SOL    HW2 7777   3.124   1.876   0.188
 1995SOL     OW 7778   3.162   2.315   0.691
 1995SOL    HW1 7779   3.103   2.395   0.695
 1995SOL    HW2 7780   3.177   2.280   0.784
 1996SOL     OW 7781   3.455   2.083   0.882
 1996SOL    HW1 7782   3.371   2.082   0.936
 1996SOL    HW2 7783   3.457   2.166   0.826
 1997SOL     OW 7784   1.901   2.939   0.300
 1997SOL    HW1 7785   2.000   2.928   0.291
 1997SOL    HW2 7786   1.861   2.853   0.332
 1998SOL     OW 7787   2.092   2.490   1.975
 1998SOL    HW1 7788   1.999   2.488   2.012
 1998SOL    HW2 7789   2.093   2.451   1.883
 1999SOL     OW 7790   2.087   2.137   2.858
 1999SOL    HW1 7791   2.122   2.120   2.950
 1999SOL    HW2 7792   1.999   2.092   2.846
 2000SOL     OW 7793   1.881   2.230   2.509
 2000SOL    HW1 7794   1.799   2.273   2.548
 2000SOL    HW2 7795   1.853   2.157   2.446
 2001SOL     OW 7796   2.431   3.137   3.027
 2001SOL    HW1 7797   2.338   3.130   2.990
 2001SOL    HW2 7798   2.442   3.226   3.071
 2002SOL     OW 7799   3.617   2.469   2.093
 2002SOL    HW1 7800   3.605   2.456   1.994
 2002SOL    HW2 7801   3.587   2.388   2.142
 2003SOL     OW 7802   2.630   3.006   2.885
 2003SOL    HW1 7803   2.552   3.023   2.945
 2003SOL    HW2 7804   2.664   3.093   2.849
 2004SOL     OW 7805   2.712   2.660   3.685
 2004SOL    HW1 7806   2.708   2.736   3.750
 2004SOL    HW2 7807   2.734   2.696   3.594
 2005SOL     OW 7808   2.548   3.023   3.665
 2005SOL    HW1 7809   2.608   3.102   3.679
 2005SOL    HW2 7810   2.462   3.054   3.624
 2006SOL     OW 7811   2.197   3.297   2.923
 2006SOL    HW1 7812   2.119   3.266   2.870
 2006SOL    HW2 7813   2.255   3.355   2.866
 2007SOL     OW 7814   3.322   3.367   3.201
 2007SOL    HW1 7815   3.346   3.461   3.227
 2007SOL    HW2 7816   3.306   3.313   3.283
 2008SOL     OW 7817   2.300   2.254   3.361
 2008SOL    HW1 7818   2.382   2.198   3.370
 2008SOL    HW2 7819   2.219   2.196   3.365
 2009SOL     OW 7820   2.989   3.203   3.552
 2009SOL    HW1 7821   3.036   3.203   3.640
 2009SOL    HW2 7822   2.941   3.116   3.541
 2010SOL     OW 7823   2.092   3.296   2.400
 2010SOL    HW1 7824   2.066   3.392   2.400
 2010SOL    HW2 7825   2.021   3.242   2.445
 2011SOL     OW 7826   2.102   2.953   2.748
 2011SOL    HW1 7827   2.116   2.869   2.800
 2011SOL    HW2 7828   2.047   3.017   2.803
 2012SOL     OW 7829   2.482   3.648   3.301
 2012SOL    HW1 7830   2.390   3.631   3.336
 2012SOL    HW2 7831   2.510   3.740   3.327
 2013SOL     OW 7832   2.468   2.826   1.985
 2013SOL    HW1 7833   2.475   2.910   1.931
 2013SOL    HW2 7834   2.514   2.839   2.073
 2014SOL     OW 7835   3.456   1.976   3.342
 2014SOL    HW1 7836   3.438   2.043   3.270
 2014SOL    HW2 7837   3.453   2.022   3.431
 2015SOL     OW 7838   3.551   2.784   2.474
 2015SOL    HW1 7839   3.646   2.755   2.482
 2015SOL    HW2 7840   3.543   2.849   2.399
 2016SOL     OW 7841   3.503   2.970   2.294
 2016SOL    HW1 7842   3.589   2.972   2.242
 2016SOL    HW2 7843   3.517   3.017   2.382
 2017SOL     OW 7844   1.975   2.599   3.459
 2017SOL    HW1 7845   2.063   2.586   3.504
 2017SOL    HW2 7846   1.962   2.696   3.437
 2018SOL     OW 7847   2.475   3.227   2.588
 2018SOL    HW1 7848   2.426   3.140   2.597
 2018SOL    HW2 7849   2.452   3.270   2.501
 2019SOL     OW 7850   3.155   3.090   3.285
 2019SOL    HW1 7851   3.192   3.017   3.227
 2019SOL    HW2 7852   3.207   3.095   3.370
 2020SOL     OW 7853   2.671   1.866   2.364
 2020SOL    HW1 7854   2.711   1.957   2.355
 2020SOL    HW2 7855   2.571   1.874   2.370
 2021SOL     OW 7856   2.059   2.838   3.126
 2021SOL    HW1 7857   2.148   2.793   3.112
 2021SOL    HW2 7858   1.986   2.773   3.107
 2022SOL     OW 7859   3.387   2.861   2.052
 2022SOL    HW1 7860   3.324   2.785   2.065
 2022SOL    HW2 7861   3.435   2.879   2.138
 2023SOL     OW 7862   3.049   3.654   3.478
 2023SOL    HW1 7863   3.073   3.714   3.402
 2023SOL    HW2 7864   3.056   3.559   3.448
 2024SOL     OW 7865   2.179   2.113   3.663
 2024SOL    HW1 7866   2.250   2.184   3.669
 2024SOL    HW2 7867   2.091   2.152   3.691
 2025SOL     OW 7868   2.460   2.591   2.132
 2025SOL    HW1 7869   2.484   2.660   2.064
 2025SOL    HW2 7870   2.382   2.624   2.186
 2026SOL     OW 7871   3.143   2.207   2.806
 2026SOL    HW1 7872   3.057   2.157   2.793
 2026SOL    HW2 7873   3.205   2.153   2.862
 2027SOL     OW 7874   3.438   3.524   2.169
 2027SOL    HW1 7875   3.527   3.570   2.172
 2027SOL    HW2 7876   3.417   3.500   2.074
 2028SOL     OW 7877   2.669   2.467   3.327
 2028SOL    HW1 7878   2.622   2.464   3.416
 2028SOL    HW2 7879   2.618   2.412   3.261
 2029SOL     OW 7880   3.256   2.331   3.536
 2029SOL    HW1 7881   3.236   2.374   3.624
 2029SOL    HW2 7882   3.334   2.269   3.545
 2030SOL     OW 7883   2.835   2.752   3.434
 2030SOL    HW1 7884   2.881   2.668   3.405
 2030SOL    HW2 7885   2.779   2.786   3.359
 2031SOL     OW 7886   2.853   2.272   3.104
 2031SOL    HW1 7887   2.776   2.306   3.158
 2031SOL    HW2 7888   2.819   2.221   3.025
 2032SOL     OW 7889   2.903   2.563   2.291
 2032SOL    HW1 7890   2.929   2.559   2.387
 2032SOL    HW2 7891   2.818   2.512   2.277
 2033SOL     OW 7892   1.938   2.673   2.651
 2033SOL    HW1 7893   2.037   2.661   2.660
 2033SOL    HW2 7894   1.914   2.768   2.672
 2034SOL     OW 7895   1.992   3.683   3.433
 2034SOL    HW1 7896   1.982   3.668   3.532
 2034SOL    HW2 7897   1.906   3.719   3.397
 2035SOL     OW 7898   2.727   2.210   2.057
 2035SOL    HW1 7899   2.786   2.273   2.008
 2035SOL    HW2 7900   2.746   2.116   2.028
 2036SOL     OW 7901   3.581   2.447   3.693
 2036SOL    HW1 7902   3.555   2.536   3.657
 2036SOL    HW2 7903   3.579   2.379   3.620
 2037SOL     OW 7904   3.224   3.006   2.407
 2037SOL    HW1 7905   3.307   2.977   2.359
 2037SOL    HW2 7906   3.175   3.073   2.351
 2038SOL     OW 7907   2.412   2.058   2.747
 2038SOL    HW1 7908   2.407   2.053   2.847
 2038SOL    HW2 7909   2.414   2.154   2.718
 2039SOL     OW 7910   2.870   3.318   2.339
 2039SOL    HW1 7911   2.824   3.390   2.287
 2039SOL    HW2 7912   2.866   3.338   2.437
 2040SOL     OW 7913   2.213   3.663   2.715
 2040SOL    HW1 7914   2.263   3.577   2.721
 2040SOL    HW2 7915   2.278   3.740   2.712
 2041SOL     OW 7916   3.657   2.928   2.735
 2041SOL    HW1 7917   3.595   2.913   2.659
 2041SOL    HW2 7918   3.605   2.939   2.820
 2042SOL     OW 7919   3.089   3.412   3.368
 2042SOL    HW1 7920   3.095   3.335   3.432
 2042SOL    HW2 7921   3.037   3.386   3.288
 2043SOL     OW 7922   2.183   2.805   2.104
 2043SOL    HW1 7923   2.265   2.844   2.062
 2043SOL    HW2 7924   2.156   2.723   2.055
 2044SOL     OW 7925   3.320   2.597   2.590
 2044SOL    HW1 7926   3.315   2.532   2.665
 2044SOL    HW2 7927   3.400   2.656   2.603
 2045SOL     OW 7928   2.323   3.128   3.589
 2045SOL    HW1 7929   2.273   3.129   3.503
 2045SOL    HW2 7930   2.260   3.110   3.665
 2046SOL     OW 7931   2.973   3.638   2.099
 2046SOL    HW1 7932   2.913   3.576   2.149
 2046SOL    HW2 7933   3.004   3.594   2.014
 2047SOL     OW 7934   2.064   2.147   3.360
 2047SOL    HW1 7935   1.984   2.207   3.347
 2047SOL    HW2 7936   2.054   2.098   3.446
 2048SOL     OW 7937   3.494   3.239   1.943
 2048SOL    HW1 7938   3.462   3.333   1.933
 2048SOL    HW2 7939   3.418   3.176   1.931
 2049SOL     OW 7940   3.262   1.969   2.288
 2049SOL    HW1 7941   3.238   1.932   2.198
 2049SOL    HW2 7942   3.361   1.985   2.292
 2050SOL     OW 7943   2.111   3.647   3.103
 2050SOL    HW1 7944   2.168   3.582   3.153
 2050SOL    HW2 7945   2.095   3.614   3.010
 2051SOL     OW 7946   2.244   2.562   2.342
 2051SOL    HW1 7947   2.289   2.472   2.339
 2051SOL    HW2 7948   2.150   2.551   2.375
 2052SOL     OW 7949   3.409   2.084   3.591
 2052SOL    HW1 7950   3.404   2.121   3.683
 2052SOL    HW2 7951   3.337   2.015   3.579
 2053SOL     OW 7952   2.476   1.984   1.979
 2053SOL    HW1 7953   2.574   1.962   1.986
 2053SOL    HW2 7954   2.445   1.967   1.886
 2054SOL     OW 7955   2.643   2.126   3.611
 2054SOL    HW1 7956   2.710   2.065   3.654
 2054SOL    HW2 7957   2.570   2.145   3.676
 2055SOL     OW 7958   2.750   3.376   3.057
 2055SOL    HW1 7959   2.727   3.351   2.963
 2055SOL    HW2 7960   2.811   3.307   3.096
 2056SOL     OW 7961   3.213   2.452   3.295
 2056SOL    HW1 7962   3.241   2.409   3.380
 2056SOL    HW2 7963   3.238   2.548   3.296
 2057SOL     OW 7964   2.665   3.264   2.786
 2057SOL    HW1 7965   2.755   3.278   2.744
 2057SOL    HW2 7966   2.594   3.266   2.715
 2058SOL     OW 7967   3.296   3.050   1.903
 2058SOL    HW1 7968   3.328   2.974   1.960
 2058SOL    HW2 7969   3.204   3.077   1.933
 2059SOL     OW 7970   2.797   2.098   2.342
 2059SOL    HW1 7971   2.749   2.139   2.264
 2059SOL    HW2 7972   2.896   2.096   2.323
 2060SOL     OW 7973   2.938   2.545   3.326
 2060SOL    HW1 7974   2.858   2.484   3.329
 2060SOL    HW2 7975   3.019   2.492   3.302
 2061SOL     OW 7976   3.089   3.432   2.655
 2061SOL    HW1 7977   3.110   3.506   2.590
 2061SOL    HW2 7978   3.157   3.432   2.728
 2062SOL     OW 7979   2.321   3.014   2.603
 2062SOL    HW1 7980   2.250   2.987   2.668
 2062SOL    HW2 7981   2.295   2.986   2.510
 2063SOL     OW 7982   2.894   2.411   1.878
 2063SOL    HW1 7983   2.853   2.493   1.839
 2063SOL    HW2 7984   2.958   2.437   1.951
 2064SOL     OW 7985   1.940   2.418   3.248
 2064SOL    HW1 7986   2.032   2.417   3.207
 2064SOL    HW2 7987   1.934   2.492   3.315
 2065SOL     OW 7988   2.423   2.084   3.009
 2065SOL    HW1 7989   2.461   2.000   3.046
 2065SOL    HW2 7990   2.335   2.103   3.053
 2066SOL     OW 7991   2.879   1.901   2.615
 2066SOL    HW1 7992   2.807   1.906   2.546
 2066SOL    HW2 7993   2.855   1.832   2.684
 2067SOL     OW 7994   3.291   3.035   2.729
 2067SOL    HW1 7995   3.236   2.951   2.722
 2067SOL    HW2 7996   3.317   3.064   2.637
 2068SOL     OW 7997   3.328   2.452   2.854
 2068SOL    HW1 7998   3.298   2.357   2.861
 2068SOL    HW2 7999   3.401   2.468   2.920
 2069SOL     OW 8000   3.719   2.695   2.239
 2069SOL    HW1 8001   3.761   2.631   2.303
 2069SOL    HW2 8002   3.681   2.644   2.161
 2070SOL     OW 8003   2.350   3.247   2.036
 2070SOL    HW1 8004   2.263   3.232   2.083
 2070SOL    HW2 8005   2.333   3.273   1.941
 2071SOL     OW 8006   3.252   2.437   1.940
 2071SOL    HW1 8007   3.198   2.416   2.021
 2071SOL    HW2 8008   3.343   2.396   1.949
 2072SOL     OW 8009   3.616   3.085   3.450
 2072SOL    HW1 8010   3.707   3.046   3.437
 2072SOL    HW2 8011   3.624   3.181   3.474
 2073SOL     OW 8012   2.926   3.209   3.202
 2073SOL    HW1 8013   2.846   3.186   3.257
 2073SOL    HW2 8014   3.009   3.183   3.251
 2074SOL     OW 8015   3.454   3.491   3.487
 2074SOL    HW1 8016   3.481   3.525   3.397
 2074SOL    HW2 8017   3.533   3.453   3.533
 2075SOL     OW 8018   2.973   3.057   2.962
 2075SOL    HW1 8019   2.933   3.101   3.043
 2075SOL    HW2 8020   2.932   3.094   2.879
 2076SOL     OW 8021   3.500   2.961   2.941
 2076SOL    HW1 8022   3.505   3.042   3.000
 2076SOL    HW2 8023   3.414   2.963   2.890
 2077SOL     OW 8024   2.777   1.951   3.264
 2077SOL    HW1 8025   2.802   1.931   3.169
 2077SOL    HW2 8026   2.849   2.007   3.306
 2078SOL     OW 8027   2.842   2.978   3.581
 2078SOL    HW1 8028   2.743   2.984   3.591
 2078SOL    HW2 8029   2.865   2.898   3.525
 2079SOL     OW 8030   2.272   2.675   3.113
 2079SOL    HW1 8031   2.358   2.687   3.163
 2079SOL    HW2 8032   2.230   2.588   3.140
 2080SOL     OW 8033   3.136   2.248   3.124
 2080SOL    HW1 8034   3.157   2.322   3.188
 2080SOL    HW2 8035   3.047   2.265   3.081
 2081SOL     OW 8036   1.926   3.426   3.193
 2081SOL    HW1 8037   1.880   3.508   3.159
 2081SOL    HW2 8038   2.024   3.445   3.202
 2082SOL     OW 8039   2.229   2.962   2.363
 2082SOL    HW1 8040   2.222   3.045   2.307
 2082SOL    HW2 8041   2.233   2.882   2.303
 2083SOL     OW 8042   3.114   3.210   2.250
 2083SOL    HW1 8043   3.164   3.287   2.290
 2083SOL    HW2 8044   3.019   3.212   2.282
 2084SOL     OW 8045   2.216   3.372   3.191
 2084SOL    HW1 8046   2.195   3.328   3.104
 2084SOL    HW2 8047   2.313   3.398   3.194
 2085SOL     OW 8048   2.264   2.613   3.460
 2085SOL    HW1 8049   2.332   2.668   3.413
 2085SOL    HW2 8050   2.304   2.525   3.487
 2086SOL     OW 8051   3.449   2.641   3.532
 2086SOL    HW1 8052   3.357   2.679   3.527
 2086SOL    HW2 8053   3.509   2.688   3.467
 2087SOL     OW 8054   2.875   1.967   3.632
 2087SOL    HW1 8055   2.881   2.052   3.580
 2087SOL    HW2 8056   2.907   1.891   3.575
 2088SOL     OW 8057   2.366   1.912   3.602
 2088SOL    HW1 8058   2.324   1.855   3.532
 2088SOL    HW2 8059   2.300   1.981   3.634
 2089SOL     OW 8060   2.435   2.732   2.891
 2089SOL    HW1 8061   2.479   2.821   2.882
 2089SOL    HW2 8062   2.372   2.732   2.968
 2090SOL     OW 8063   3.222   2.724   2.907
 2090SOL    HW1 8064   3.147   2.724   2.841
 2090SOL    HW2 8065   3.259   2.632   2.916
 2091SOL     OW 8066   3.071   2.387   2.137
 2091SOL    HW1 8067   3.084   2.303   2.191
 2091SOL    HW2 8068   3.042   2.461   2.197
 2092SOL     OW 8069   2.169   2.075   3.093
 2092SOL    HW1 8070   2.146   2.112   3.183
 2092SOL    HW2 8071   2.139   1.980   3.087
 2093SOL     OW 8072   1.899   3.172   3.144
 2093SOL    HW1 8073   1.952   3.123   3.212
 2093SOL    HW2 8074   1.921   3.270   3.149
 2094SOL     OW 8075   3.590   2.797   3.716
 2094SOL    HW1 8076   3.544   2.790   3.627
 2094SOL    HW2 8077   3.528   2.841   3.782
 2095SOL     OW 8078   2.169   1.925   2.480
 2095SOL    HW1 8079   2.158   2.019   2.513
 2095SOL    HW2 8080   2.164   1.862   2.557
 2096SOL     OW 8081   2.885   2.628   2.828
 2096SOL    HW1 8082   2.900   2.649   2.924
 2096SOL    HW2 8083   2.855   2.533   2.819
 2097SOL     OW 8084   2.842   3.435   3.562
 2097SOL    HW1 8085   2.822   3.479   3.474
 2097SOL    HW2 8086   2.881   3.344   3.546
 2098SOL     OW 8087   3.721   3.380   3.467
 2098SOL    HW1 8088   3.735   3.407   3.372
 2098SOL    HW2 8089   3.804   3.402   3.520
 2099SOL     OW 8090   2.212   2.760   3.666
 2099SOL    HW1 8091   2.288   2.804   3.714
 2099SOL    HW2 8092   2.247   2.713   3.584
 2100SOL     OW 8093   3.402   2.136   1.987
 2100SOL    HW1 8094   3.341   2.061   2.010
 2100SOL    HW2 8095   3.424   2.188   2.070
 2101SOL     OW 8096   3.165   2.700   1.904
 2101SOL    HW1 8097   3.199   2.607   1.919
 2101SOL    HW2 8098   3.183   2.727   1.809
 2102SOL     OW 8099   2.930   3.195   2.711
 2102SOL    HW1 8100   2.937   3.111   2.656
 2102SOL    HW2 8101   2.992   3.264   2.675
 2103SOL     OW 8102   2.181   2.672   2.811
 2103SOL    HW1 8103   2.274   2.708   2.816
 2103SOL    HW2 8104   2.175   2.587   2.863
 2104SOL     OW 8105   2.201   2.371   2.868
 2104SOL    HW1 8106   2.149   2.288   2.851
 2104SOL    HW2 8107   2.278   2.376   2.804
 2105SOL     OW 8108   3.000   2.242   3.540
 2105SOL    HW1 8109   2.955   2.305   3.604
 2105SOL    HW2 8110   3.093   2.273   3.523
 2106SOL     OW 8111   3.022   2.069   3.339
 2106SOL    HW1 8112   3.022   2.133   3.416
 2106SOL    HW2 8113   3.050   2.117   3.256
 2107SOL     OW 8114   1.870   3.188   2.062
 2107SOL    HW1 8115   1.777   3.209   2.031
 2107SOL    HW2 8116   1.880   3.089   2.075
 2108SOL     OW 8117   1.950   3.663   2.789
 2108SOL    HW1 8118   1.908   3.577   2.762
 2108SOL    HW2 8119   2.044   3.666   2.755
 2109SOL     OW 8120   2.366   3.430   2.772
 2109SOL    HW1 8121   2.432   3.504   2.781
 2109SOL    HW2 8122   2.410   3.351   2.730
 2110SOL     OW 8123   2.864   2.658   3.100
 2110SOL    HW1 8124   2.905   2.626   3.186
 2110SOL    HW2 8125   2.768   2.631   3.097
 2111SOL     OW 8126   1.902   2.406   2.976
 2111SOL    HW1 8127   1.987   2.373   2.935
 2111SOL    HW2 8128   1.915   2.421   3.074
 2112SOL     OW 8129   2.051   2.382   3.584
 2112SOL    HW1 8130   2.110   2.342   3.514
 2112SOL    HW2 8131   1.993   2.453   3.543
 2113SOL     OW 8132   3.231   2.812   3.522
 2113SOL    HW1 8133   3.270   2.901   3.542
 2113SOL    HW2 8134   3.241   2.792   3.425
 2114SOL     OW 8135   2.677   2.434   2.187
 2114SOL    HW1 8136   2.684   2.345   2.141
 2114SOL    HW2 8137   2.583   2.468   2.179
 2115SOL     OW 8138   3.519   2.466   3.068
 2115SOL    HW1 8139   3.481   2.397   3.130
 2115SOL    HW2 8140   3.601   2.430   3.024
 2116SOL     OW 8141   2.114   3.426   3.606
 2116SOL    HW1 8142   2.084   3.483   3.682
 2116SOL    HW2 8143   2.107   3.329   3.632
 2117SOL     OW 8144   2.533   2.326   3.131
 2117SOL    HW1 8145   2.499   2.237   3.101
 2117SOL    HW2 8146   2.559   2.380   3.051
 2118SOL     OW 8147   2.792   3.540   3.327
 2118SOL    HW1 8148   2.768   3.522   3.232
 2118SOL    HW2 8149   2.822   3.634   3.337
 2119SOL     OW 8150   2.335   2.362   2.053
 2119SOL    HW1 8151   2.396   2.442   2.057
 2119SOL    HW2 8152   2.240   2.393   2.060
 2120SOL     OW 8153   2.021   2.999   3.328
 2120SOL    HW1 8154   2.043   2.938   3.404
 2120SOL    HW2 8155   2.031   2.950   3.242
 2121SOL     OW 8156   3.209   2.921   3.096
 2121SOL    HW1 8157   3.233   2.858   3.022
 2121SOL    HW2 8158   3.119   2.961   3.078
 2122SOL     OW 8159   3.164   2.717   2.171
 2122SOL    HW1 8160   3.078   2.686   2.213
 2122SOL    HW2 8161   3.160   2.703   2.072
 2123SOL     OW 8162   3.621   3.609   3.016
 2123SOL    HW1 8163   3.682   3.639   2.943
 2123SOL    HW2 8164   3.583   3.520   2.994
 2124SOL     OW 8165   1.945   3.120   2.884
 2124SOL    HW1 8166   1.940   3.119   2.984
 2124SOL    HW2 8167   1.862   3.079   2.846
 2125SOL     OW 8168   2.550   3.524   3.578
 2125SOL    HW1 8169   2.494   3.605   3.587
 2125SOL    HW2 8170   2.602   3.528   3.492
 2126SOL     OW 8171   3.250   3.435   2.339
 2126SOL    HW1 8172   3.317   3.447   2.265
 2126SOL    HW2 8173   3.210   3.524   2.362
 2127SOL     OW 8174   1.992   3.656   3.713
 2127SOL    HW1 8175   1.951   3.582   3.766
 2127SOL    HW2 8176   2.056   3.707   3.771
 2128SOL     OW 8177   3.142   2.789   2.534
 2128SOL    HW1 8178   3.202   2.708   2.536
 2128SOL    HW2 8179   3.182   2.858   2.474
 2129SOL     OW 8180   2.692   3.135   3.284
 2129SOL    HW1 8181   2.687   3.168   3.379
 2129SOL    HW2 8182   2.606   3.154   3.238
 2130SOL     OW 8183   3.512   3.582   3.256
 2130SOL    HW1 8184   3.565   3.592   3.172
 2130SOL    HW2 8185   3.485   3.672   3.290
 2131SOL     OW 8186   3.703   2.037   2.825
 2131SOL    HW1 8187   3.742   1.952   2.789
 2131SOL    HW2 8188   3.605   2.039   2.806
 2132SOL     OW 8189   2.684   2.864   3.234
 2132SOL    HW1 8190   2.724   2.863   3.142
 2132SOL    HW2 8191   2.694   2.956   3.274
 2133SOL     OW 8192   2.778   2.772   2.153
 2133SOL    HW1 8193   2.841   2.810   2.085
 2133SOL    HW2 8194   2.818   2.689   2.192
 2134SOL     OW 8195   3.366   3.469   1.906
 2134SOL    HW1 8196   3.274   3.506   1.913
 2134SOL    HW2 8197   3.404   3.489   1.816
 2135SOL     OW 8198   2.234   3.150   3.352
 2135SOL    HW1 8199   2.221   3.243   3.318
 2135SOL    HW2 8200   2.150   3.098   3.339
 2136SOL     OW 8201   3.476   3.154   3.151
 2136SOL    HW1 8202   3.536   3.157   3.231
 2136SOL    HW2 8203   3.401   3.218   3.164
 2137SOL     OW 8204   2.901   2.960   2.558
 2137SOL    HW1 8205   2.831   2.913   2.612
 2137SOL    HW2 8206   2.960   2.892   2.515
 2138SOL     OW 8207   2.876   2.098   2.833
 2138SOL    HW1 8208   2.868   2.062   2.740
 2138SOL    HW2 8209   2.874   2.022   2.898
 2139SOL     OW 8210   3.571   2.247   3.243
 2139SOL    HW1 8211   3.644   2.316   3.247
 2139SOL    HW2 8212   3.599   2.172   3.184
 2140SOL     OW 8213   2.117   3.210   2.152
 2140SOL    HW1 8214   2.021   3.211   2.125
 2140SOL    HW2 8215   2.129   3.263   2.236
 2141SOL     OW 8216   1.967   2.875   3.588
 2141SOL    HW1 8217   1.890   2.842   3.642
 2141SOL    HW2 8218   2.052   2.845   3.630
 2142SOL     OW 8219   2.534   2.065   3.351
 2142SOL    HW1 8220   2.624   2.049   3.311
 2142SOL    HW2 8221   2.542   2.070   3.450
 2143SOL     OW 8222   1.937   2.207   1.895
 2143SOL    HW1 8223   1.845   2.179   1.866
 2143SOL    HW2 8224   1.968   2.284   1.839
 2144SOL     OW 8225   3.302   2.718   3.260
 2144SOL    HW1 8226   3.245   2.770   3.197
 2144SOL    HW2 8227   3.398   2.730   3.236
 2145SOL     OW 8228   3.045   3.197   1.981
 2145SOL    HW1 8229   2.946   3.186   1.983
 2145SOL    HW2 8230   3.079   3.212   2.074
 2146SOL     OW 8231   2.475   2.704   3.293
 2146SOL    HW1 8232   2.531   2.785   3.276
 2146SOL    HW2 8233   2.534   2.624   3.296
 2147SOL     OW 8234   2.578   2.427   3.570
 2147SOL    HW1 8235   2.597   2.492   3.644
 2147SOL    HW2 8236   2.638   2.347   3.579
 2148SOL     OW 8237   3.312   3.082   3.495
 2148SOL    HW1 8238   3.303   3.072   3.594
 2148SOL    HW2 8239   3.408   3.075   3.469
 2149SOL     OW 8240   2.252   3.603   3.422
 2149SOL    HW1 8241   2.161   3.644   3.420
 2149SOL    HW2 8242   2.245   3.509   3.454
 2150SOL     OW 8243   3.536   2.745   3.116
 2150SOL    HW1 8244   3.509   2.656   3.079
 2150SOL    HW2 8245   3.537   2.813   3.043
 2151SOL     OW 8246   3.087   2.187   2.311
 2151SOL    HW1 8247   3.152   2.113   2.300
 2151SOL    HW2 8248   3.107   2.237   2.395
 2152SOL     OW 8249   3.639   2.204   3.504
 2152SOL    HW1 8250   3.622   2.235   3.410
 2152SOL    HW2 8251   3.555   2.167   3.542
 2153SOL     OW 8252   3.592   2.796   3.379
 2153SOL    HW1 8253   3.630   2.887   3.394
 2153SOL    HW2 8254   3.584   2.779   3.280
 2154SOL     OW 8255   2.945   2.846   1.949
 2154SOL    HW1 8256   2.922   2.899   1.867
 2154SOL    HW2 8257   3.026   2.790   1.930
 2155SOL     OW 8258   2.083   3.176   3.706
 2155SOL    HW1 8259   2.018   3.103   3.685
 2155SOL    HW2 8260   2.087   3.190   3.804
 2156SOL     OW 8261   1.941   3.102   2.515
 2156SOL    HW1 8262   1.940   3.055   2.603
 2156SOL    HW2 8263   2.023   3.074   2.464
 2157SOL     OW 8264   2.534   3.253   3.486
 2157SOL    HW1 8265   2.456   3.203   3.524
 2157SOL    HW2 8266   2.531   3.348   3.517
 2158SOL     OW 8267   3.686   2.054   3.089
 2158SOL    HW1 8268   3.682   1.964   3.133
 2158SOL    HW2 8269   3.689   2.043   2.990
 2159SOL     OW 8270   2.179   2.409   3.142
 2159SOL    HW1 8271   2.217   2.350   3.214
 2159SOL    HW2 8272   2.219   2.383   3.054
 2160SOL     OW 8273   3.286   2.076   2.974
 2160SOL    HW1 8274   3.338   2.011   3.029
 2160SOL    HW2 8275   3.237   2.139   3.035
 2161SOL     OW 8276   2.863   1.896   3.016
 2161SOL    HW1 8277   2.800   1.824   2.985
 2161SOL    HW2 8278   2.956   1.860   3.016
 2162SOL     OW 8279   2.632   3.192   2.163
 2162SOL    HW1 8280   2.586   3.105   2.180
 2162SOL    HW2 8281   2.723   3.189   2.204
 2163SOL     OW 8282   2.480   3.429   3.146
 2163SOL    HW1 8283   2.475   3.511   3.203
 2163SOL    HW2 8284   2.569   3.426   3.101
 2164SOL     OW 8285   3.214   1.914   2.030
 2164SOL    HW1 8286   3.249   1.873   1.946
 2164SOL    HW2 8287   3.124   1.876   2.050
 2165SOL     OW 8288   3.455   2.083   2.744
 2165SOL    HW1 8289   3.371   2.082   2.798
 2165SOL    HW2 8290   3.457   2.166   2.688
 2166SOL     OW 8291   1.901   2.939   2.162
 2166SOL    HW1 8292   2.000   2.928   2.153
 2166SOL    HW2 8293   1.861   2.853   2.194
 2167SOL     OW 8294   2.737   3.508   2.199
 2167SOL    HW1 8295   2.660   3.473   2.145
 2167SOL    HW2 8296   2.705   3.579   2.261
 2168SOL     OW 8297   2.092   2.490   3.837
 2168SOL    HW1 8298   1.999   2.488   3.874
 2168SOL    HW2 8299   2.093   2.451   3.745
 2169SOL     OW 8300   2.087   2.137   4.720
 2169SOL    HW1 8301   2.122   2.120   4.812
 2169SOL    HW2 8302   1.999   2.092   4.708
 2170SOL     OW 8303   1.881   2.230   4.371
 2170SOL    HW1 8304   1.799   2.273   4.410
 2170SOL    HW2 8305   1.853   2.157   4.308
 2171SOL     OW 8306   2.431   3.137   4.889
 2171SOL    HW1 8307   2.338   3.130   4.852
 2171SOL    HW2 8308   2.442   3.226   4.933
 2172SOL     OW 8309   3.417   3.373   4.427
 2172SOL    HW1 8310   3.360   3.357   4.508
 2172SOL    HW2 8311   3.358   3.383   4.347
 2173SOL     OW 8312   2.997   2.565   4.441
 2173SOL    HW1 8313   3.054   2.643   4.416
 2173SOL    HW2 8314   2.937   2.591   4.517
 2174SOL     OW 8315   3.617   2.469   3.955
 2174SOL    HW1 8316   3.605   2.456   3.856
 2174SOL    HW2 8317   3.587   2.388   4.004
 2175SOL     OW 8318   2.630   3.006   4.747
 2175SOL    HW1 8319   2.552   3.023   4.807
 2175SOL    HW2 8320   2.664   3.093   4.711
 2176SOL     OW 8321   2.547   2.874   4.389
 2176SOL    HW1 8322   2.616   2.858   4.459
 2176SOL    HW2 8323   2.474   2.931   4.427
 2177SOL     OW 8324   2.197   3.297   4.785
 2177SOL    HW1 8325   2.119   3.266   4.732
 2177SOL    HW2 8326   2.255   3.355   4.728
 2178SOL     OW 8327   3.465   2.309   4.461
 2178SOL    HW1 8328   3.391   2.355   4.411
 2178SOL    HW2 8329   3.516   2.377   4.514
 2179SOL     OW 8330   2.093   3.575   4.207
 2179SOL    HW1 8331   2.127   3.652   4.261
 2179SOL    HW2 8332   2.137   3.575   4.117
 2180SOL     OW 8333   2.092   3.296   4.262
 2180SOL    HW1 8334   2.066   3.392   4.262
 2180SOL    HW2 8335   2.021   3.242   4.307
 2181SOL     OW 8336   2.102   2.953   4.610
 2181SOL    HW1 8337   2.116   2.869   4.662
 2181SOL    HW2 8338   2.047   3.017   4.665
 2182SOL     OW 8339   2.482   3.648   5.163
 2182SOL    HW1 8340   2.390   3.631   5.198
 2182SOL    HW2 8341   2.510   3.740   5.189
 2183SOL     OW 8342   2.468   2.826   3.847
 2183SOL    HW1 8343   2.475   2.910   3.793
 2183SOL    HW2 8344   2.514   2.839   3.935
 2184SOL     OW 8345   1.984   2.505   4.287
 2184SOL    HW1 8346   1.939   2.417   4.304
 2184SOL    HW2 8347   1.983   2.559   4.371
 2185SOL     OW 8348   3.704   3.629   4.083
 2185SOL    HW1 8349   3.758   3.600   4.163
 2185SOL    HW2 8350   3.734   3.719   4.054
 2186SOL     OW 8351   1.889   3.458   3.841
 2186SOL    HW1 8352   1.870   3.362   3.862
 2186SOL    HW2 8353   1.856   3.516   3.916
 2187SOL     OW 8354   2.475   3.227   4.450
 2187SOL    HW1 8355   2.426   3.140   4.459
 2187SOL    HW2 8356   2.452   3.270   4.363
 2188SOL     OW 8357   2.671   1.866   4.226
 2188SOL    HW1 8358   2.711   1.957   4.217
 2188SOL    HW2 8359   2.571   1.874   4.232
 2189SOL     OW 8360   2.059   2.838   4.988
 2189SOL    HW1 8361   2.148   2.793   4.974
 2189SOL    HW2 8362   1.986   2.773   4.969
 2190SOL     OW 8363   3.387   2.861   3.914
 2190SOL    HW1 8364   3.324   2.785   3.927
 2190SOL    HW2 8365   3.435   2.879   4.000
 2191SOL     OW 8366   3.529   3.576   4.296
 2191SOL    HW1 8367   3.488   3.553   4.208
 2191SOL    HW2 8368   3.511   3.502   4.361
 2192SOL     OW 8369   2.460   2.591   3.994
 2192SOL    HW1 8370   2.484   2.660   3.926
 2192SOL    HW2 8371   2.382   2.624   4.048
 2193SOL     OW 8372   3.143   2.207   4.668
 2193SOL    HW1 8373   3.057   2.157   4.655
 2193SOL    HW2 8374   3.205   2.153   4.724
 2194SOL     OW 8375   3.438   3.524   4.031
 2194SOL    HW1 8376   3.527   3.570   4.034
 2194SOL    HW2 8377   3.417   3.500   3.936
 2195SOL     OW 8378   2.853   2.272   4.966
 2195SOL    HW1 8379   2.776   2.306   5.020
 2195SOL    HW2 8380   2.819   2.221   4.887
 2196SOL     OW 8381   2.903   2.563   4.153
 2196SOL    HW1 8382   2.929   2.559   4.249
 2196SOL    HW2 8383   2.818   2.512   4.139
 2197SOL     OW 8384   1.938   2.673   4.513
 2197SOL    HW1 8385   2.037   2.661   4.522
 2197SOL    HW2 8386   1.914   2.768   4.534
 2198SOL     OW 8387   2.727   2.210   3.919
 2198SOL    HW1 8388   2.786   2.273   3.870
 2198SOL    HW2 8389   2.746   2.116   3.890
 2199SOL     OW 8390   2.412   2.058   4.609
 2199SOL    HW1 8391   2.407   2.053   4.709
 2199SOL    HW2 8392   2.414   2.154   4.580
 2200SOL     OW 8393   2.870   3.318   4.201
 2200SOL    HW1 8394   2.824   3.390   4.149
 2200SOL    HW2 8395   2.866   3.338   4.299
 2201SOL     OW 8396   2.213   3.663   4.577
 2201SOL    HW1 8397   2.263   3.577   4.583
 2201SOL    HW2 8398   2.278   3.740   4.574
 2202SOL     OW 8399   2.183   2.805   3.966
 2202SOL    HW1 8400   2.265   2.844   3.924
 2202SOL    HW2 8401   2.156   2.723   3.917
 2203SOL     OW 8402   3.320   2.597   4.452
 2203SOL    HW1 8403   3.315   2.532   4.527
 2203SOL    HW2 8404   3.400   2.656   4.465
 2204SOL     OW 8405   2.973   3.638   3.961
 2204SOL    HW1 8406   2.913   3.576   4.011
 2204SOL    HW2 8407   3.004   3.594   3.876
 2205SOL     OW 8408   3.494   3.239   3.805
 2205SOL    HW1 8409   3.462   3.333   3.795
 2205SOL    HW2 8410   3.418   3.176   3.793
 2206SOL     OW 8411   2.326   3.605   4.047
 2206SOL    HW1 8412   2.359   3.644   4.133
 2206SOL    HW2 8413   2.402   3.598   3.982
 2207SOL     OW 8414   3.262   1.969   4.150
 2207SOL    HW1 8415   3.238   1.932   4.060
 2207SOL    HW2 8416   3.361   1.985   4.154
 2208SOL     OW 8417   2.111   3.647   4.965
 2208SOL    HW1 8418   2.168   3.582   5.015
 2208SOL    HW2 8419   2.095   3.614   4.872
 2209SOL     OW 8420   2.802   3.560   4.628
 2209SOL    HW1 8421   2.882   3.503   4.649
 2209SOL    HW2 8422   2.753   3.520   4.551
 2210SOL     OW 8423   2.244   2.562   4.204
 2210SOL    HW1 8424   2.289   2.472   4.201
 2210SOL    HW2 8425   2.150   2.551   4.237
 2211SOL     OW 8426   2.476   1.984   3.841
 2211SOL    HW1 8427   2.574   1.962   3.848
 2211SOL    HW2 8428   2.445   1.967   3.748
 2212SOL     OW 8429   2.665   3.264   4.648
 2212SOL    HW1 8430   2.755   3.278   4.606
 2212SOL    HW2 8431   2.594   3.266   4.577
 2213SOL     OW 8432   2.784   2.365   4.623
 2213SOL    HW1 8433   2.759   2.356   4.527
 2213SOL    HW2 8434   2.832   2.283   4.654
 2214SOL     OW 8435   2.401   1.926   4.236
 2214SOL    HW1 8436   2.320   1.927   4.294
 2214SOL    HW2 8437   2.404   2.009   4.181
 2215SOL     OW 8438   3.296   3.050   3.765
 2215SOL    HW1 8439   3.328   2.974   3.822
 2215SOL    HW2 8440   3.204   3.077   3.795
 2216SOL     OW 8441   2.159   1.897   3.895
 2216SOL    HW1 8442   2.208   1.981   3.874
 2216SOL    HW2 8443   2.221   1.832   3.940
 2217SOL     OW 8444   2.797   2.098   4.204
 2217SOL    HW1 8445   2.749   2.139   4.126
 2217SOL    HW2 8446   2.896   2.096   4.185
 2218SOL     OW 8447   2.321   3.014   4.465
 2218SOL    HW1 8448   2.250   2.987   4.530
 2218SOL    HW2 8449   2.295   2.986   4.372
 2219SOL     OW 8450   3.133   3.659   4.315
 2219SOL    HW1 8451   3.177   3.723   4.251
 2219SOL    HW2 8452   3.083   3.711   4.385
 2220SOL     OW 8453   2.894   2.411   3.740
 2220SOL    HW1 8454   2.853   2.493   3.701
 2220SOL    HW2 8455   2.958   2.437   3.813
 2221SOL     OW 8456   2.423   2.084   4.871
 2221SOL    HW1 8457   2.461   2.000   4.908
 2221SOL    HW2 8458   2.335   2.103   4.915
 2222SOL     OW 8459   2.728   2.316   4.366
 2222SOL    HW1 8460   2.696   2.388   4.304
 2222SOL    HW2 8461   2.752   2.235   4.313
 2223SOL     OW 8462   2.879   1.901   4.477
 2223SOL    HW1 8463   2.807   1.906   4.408
 2223SOL    HW2 8464   2.855   1.832   4.546
 2224SOL     OW 8465   3.328   2.452   4.716
 2224SOL    HW1 8466   3.298   2.357   4.723
 2224SOL    HW2 8467   3.401   2.468   4.782
 2225SOL     OW 8468   3.719   2.695   4.101
 2225SOL    HW1 8469   3.761   2.631   4.165
 2225SOL    HW2 8470   3.681   2.644   4.023
 2226SOL     OW 8471   2.350   3.247   3.898
 2226SOL    HW1 8472   2.263   3.232   3.945
 2226SOL    HW2 8473   2.333   3.273   3.803
 2227SOL     OW 8474   3.252   2.437   3.802
 2227SOL    HW1 8475   3.198   2.416   3.883
 2227SOL    HW2 8476   3.343   2.396   3.811
 2228SOL     OW 8477   2.389   2.118   4.052
 2228SOL    HW1 8478   2.416   2.059   3.977
 2228SOL    HW2 8479   2.389   2.213   4.021
 2229SOL     OW 8480   2.973   3.057   4.824
 2229SOL    HW1 8481   2.933   3.101   4.905
 2229SOL    HW2 8482   2.932   3.094   4.741
 2230SOL     OW 8483   2.567   2.912   4.092
 2230SOL    HW1 8484   2.553   2.919   4.191
 2230SOL    HW2 8485   2.651   2.861   4.074
 2231SOL     OW 8486   2.272   2.675   4.975
 2231SOL    HW1 8487   2.358   2.687   5.025
 2231SOL    HW2 8488   2.230   2.588   5.002
 2232SOL     OW 8489   3.136   2.248   4.986
 2232SOL    HW1 8490   3.157   2.322   5.050
 2232SOL    HW2 8491   3.047   2.265   4.943
 2233SOL     OW 8492   2.229   2.962   4.225
 2233SOL    HW1 8493   2.222   3.045   4.169
 2233SOL    HW2 8494   2.233   2.882   4.165
 2234SOL     OW 8495   2.428   2.399   4.589
 2234SOL    HW1 8496   2.440   2.465   4.515
 2234SOL    HW2 8497   2.474   2.433   4.672
 2235SOL     OW 8498   3.444   2.501   4.196
 2235SOL    HW1 8499   3.413   2.562   4.269
 2235SOL    HW2 8500   3.494   2.553   4.127
 2236SOL     OW 8501   2.216   3.372   5.053
 2236SOL    HW1 8502   2.195   3.328   4.966
 2236SOL    HW2 8503   2.313   3.398   5.056
 2237SOL     OW 8504   2.435   2.732   4.753
 2237SOL    HW1 8505   2.479   2.821   4.744
 2237SOL    HW2 8506   2.372   2.732   4.830
 2238SOL     OW 8507   3.222   2.724   4.769
 2238SOL    HW1 8508   3.147   2.724   4.703
 2238SOL    HW2 8509   3.259   2.632   4.778
 2239SOL     OW 8510   3.071   2.387   3.999
 2239SOL    HW1 8511   3.084   2.303   4.053
 2239SOL    HW2 8512   3.042   2.461   4.059
 2240SOL     OW 8513   2.169   2.075   4.955
 2240SOL    HW1 8514   2.146   2.112   5.045
 2240SOL    HW2 8515   2.139   1.980   4.949
 2241SOL     OW 8516   2.594   2.496   4.788
 2241SOL    HW1 8517   2.653   2.470   4.712
 2241SOL    HW2 8518   2.566   2.592   4.777
 2242SOL     OW 8519   2.169   1.925   4.342
 2242SOL    HW1 8520   2.158   2.019   4.375
 2242SOL    HW2 8521   2.164   1.862   4.419
 2243SOL     OW 8522   3.484   2.229   4.098
 2243SOL    HW1 8523   3.486   2.153   4.162
 2243SOL    HW2 8524   3.436   2.306   4.138
 2244SOL     OW 8525   2.885   2.628   4.690
 2244SOL    HW1 8526   2.900   2.649   4.786
 2244SOL    HW2 8527   2.855   2.533   4.681
 2245SOL     OW 8528   3.402   2.136   3.849
 2245SOL    HW1 8529   3.341   2.061   3.872
 2245SOL    HW2 8530   3.424   2.188   3.932
 2246SOL     OW 8531   3.165   2.700   3.766
 2246SOL    HW1 8532   3.199   2.607   3.781
 2246SOL    HW2 8533   3.183   2.727   3.671
 2247SOL     OW 8534   2.181   2.672   4.673
 2247SOL    HW1 8535   2.274   2.708   4.678
 2247SOL    HW2 8536   2.175   2.587   4.725
 2248SOL     OW 8537   2.201   2.371   4.730
 2248SOL    HW1 8538   2.149   2.288   4.713
 2248SOL    HW2 8539   2.278   2.376   4.666
 2249SOL     OW 8540   3.022   2.069   5.201
 2249SOL    HW1 8541   3.022   2.133   5.278
 2249SOL    HW2 8542   3.050   2.117   5.118
 2250SOL     OW 8543   1.870   3.188   3.924
 2250SOL    HW1 8544   1.777   3.209   3.893
 2250SOL    HW2 8545   1.880   3.089   3.937
 2251SOL     OW 8546   1.950   3.663   4.651
 2251SOL    HW1 8547   1.908   3.577   4.624
 2251SOL    HW2 8548   2.044   3.666   4.617
 2252SOL     OW 8549   2.366   3.430   4.634
 2252SOL    HW1 8550   2.432   3.504   4.643
 2252SOL    HW2 8551   2.410   3.351   4.592
 2253SOL     OW 8552   2.864   2.658   4.962
 2253SOL    HW1 8553   2.905   2.626   5.048
 2253SOL    HW2 8554   2.768   2.631   4.959
 2254SOL     OW 8555   1.902   2.406   4.838
 2254SOL    HW1 8556   1.987   2.373   4.797
 2254SOL    HW2 8557   1.915   2.421   4.936
 2255SOL     OW 8558   2.677   2.434   4.049
 2255SOL    HW1 8559   2.684   2.345   4.003
 2255SOL    HW2 8560   2.583   2.468   4.041
 2256SOL     OW 8561   2.533   2.326   4.993
 2256SOL    HW1 8562   2.499   2.237   4.963
 2256SOL    HW2 8563   2.559   2.380   4.913
 2257SOL     OW 8564   2.335   2.362   3.915
 2257SOL    HW1 8565   2.396   2.442   3.919
 2257SOL    HW2 8566   2.240   2.393   3.922
 2258SOL     OW 8567   3.164   2.717   4.033
 2258SOL    HW1 8568   3.078   2.686   4.075
 2258SOL    HW2 8569   3.160   2.703   3.934
 2259SOL     OW 8570   3.621   3.609   4.878
 2259SOL    HW1 8571   3.682   3.639   4.805
 2259SOL    HW2 8572   3.583   3.520   4.856
 2260SOL     OW 8573   3.114   3.593   4.852
 2260SOL    HW1 8574   3.198   3.598   4.798
 2260SOL    HW2 8575   3.091   3.497   4.870
 2261SOL     OW 8576   1.945   3.120   4.746
 2261SOL    HW1 8577   1.940   3.119   4.846
 2261SOL    HW2 8578   1.862   3.079   4.708
 2262SOL     OW 8579   3.250   3.435   4.201
 2262SOL    HW1 8580   3.317   3.447   4.127
 2262SOL    HW2 8581   3.210   3.524   4.224
 2263SOL     OW 8582   2.534   3.478   3.878
 2263SOL    HW1 8583   2.543   3.488   3.779
 2263SOL    HW2 8584   2.494   3.389   3.899
 2264SOL     OW 8585   3.512   3.582   5.118
 2264SOL    HW1 8586   3.565   3.592   5.034
 2264SOL    HW2 8587   3.485   3.672   5.152
 2265SOL     OW 8588   2.125   2.188   4.444
 2265SOL    HW1 8589   2.046   2.239   4.410
 2265SOL    HW2 8590   2.116   2.173   4.542
 2266SOL     OW 8591   3.056   3.474   3.755
 2266SOL    HW1 8592   3.062   3.381   3.792
 2266SOL    HW2 8593   2.997   3.474   3.675
 2267SOL     OW 8594   2.684   2.864   5.096
 2267SOL    HW1 8595   2.724   2.863   5.004
 2267SOL    HW2 8596   2.694   2.956   5.136
 2268SOL     OW 8597   2.778   2.772   4.015
 2268SOL    HW1 8598   2.841   2.810   3.947
 2268SOL    HW2 8599   2.818   2.689   4.054
 2269SOL     OW 8600   3.366   3.469   3.768
 2269SOL    HW1 8601   3.274   3.506   3.775
 2269SOL    HW2 8602   3.404   3.489   3.678
 2270SOL     OW 8603   2.901   2.960   4.420
 2270SOL    HW1 8604   2.831   2.913   4.474
 2270SOL    HW2 8605   2.960   2.892   4.377
 2271SOL     OW 8606   2.876   2.098   4.695
 2271SOL    HW1 8607   2.868   2.062   4.602
 2271SOL    HW2 8608   2.874   2.022   4.760
 2272SOL     OW 8609   2.452   3.349   4.215
 2272SOL    HW1 8610   2.494   3.291   4.145
 2272SOL    HW2 8611   2.408   3.428   4.171
 2273SOL     OW 8612   2.117   3.210   4.014
 2273SOL    HW1 8613   2.021   3.211   3.987
 2273SOL    HW2 8614   2.129   3.263   4.098
 2274SOL     OW 8615   1.937   2.207   3.757
 2274SOL    HW1 8616   1.845   2.179   3.728
 2274SOL    HW2 8617   1.968   2.284   3.701
 2275SOL     OW 8618   1.934   2.028   4.042
 2275SOL    HW1 8619   1.917   2.111   3.988
 2275SOL    HW2 8620   2.024   1.991   4.020
 2276SOL     OW 8621   3.355   3.629   4.683
 2276SOL    HW1 8622   3.388   3.693   4.614
 2276SOL    HW2 8623   3.421   3.623   4.758
 2277SOL     OW 8624   3.312   3.082   5.357
 2277SOL    HW1 8625   3.303   3.072   5.456
 2277SOL    HW2 8626   3.408   3.075   5.331
 2278SOL     OW 8627   3.087   2.187   4.173
 2278SOL    HW1 8628   3.152   2.113   4.162
 2278SOL    HW2 8629   3.107   2.237   4.257
 2279SOL     OW 8630   2.456   2.607   4.376
 2279SOL    HW1 8631   2.506   2.692   4.357
 2279SOL    HW2 8632   2.368   2.609   4.328
 2280SOL     OW 8633   3.592   2.796   5.241
 2280SOL    HW1 8634   3.630   2.887   5.256
 2280SOL    HW2 8635   3.584   2.779   5.142
 2281SOL     OW 8636   2.721   3.236   3.740
 2281SOL    HW1 8637   2.675   3.251   3.828
 2281SOL    HW2 8638   2.765   3.321   3.710
 2282SOL     OW 8639   2.523   3.652   4.677
 2282SOL    HW1 8640   2.477   3.740   4.664
 2282SOL    HW2 8641   2.622   3.664   4.670
 2283SOL     OW 8642   2.721   2.818   4.585
 2283SOL    HW1 8643   2.775   2.749   4.633
 2283SOL    HW2 8644   2.689   2.887   4.651
 2284SOL     OW 8645   2.945   2.846   3.811
 2284SOL    HW1 8646   2.922   2.899   3.729
 2284SOL    HW2 8647   3.026   2.790   3.792
 2285SOL     OW 8648   3.723   3.431   4.575
 2285SOL    HW1 8649   3.652   3.419   4.505
 2285SOL    HW2 8650   3.724   3.352   4.635
 2286SOL     OW 8651   1.941   3.102   4.377
 2286SOL    HW1 8652   1.940   3.055   4.465
 2286SOL    HW2 8653   2.023   3.074   4.326
 2287SOL     OW 8654   2.290   2.286   4.244
 2287SOL    HW1 8655   2.320   2.214   4.182
 2287SOL    HW2 8656   2.251   2.246   4.327
 2288SOL     OW 8657   3.567   3.349   4.828
 2288SOL    HW1 8658   3.474   3.324   4.801
 2288SOL    HW2 8659   3.593   3.299   4.910
 2289SOL     OW 8660   2.674   3.448   4.411
 2289SOL    HW1 8661   2.706   3.458   4.317
 2289SOL    HW2 8662   2.595   3.386   4.413
 2290SOL     OW 8663   3.286   2.076   4.836
 2290SOL    HW1 8664   3.338   2.011   4.891
 2290SOL    HW2 8665   3.237   2.139   4.897
 2291SOL     OW 8666   2.863   1.896   4.878
 2291SOL    HW1 8667   2.800   1.824   4.847
 2291SOL    HW2 8668   2.956   1.860   4.878
 2292SOL     OW 8669   2.632   3.192   4.025
 2292SOL    HW1 8670   2.586   3.105   4.042
 2292SOL    HW2 8671   2.723   3.189   4.066
 2293SOL     OW 8672   3.214   1.914   3.892
 2293SOL    HW1 8673   3.249   1.873   3.808
 2293SOL    HW2 8674   3.124   1.876   3.912
 2294SOL     OW 8675   3.162   2.315   4.415
 2294SOL    HW1 8676   3.103   2.395   4.419
 2294SOL    HW2 8677   3.177   2.280   4.508
 2295SOL     OW 8678   1.901   2.939   4.024
 2295SOL    HW1 8679   2.000   2.928   4.015
 2295SOL    HW2 8680   1.861   2.853   4.056
 2296SOL     OW 8681   2.737   3.508   4.061
 2296SOL    HW1 8682   2.660   3.473   4.007
 2296SOL    HW2 8683   2.705   3.579   4.123
 2297SOL     OW 8684   2.092   4.352   0.113
 2297SOL    HW1 8685   1.999   4.350   0.150
 2297SOL    HW2 8686   2.093   4.313   0.021
 2298SOL     OW 8687   2.431   4.999   1.165
 2298SOL    HW1 8688   2.338   4.992   1.128
 2298SOL    HW2 8689   2.442   5.088   1.209
 2299SOL     OW 8690   3.417   5.235   0.703
 2299SOL    HW1 8691   3.360   5.219   0.784
 2299SOL    HW2 8692   3.358   5.245   0.623
 2300SOL     OW 8693   2.997   4.427   0.717
 2300SOL    HW1 8694   3.054   4.505   0.692
 2300SOL    HW2 8695   2.937   4.453   0.793
 2301SOL     OW 8696   3.617   4.331   0.231
 2301SOL    HW1 8697   3.605   4.318   0.132
 2301SOL    HW2 8698   3.587   4.250   0.280
 2302SOL     OW 8699   2.630   4.868   1.023
 2302SOL    HW1 8700   2.552   4.885   1.083
 2302SOL    HW2 8701   2.664   4.955   0.987
 2303SOL     OW 8702   2.712   4.522   1.823
 2303SOL    HW1 8703   2.708   4.598   1.888
 2303SOL    HW2 8704   2.734   4.558   1.732
 2304SOL     OW 8705   2.547   4.736   0.665
 2304SOL    HW1 8706   2.616   4.720   0.735
 2304SOL    HW2 8707   2.474   4.793   0.703
 2305SOL     OW 8708   2.548   4.885   1.803
 2305SOL    HW1 8709   2.608   4.964   1.817
 2305SOL    HW2 8710   2.462   4.916   1.762
 2306SOL     OW 8711   2.197   5.159   1.061
 2306SOL    HW1 8712   2.119   5.128   1.008
 2306SOL    HW2 8713   2.255   5.217   1.004
 2307SOL     OW 8714   2.300   4.116   1.499
 2307SOL    HW1 8715   2.382   4.060   1.508
 2307SOL    HW2 8716   2.219   4.058   1.503
 2308SOL     OW 8717   3.465   4.171   0.737
 2308SOL    HW1 8718   3.391   4.217   0.687
 2308SOL    HW2 8719   3.516   4.239   0.790
 2309SOL     OW 8720   2.102   4.815   0.886
 2309SOL    HW1 8721   2.116   4.731   0.938
 2309SOL    HW2 8722   2.047   4.879   0.941
 2310SOL     OW 8723   3.456   3.838   1.480
 2310SOL    HW1 8724   3.438   3.905   1.408
 2310SOL    HW2 8725   3.453   3.884   1.569
 2311SOL     OW 8726   3.551   4.646   0.612
 2311SOL    HW1 8727   3.646   4.617   0.620
 2311SOL    HW2 8728   3.543   4.711   0.537
 2312SOL     OW 8729   3.503   4.832   0.432
 2312SOL    HW1 8730   3.589   4.834   0.380
 2312SOL    HW2 8731   3.517   4.879   0.520
 2313SOL     OW 8732   1.975   4.461   1.597
 2313SOL    HW1 8733   2.063   4.448   1.642
 2313SOL    HW2 8734   1.962   4.558   1.575
 2314SOL     OW 8735   3.155   4.952   1.423
 2314SOL    HW1 8736   3.192   4.879   1.365
 2314SOL    HW2 8737   3.207   4.957   1.508
 2315SOL     OW 8738   2.671   3.728   0.502
 2315SOL    HW1 8739   2.711   3.819   0.493
 2315SOL    HW2 8740   2.571   3.736   0.508
 2316SOL     OW 8741   2.059   4.700   1.264
 2316SOL    HW1 8742   2.148   4.655   1.250
 2316SOL    HW2 8743   1.986   4.635   1.245
 2317SOL     OW 8744   3.387   4.723   0.190
 2317SOL    HW1 8745   3.324   4.647   0.203
 2317SOL    HW2 8746   3.435   4.741   0.276
 2318SOL     OW 8747   3.328   5.141   0.953
 2318SOL    HW1 8748   3.269   5.147   1.033
 2318SOL    HW2 8749   3.313   5.053   0.907
 2319SOL     OW 8750   2.460   4.453   0.270
 2319SOL    HW1 8751   2.484   4.522   0.202
 2319SOL    HW2 8752   2.382   4.486   0.324
 2320SOL     OW 8753   2.669   4.329   1.465
 2320SOL    HW1 8754   2.622   4.326   1.554
 2320SOL    HW2 8755   2.618   4.274   1.399
 2321SOL     OW 8756   3.256   4.193   1.674
 2321SOL    HW1 8757   3.236   4.236   1.762
 2321SOL    HW2 8758   3.334   4.131   1.683
 2322SOL     OW 8759   2.835   4.614   1.572
 2322SOL    HW1 8760   2.881   4.530   1.543
 2322SOL    HW2 8761   2.779   4.648   1.497
 2323SOL     OW 8762   2.853   4.134   1.242
 2323SOL    HW1 8763   2.776   4.168   1.296
 2323SOL    HW2 8764   2.819   4.083   1.163
 2324SOL     OW 8765   2.903   4.425   0.429
 2324SOL    HW1 8766   2.929   4.421   0.525
 2324SOL    HW2 8767   2.818   4.374   0.415
 2325SOL     OW 8768   1.938   4.535   0.789
 2325SOL    HW1 8769   2.037   4.523   0.798
 2325SOL    HW2 8770   1.914   4.630   0.810
 2326SOL     OW 8771   2.727   4.072   0.195
 2326SOL    HW1 8772   2.786   4.135   0.146
 2326SOL    HW2 8773   2.746   3.978   0.166
 2327SOL     OW 8774   3.581   4.309   1.831
 2327SOL    HW1 8775   3.555   4.398   1.795
 2327SOL    HW2 8776   3.579   4.241   1.758
 2328SOL     OW 8777   3.224   4.868   0.545
 2328SOL    HW1 8778   3.307   4.839   0.497
 2328SOL    HW2 8779   3.175   4.935   0.489
 2329SOL     OW 8780   3.657   4.790   0.873
 2329SOL    HW1 8781   3.595   4.775   0.797
 2329SOL    HW2 8782   3.605   4.801   0.958
 2330SOL     OW 8783   2.183   4.667   0.242
 2330SOL    HW1 8784   2.265   4.706   0.200
 2330SOL    HW2 8785   2.156   4.585   0.193
 2331SOL     OW 8786   3.320   4.459   0.728
 2331SOL    HW1 8787   3.315   4.394   0.803
 2331SOL    HW2 8788   3.400   4.518   0.741
 2332SOL     OW 8789   2.064   4.009   1.498
 2332SOL    HW1 8790   1.984   4.069   1.485
 2332SOL    HW2 8791   2.054   3.960   1.584
 2333SOL     OW 8792   3.494   5.101   0.081
 2333SOL    HW1 8793   3.462   5.195   0.071
 2333SOL    HW2 8794   3.418   5.038   0.069
 2334SOL     OW 8795   2.244   4.424   0.480
 2334SOL    HW1 8796   2.289   4.334   0.477
 2334SOL    HW2 8797   2.150   4.413   0.513
 2335SOL     OW 8798   3.409   3.946   1.729
 2335SOL    HW1 8799   3.404   3.983   1.821
 2335SOL    HW2 8800   3.337   3.877   1.717
 2336SOL     OW 8801   2.643   3.988   1.749
 2336SOL    HW1 8802   2.710   3.927   1.792
 2336SOL    HW2 8803   2.570   4.007   1.814
 2337SOL     OW 8804   3.213   4.314   1.433
 2337SOL    HW1 8805   3.241   4.271   1.518
 2337SOL    HW2 8806   3.238   4.410   1.434
 2338SOL     OW 8807   2.665   5.126   0.924
 2338SOL    HW1 8808   2.755   5.140   0.882
 2338SOL    HW2 8809   2.594   5.128   0.853
 2339SOL     OW 8810   2.401   3.788   0.512
 2339SOL    HW1 8811   2.320   3.789   0.570
 2339SOL    HW2 8812   2.404   3.871   0.457
 2340SOL     OW 8813   3.296   4.912   0.041
 2340SOL    HW1 8814   3.328   4.836   0.098
 2340SOL    HW2 8815   3.204   4.939   0.071
 2341SOL     OW 8816   2.797   3.960   0.480
 2341SOL    HW1 8817   2.749   4.001   0.402
 2341SOL    HW2 8818   2.896   3.958   0.461
 2342SOL     OW 8819   2.938   4.407   1.464
 2342SOL    HW1 8820   2.858   4.346   1.467
 2342SOL    HW2 8821   3.019   4.354   1.440
 2343SOL     OW 8822   3.089   5.294   0.793
 2343SOL    HW1 8823   3.110   5.368   0.728
 2343SOL    HW2 8824   3.157   5.294   0.866
 2344SOL     OW 8825   2.894   4.273   0.016
 2344SOL    HW1 8826   2.853   4.355  -0.023
 2344SOL    HW2 8827   2.958   4.299   0.089
 2345SOL     OW 8828   1.940   4.280   1.386
 2345SOL    HW1 8829   2.032   4.279   1.345
 2345SOL    HW2 8830   1.934   4.354   1.453
 2346SOL     OW 8831   2.728   4.178   0.642
 2346SOL    HW1 8832   2.696   4.250   0.580
 2346SOL    HW2 8833   2.752   4.097   0.589
 2347SOL     OW 8834   3.291   4.897   0.867
 2347SOL    HW1 8835   3.236   4.813   0.860
 2347SOL    HW2 8836   3.317   4.926   0.775
 2348SOL     OW 8837   3.719   4.557   0.377
 2348SOL    HW1 8838   3.761   4.493   0.441
 2348SOL    HW2 8839   3.681   4.506   0.299
 2349SOL     OW 8840   3.526   5.004   0.657
 2349SOL    HW1 8841   3.625   5.012   0.671
 2349SOL    HW2 8842   3.481   5.088   0.688
 2350SOL     OW 8843   3.252   4.299   0.078
 2350SOL    HW1 8844   3.198   4.278   0.159
 2350SOL    HW2 8845   3.343   4.258   0.087
 2351SOL     OW 8846   2.389   3.980   0.328
 2351SOL    HW1 8847   2.416   3.921   0.253
 2351SOL    HW2 8848   2.389   4.075   0.297
 2352SOL     OW 8849   3.616   4.947   1.588
 2352SOL    HW1 8850   3.707   4.908   1.575
 2352SOL    HW2 8851   3.624   5.043   1.612
 2353SOL     OW 8852   3.500   4.823   1.079
 2353SOL    HW1 8853   3.505   4.904   1.138
 2353SOL    HW2 8854   3.414   4.825   1.028
 2354SOL     OW 8855   2.777   3.813   1.402
 2354SOL    HW1 8856   2.802   3.793   1.307
 2354SOL    HW2 8857   2.849   3.869   1.444
 2355SOL     OW 8858   2.842   4.840   1.719
 2355SOL    HW1 8859   2.743   4.846   1.729
 2355SOL    HW2 8860   2.865   4.760   1.663
 2356SOL     OW 8861   2.567   4.774   0.368
 2356SOL    HW1 8862   2.553   4.781   0.467
 2356SOL    HW2 8863   2.651   4.723   0.350
 2357SOL     OW 8864   2.272   4.537   1.251
 2357SOL    HW1 8865   2.358   4.549   1.301
 2357SOL    HW2 8866   2.230   4.450   1.278
 2358SOL     OW 8867   3.136   4.110   1.262
 2358SOL    HW1 8868   3.157   4.184   1.326
 2358SOL    HW2 8869   3.047   4.127   1.219
 2359SOL     OW 8870   2.229   4.824   0.501
 2359SOL    HW1 8871   2.222   4.907   0.445
 2359SOL    HW2 8872   2.233   4.744   0.441
 2360SOL     OW 8873   3.444   4.363   0.472
 2360SOL    HW1 8874   3.413   4.424   0.545
 2360SOL    HW2 8875   3.494   4.415   0.403
 2361SOL     OW 8876   2.264   4.475   1.598
 2361SOL    HW1 8877   2.332   4.530   1.551
 2361SOL    HW2 8878   2.304   4.387   1.625
 2362SOL     OW 8879   3.449   4.503   1.670
 2362SOL    HW1 8880   3.357   4.541   1.665
 2362SOL    HW2 8881   3.509   4.550   1.605
 2363SOL     OW 8882   2.875   3.829   1.770
 2363SOL    HW1 8883   2.881   3.914   1.718
 2363SOL    HW2 8884   2.907   3.753   1.713
 2364SOL     OW 8885   2.435   4.594   1.029
 2364SOL    HW1 8886   2.479   4.683   1.020
 2364SOL    HW2 8887   2.372   4.594   1.106
 2365SOL     OW 8888   3.071   4.249   0.275
 2365SOL    HW1 8889   3.084   4.165   0.329
 2365SOL    HW2 8890   3.042   4.323   0.335
 2366SOL     OW 8891   2.169   3.937   1.231
 2366SOL    HW1 8892   2.146   3.974   1.321
 2366SOL    HW2 8893   2.139   3.842   1.225
 2367SOL     OW 8894   3.590   4.659   1.854
 2367SOL    HW1 8895   3.544   4.652   1.765
 2367SOL    HW2 8896   3.528   4.703   1.920
 2368SOL     OW 8897   3.721   5.242   1.605
 2368SOL    HW1 8898   3.735   5.269   1.510
 2368SOL    HW2 8899   3.804   5.264   1.658
 2369SOL     OW 8900   2.212   4.622   1.804
 2369SOL    HW1 8901   2.288   4.666   1.852
 2369SOL    HW2 8902   2.247   4.575   1.722
 2370SOL     OW 8903   3.165   4.562   0.042
 2370SOL    HW1 8904   3.199   4.469   0.057
 2370SOL    HW2 8905   3.183   4.589  -0.053
 2371SOL     OW 8906   2.181   4.534   0.949
 2371SOL    HW1 8907   2.274   4.570   0.954
 2371SOL    HW2 8908   2.175   4.449   1.001
 2372SOL     OW 8909   3.000   4.104   1.678
 2372SOL    HW1 8910   2.955   4.167   1.742
 2372SOL    HW2 8911   3.093   4.135   1.661
 2373SOL     OW 8912   3.022   3.931   1.477
 2373SOL    HW1 8913   3.022   3.995   1.554
 2373SOL    HW2 8914   3.050   3.979   1.394
 2374SOL     OW 8915   2.864   4.520   1.238
 2374SOL    HW1 8916   2.905   4.488   1.324
 2374SOL    HW2 8917   2.768   4.493   1.235
 2375SOL     OW 8918   2.051   4.244   1.722
 2375SOL    HW1 8919   2.110   4.204   1.652
 2375SOL    HW2 8920   1.993   4.315   1.681
 2376SOL     OW 8921   3.231   4.674   1.660
 2376SOL    HW1 8922   3.270   4.763   1.680
 2376SOL    HW2 8923   3.241   4.654   1.563
 2377SOL     OW 8924   2.677   4.296   0.325
 2377SOL    HW1 8925   2.684   4.207   0.279
 2377SOL    HW2 8926   2.583   4.330   0.317
 2378SOL     OW 8927   3.519   4.328   1.206
 2378SOL    HW1 8928   3.481   4.259   1.268
 2378SOL    HW2 8929   3.601   4.292   1.162
 2379SOL     OW 8930   2.335   4.224   0.191
 2379SOL    HW1 8931   2.396   4.304   0.195
 2379SOL    HW2 8932   2.240   4.255   0.198
 2380SOL     OW 8933   2.021   4.861   1.466
 2380SOL    HW1 8934   2.043   4.800   1.542
 2380SOL    HW2 8935   2.031   4.812   1.380
 2381SOL     OW 8936   3.209   4.783   1.234
 2381SOL    HW1 8937   3.233   4.720   1.160
 2381SOL    HW2 8938   3.119   4.823   1.216
 2382SOL     OW 8939   3.164   4.579   0.309
 2382SOL    HW1 8940   3.078   4.548   0.351
 2382SOL    HW2 8941   3.160   4.565   0.210
 2383SOL     OW 8942   1.945   4.982   1.022
 2383SOL    HW1 8943   1.940   4.981   1.122
 2383SOL    HW2 8944   1.862   4.941   0.984
 2384SOL     OW 8945   2.765   3.810   0.133
 2384SOL    HW1 8946   2.816   3.811   0.047
 2384SOL    HW2 8947   2.821   3.768   0.204
 2385SOL     OW 8948   3.588   3.859   0.523
 2385SOL    HW1 8949   3.661   3.842   0.456
 2385SOL    HW2 8950   3.557   3.772   0.561
 2386SOL     OW 8951   3.142   4.651   0.672
 2386SOL    HW1 8952   3.202   4.570   0.674
 2386SOL    HW2 8953   3.182   4.720   0.612
 2387SOL     OW 8954   2.692   4.997   1.422
 2387SOL    HW1 8955   2.687   5.030   1.517
 2387SOL    HW2 8956   2.606   5.016   1.376
 2388SOL     OW 8957   3.703   3.899   0.963
 2388SOL    HW1 8958   3.742   3.814   0.927
 2388SOL    HW2 8959   3.605   3.901   0.944
 2389SOL     OW 8960   2.684   4.726   1.372
 2389SOL    HW1 8961   2.724   4.725   1.280
 2389SOL    HW2 8962   2.694   4.818   1.412
 2390SOL     OW 8963   2.778   4.634   0.291
 2390SOL    HW1 8964   2.841   4.672   0.223
 2390SOL    HW2 8965   2.818   4.551   0.330
 2391SOL     OW 8966   2.234   5.012   1.490
 2391SOL    HW1 8967   2.221   5.105   1.456
 2391SOL    HW2 8968   2.150   4.960   1.477
 2392SOL     OW 8969   3.476   5.016   1.289
 2392SOL    HW1 8970   3.536   5.019   1.369
 2392SOL    HW2 8971   3.401   5.080   1.302
 2393SOL     OW 8972   2.901   4.822   0.696
 2393SOL    HW1 8973   2.831   4.775   0.750
 2393SOL    HW2 8974   2.960   4.754   0.653
 2394SOL     OW 8975   3.571   4.109   1.381
 2394SOL    HW1 8976   3.644   4.178   1.385
 2394SOL    HW2 8977   3.599   4.034   1.322
 2395SOL     OW 8978   1.967   4.737   1.726
 2395SOL    HW1 8979   1.890   4.704   1.780
 2395SOL    HW2 8980   2.052   4.707   1.768
 2396SOL     OW 8981   2.534   3.927   1.489
 2396SOL    HW1 8982   2.624   3.911   1.449
 2396SOL    HW2 8983   2.542   3.932   1.588
 2397SOL     OW 8984   3.302   4.580   1.398
 2397SOL    HW1 8985   3.245   4.632   1.335
 2397SOL    HW2 8986   3.398   4.592   1.374
 2398SOL     OW 8987   2.475   4.566   1.431
 2398SOL    HW1 8988   2.531   4.647   1.414
 2398SOL    HW2 8989   2.534   4.486   1.434
 2399SOL     OW 8990   2.578   4.289   1.708
 2399SOL    HW1 8991   2.597   4.354   1.782
 2399SOL    HW2 8992   2.638   4.209   1.717
 2400SOL     OW 8993   3.312   4.944   1.633
 2400SOL    HW1 8994   3.303   4.934   1.732
 2400SOL    HW2 8995   3.408   4.937   1.607
 2401SOL     OW 8996   3.536   4.607   1.254
 2401SOL    HW1 8997   3.509   4.518   1.217
 2401SOL    HW2 8998   3.537   4.675   1.181
 2402SOL     OW 8999   2.456   4.469   0.652
 2402SOL    HW1 9000   2.506   4.554   0.633
 2402SOL    HW2 9001   2.368   4.471   0.604
 2403SOL     OW 9002   3.639   4.066   1.642
 2403SOL    HW1 9003   3.622   4.097   1.548
 2403SOL    HW2 9004   3.555   4.029   1.680
 2404SOL     OW 9005   3.592   4.658   1.517
 2404SOL    HW1 9006   3.630   4.749   1.532
 2404SOL    HW2 9007   3.584   4.641   1.418
 2405SOL     OW 9008   2.945   4.708   0.087
 2405SOL    HW1 9009   2.922   4.761   0.005
 2405SOL    HW2 9010   3.026   4.652   0.068
 2406SOL     OW 9011   1.941   4.964   0.653
 2406SOL    HW1 9012   1.940   4.917   0.741
 2406SOL    HW2 9013   2.023   4.936   0.602
 2407SOL     OW 9014   3.686   3.916   1.227
 2407SOL    HW1 9015   3.682   3.826   1.271
 2407SOL    HW2 9016   3.689   3.905   1.128
 2408SOL     OW 9017   2.290   4.148   0.520
 2408SOL    HW1 9018   2.320   4.076   0.458
 2408SOL    HW2 9019   2.251   4.108   0.603
 2409SOL     OW 9020   2.179   4.271   1.280
 2409SOL    HW1 9021   2.217   4.212   1.352
 2409SOL    HW2 9022   2.219   4.245   1.192
 2410SOL     OW 9023   3.286   3.938   1.112
 2410SOL    HW1 9024   3.338   3.873   1.167
 2410SOL    HW2 9025   3.237   4.001   1.173
 2411SOL     OW 9026   2.863   3.758   1.154
 2411SOL    HW1 9027   2.800   3.686   1.123
 2411SOL    HW2 9028   2.956   3.722   1.154
 2412SOL     OW 9029   3.455   3.945   0.882
 2412SOL    HW1 9030   3.371   3.944   0.936
 2412SOL    HW2 9031   3.457   4.028   0.826
 2413SOL     OW 9032   1.901   4.801   0.300
 2413SOL    HW1 9033   2.000   4.790   0.291
 2413SOL    HW2 9034   1.861   4.715   0.332
 2414SOL     OW 9035   2.092   4.352   1.975
 2414SOL    HW1 9036   1.999   4.350   2.012
 2414SOL    HW2 9037   2.093   4.313   1.883
 2415SOL     OW 9038   2.087   3.999   2.858
 2415SOL    HW1 9039   2.122   3.982   2.950
 2415SOL    HW2 9040   1.999   3.954   2.846
 2416SOL     OW 9041   1.881   4.092   2.509
 2416SOL    HW1 9042   1.799   4.135   2.548
 2416SOL    HW2 9043   1.853   4.019   2.446
 2417SOL     OW 9044   2.431   4.999   3.027
 2417SOL    HW1 9045   2.338   4.992   2.990
 2417SOL    HW2 9046   2.442   5.088   3.071
 2418SOL     OW 9047   3.617   4.331   2.093
 2418SOL    HW1 9048   3.605   4.318   1.994
 2418SOL    HW2 9049   3.587   4.250   2.142
 2419SOL     OW 9050   2.630   4.868   2.885
 2419SOL    HW1 9051   2.552   4.885   2.945
 2419SOL    HW2 9052   2.664   4.955   2.849
 2420SOL     OW 9053   2.712   4.522   3.685
 2420SOL    HW1 9054   2.708   4.598   3.750
 2420SOL    HW2 9055   2.734   4.558   3.594
 2421SOL     OW 9056   2.547   4.736   2.527
 2421SOL    HW1 9057   2.616   4.720   2.597
 2421SOL    HW2 9058   2.474   4.793   2.565
 2422SOL     OW 9059   2.548   4.885   3.665
 2422SOL    HW1 9060   2.608   4.964   3.679
 2422SOL    HW2 9061   2.462   4.916   3.624
 2423SOL     OW 9062   2.197   5.159   2.923
 2423SOL    HW1 9063   2.119   5.128   2.870
 2423SOL    HW2 9064   2.255   5.217   2.866
 2424SOL     OW 9065   2.300   4.116   3.361
 2424SOL    HW1 9066   2.382   4.060   3.370
 2424SOL    HW2 9067   2.219   4.058   3.365
 2425SOL     OW 9068   2.102   4.815   2.748
 2425SOL    HW1 9069   2.116   4.731   2.800
 2425SOL    HW2 9070   2.047   4.879   2.803
 2426SOL     OW 9071   2.468   4.688   1.985
 2426SOL    HW1 9072   2.475   4.772   1.931
 2426SOL    HW2 9073   2.514   4.701   2.073
 2427SOL     OW 9074   3.456   3.838   3.342
 2427SOL    HW1 9075   3.438   3.905   3.270
 2427SOL    HW2 9076   3.453   3.884   3.431
 2428SOL     OW 9077   1.984   4.367   2.425
 2428SOL    HW1 9078   1.939   4.279   2.442
 2428SOL    HW2 9079   1.983   4.421   2.509
 2429SOL     OW 9080   3.551   4.646   2.474
 2429SOL    HW1 9081   3.646   4.617   2.482
 2429SOL    HW2 9082   3.543   4.711   2.399
 2430SOL     OW 9083   3.503   4.832   2.294
 2430SOL    HW1 9084   3.589   4.834   2.242
 2430SOL    HW2 9085   3.517   4.879   2.382
 2431SOL     OW 9086   1.975   4.461   3.459
 2431SOL    HW1 9087   2.063   4.448   3.504
 2431SOL    HW2 9088   1.962   4.558   3.437
 2432SOL     OW 9089   3.155   4.952   3.285
 2432SOL    HW1 9090   3.192   4.879   3.227
 2432SOL    HW2 9091   3.207   4.957   3.370
 2433SOL     OW 9092   2.671   3.728   2.364
 2433SOL    HW1 9093   2.711   3.819   2.355
 2433SOL    HW2 9094   2.571   3.736   2.370
 2434SOL     OW 9095   2.059   4.700   3.126
 2434SOL    HW1 9096   2.148   4.655   3.112
 2434SOL    HW2 9097   1.986   4.635   3.107
 2435SOL     OW 9098   3.387   4.723   2.052
 2435SOL    HW1 9099   3.324   4.647   2.065
 2435SOL    HW2 9100   3.435   4.741   2.138
 2436SOL     OW 9101   2.179   3.975   3.663
 2436SOL    HW1 9102   2.250   4.046   3.669
 2436SOL    HW2 9103   2.091   4.014   3.691
 2437SOL     OW 9104   3.328   5.141   2.815
 2437SOL    HW1 9105   3.269   5.147   2.895
 2437SOL    HW2 9106   3.313   5.053   2.769
 2438SOL     OW 9107   2.460   4.453   2.132
 2438SOL    HW1 9108   2.484   4.522   2.064
 2438SOL    HW2 9109   2.382   4.486   2.186
 2439SOL     OW 9110   2.669   4.329   3.327
 2439SOL    HW1 9111   2.622   4.326   3.416
 2439SOL    HW2 9112   2.618   4.274   3.261
 2440SOL     OW 9113   3.256   4.193   3.536
 2440SOL    HW1 9114   3.236   4.236   3.624
 2440SOL    HW2 9115   3.334   4.131   3.545
 2441SOL     OW 9116   2.835   4.614   3.434
 2441SOL    HW1 9117   2.881   4.530   3.405
 2441SOL    HW2 9118   2.779   4.648   3.359
 2442SOL     OW 9119   2.853   4.134   3.104
 2442SOL    HW1 9120   2.776   4.168   3.158
 2442SOL    HW2 9121   2.819   4.083   3.025
 2443SOL     OW 9122   2.903   4.425   2.291
 2443SOL    HW1 9123   2.929   4.421   2.387
 2443SOL    HW2 9124   2.818   4.374   2.277
 2444SOL     OW 9125   2.727   4.072   2.057
 2444SOL    HW1 9126   2.786   4.135   2.008
 2444SOL    HW2 9127   2.746   3.978   2.028
 2445SOL     OW 9128   2.412   3.920   2.747
 2445SOL    HW1 9129   2.407   3.915   2.847
 2445SOL    HW2 9130   2.414   4.016   2.718
 2446SOL     OW 9131   2.183   4.667   2.104
 2446SOL    HW1 9132   2.265   4.706   2.062
 2446SOL    HW2 9133   2.156   4.585   2.055
 2447SOL     OW 9134   3.320   4.459   2.590
 2447SOL    HW1 9135   3.315   4.394   2.665
 2447SOL    HW2 9136   3.400   4.518   2.603
 2448SOL     OW 9137   2.064   4.009   3.360
 2448SOL    HW1 9138   1.984   4.069   3.347
 2448SOL    HW2 9139   2.054   3.960   3.446
 2449SOL     OW 9140   3.494   5.101   1.943
 2449SOL    HW1 9141   3.462   5.195   1.933
 2449SOL    HW2 9142   3.418   5.038   1.931
 2450SOL     OW 9143   3.262   3.831   2.288
 2450SOL    HW1 9144   3.238   3.794   2.198
 2450SOL    HW2 9145   3.361   3.847   2.292
 2451SOL     OW 9146   2.244   4.424   2.342
 2451SOL    HW1 9147   2.289   4.334   2.339
 2451SOL    HW2 9148   2.150   4.413   2.375
 2452SOL     OW 9149   3.409   3.946   3.591
 2452SOL    HW1 9150   3.404   3.983   3.683
 2452SOL    HW2 9151   3.337   3.877   3.579
 2453SOL     OW 9152   2.476   3.846   1.979
 2453SOL    HW1 9153   2.574   3.824   1.986
 2453SOL    HW2 9154   2.445   3.829   1.886
 2454SOL     OW 9155   2.643   3.988   3.611
 2454SOL    HW1 9156   2.710   3.927   3.654
 2454SOL    HW2 9157   2.570   4.007   3.676
 2455SOL     OW 9158   3.213   4.314   3.295
 2455SOL    HW1 9159   3.241   4.271   3.380
 2455SOL    HW2 9160   3.238   4.410   3.296
 2456SOL     OW 9161   2.665   5.126   2.786
 2456SOL    HW1 9162   2.755   5.140   2.744
 2456SOL    HW2 9163   2.594   5.128   2.715
 2457SOL     OW 9164   2.401   3.788   2.374
 2457SOL    HW1 9165   2.320   3.789   2.432
 2457SOL    HW2 9166   2.404   3.871   2.319
 2458SOL     OW 9167   3.296   4.912   1.903
 2458SOL    HW1 9168   3.328   4.836   1.960
 2458SOL    HW2 9169   3.204   4.939   1.933
 2459SOL     OW 9170   2.797   3.960   2.342
 2459SOL    HW1 9171   2.749   4.001   2.264
 2459SOL    HW2 9172   2.896   3.958   2.323
 2460SOL     OW 9173   2.938   4.407   3.326
 2460SOL    HW1 9174   2.858   4.346   3.329
 2460SOL    HW2 9175   3.019   4.354   3.302
 2461SOL     OW 9176   3.089   5.294   2.655
 2461SOL    HW1 9177   3.110   5.368   2.590
 2461SOL    HW2 9178   3.157   5.294   2.728
 2462SOL     OW 9179   2.321   4.876   2.603
 2462SOL    HW1 9180   2.250   4.849   2.668
 2462SOL    HW2 9181   2.295   4.848   2.510
 2463SOL     OW 9182   2.894   4.273   1.878
 2463SOL    HW1 9183   2.853   4.355   1.839
 2463SOL    HW2 9184   2.958   4.299   1.951
 2464SOL     OW 9185   1.940   4.280   3.248
 2464SOL    HW1 9186   2.032   4.279   3.207
 2464SOL    HW2 9187   1.934   4.354   3.315
 2465SOL     OW 9188   2.423   3.946   3.009
 2465SOL    HW1 9189   2.461   3.862   3.046
 2465SOL    HW2 9190   2.335   3.965   3.053
 2466SOL     OW 9191   2.728   4.178   2.504
 2466SOL    HW1 9192   2.696   4.250   2.442
 2466SOL    HW2 9193   2.752   4.097   2.451
 2467SOL     OW 9194   3.719   4.557   2.239
 2467SOL    HW1 9195   3.761   4.493   2.303
 2467SOL    HW2 9196   3.681   4.506   2.161
 2468SOL     OW 9197   3.252   4.299   1.940
 2468SOL    HW1 9198   3.198   4.278   2.021
 2468SOL    HW2 9199   3.343   4.258   1.949
 2469SOL     OW 9200   3.616   4.947   3.450
 2469SOL    HW1 9201   3.707   4.908   3.437
 2469SOL    HW2 9202   3.624   5.043   3.474
 2470SOL     OW 9203   2.777   3.813   3.264
 2470SOL    HW1 9204   2.802   3.793   3.169
 2470SOL    HW2 9205   2.849   3.869   3.306
 2471SOL     OW 9206   2.842   4.840   3.581
 2471SOL    HW1 9207   2.743   4.846   3.591
 2471SOL    HW2 9208   2.865   4.760   3.525
 2472SOL     OW 9209   2.567   4.774   2.230
 2472SOL    HW1 9210   2.553   4.781   2.329
 2472SOL    HW2 9211   2.651   4.723   2.212
 2473SOL     OW 9212   2.272   4.537   3.113
 2473SOL    HW1 9213   2.358   4.549   3.163
 2473SOL    HW2 9214   2.230   4.450   3.140
 2474SOL     OW 9215   2.229   4.824   2.363
 2474SOL    HW1 9216   2.222   4.907   2.307
 2474SOL    HW2 9217   2.233   4.744   2.303
 2475SOL     OW 9218   2.428   4.261   2.727
 2475SOL    HW1 9219   2.440   4.327   2.653
 2475SOL    HW2 9220   2.474   4.295   2.810
 2476SOL     OW 9221   3.444   4.363   2.334
 2476SOL    HW1 9222   3.413   4.424   2.407
 2476SOL    HW2 9223   3.494   4.415   2.265
 2477SOL     OW 9224   2.264   4.475   3.460
 2477SOL    HW1 9225   2.332   4.530   3.413
 2477SOL    HW2 9226   2.304   4.387   3.487
 2478SOL     OW 9227   2.875   3.829   3.632
 2478SOL    HW1 9228   2.881   3.914   3.580
 2478SOL    HW2 9229   2.907   3.753   3.575
 2479SOL     OW 9230   2.366   3.774   3.602
 2479SOL    HW1 9231   2.324   3.717   3.532
 2479SOL    HW2 9232   2.300   3.843   3.634
 2480SOL     OW 9233   2.435   4.594   2.891
 2480SOL    HW1 9234   2.479   4.683   2.882
 2480SOL    HW2 9235   2.372   4.594   2.968
 2481SOL     OW 9236   3.071   4.249   2.137
 2481SOL    HW1 9237   3.084   4.165   2.191
 2481SOL    HW2 9238   3.042   4.323   2.197
 2482SOL     OW 9239   2.169   3.937   3.093
 2482SOL    HW1 9240   2.146   3.974   3.183
 2482SOL    HW2 9241   2.139   3.842   3.087
 2483SOL     OW 9242   2.594   4.358   2.926
 2483SOL    HW1 9243   2.653   4.332   2.850
 2483SOL    HW2 9244   2.566   4.454   2.915
 2484SOL     OW 9245   2.169   3.787   2.480
 2484SOL    HW1 9246   2.158   3.881   2.513
 2484SOL    HW2 9247   2.164   3.724   2.557
 2485SOL     OW 9248   3.484   4.091   2.236
 2485SOL    HW1 9249   3.486   4.015   2.300
 2485SOL    HW2 9250   3.436   4.168   2.276
 2486SOL     OW 9251   2.885   4.490   2.828
 2486SOL    HW1 9252   2.900   4.511   2.924
 2486SOL    HW2 9253   2.855   4.395   2.819
 2487SOL     OW 9254   3.721   5.242   3.467
 2487SOL    HW1 9255   3.735   5.269   3.372
 2487SOL    HW2 9256   3.804   5.264   3.520
 2488SOL     OW 9257   2.212   4.622   3.666
 2488SOL    HW1 9258   2.288   4.666   3.714
 2488SOL    HW2 9259   2.247   4.575   3.584
 2489SOL     OW 9260   3.402   3.998   1.987
 2489SOL    HW1 9261   3.341   3.923   2.010
 2489SOL    HW2 9262   3.424   4.050   2.070
 2490SOL     OW 9263   3.165   4.562   1.904
 2490SOL    HW1 9264   3.199   4.469   1.919
 2490SOL    HW2 9265   3.183   4.589   1.809
 2491SOL     OW 9266   2.181   4.534   2.811
 2491SOL    HW1 9267   2.274   4.570   2.816
 2491SOL    HW2 9268   2.175   4.449   2.863
 2492SOL     OW 9269   2.201   4.233   2.868
 2492SOL    HW1 9270   2.149   4.150   2.851
 2492SOL    HW2 9271   2.278   4.238   2.804
 2493SOL     OW 9272   3.000   4.104   3.540
 2493SOL    HW1 9273   2.955   4.167   3.604
 2493SOL    HW2 9274   3.093   4.135   3.523
 2494SOL     OW 9275   3.022   3.931   3.339
 2494SOL    HW1 9276   3.022   3.995   3.416
 2494SOL    HW2 9277   3.050   3.979   3.256
 2495SOL     OW 9278   1.870   5.050   2.062
 2495SOL    HW1 9279   1.777   5.071   2.031
 2495SOL    HW2 9280   1.880   4.951   2.075
 2496SOL     OW 9281   2.864   4.520   3.100
 2496SOL    HW1 9282   2.905   4.488   3.186
 2496SOL    HW2 9283   2.768   4.493   3.097
 2497SOL     OW 9284   1.902   4.268   2.976
 2497SOL    HW1 9285   1.987   4.235   2.935
 2497SOL    HW2 9286   1.915   4.283   3.074
 2498SOL     OW 9287   2.051   4.244   3.584
 2498SOL    HW1 9288   2.110   4.204   3.514
 2498SOL    HW2 9289   1.993   4.315   3.543
 2499SOL     OW 9290   3.231   4.674   3.522
 2499SOL    HW1 9291   3.270   4.763   3.542
 2499SOL    HW2 9292   3.241   4.654   3.425
 2500SOL     OW 9293   2.677   4.296   2.187
 2500SOL    HW1 9294   2.684   4.207   2.141
 2500SOL    HW2 9295   2.583   4.330   2.179
 2501SOL     OW 9296   3.519   4.328   3.068
 2501SOL    HW1 9297   3.481   4.259   3.130
 2501SOL    HW2 9298   3.601   4.292   3.024
 2502SOL     OW 9299   2.533   4.188   3.131
 2502SOL    HW1 9300   2.499   4.099   3.101
 2502SOL    HW2 9301   2.559   4.242   3.051
 2503SOL     OW 9302   2.335   4.224   2.053
 2503SOL    HW1 9303   2.396   4.304   2.057
 2503SOL    HW2 9304   2.240   4.255   2.060
 2504SOL     OW 9305   2.021   4.861   3.328
 2504SOL    HW1 9306   2.043   4.800   3.404
 2504SOL    HW2 9307   2.031   4.812   3.242
 2505SOL     OW 9308   3.209   4.783   3.096
 2505SOL    HW1 9309   3.233   4.720   3.022
 2505SOL    HW2 9310   3.119   4.823   3.078
 2506SOL     OW 9311   3.164   4.579   2.171
 2506SOL    HW1 9312   3.078   4.548   2.213
 2506SOL    HW2 9313   3.160   4.565   2.072
 2507SOL     OW 9314   1.945   4.982   2.884
 2507SOL    HW1 9315   1.940   4.981   2.984
 2507SOL    HW2 9316   1.862   4.941   2.846
 2508SOL     OW 9317   3.142   4.651   2.534
 2508SOL    HW1 9318   3.202   4.570   2.536
 2508SOL    HW2 9319   3.182   4.720   2.474
 2509SOL     OW 9320   2.692   4.997   3.284
 2509SOL    HW1 9321   2.687   5.030   3.379
 2509SOL    HW2 9322   2.606   5.016   3.238
 2510SOL     OW 9323   3.703   3.899   2.825
 2510SOL    HW1 9324   3.742   3.814   2.789
 2510SOL    HW2 9325   3.605   3.901   2.806
 2511SOL     OW 9326   2.125   4.050   2.582
 2511SOL    HW1 9327   2.046   4.101   2.548
 2511SOL    HW2 9328   2.116   4.035   2.680
 2512SOL     OW 9329   3.056   5.336   1.893
 2512SOL    HW1 9330   3.062   5.243   1.930
 2512SOL    HW2 9331   2.997   5.336   1.813
 2513SOL     OW 9332   2.684   4.726   3.234
 2513SOL    HW1 9333   2.724   4.725   3.142
 2513SOL    HW2 9334   2.694   4.818   3.274
 2514SOL     OW 9335   2.778   4.634   2.153
 2514SOL    HW1 9336   2.841   4.672   2.085
 2514SOL    HW2 9337   2.818   4.551   2.192
 2515SOL     OW 9338   2.234   5.012   3.352
 2515SOL    HW1 9339   2.221   5.105   3.318
 2515SOL    HW2 9340   2.150   4.960   3.339
 2516SOL     OW 9341   3.476   5.016   3.151
 2516SOL    HW1 9342   3.536   5.019   3.231
 2516SOL    HW2 9343   3.401   5.080   3.164
 2517SOL     OW 9344   2.901   4.822   2.558
 2517SOL    HW1 9345   2.831   4.775   2.612
 2517SOL    HW2 9346   2.960   4.754   2.515
 2518SOL     OW 9347   3.571   4.109   3.243
 2518SOL    HW1 9348   3.644   4.178   3.247
 2518SOL    HW2 9349   3.599   4.034   3.184
 2519SOL     OW 9350   1.967   4.737   3.588
 2519SOL    HW1 9351   1.890   4.704   3.642
 2519SOL    HW2 9352   2.052   4.707   3.630
 2520SOL     OW 9353   2.534   3.927   3.351
 2520SOL    HW1 9354   2.624   3.911   3.311
 2520SOL    HW2 9355   2.542   3.932   3.450
 2521SOL     OW 9356   3.302   4.580   3.260
 2521SOL    HW1 9357   3.245   4.632   3.197
 2521SOL    HW2 9358   3.398   4.592   3.236
 2522SOL     OW 9359   2.475   4.566   3.293
 2522SOL    HW1 9360   2.531   4.647   3.276
 2522SOL    HW2 9361   2.534   4.486   3.296
 2523SOL     OW 9362   2.578   4.289   3.570
 2523SOL    HW1 9363   2.597   4.354   3.644
 2523SOL    HW2 9364   2.638   4.209   3.579
 2524SOL     OW 9365   3.312   4.944   3.495
 2524SOL    HW1 9366   3.303   4.934   3.594
 2524SOL    HW2 9367   3.408   4.937   3.469
 2525SOL     OW 9368   3.087   4.049   2.311
 2525SOL    HW1 9369   3.152   3.975   2.300
 2525SOL    HW2 9370   3.107   4.099   2.395
 2526SOL     OW 9371   2.456   4.469   2.514
 2526SOL    HW1 9372   2.506   4.554   2.495
 2526SOL    HW2 9373   2.368   4.471   2.466
 2527SOL     OW 9374   3.639   4.066   3.504
 2527SOL    HW1 9375   3.622   4.097   3.410
 2527SOL    HW2 9376   3.555   4.029   3.542
 2528SOL     OW 9377   3.592   4.658   3.379
 2528SOL    HW1 9378   3.630   4.749   3.394
 2528SOL    HW2 9379   3.584   4.641   3.280
 2529SOL     OW 9380   2.721   4.680   2.723
 2529SOL    HW1 9381   2.775   4.611   2.771
 2529SOL    HW2 9382   2.689   4.749   2.789
 2530SOL     OW 9383   2.945   4.708   1.949
 2530SOL    HW1 9384   2.922   4.761   1.867
 2530SOL    HW2 9385   3.026   4.652   1.930
 2531SOL     OW 9386   1.941   4.964   2.515
 2531SOL    HW1 9387   1.940   4.917   2.603
 2531SOL    HW2 9388   2.023   4.936   2.464
 2532SOL     OW 9389   3.686   3.916   3.089
 2532SOL    HW1 9390   3.682   3.826   3.133
 2532SOL    HW2 9391   3.689   3.905   2.990
 2533SOL     OW 9392   2.290   4.148   2.382
 2533SOL    HW1 9393   2.320   4.076   2.320
 2533SOL    HW2 9394   2.251   4.108   2.465
 2534SOL     OW 9395   2.179   4.271   3.142
 2534SOL    HW1 9396   2.217   4.212   3.214
 2534SOL    HW2 9397   2.219   4.245   3.054
 2535SOL     OW 9398   3.286   3.938   2.974
 2535SOL    HW1 9399   3.338   3.873   3.029
 2535SOL    HW2 9400   3.237   4.001   3.035
 2536SOL     OW 9401   2.632   5.054   2.163
 2536SOL    HW1 9402   2.586   4.967   2.180
 2536SOL    HW2 9403   2.723   5.051   2.204
 2537SOL     OW 9404   3.214   3.776   2.030
 2537SOL    HW1 9405   3.249   3.735   1.946
 2537SOL    HW2 9406   3.124   3.738   2.050
 2538SOL     OW 9407   1.901   4.801   2.162
 2538SOL    HW1 9408   2.000   4.790   2.153
 2538SOL    HW2 9409   1.861   4.715   2.194
 2539SOL     OW 9410   2.092   4.352   3.837
 2539SOL    HW1 9411   1.999   4.350   3.874
 2539SOL    HW2 9412   2.093   4.313   3.745
 2540SOL     OW 9413   2.087   3.999   4.720
 2540SOL    HW1 9414   2.122   3.982   4.812
 2540SOL    HW2 9415   1.999   3.954   4.708
 2541SOL     OW 9416   1.881   4.092   4.371
 2541SOL    HW1 9417   1.799   4.135   4.410
 2541SOL    HW2 9418   1.853   4.019   4.308
 2542SOL     OW 9419   3.417   5.235   4.427
 2542SOL    HW1 9420   3.360   5.219   4.508
 2542SOL    HW2 9421   3.358   5.245   4.347
 2543SOL     OW 9422   2.997   4.427   4.441
 2543SOL    HW1 9423   3.054   4.505   4.416
 2543SOL    HW2 9424   2.937   4.453   4.517
 2544SOL     OW 9425   3.465   4.171   4.461
 2544SOL    HW1 9426   3.391   4.217   4.411
 2544SOL    HW2 9427   3.516   4.239   4.514
 2545SOL     OW 9428   2.468   4.688   3.847
 2545SOL    HW1 9429   2.475   4.772   3.793
 2545SOL    HW2 9430   2.514   4.701   3.935
 2546SOL     OW 9431   3.551   4.646   4.336
 2546SOL    HW1 9432   3.646   4.617   4.344
 2546SOL    HW2 9433   3.543   4.711   4.261
 2547SOL     OW 9434   3.503   4.832   4.156
 2547SOL    HW1 9435   3.589   4.834   4.104
 2547SOL    HW2 9436   3.517   4.879   4.244
 2548SOL     OW 9437   2.671   3.728   4.226
 2548SOL    HW1 9438   2.711   3.819   4.217
 2548SOL    HW2 9439   2.571   3.736   4.232
 2549SOL     OW 9440   2.059   4.700   4.988
 2549SOL    HW1 9441   2.148   4.655   4.974
 2549SOL    HW2 9442   1.986   4.635   4.969
 2550SOL     OW 9443   3.387   4.723   3.914
 2550SOL    HW1 9444   3.324   4.647   3.927
 2550SOL    HW2 9445   3.435   4.741   4.000
 2551SOL     OW 9446   3.328   5.141   4.677
 2551SOL    HW1 9447   3.269   5.147   4.757
 2551SOL    HW2 9448   3.313   5.053   4.631
 2552SOL     OW 9449   2.460   4.453   3.994
 2552SOL    HW1 9450   2.484   4.522   3.926
 2552SOL    HW2 9451   2.382   4.486   4.048
 2553SOL     OW 9452   3.143   4.069   4.668
 2553SOL    HW1 9453   3.057   4.019   4.655
 2553SOL    HW2 9454   3.205   4.015   4.724
 2554SOL     OW 9455   2.853   4.134   4.966
 2554SOL    HW1 9456   2.776   4.168   5.020
 2554SOL    HW2 9457   2.819   4.083   4.887
 2555SOL     OW 9458   2.903   4.425   4.153
 2555SOL    HW1 9459   2.929   4.421   4.249
 2555SOL    HW2 9460   2.818   4.374   4.139
 2556SOL     OW 9461   1.938   4.535   4.513
 2556SOL    HW1 9462   2.037   4.523   4.522
 2556SOL    HW2 9463   1.914   4.630   4.534
 2557SOL     OW 9464   2.727   4.072   3.919
 2557SOL    HW1 9465   2.786   4.135   3.870
 2557SOL    HW2 9466   2.746   3.978   3.890
 2558SOL     OW 9467   3.224   4.868   4.269
 2558SOL    HW1 9468   3.307   4.839   4.221
 2558SOL    HW2 9469   3.175   4.935   4.213
 2559SOL     OW 9470   3.657   4.790   4.597
 2559SOL    HW1 9471   3.595   4.775   4.521
 2559SOL    HW2 9472   3.605   4.801   4.682
 2560SOL     OW 9473   2.183   4.667   3.966
 2560SOL    HW1 9474   2.265   4.706   3.924
 2560SOL    HW2 9475   2.156   4.585   3.917
 2561SOL     OW 9476   3.320   4.459   4.452
 2561SOL    HW1 9477   3.315   4.394   4.527
 2561SOL    HW2 9478   3.400   4.518   4.465
 2562SOL     OW 9479   3.494   5.101   3.805
 2562SOL    HW1 9480   3.462   5.195   3.795
 2562SOL    HW2 9481   3.418   5.038   3.793
 2563SOL     OW 9482   3.262   3.831   4.150
 2563SOL    HW1 9483   3.238   3.794   4.060
 2563SOL    HW2 9484   3.361   3.847   4.154
 2564SOL     OW 9485   2.476   3.846   3.841
 2564SOL    HW1 9486   2.574   3.824   3.848
 2564SOL    HW2 9487   2.445   3.829   3.748
 2565SOL     OW 9488   2.665   5.126   4.648
 2565SOL    HW1 9489   2.755   5.140   4.606
 2565SOL    HW2 9490   2.594   5.128   4.577
 2566SOL     OW 9491   3.296   4.912   3.765
 2566SOL    HW1 9492   3.328   4.836   3.822
 2566SOL    HW2 9493   3.204   4.939   3.795
 2567SOL     OW 9494   2.159   3.759   3.895
 2567SOL    HW1 9495   2.208   3.843   3.874
 2567SOL    HW2 9496   2.221   3.694   3.940
 2568SOL     OW 9497   2.797   3.960   4.204
 2568SOL    HW1 9498   2.749   4.001   4.126
 2568SOL    HW2 9499   2.896   3.958   4.185
 2569SOL     OW 9500   3.089   5.294   4.517
 2569SOL    HW1 9501   3.110   5.368   4.452
 2569SOL    HW2 9502   3.157   5.294   4.590
 2570SOL     OW 9503   2.321   4.876   4.465
 2570SOL    HW1 9504   2.250   4.849   4.530
 2570SOL    HW2 9505   2.295   4.848   4.372
 2571SOL     OW 9506   2.894   4.273   3.740
 2571SOL    HW1 9507   2.853   4.355   3.701
 2571SOL    HW2 9508   2.958   4.299   3.813
 2572SOL     OW 9509   2.423   3.946   4.871
 2572SOL    HW1 9510   2.461   3.862   4.908
 2572SOL    HW2 9511   2.335   3.965   4.915
 2573SOL     OW 9512   2.879   3.763   4.477
 2573SOL    HW1 9513   2.807   3.768   4.408
 2573SOL    HW2 9514   2.855   3.694   4.546
 2574SOL     OW 9515   3.291   4.897   4.591
 2574SOL    HW1 9516   3.236   4.813   4.584
 2574SOL    HW2 9517   3.317   4.926   4.499
 2575SOL     OW 9518   3.328   4.314   4.716
 2575SOL    HW1 9519   3.298   4.219   4.723
 2575SOL    HW2 9520   3.401   4.330   4.782
 2576SOL     OW 9521   3.719   4.557   4.101
 2576SOL    HW1 9522   3.761   4.493   4.165
 2576SOL    HW2 9523   3.681   4.506   4.023
 2577SOL     OW 9524   3.526   5.004   4.381
 2577SOL    HW1 9525   3.625   5.012   4.395
 2577SOL    HW2 9526   3.481   5.088   4.412
 2578SOL     OW 9527   3.252   4.299   3.802
 2578SOL    HW1 9528   3.198   4.278   3.883
 2578SOL    HW2 9529   3.343   4.258   3.811
 2579SOL     OW 9530   2.389   3.980   4.052
 2579SOL    HW1 9531   2.416   3.921   3.977
 2579SOL    HW2 9532   2.389   4.075   4.021
 2580SOL     OW 9533   3.500   4.823   4.803
 2580SOL    HW1 9534   3.505   4.904   4.862
 2580SOL    HW2 9535   3.414   4.825   4.752
 2581SOL     OW 9536   2.567   4.774   4.092
 2581SOL    HW1 9537   2.553   4.781   4.191
 2581SOL    HW2 9538   2.651   4.723   4.074
 2582SOL     OW 9539   2.272   4.537   4.975
 2582SOL    HW1 9540   2.358   4.549   5.025
 2582SOL    HW2 9541   2.230   4.450   5.002
 2583SOL     OW 9542   3.136   4.110   4.986
 2583SOL    HW1 9543   3.157   4.184   5.050
 2583SOL    HW2 9544   3.047   4.127   4.943
 2584SOL     OW 9545   2.229   4.824   4.225
 2584SOL    HW1 9546   2.222   4.907   4.169
 2584SOL    HW2 9547   2.233   4.744   4.165
 2585SOL     OW 9548   3.444   4.363   4.196
 2585SOL    HW1 9549   3.413   4.424   4.269
 2585SOL    HW2 9550   3.494   4.415   4.127
 2586SOL     OW 9551   3.222   4.586   4.769
 2586SOL    HW1 9552   3.147   4.586   4.703
 2586SOL    HW2 9553   3.259   4.494   4.778
 2587SOL     OW 9554   3.071   4.249   3.999
 2587SOL    HW1 9555   3.084   4.165   4.053
 2587SOL    HW2 9556   3.042   4.323   4.059
 2588SOL     OW 9557   2.169   3.937   4.955
 2588SOL    HW1 9558   2.146   3.974   5.045
 2588SOL    HW2 9559   2.139   3.842   4.949
 2589SOL     OW 9560   2.169   3.787   4.342
 2589SOL    HW1 9561   2.158   3.881   4.375
 2589SOL    HW2 9562   2.164   3.724   4.419
 2590SOL     OW 9563   3.484   4.091   4.098
 2590SOL    HW1 9564   3.486   4.015   4.162
 2590SOL    HW2 9565   3.436   4.168   4.138
 2591SOL     OW 9566   2.885   4.490   4.690
 2591SOL    HW1 9567   2.900   4.511   4.786
 2591SOL    HW2 9568   2.855   4.395   4.681
 2592SOL     OW 9569   3.402   3.998   3.849
 2592SOL    HW1 9570   3.341   3.923   3.872
 2592SOL    HW2 9571   3.424   4.050   3.932
 2593SOL     OW 9572   3.165   4.562   3.766
 2593SOL    HW1 9573   3.199   4.469   3.781
 2593SOL    HW2 9574   3.183   4.589   3.671
 2594SOL     OW 9575   3.022   3.931   5.201
 2594SOL    HW1 9576   3.022   3.995   5.278
 2594SOL    HW2 9577   3.050   3.979   5.118
 2595SOL     OW 9578   1.870   5.050   3.924
 2595SOL    HW1 9579   1.777   5.071   3.893
 2595SOL    HW2 9580   1.880   4.951   3.937
 2596SOL     OW 9581   2.864   4.520   4.962
 2596SOL    HW1 9582   2.905   4.488   5.048
 2596SOL    HW2 9583   2.768   4.493   4.959
 2597SOL     OW 9584   3.519   4.328   4.930
 2597SOL    HW1 9585   3.481   4.259   4.992
 2597SOL    HW2 9586   3.601   4.292   4.886
 2598SOL     OW 9587   2.533   4.188   4.993
 2598SOL    HW1 9588   2.499   4.099   4.963
 2598SOL    HW2 9589   2.559   4.242   4.913
 2599SOL     OW 9590   3.209   4.783   4.958
 2599SOL    HW1 9591   3.233   4.720   4.884
 2599SOL    HW2 9592   3.119   4.823   4.940
 2600SOL     OW 9593   3.164   4.579   4.033
 2600SOL    HW1 9594   3.078   4.548   4.075
 2600SOL    HW2 9595   3.160   4.565   3.934
 2601SOL     OW 9596   1.945   4.982   4.746
 2601SOL    HW1 9597   1.940   4.981   4.846
 2601SOL    HW2 9598   1.862   4.941   4.708
 2602SOL     OW 9599   3.588   3.859   4.247
 2602SOL    HW1 9600   3.661   3.842   4.180
 2602SOL    HW2 9601   3.557   3.772   4.285
 2603SOL     OW 9602   3.142   4.651   4.396
 2603SOL    HW1 9603   3.202   4.570   4.398
 2603SOL    HW2 9604   3.182   4.720   4.336
 2604SOL     OW 9605   2.692   4.997   5.146
 2604SOL    HW1 9606   2.687   5.030   5.241
 2604SOL    HW2 9607   2.606   5.016   5.100
 2605SOL     OW 9608   3.703   3.899   4.687
 2605SOL    HW1 9609   3.742   3.814   4.651
 2605SOL    HW2 9610   3.605   3.901   4.668
 2606SOL     OW 9611   2.125   4.050   4.444
 2606SOL    HW1 9612   2.046   4.101   4.410
 2606SOL    HW2 9613   2.116   4.035   4.542
 2607SOL     OW 9614   3.056   5.336   3.755
 2607SOL    HW1 9615   3.062   5.243   3.792
 2607SOL    HW2 9616   2.997   5.336   3.675
 2608SOL     OW 9617   2.778   4.634   4.015
 2608SOL    HW1 9618   2.841   4.672   3.947
 2608SOL    HW2 9619   2.818   4.551   4.054
 2609SOL     OW 9620   2.876   3.960   4.695
 2609SOL    HW1 9621   2.868   3.924   4.602
 2609SOL    HW2 9622   2.874   3.884   4.760
 2610SOL     OW 9623   3.571   4.109   5.105
 2610SOL    HW1 9624   3.644   4.178   5.109
 2610SOL    HW2 9625   3.599   4.034   5.046
 2611SOL     OW 9626   1.937   4.069   3.757
 2611SOL    HW1 9627   1.845   4.041   3.728
 2611SOL    HW2 9628   1.968   4.146   3.701
 2612SOL     OW 9629   1.934   3.890   4.042
 2612SOL    HW1 9630   1.917   3.973   3.988
 2612SOL    HW2 9631   2.024   3.853   4.020
 2613SOL     OW 9632   3.312   4.944   5.357
 2613SOL    HW1 9633   3.303   4.934   5.456
 2613SOL    HW2 9634   3.408   4.937   5.331
 2614SOL     OW 9635   3.536   4.607   4.978
 2614SOL    HW1 9636   3.509   4.518   4.941
 2614SOL    HW2 9637   3.537   4.675   4.905
 2615SOL     OW 9638   3.087   4.049   4.173
 2615SOL    HW1 9639   3.152   3.975   4.162
 2615SOL    HW2 9640   3.107   4.099   4.257
 2616SOL     OW 9641   3.592   4.658   5.241
 2616SOL    HW1 9642   3.630   4.749   5.256
 2616SOL    HW2 9643   3.584   4.641   5.142
 2617SOL     OW 9644   2.945   4.708   3.811
 2617SOL    HW1 9645   2.922   4.761   3.729
 2617SOL    HW2 9646   3.026   4.652   3.792
 2618SOL     OW 9647   1.941   4.964   4.377
 2618SOL    HW1 9648   1.940   4.917   4.465
 2618SOL    HW2 9649   2.023   4.936   4.326
 2619SOL     OW 9650   3.686   3.916   4.951
 2619SOL    HW1 9651   3.682   3.826   4.995
 2619SOL    HW2 9652   3.689   3.905   4.852
 2620SOL     OW 9653   3.286   3.938   4.836
 2620SOL    HW1 9654   3.338   3.873   4.891
 2620SOL    HW2 9655   3.237   4.001   4.897
 2621SOL     OW 9656   2.863   3.758   4.878
 2621SOL    HW1 9657   2.800   3.686   4.847
 2621SOL    HW2 9658   2.956   3.722   4.878
 2622SOL     OW 9659   2.632   5.054   4.025
 2622SOL    HW1 9660   2.586   4.967   4.042
 2622SOL    HW2 9661   2.723   5.051   4.066
 2623SOL     OW 9662   3.214   3.776   3.892
 2623SOL    HW1 9663   3.249   3.735   3.808
 2623SOL    HW2 9664   3.124   3.738   3.912
 2624SOL     OW 9665   3.162   4.177   4.415
 2624SOL    HW1 9666   3.103   4.257   4.419
 2624SOL    HW2 9667   3.177   4.142   4.508
 2625SOL     OW 9668   3.455   3.945   4.606
 2625SOL    HW1 9669   3.371   3.944   4.660
 2625SOL    HW2 9670   3.457   4.028   4.550
 2626SOL     OW 9671   1.901   4.801   4.024
 2626SOL    HW1 9672   2.000   4.790   4.015
 2626SOL    HW2 9673   1.861   4.715   4.056
 2627SOL     OW 9674   3.954   0.628   0.113
 2627SOL    HW1 9675   3.861   0.626   0.150
 2627SOL    HW2 9676   3.955   0.589   0.021
 2628SOL     OW 9677   3.949   0.275   0.996
 2628SOL    HW1 9678   3.984   0.258   1.088
 2628SOL    HW2 9679   3.861   0.230   0.984
 2629SOL     OW 9680   3.743   0.368   0.647
 2629SOL    HW1 9681   3.661   0.411   0.686
 2629SOL    HW2 9682   3.715   0.295   0.584
 2630SOL     OW 9683   4.293   1.275   1.165
 2630SOL    HW1 9684   4.200   1.268   1.128
 2630SOL    HW2 9685   4.304   1.364   1.209
 2631SOL     OW 9686   4.859   0.703   0.717
 2631SOL    HW1 9687   4.916   0.781   0.692
 2631SOL    HW2 9688   4.799   0.729   0.793
 2632SOL     OW 9689   4.574   0.798   1.823
 2632SOL    HW1 9690   4.570   0.874   1.888
 2632SOL    HW2 9691   4.596   0.834   1.732
 2633SOL     OW 9692   4.409   1.012   0.665
 2633SOL    HW1 9693   4.478   0.996   0.735
 2633SOL    HW2 9694   4.336   1.069   0.703
 2634SOL     OW 9695   4.410   1.161   1.803
 2634SOL    HW1 9696   4.470   1.240   1.817
 2634SOL    HW2 9697   4.324   1.192   1.762
 2635SOL     OW 9698   4.059   1.435   1.061
 2635SOL    HW1 9699   3.981   1.404   1.008
 2635SOL    HW2 9700   4.117   1.493   1.004
 2636SOL     OW 9701   4.162   0.392   1.499
 2636SOL    HW1 9702   4.244   0.336   1.508
 2636SOL    HW2 9703   4.081   0.334   1.503
 2637SOL     OW 9704   4.851   1.341   1.690
 2637SOL    HW1 9705   4.898   1.341   1.778
 2637SOL    HW2 9706   4.803   1.254   1.679
 2638SOL     OW 9707   3.954   1.434   0.538
 2638SOL    HW1 9708   3.928   1.530   0.538
 2638SOL    HW2 9709   3.883   1.380   0.583
 2639SOL     OW 9710   4.344   1.786   1.439
 2639SOL    HW1 9711   4.252   1.769   1.474
 2639SOL    HW2 9712   4.372   1.878   1.465
 2640SOL     OW 9713   3.846   0.643   0.563
 2640SOL    HW1 9714   3.801   0.555   0.580
 2640SOL    HW2 9715   3.845   0.697   0.647
 2641SOL     OW 9716   3.751   1.596   0.117
 2641SOL    HW1 9717   3.732   1.500   0.138
 2641SOL    HW2 9718   3.718   1.654   0.192
 2642SOL     OW 9719   5.017   1.228   1.423
 2642SOL    HW1 9720   5.054   1.155   1.365
 2642SOL    HW2 9721   5.069   1.233   1.508
 2643SOL     OW 9722   4.533   0.004   0.502
 2643SOL    HW1 9723   4.573   0.095   0.493
 2643SOL    HW2 9724   4.433   0.012   0.508
 2644SOL     OW 9725   4.911   1.792   1.616
 2644SOL    HW1 9726   4.935   1.852   1.540
 2644SOL    HW2 9727   4.918   1.697   1.586
 2645SOL     OW 9728   4.041   0.251   1.801
 2645SOL    HW1 9729   4.112   0.322   1.807
 2645SOL    HW2 9730   3.953   0.290   1.829
 2646SOL     OW 9731   5.005   0.345   0.944
 2646SOL    HW1 9732   4.919   0.295   0.931
 2646SOL    HW2 9733   5.067   0.291   1.000
 2647SOL     OW 9734   4.531   0.605   1.465
 2647SOL    HW1 9735   4.484   0.602   1.554
 2647SOL    HW2 9736   4.480   0.550   1.399
 2648SOL     OW 9737   4.697   0.890   1.572
 2648SOL    HW1 9738   4.743   0.806   1.543
 2648SOL    HW2 9739   4.641   0.924   1.497
 2649SOL     OW 9740   4.715   0.410   1.242
 2649SOL    HW1 9741   4.638   0.444   1.296
 2649SOL    HW2 9742   4.681   0.359   1.163
 2650SOL     OW 9743   3.800   0.811   0.789
 2650SOL    HW1 9744   3.899   0.799   0.798
 2650SOL    HW2 9745   3.776   0.906   0.810
 2651SOL     OW 9746   4.274   0.196   0.885
 2651SOL    HW1 9747   4.269   0.191   0.985
 2651SOL    HW2 9748   4.276   0.292   0.856
 2652SOL     OW 9749   4.732   1.456   0.477
 2652SOL    HW1 9750   4.686   1.528   0.425
 2652SOL    HW2 9751   4.728   1.476   0.575
 2653SOL     OW 9752   4.075   1.801   0.853
 2653SOL    HW1 9753   4.125   1.715   0.859
 2653SOL    HW2 9754   4.140   1.878   0.850
 2654SOL     OW 9755   4.951   1.550   1.506
 2654SOL    HW1 9756   4.957   1.473   1.570
 2654SOL    HW2 9757   4.899   1.524   1.426
 2655SOL     OW 9758   4.045   0.943   0.242
 2655SOL    HW1 9759   4.127   0.982   0.200
 2655SOL    HW2 9760   4.018   0.861   0.193
 2656SOL     OW 9761   4.185   1.266   1.727
 2656SOL    HW1 9762   4.135   1.267   1.641
 2656SOL    HW2 9763   4.122   1.248   1.803
 2657SOL     OW 9764   3.926   0.285   1.498
 2657SOL    HW1 9765   3.846   0.345   1.485
 2657SOL    HW2 9766   3.916   0.236   1.584
 2658SOL     OW 9767   5.356   1.377   0.081
 2658SOL    HW1 9768   5.324   1.471   0.071
 2658SOL    HW2 9769   5.280   1.314   0.069
 2659SOL     OW 9770   3.973   1.785   1.241
 2659SOL    HW1 9771   4.030   1.720   1.291
 2659SOL    HW2 9772   3.957   1.752   1.148
 2660SOL     OW 9773   4.664   1.698   0.904
 2660SOL    HW1 9774   4.744   1.641   0.925
 2660SOL    HW2 9775   4.615   1.658   0.827
 2661SOL     OW 9776   4.106   0.700   0.480
 2661SOL    HW1 9777   4.151   0.610   0.477
 2661SOL    HW2 9778   4.012   0.689   0.513
 2662SOL     OW 9779   4.338   0.122   0.117
 2662SOL    HW1 9780   4.436   0.100   0.124
 2662SOL    HW2 9781   4.307   0.105   0.024
 2663SOL     OW 9782   4.505   0.264   1.749
 2663SOL    HW1 9783   4.572   0.203   1.792
 2663SOL    HW2 9784   4.432   0.283   1.814
 2664SOL     OW 9785   4.612   1.514   1.195
 2664SOL    HW1 9786   4.589   1.489   1.101
 2664SOL    HW2 9787   4.673   1.445   1.234
 2665SOL     OW 9788   4.527   1.402   0.924
 2665SOL    HW1 9789   4.617   1.416   0.882
 2665SOL    HW2 9790   4.456   1.404   0.853
 2666SOL     OW 9791   4.646   0.503   0.899
 2666SOL    HW1 9792   4.621   0.494   0.803
 2666SOL    HW2 9793   4.694   0.421   0.930
 2667SOL     OW 9794   4.021   0.035   0.171
 2667SOL    HW1 9795   4.070   0.119   0.150
 2667SOL    HW2 9796   4.083  -0.030   0.216
 2668SOL     OW 9797   4.800   0.683   1.464
 2668SOL    HW1 9798   4.720   0.622   1.467
 2668SOL    HW2 9799   4.881   0.630   1.440
 2669SOL     OW 9800   4.951   1.570   0.793
 2669SOL    HW1 9801   4.972   1.644   0.728
 2669SOL    HW2 9802   5.019   1.570   0.866
 2670SOL     OW 9803   3.802   0.556   1.386
 2670SOL    HW1 9804   3.894   0.555   1.345
 2670SOL    HW2 9805   3.796   0.630   1.453
 2671SOL     OW 9806   4.285   0.222   1.147
 2671SOL    HW1 9807   4.323   0.138   1.184
 2671SOL    HW2 9808   4.197   0.241   1.191
 2672SOL     OW 9809   4.741   0.039   0.753
 2672SOL    HW1 9810   4.669   0.044   0.684
 2672SOL    HW2 9811   4.717  -0.030   0.822
 2673SOL     OW 9812   5.388   1.280   0.657
 2673SOL    HW1 9813   5.487   1.288   0.671
 2673SOL    HW2 9814   5.343   1.364   0.688
 2674SOL     OW 9815   4.788   1.347   1.340
 2674SOL    HW1 9816   4.708   1.324   1.395
 2674SOL    HW2 9817   4.871   1.321   1.389
 2675SOL     OW 9818   4.835   1.195   1.100
 2675SOL    HW1 9819   4.795   1.239   1.181
 2675SOL    HW2 9820   4.794   1.232   1.017
 2676SOL     OW 9821   4.639   0.089   1.402
 2676SOL    HW1 9822   4.664   0.069   1.307
 2676SOL    HW2 9823   4.711   0.145   1.444
 2677SOL     OW 9824   4.704   1.116   1.719
 2677SOL    HW1 9825   4.605   1.122   1.729
 2677SOL    HW2 9826   4.727   1.036   1.663
 2678SOL     OW 9827   3.788   1.564   1.331
 2678SOL    HW1 9828   3.742   1.646   1.297
 2678SOL    HW2 9829   3.886   1.583   1.340
 2679SOL     OW 9830   4.290   0.537   0.865
 2679SOL    HW1 9831   4.302   0.603   0.791
 2679SOL    HW2 9832   4.336   0.571   0.948
 2680SOL     OW 9833   4.976   1.348   0.388
 2680SOL    HW1 9834   5.026   1.425   0.428
 2680SOL    HW2 9835   4.881   1.350   0.420
 2681SOL     OW 9836   4.078   1.510   1.329
 2681SOL    HW1 9837   4.057   1.466   1.242
 2681SOL    HW2 9838   4.175   1.536   1.332
 2682SOL     OW 9839   4.126   0.751   1.598
 2682SOL    HW1 9840   4.194   0.806   1.551
 2682SOL    HW2 9841   4.166   0.663   1.625
 2683SOL     OW 9842   4.737   0.105   1.770
 2683SOL    HW1 9843   4.743   0.190   1.718
 2683SOL    HW2 9844   4.769   0.029   1.713
 2684SOL     OW 9845   4.228   0.050   1.740
 2684SOL    HW1 9846   4.186  -0.007   1.670
 2684SOL    HW2 9847   4.162   0.119   1.772
 2685SOL     OW 9848   5.084   0.862   1.045
 2685SOL    HW1 9849   5.009   0.862   0.979
 2685SOL    HW2 9850   5.121   0.770   1.054
 2686SOL     OW 9851   4.031   0.213   1.231
 2686SOL    HW1 9852   4.008   0.250   1.321
 2686SOL    HW2 9853   4.001   0.118   1.225
 2687SOL     OW 9854   3.761   1.310   1.282
 2687SOL    HW1 9855   3.814   1.261   1.350
 2687SOL    HW2 9856   3.783   1.408   1.287
 2688SOL     OW 9857   4.456   0.634   1.064
 2688SOL    HW1 9858   4.515   0.608   0.988
 2688SOL    HW2 9859   4.428   0.730   1.053
 2689SOL     OW 9860   4.031   0.063   0.618
 2689SOL    HW1 9861   4.020   0.157   0.651
 2689SOL    HW2 9862   4.026   0.000   0.695
 2690SOL     OW 9863   5.346   0.367   0.374
 2690SOL    HW1 9864   5.348   0.291   0.438
 2690SOL    HW2 9865   5.298   0.444   0.414
 2691SOL     OW 9866   4.747   0.766   0.966
 2691SOL    HW1 9867   4.762   0.787   1.062
 2691SOL    HW2 9868   4.717   0.671   0.957
 2692SOL     OW 9869   4.074   0.898   1.804
 2692SOL    HW1 9870   4.150   0.942   1.852
 2692SOL    HW2 9871   4.109   0.851   1.722
 2693SOL     OW 9872   4.792   1.333   0.849
 2693SOL    HW1 9873   4.799   1.249   0.794
 2693SOL    HW2 9874   4.854   1.402   0.813
 2694SOL     OW 9875   4.063   0.509   1.006
 2694SOL    HW1 9876   4.011   0.426   0.989
 2694SOL    HW2 9877   4.140   0.514   0.942
 2695SOL     OW 9878   4.862   0.380   1.678
 2695SOL    HW1 9879   4.817   0.443   1.742
 2695SOL    HW2 9880   4.955   0.411   1.661
 2696SOL     OW 9881   4.884   0.207   1.477
 2696SOL    HW1 9882   4.884   0.271   1.554
 2696SOL    HW2 9883   4.912   0.255   1.394
 2697SOL     OW 9884   3.812   1.801   0.927
 2697SOL    HW1 9885   3.770   1.715   0.900
 2697SOL    HW2 9886   3.906   1.804   0.893
 2698SOL     OW 9887   4.228   1.568   0.910
 2698SOL    HW1 9888   4.294   1.642   0.919
 2698SOL    HW2 9889   4.272   1.489   0.868
 2699SOL     OW 9890   4.726   0.796   1.238
 2699SOL    HW1 9891   4.767   0.764   1.324
 2699SOL    HW2 9892   4.630   0.769   1.235
 2700SOL     OW 9893   3.764   0.544   1.114
 2700SOL    HW1 9894   3.849   0.511   1.073
 2700SOL    HW2 9895   3.777   0.559   1.212
 2701SOL     OW 9896   3.976   1.564   1.744
 2701SOL    HW1 9897   3.946   1.621   1.820
 2701SOL    HW2 9898   3.969   1.467   1.770
 2702SOL     OW 9899   4.395   0.464   1.269
 2702SOL    HW1 9900   4.361   0.375   1.239
 2702SOL    HW2 9901   4.421   0.518   1.189
 2703SOL     OW 9902   4.654   1.678   1.465
 2703SOL    HW1 9903   4.630   1.660   1.370
 2703SOL    HW2 9904   4.684   1.772   1.475
 2704SOL     OW 9905   4.197   0.500   0.191
 2704SOL    HW1 9906   4.258   0.580   0.195
 2704SOL    HW2 9907   4.102   0.531   0.198
 2705SOL     OW 9908   3.883   1.137   1.466
 2705SOL    HW1 9909   3.905   1.076   1.542
 2705SOL    HW2 9910   3.893   1.088   1.380
 2706SOL     OW 9911   5.071   1.059   1.234
 2706SOL    HW1 9912   5.095   0.996   1.160
 2706SOL    HW2 9913   4.981   1.099   1.216
 2707SOL     OW 9914   4.976   1.731   1.128
 2707SOL    HW1 9915   5.060   1.736   1.074
 2707SOL    HW2 9916   4.953   1.635   1.146
 2708SOL     OW 9917   4.412   1.662   1.716
 2708SOL    HW1 9918   4.356   1.743   1.725
 2708SOL    HW2 9919   4.464   1.666   1.630
 2709SOL     OW 9920   4.627   0.086   0.133
 2709SOL    HW1 9921   4.678   0.087   0.047
 2709SOL    HW2 9922   4.683   0.044   0.204
 2710SOL     OW 9923   5.004   0.927   0.672
 2710SOL    HW1 9924   5.064   0.846   0.674
 2710SOL    HW2 9925   5.044   0.996   0.612
 2711SOL     OW 9926   4.554   1.273   1.422
 2711SOL    HW1 9927   4.549   1.306   1.517
 2711SOL    HW2 9928   4.468   1.292   1.376
 2712SOL     OW 9929   4.396   1.616   0.154
 2712SOL    HW1 9930   4.405   1.626   0.055
 2712SOL    HW2 9931   4.356   1.527   0.175
 2713SOL     OW 9932   3.987   0.326   0.720
 2713SOL    HW1 9933   3.908   0.377   0.686
 2713SOL    HW2 9934   3.978   0.311   0.818
 2714SOL     OW 9935   4.546   1.002   1.372
 2714SOL    HW1 9936   4.586   1.001   1.280
 2714SOL    HW2 9937   4.556   1.094   1.412
 2715SOL     OW 9938   4.640   0.910   0.291
 2715SOL    HW1 9939   4.703   0.948   0.223
 2715SOL    HW2 9940   4.680   0.827   0.330
 2716SOL     OW 9941   4.096   1.288   1.490
 2716SOL    HW1 9942   4.083   1.381   1.456
 2716SOL    HW2 9943   4.012   1.236   1.477
 2717SOL     OW 9944   4.763   1.098   0.696
 2717SOL    HW1 9945   4.693   1.051   0.750
 2717SOL    HW2 9946   4.822   1.030   0.653
 2718SOL     OW 9947   4.738   0.236   0.971
 2718SOL    HW1 9948   4.730   0.200   0.878
 2718SOL    HW2 9949   4.736   0.160   1.036
 2719SOL     OW 9950   3.979   1.348   0.290
 2719SOL    HW1 9951   3.883   1.349   0.263
 2719SOL    HW2 9952   3.991   1.401   0.374
 2720SOL     OW 9953   3.829   1.013   1.726
 2720SOL    HW1 9954   3.752   0.980   1.780
 2720SOL    HW2 9955   3.914   0.983   1.768
 2721SOL     OW 9956   4.396   0.203   1.489
 2721SOL    HW1 9957   4.486   0.187   1.449
 2721SOL    HW2 9958   4.404   0.208   1.588
 2722SOL     OW 9959   5.164   0.856   1.398
 2722SOL    HW1 9960   5.107   0.908   1.335
 2722SOL    HW2 9961   5.260   0.868   1.374
 2723SOL     OW 9962   3.796   0.166   0.318
 2723SOL    HW1 9963   3.779   0.249   0.264
 2723SOL    HW2 9964   3.886   0.129   0.296
 2724SOL     OW 9965   4.337   0.842   1.431
 2724SOL    HW1 9966   4.393   0.923   1.414
 2724SOL    HW2 9967   4.396   0.762   1.434
 2725SOL     OW 9968   4.440   0.565   1.708
 2725SOL    HW1 9969   4.459   0.630   1.782
 2725SOL    HW2 9970   4.500   0.485   1.717
 2726SOL     OW 9971   4.114   1.741   1.560
 2726SOL    HW1 9972   4.023   1.782   1.558
 2726SOL    HW2 9973   4.107   1.647   1.592
 2727SOL     OW 9974   4.318   0.745   0.652
 2727SOL    HW1 9975   4.368   0.830   0.633
 2727SOL    HW2 9976   4.230   0.747   0.604
 2728SOL     OW 9977   4.583   1.374   0.016
 2728SOL    HW1 9978   4.537   1.389   0.104
 2728SOL    HW2 9979   4.627   1.459  -0.014
 2729SOL     OW 9980   4.385   1.790   0.953
 2729SOL    HW1 9981   4.339   1.878   0.940
 2729SOL    HW2 9982   4.484   1.802   0.946
 2730SOL     OW 9983   4.583   0.956   0.861
 2730SOL    HW1 9984   4.637   0.887   0.909
 2730SOL    HW2 9985   4.551   1.025   0.927
 2731SOL     OW 9986   4.807   0.984   0.087
 2731SOL    HW1 9987   4.784   1.037   0.005
 2731SOL    HW2 9988   4.888   0.928   0.068
 2732SOL     OW 9989   3.945   1.314   1.844
 2732SOL    HW1 9990   3.880   1.241   1.823
 2732SOL    HW2 9991   3.949   1.328   1.942
 2733SOL     OW 9992   3.803   1.240   0.653
 2733SOL    HW1 9993   3.802   1.193   0.741
 2733SOL    HW2 9994   3.885   1.212   0.602
 2734SOL     OW 9995   4.396   1.391   1.624
 2734SOL    HW1 9996   4.318   1.341   1.662
 2734SOL    HW2 9997   4.393   1.486   1.655
 2735SOL     OW 9998   4.152   0.424   0.520
 2735SOL    HW1 9999   4.182   0.352   0.458
 2735SOL    HW210000   4.113   0.384   0.603
 2736SOL     OW10001   4.041   0.547   1.280
 2736SOL    HW110002   4.079   0.488   1.352
 2736SOL    HW210003   4.081   0.521   1.192
 2737SOL     OW10004   4.536   1.586   0.687
 2737SOL    HW110005   4.568   1.596   0.593
 2737SOL    HW210006   4.457   1.524   0.689
 2738SOL     OW10007   4.725   0.034   1.154
 2738SOL    HW110008   4.662  -0.038   1.123
 2738SOL    HW210009   4.818  -0.002   1.154
 2739SOL     OW10010   4.342   1.567   1.284
 2739SOL    HW110011   4.337   1.649   1.341
 2739SOL    HW210012   4.431   1.564   1.239
 2740SOL     OW10013   3.763   1.077   0.300
 2740SOL    HW110014   3.862   1.066   0.291
 2740SOL    HW210015   3.723   0.991   0.332
 2741SOL     OW10016   4.599   1.646   0.337
 2741SOL    HW110017   4.522   1.611   0.283
 2741SOL    HW210018   4.567   1.717   0.399
 2742SOL     OW10019   3.949   0.275   2.858
 2742SOL    HW110020   3.984   0.258   2.950
 2742SOL    HW210021   3.861   0.230   2.846
 2743SOL     OW10022   3.743   0.368   2.509
 2743SOL    HW110023   3.661   0.411   2.548
 2743SOL    HW210024   3.715   0.295   2.446
 2744SOL     OW10025   4.293   1.275   3.027
 2744SOL    HW110026   4.200   1.268   2.990
 2744SOL    HW210027   4.304   1.364   3.071
 2745SOL     OW10028   4.492   1.144   2.885
 2745SOL    HW110029   4.414   1.161   2.945
 2745SOL    HW210030   4.526   1.231   2.849
 2746SOL     OW10031   4.574   0.798   3.685
 2746SOL    HW110032   4.570   0.874   3.750
 2746SOL    HW210033   4.596   0.834   3.594
 2747SOL     OW10034   4.409   1.012   2.527
 2747SOL    HW110035   4.478   0.996   2.597
 2747SOL    HW210036   4.336   1.069   2.565
 2748SOL     OW10037   4.059   1.435   2.923
 2748SOL    HW110038   3.981   1.404   2.870
 2748SOL    HW210039   4.117   1.493   2.866
 2749SOL     OW10040   4.162   0.392   3.361
 2749SOL    HW110041   4.244   0.336   3.370
 2749SOL    HW210042   4.081   0.334   3.365
 2750SOL     OW10043   4.851   1.341   3.552
 2750SOL    HW110044   4.898   1.341   3.640
 2750SOL    HW210045   4.803   1.254   3.541
 2751SOL     OW10046   3.954   1.434   2.400
 2751SOL    HW110047   3.928   1.530   2.400
 2751SOL    HW210048   3.883   1.380   2.445
 2752SOL     OW10049   3.964   1.091   2.748
 2752SOL    HW110050   3.978   1.007   2.800
 2752SOL    HW210051   3.909   1.155   2.803
 2753SOL     OW10052   4.330   0.964   1.985
 2753SOL    HW110053   4.337   1.048   1.931
 2753SOL    HW210054   4.376   0.977   2.073
 2754SOL     OW10055   3.751   1.596   1.979
 2754SOL    HW110056   3.732   1.500   2.000
 2754SOL    HW210057   3.718   1.654   2.054
 2755SOL     OW10058   3.837   0.737   3.459
 2755SOL    HW110059   3.925   0.724   3.504
 2755SOL    HW210060   3.824   0.834   3.437
 2756SOL     OW10061   4.337   1.365   2.588
 2756SOL    HW110062   4.288   1.278   2.597
 2756SOL    HW210063   4.314   1.408   2.501
 2757SOL     OW10064   5.017   1.228   3.285
 2757SOL    HW110065   5.054   1.155   3.227
 2757SOL    HW210066   5.069   1.233   3.370
 2758SOL     OW10067   4.533   0.004   2.364
 2758SOL    HW110068   4.573   0.095   2.355
 2758SOL    HW210069   4.433   0.012   2.370
 2759SOL     OW10070   3.921   0.976   3.126
 2759SOL    HW110071   4.010   0.931   3.112
 2759SOL    HW210072   3.848   0.911   3.107
 2760SOL     OW10073   4.911   1.792   3.478
 2760SOL    HW110074   4.935   1.852   3.402
 2760SOL    HW210075   4.918   1.697   3.448
 2761SOL     OW10076   4.041   0.251   3.663
 2761SOL    HW110077   4.112   0.322   3.669
 2761SOL    HW210078   3.953   0.290   3.691
 2762SOL     OW10079   4.322   0.729   2.132
 2762SOL    HW110080   4.346   0.798   2.064
 2762SOL    HW210081   4.244   0.762   2.186
 2763SOL     OW10082   5.005   0.345   2.806
 2763SOL    HW110083   4.919   0.295   2.793
 2763SOL    HW210084   5.067   0.291   2.862
 2764SOL     OW10085   4.531   0.605   3.327
 2764SOL    HW110086   4.484   0.602   3.416
 2764SOL    HW210087   4.480   0.550   3.261
 2765SOL     OW10088   4.697   0.890   3.434
 2765SOL    HW110089   4.743   0.806   3.405
 2765SOL    HW210090   4.641   0.924   3.359
 2766SOL     OW10091   4.715   0.410   3.104
 2766SOL    HW110092   4.638   0.444   3.158
 2766SOL    HW210093   4.681   0.359   3.025
 2767SOL     OW10094   4.589   0.348   2.057
 2767SOL    HW110095   4.648   0.411   2.008
 2767SOL    HW210096   4.608   0.254   2.028
 2768SOL     OW10097   4.274   0.196   2.747
 2768SOL    HW110098   4.269   0.191   2.847
 2768SOL    HW210099   4.276   0.292   2.718
 2769SOL     OW10100   4.951   1.550   3.368
 2769SOL    HW110101   4.957   1.473   3.432
 2769SOL    HW210102   4.899   1.524   3.288
 2770SOL     OW10103   4.045   0.943   2.104
 2770SOL    HW110104   4.127   0.982   2.062
 2770SOL    HW210105   4.018   0.861   2.055
 2771SOL     OW10106   4.185   1.266   3.589
 2771SOL    HW110107   4.135   1.267   3.503
 2771SOL    HW210108   4.122   1.248   3.665
 2772SOL     OW10109   3.926   0.285   3.360
 2772SOL    HW110110   3.846   0.345   3.347
 2772SOL    HW210111   3.916   0.236   3.446
 2773SOL     OW10112   4.188   1.743   2.185
 2773SOL    HW110113   4.221   1.782   2.271
 2773SOL    HW210114   4.264   1.736   2.120
 2774SOL     OW10115   3.973   1.785   3.103
 2774SOL    HW110116   4.030   1.720   3.153
 2774SOL    HW210117   3.957   1.752   3.010
 2775SOL     OW10118   4.338   0.122   1.979
 2775SOL    HW110119   4.436   0.100   1.986
 2775SOL    HW210120   4.307   0.105   1.886
 2776SOL     OW10121   4.505   0.264   3.611
 2776SOL    HW110122   4.572   0.203   3.654
 2776SOL    HW210123   4.432   0.283   3.676
 2777SOL     OW10124   4.612   1.514   3.057
 2777SOL    HW110125   4.589   1.489   2.963
 2777SOL    HW210126   4.673   1.445   3.096
 2778SOL     OW10127   4.263   0.064   2.374
 2778SOL    HW110128   4.182   0.065   2.432
 2778SOL    HW210129   4.266   0.147   2.319
 2779SOL     OW10130   4.021   0.035   2.033
 2779SOL    HW110131   4.070   0.119   2.012
 2779SOL    HW210132   4.083  -0.030   2.078
 2780SOL     OW10133   4.659   0.236   2.342
 2780SOL    HW110134   4.611   0.277   2.264
 2780SOL    HW210135   4.758   0.234   2.323
 2781SOL     OW10136   4.800   0.683   3.326
 2781SOL    HW110137   4.720   0.622   3.329
 2781SOL    HW210138   4.881   0.630   3.302
 2782SOL     OW10139   4.951   1.570   2.655
 2782SOL    HW110140   4.972   1.644   2.590
 2782SOL    HW210141   5.019   1.570   2.728
 2783SOL     OW10142   4.183   1.152   2.603
 2783SOL    HW110143   4.112   1.125   2.668
 2783SOL    HW210144   4.157   1.124   2.510
 2784SOL     OW10145   4.995   1.797   2.453
 2784SOL    HW110146   5.039   1.861   2.389
 2784SOL    HW210147   4.945   1.849   2.523
 2785SOL     OW10148   4.756   0.549   1.878
 2785SOL    HW110149   4.715   0.631   1.839
 2785SOL    HW210150   4.820   0.575   1.951
 2786SOL     OW10151   3.802   0.556   3.248
 2786SOL    HW110152   3.894   0.555   3.207
 2786SOL    HW210153   3.796   0.630   3.315
 2787SOL     OW10154   4.285   0.222   3.009
 2787SOL    HW110155   4.323   0.138   3.046
 2787SOL    HW210156   4.197   0.241   3.053
 2788SOL     OW10157   4.741   0.039   2.615
 2788SOL    HW110158   4.669   0.044   2.546
 2788SOL    HW210159   4.717  -0.030   2.684
 2789SOL     OW10160   4.212   1.385   2.036
 2789SOL    HW110161   4.125   1.370   2.083
 2789SOL    HW210162   4.195   1.411   1.941
 2790SOL     OW10163   5.388   1.280   2.519
 2790SOL    HW110164   5.487   1.288   2.533
 2790SOL    HW210165   5.343   1.364   2.550
 2791SOL     OW10166   4.251   0.256   2.190
 2791SOL    HW110167   4.278   0.197   2.115
 2791SOL    HW210168   4.251   0.351   2.159
 2792SOL     OW10169   4.788   1.347   3.202
 2792SOL    HW110170   4.708   1.324   3.257
 2792SOL    HW210171   4.871   1.321   3.251
 2793SOL     OW10172   4.835   1.195   2.962
 2793SOL    HW110173   4.795   1.239   3.043
 2793SOL    HW210174   4.794   1.232   2.879
 2794SOL     OW10175   4.639   0.089   3.264
 2794SOL    HW110176   4.664   0.069   3.169
 2794SOL    HW210177   4.711   0.145   3.306
 2795SOL     OW10178   4.429   1.050   2.230
 2795SOL    HW110179   4.415   1.057   2.329
 2795SOL    HW210180   4.513   0.999   2.212
 2796SOL     OW10181   4.998   0.386   3.124
 2796SOL    HW110182   5.019   0.460   3.188
 2796SOL    HW210183   4.909   0.403   3.081
 2797SOL     OW10184   4.078   1.510   3.191
 2797SOL    HW110185   4.057   1.466   3.104
 2797SOL    HW210186   4.175   1.536   3.194
 2798SOL     OW10187   4.126   0.751   3.460
 2798SOL    HW110188   4.194   0.806   3.413
 2798SOL    HW210189   4.166   0.663   3.487
 2799SOL     OW10190   4.737   0.105   3.632
 2799SOL    HW110191   4.743   0.190   3.580
 2799SOL    HW210192   4.769   0.029   3.575
 2800SOL     OW10193   4.228   0.050   3.602
 2800SOL    HW110194   4.186  -0.007   3.532
 2800SOL    HW210195   4.162   0.119   3.634
 2801SOL     OW10196   4.297   0.870   2.891
 2801SOL    HW110197   4.341   0.959   2.882
 2801SOL    HW210198   4.234   0.870   2.968
 2802SOL     OW10199   5.084   0.862   2.907
 2802SOL    HW110200   5.009   0.862   2.841
 2802SOL    HW210201   5.121   0.770   2.916
 2803SOL     OW10202   4.031   0.213   3.093
 2803SOL    HW110203   4.008   0.250   3.183
 2803SOL    HW210204   4.001   0.118   3.087
 2804SOL     OW10205   4.031   0.063   2.480
 2804SOL    HW110206   4.020   0.157   2.513
 2804SOL    HW210207   4.026   0.000   2.557
 2805SOL     OW10208   5.346   0.367   2.236
 2805SOL    HW110209   5.348   0.291   2.300
 2805SOL    HW210210   5.298   0.444   2.276
 2806SOL     OW10211   4.747   0.766   2.828
 2806SOL    HW110212   4.762   0.787   2.924
 2806SOL    HW210213   4.717   0.671   2.819
 2807SOL     OW10214   4.704   1.573   3.562
 2807SOL    HW110215   4.684   1.617   3.474
 2807SOL    HW210216   4.743   1.482   3.546
 2808SOL     OW10217   4.074   0.898   3.666
 2808SOL    HW110218   4.150   0.942   3.714
 2808SOL    HW210219   4.109   0.851   3.584
 2809SOL     OW10220   5.027   0.838   1.904
 2809SOL    HW110221   5.061   0.745   1.919
 2809SOL    HW210222   5.045   0.865   1.809
 2810SOL     OW10223   4.792   1.333   2.711
 2810SOL    HW110224   4.799   1.249   2.656
 2810SOL    HW210225   4.854   1.402   2.675
 2811SOL     OW10226   4.043   0.810   2.811
 2811SOL    HW110227   4.136   0.846   2.816
 2811SOL    HW210228   4.037   0.725   2.863
 2812SOL     OW10229   4.063   0.509   2.868
 2812SOL    HW110230   4.011   0.426   2.851
 2812SOL    HW210231   4.140   0.514   2.804
 2813SOL     OW10232   4.862   0.380   3.540
 2813SOL    HW110233   4.817   0.443   3.604
 2813SOL    HW210234   4.955   0.411   3.523
 2814SOL     OW10235   4.884   0.207   3.339
 2814SOL    HW110236   4.884   0.271   3.416
 2814SOL    HW210237   4.912   0.255   3.256
 2815SOL     OW10238   3.812   1.801   2.789
 2815SOL    HW110239   3.770   1.715   2.762
 2815SOL    HW210240   3.906   1.804   2.755
 2816SOL     OW10241   3.764   0.544   2.976
 2816SOL    HW110242   3.849   0.511   2.935
 2816SOL    HW210243   3.777   0.559   3.074
 2817SOL     OW10244   3.913   0.520   3.584
 2817SOL    HW110245   3.972   0.480   3.514
 2817SOL    HW210246   3.855   0.591   3.543
 2818SOL     OW10247   3.976   1.564   3.606
 2818SOL    HW110248   3.946   1.621   3.682
 2818SOL    HW210249   3.969   1.467   3.632
 2819SOL     OW10250   4.395   0.464   3.131
 2819SOL    HW110251   4.361   0.375   3.101
 2819SOL    HW210252   4.421   0.518   3.051
 2820SOL     OW10253   4.654   1.678   3.327
 2820SOL    HW110254   4.630   1.660   3.232
 2820SOL    HW210255   4.684   1.772   3.337
 2821SOL     OW10256   4.197   0.500   2.053
 2821SOL    HW110257   4.258   0.580   2.057
 2821SOL    HW210258   4.102   0.531   2.060
 2822SOL     OW10259   3.883   1.137   3.328
 2822SOL    HW110260   3.905   1.076   3.404
 2822SOL    HW210261   3.893   1.088   3.242
 2823SOL     OW10262   5.071   1.059   3.096
 2823SOL    HW110263   5.095   0.996   3.022
 2823SOL    HW210264   4.981   1.099   3.078
 2824SOL     OW10265   4.976   1.731   2.990
 2824SOL    HW110266   5.060   1.736   2.936
 2824SOL    HW210267   4.953   1.635   3.008
 2825SOL     OW10268   3.807   1.258   2.884
 2825SOL    HW110269   3.802   1.257   2.984
 2825SOL    HW210270   3.724   1.217   2.846
 2826SOL     OW10271   4.412   1.662   3.578
 2826SOL    HW110272   4.356   1.743   3.587
 2826SOL    HW210273   4.464   1.666   3.492
 2827SOL     OW10274   5.112   1.573   2.339
 2827SOL    HW110275   5.179   1.585   2.265
 2827SOL    HW210276   5.072   1.662   2.362
 2828SOL     OW10277   4.554   1.273   3.284
 2828SOL    HW110278   4.549   1.306   3.379
 2828SOL    HW210279   4.468   1.292   3.238
 2829SOL     OW10280   4.396   1.616   2.016
 2829SOL    HW110281   4.405   1.626   1.917
 2829SOL    HW210282   4.356   1.527   2.037
 2830SOL     OW10283   3.987   0.326   2.582
 2830SOL    HW110284   3.908   0.377   2.548
 2830SOL    HW210285   3.978   0.311   2.680
 2831SOL     OW10286   4.546   1.002   3.234
 2831SOL    HW110287   4.586   1.001   3.142
 2831SOL    HW210288   4.556   1.094   3.274
 2832SOL     OW10289   4.640   0.910   2.153
 2832SOL    HW110290   4.703   0.948   2.085
 2832SOL    HW210291   4.680   0.827   2.192
 2833SOL     OW10292   4.096   1.288   3.352
 2833SOL    HW110293   4.083   1.381   3.318
 2833SOL    HW210294   4.012   1.236   3.339
 2834SOL     OW10295   4.763   1.098   2.558
 2834SOL    HW110296   4.693   1.051   2.612
 2834SOL    HW210297   4.822   1.030   2.515
 2835SOL     OW10298   4.738   0.236   2.833
 2835SOL    HW110299   4.730   0.200   2.740
 2835SOL    HW210300   4.736   0.160   2.898
 2836SOL     OW10301   4.314   1.487   2.353
 2836SOL    HW110302   4.356   1.429   2.283
 2836SOL    HW210303   4.270   1.566   2.309
 2837SOL     OW10304   3.979   1.348   2.152
 2837SOL    HW110305   3.883   1.349   2.125
 2837SOL    HW210306   3.991   1.401   2.236
 2838SOL     OW10307   3.829   1.013   3.588
 2838SOL    HW110308   3.752   0.980   3.642
 2838SOL    HW210309   3.914   0.983   3.630
 2839SOL     OW10310   4.396   0.203   3.351
 2839SOL    HW110311   4.486   0.187   3.311
 2839SOL    HW210312   4.404   0.208   3.450
 2840SOL     OW10313   3.799   0.345   1.895
 2840SOL    HW110314   3.707   0.317   1.866
 2840SOL    HW210315   3.830   0.422   1.839
 2841SOL     OW10316   5.164   0.856   3.260
 2841SOL    HW110317   5.107   0.908   3.197
 2841SOL    HW210318   5.260   0.868   3.236
 2842SOL     OW10319   3.796   0.166   2.180
 2842SOL    HW110320   3.779   0.249   2.126
 2842SOL    HW210321   3.886   0.129   2.158
 2843SOL     OW10322   4.440   0.565   3.570
 2843SOL    HW110323   4.459   0.630   3.644
 2843SOL    HW210324   4.500   0.485   3.579
 2844SOL     OW10325   4.114   1.741   3.422
 2844SOL    HW110326   4.023   1.782   3.420
 2844SOL    HW210327   4.107   1.647   3.454
 2845SOL     OW10328   4.949   0.325   2.311
 2845SOL    HW110329   5.014   0.251   2.300
 2845SOL    HW210330   4.969   0.375   2.395
 2846SOL     OW10331   4.583   1.374   1.878
 2846SOL    HW110332   4.537   1.389   1.966
 2846SOL    HW210333   4.627   1.459   1.848
 2847SOL     OW10334   4.807   0.984   1.949
 2847SOL    HW110335   4.784   1.037   1.867
 2847SOL    HW210336   4.888   0.928   1.930
 2848SOL     OW10337   3.945   1.314   3.706
 2848SOL    HW110338   3.880   1.241   3.685
 2848SOL    HW210339   3.949   1.328   3.804
 2849SOL     OW10340   4.396   1.391   3.486
 2849SOL    HW110341   4.318   1.341   3.524
 2849SOL    HW210342   4.393   1.486   3.517
 2850SOL     OW10343   4.152   0.424   2.382
 2850SOL    HW110344   4.182   0.352   2.320
 2850SOL    HW210345   4.113   0.384   2.465
 2851SOL     OW10346   4.041   0.547   3.142
 2851SOL    HW110347   4.079   0.488   3.214
 2851SOL    HW210348   4.081   0.521   3.054
 2852SOL     OW10349   4.725   0.034   3.016
 2852SOL    HW110350   4.662  -0.038   2.985
 2852SOL    HW210351   4.818  -0.002   3.016
 2853SOL     OW10352   4.342   1.567   3.146
 2853SOL    HW110353   4.337   1.649   3.203
 2853SOL    HW210354   4.431   1.564   3.101
 2854SOL     OW10355   3.954   0.628   3.837
 2854SOL    HW110356   3.861   0.626   3.874
 2854SOL    HW210357   3.955   0.589   3.745
 2855SOL     OW10358   3.949   0.275   4.720
 2855SOL    HW110359   3.984   0.258   4.812
 2855SOL    HW210360   3.861   0.230   4.708
 2856SOL     OW10361   3.743   0.368   4.371
 2856SOL    HW110362   3.661   0.411   4.410
 2856SOL    HW210363   3.715   0.295   4.308
 2857SOL     OW10364   4.293   1.275   4.889
 2857SOL    HW110365   4.200   1.268   4.852
 2857SOL    HW210366   4.304   1.364   4.933
 2858SOL     OW10367   4.859   0.703   4.441
 2858SOL    HW110368   4.916   0.781   4.416
 2858SOL    HW210369   4.799   0.729   4.517
 2859SOL     OW10370   4.492   1.144   4.747
 2859SOL    HW110371   4.414   1.161   4.807
 2859SOL    HW210372   4.526   1.231   4.711
 2860SOL     OW10373   4.059   1.435   4.785
 2860SOL    HW110374   3.981   1.404   4.732
 2860SOL    HW210375   4.117   1.493   4.728
 2861SOL     OW10376   3.955   1.713   4.207
 2861SOL    HW110377   3.989   1.790   4.261
 2861SOL    HW210378   3.999   1.713   4.117
 2862SOL     OW10379   3.954   1.434   4.262
 2862SOL    HW110380   3.928   1.530   4.262
 2862SOL    HW210381   3.883   1.380   4.307
 2863SOL     OW10382   3.846   0.643   4.287
 2863SOL    HW110383   3.801   0.555   4.304
 2863SOL    HW210384   3.845   0.697   4.371
 2864SOL     OW10385   3.751   1.596   3.841
 2864SOL    HW110386   3.732   1.500   3.862
 2864SOL    HW210387   3.718   1.654   3.916
 2865SOL     OW10388   4.337   1.365   4.450
 2865SOL    HW110389   4.288   1.278   4.459
 2865SOL    HW210390   4.314   1.408   4.363
 2866SOL     OW10391   4.533   0.004   4.226
 2866SOL    HW110392   4.573   0.095   4.217
 2866SOL    HW210393   4.433   0.012   4.232
 2867SOL     OW10394   3.921   0.976   4.988
 2867SOL    HW110395   4.010   0.931   4.974
 2867SOL    HW210396   3.848   0.911   4.969
 2868SOL     OW10397   4.715   0.410   4.966
 2868SOL    HW110398   4.638   0.444   5.020
 2868SOL    HW210399   4.681   0.359   4.887
 2869SOL     OW10400   4.765   0.701   4.153
 2869SOL    HW110401   4.791   0.697   4.249
 2869SOL    HW210402   4.680   0.650   4.139
 2870SOL     OW10403   4.589   0.348   3.919
 2870SOL    HW110404   4.648   0.411   3.870
 2870SOL    HW210405   4.608   0.254   3.890
 2871SOL     OW10406   4.274   0.196   4.609
 2871SOL    HW110407   4.269   0.191   4.709
 2871SOL    HW210408   4.276   0.292   4.580
 2872SOL     OW10409   4.075   1.801   4.577
 2872SOL    HW110410   4.125   1.715   4.583
 2872SOL    HW210411   4.140   1.878   4.574
 2873SOL     OW10412   4.835   1.776   3.961
 2873SOL    HW110413   4.775   1.714   4.011
 2873SOL    HW210414   4.866   1.732   3.876
 2874SOL     OW10415   4.188   1.743   4.047
 2874SOL    HW110416   4.221   1.782   4.133
 2874SOL    HW210417   4.264   1.736   3.982
 2875SOL     OW10418   4.106   0.700   4.204
 2875SOL    HW110419   4.151   0.610   4.201
 2875SOL    HW210420   4.012   0.689   4.237
 2876SOL     OW10421   4.338   0.122   3.841
 2876SOL    HW110422   4.436   0.100   3.848
 2876SOL    HW210423   4.307   0.105   3.748
 2877SOL     OW10424   4.527   1.402   4.648
 2877SOL    HW110425   4.617   1.416   4.606
 2877SOL    HW210426   4.456   1.404   4.577
 2878SOL     OW10427   4.646   0.503   4.623
 2878SOL    HW110428   4.621   0.494   4.527
 2878SOL    HW210429   4.694   0.421   4.654
 2879SOL     OW10430   4.263   0.064   4.236
 2879SOL    HW110431   4.182   0.065   4.294
 2879SOL    HW210432   4.266   0.147   4.181
 2880SOL     OW10433   4.021   0.035   3.895
 2880SOL    HW110434   4.070   0.119   3.874
 2880SOL    HW210435   4.083  -0.030   3.940
 2881SOL     OW10436   4.659   0.236   4.204
 2881SOL    HW110437   4.611   0.277   4.126
 2881SOL    HW210438   4.758   0.234   4.185
 2882SOL     OW10439   4.285   0.222   4.871
 2882SOL    HW110440   4.323   0.138   4.908
 2882SOL    HW210441   4.197   0.241   4.915
 2883SOL     OW10442   4.590   0.454   4.366
 2883SOL    HW110443   4.558   0.526   4.304
 2883SOL    HW210444   4.614   0.373   4.313
 2884SOL     OW10445   4.741   0.039   4.477
 2884SOL    HW110446   4.669   0.044   4.408
 2884SOL    HW210447   4.717  -0.030   4.546
 2885SOL     OW10448   4.212   1.385   3.898
 2885SOL    HW110449   4.125   1.370   3.945
 2885SOL    HW210450   4.195   1.411   3.803
 2886SOL     OW10451   4.251   0.256   4.052
 2886SOL    HW110452   4.278   0.197   3.977
 2886SOL    HW210453   4.251   0.351   4.021
 2887SOL     OW10454   5.316   1.629   5.349
 2887SOL    HW110455   5.343   1.663   5.259
 2887SOL    HW210456   5.395   1.591   5.395
 2888SOL     OW10457   4.835   1.195   4.824
 2888SOL    HW110458   4.795   1.239   4.905
 2888SOL    HW210459   4.794   1.232   4.741
 2889SOL     OW10460   4.976   1.348   4.112
 2889SOL    HW110461   5.026   1.425   4.152
 2889SOL    HW210462   4.881   1.350   4.144
 2890SOL     OW10463   4.933   0.525   3.999
 2890SOL    HW110464   4.946   0.441   4.053
 2890SOL    HW210465   4.904   0.599   4.059
 2891SOL     OW10466   4.031   0.213   4.955
 2891SOL    HW110467   4.008   0.250   5.045
 2891SOL    HW210468   4.001   0.118   4.949
 2892SOL     OW10469   3.761   1.310   5.006
 2892SOL    HW110470   3.814   1.261   5.074
 2892SOL    HW210471   3.783   1.408   5.011
 2893SOL     OW10472   4.456   0.634   4.788
 2893SOL    HW110473   4.515   0.608   4.712
 2893SOL    HW210474   4.428   0.730   4.777
 2894SOL     OW10475   4.031   0.063   4.342
 2894SOL    HW110476   4.020   0.157   4.375
 2894SOL    HW210477   4.026   0.000   4.419
 2895SOL     OW10478   5.346   0.367   4.098
 2895SOL    HW110479   5.348   0.291   4.162
 2895SOL    HW210480   5.298   0.444   4.138
 2896SOL     OW10481   4.747   0.766   4.690
 2896SOL    HW110482   4.762   0.787   4.786
 2896SOL    HW210483   4.717   0.671   4.681
 2897SOL     OW10484   4.884   0.207   5.201
 2897SOL    HW110485   4.884   0.271   5.278
 2897SOL    HW210486   4.912   0.255   5.118
 2898SOL     OW10487   3.732   1.326   3.924
 2898SOL    HW110488   3.639   1.347   3.893
 2898SOL    HW210489   3.742   1.227   3.937
 2899SOL     OW10490   3.812   1.801   4.651
 2899SOL    HW110491   3.770   1.715   4.624
 2899SOL    HW210492   3.906   1.804   4.617
 2900SOL     OW10493   4.228   1.568   4.634
 2900SOL    HW110494   4.294   1.642   4.643
 2900SOL    HW210495   4.272   1.489   4.592
 2901SOL     OW10496   4.539   0.572   4.049
 2901SOL    HW110497   4.546   0.483   4.003
 2901SOL    HW210498   4.445   0.606   4.041
 2902SOL     OW10499   4.395   0.464   4.993
 2902SOL    HW110500   4.361   0.375   4.963
 2902SOL    HW210501   4.421   0.518   4.913
 2903SOL     OW10502   4.654   1.678   5.189
 2903SOL    HW110503   4.630   1.660   5.094
 2903SOL    HW210504   4.684   1.772   5.199
 2904SOL     OW10505   4.197   0.500   3.915
 2904SOL    HW110506   4.258   0.580   3.919
 2904SOL    HW210507   4.102   0.531   3.922
 2905SOL     OW10508   5.071   1.059   4.958
 2905SOL    HW110509   5.095   0.996   4.884
 2905SOL    HW210510   4.981   1.099   4.940
 2906SOL     OW10511   4.976   1.731   4.852
 2906SOL    HW110512   5.060   1.736   4.798
 2906SOL    HW210513   4.953   1.635   4.870
 2907SOL     OW10514   3.807   1.258   4.746
 2907SOL    HW110515   3.802   1.257   4.846
 2907SOL    HW210516   3.724   1.217   4.708
 2908SOL     OW10517   5.112   1.573   4.201
 2908SOL    HW110518   5.179   1.585   4.127
 2908SOL    HW210519   5.072   1.662   4.224
 2909SOL     OW10520   5.004   0.927   4.396
 2909SOL    HW110521   5.064   0.846   4.398
 2909SOL    HW210522   5.044   0.996   4.336
 2910SOL     OW10523   4.396   1.616   3.878
 2910SOL    HW110524   4.405   1.626   3.779
 2910SOL    HW210525   4.356   1.527   3.899
 2911SOL     OW10526   3.987   0.326   4.444
 2911SOL    HW110527   3.908   0.377   4.410
 2911SOL    HW210528   3.978   0.311   4.542
 2912SOL     OW10529   4.918   1.612   3.755
 2912SOL    HW110530   4.924   1.519   3.792
 2912SOL    HW210531   4.859   1.612   3.675
 2913SOL     OW10532   4.546   1.002   5.096
 2913SOL    HW110533   4.586   1.001   5.004
 2913SOL    HW210534   4.556   1.094   5.136
 2914SOL     OW10535   4.763   1.098   4.420
 2914SOL    HW110536   4.693   1.051   4.474
 2914SOL    HW210537   4.822   1.030   4.377
 2915SOL     OW10538   4.738   0.236   4.695
 2915SOL    HW110539   4.730   0.200   4.602
 2915SOL    HW210540   4.736   0.160   4.760
 2916SOL     OW10541   4.314   1.487   4.215
 2916SOL    HW110542   4.356   1.429   4.145
 2916SOL    HW210543   4.270   1.566   4.171
 2917SOL     OW10544   3.979   1.348   4.014
 2917SOL    HW110545   3.883   1.349   3.987
 2917SOL    HW210546   3.991   1.401   4.098
 2918SOL     OW10547   3.799   0.345   3.757
 2918SOL    HW110548   3.707   0.317   3.728
 2918SOL    HW210549   3.830   0.422   3.701
 2919SOL     OW10550   3.796   0.166   4.042
 2919SOL    HW110551   3.779   0.249   3.988
 2919SOL    HW210552   3.886   0.129   4.020
 2920SOL     OW10553   4.949   0.325   4.173
 2920SOL    HW110554   5.014   0.251   4.162
 2920SOL    HW210555   4.969   0.375   4.257
 2921SOL     OW10556   4.318   0.745   4.376
 2921SOL    HW110557   4.368   0.830   4.357
 2921SOL    HW210558   4.230   0.747   4.328
 2922SOL     OW10559   4.385   1.790   4.677
 2922SOL    HW110560   4.339   1.878   4.664
 2922SOL    HW210561   4.484   1.802   4.670
 2923SOL     OW10562   4.152   0.424   4.244
 2923SOL    HW110563   4.182   0.352   4.182
 2923SOL    HW210564   4.113   0.384   4.327
 2924SOL     OW10565   4.725   0.034   4.878
 2924SOL    HW110566   4.662  -0.038   4.847
 2924SOL    HW210567   4.818  -0.002   4.878
 2925SOL     OW10568   3.763   1.077   4.024
 2925SOL    HW110569   3.862   1.066   4.015
 2925SOL    HW210570   3.723   0.991   4.056
 2926SOL     OW10571   3.954   2.490   0.113
 2926SOL    HW110572   3.861   2.488   0.150
 2926SOL    HW210573   3.955   2.451   0.021
 2927SOL     OW10574   3.949   2.137   0.996
 2927SOL    HW110575   3.984   2.120   1.088
 2927SOL    HW210576   3.861   2.092   0.984
 2928SOL     OW10577   3.743   2.230   0.647
 2928SOL    HW110578   3.661   2.273   0.686
 2928SOL    HW210579   3.715   2.157   0.584
 2929SOL     OW10580   4.293   3.137   1.165
 2929SOL    HW110581   4.200   3.130   1.128
 2929SOL    HW210582   4.304   3.226   1.209
 2930SOL     OW10583   4.492   3.006   1.023
 2930SOL    HW110584   4.414   3.023   1.083
 2930SOL    HW210585   4.526   3.093   0.987
 2931SOL     OW10586   4.574   2.660   1.823
 2931SOL    HW110587   4.570   2.736   1.888
 2931SOL    HW210588   4.596   2.696   1.732
 2932SOL     OW10589   4.409   2.874   0.665
 2932SOL    HW110590   4.478   2.858   0.735
 2932SOL    HW210591   4.336   2.931   0.703
 2933SOL     OW10592   4.410   3.023   1.803
 2933SOL    HW110593   4.470   3.102   1.817
 2933SOL    HW210594   4.324   3.054   1.762
 2934SOL     OW10595   4.059   3.297   1.061
 2934SOL    HW110596   3.981   3.266   1.008
 2934SOL    HW210597   4.117   3.355   1.004
 2935SOL     OW10598   4.162   2.254   1.499
 2935SOL    HW110599   4.244   2.198   1.508
 2935SOL    HW210600   4.081   2.196   1.503
 2936SOL     OW10601   4.851   3.203   1.690
 2936SOL    HW110602   4.898   3.203   1.778
 2936SOL    HW210603   4.803   3.116   1.679
 2937SOL     OW10604   3.964   2.953   0.886
 2937SOL    HW110605   3.978   2.869   0.938
 2937SOL    HW210606   3.909   3.017   0.941
 2938SOL     OW10607   4.344   3.648   1.439
 2938SOL    HW110608   4.252   3.631   1.474
 2938SOL    HW210609   4.372   3.740   1.465
 2939SOL     OW10610   4.330   2.826   0.123
 2939SOL    HW110611   4.337   2.910   0.069
 2939SOL    HW210612   4.376   2.839   0.211
 2940SOL     OW10613   3.846   2.505   0.563
 2940SOL    HW110614   3.801   2.417   0.580
 2940SOL    HW210615   3.845   2.559   0.647
 2941SOL     OW10616   3.751   3.458   0.117
 2941SOL    HW110617   3.732   3.362   0.138
 2941SOL    HW210618   3.718   3.516   0.192
 2942SOL     OW10619   3.837   2.599   1.597
 2942SOL    HW110620   3.925   2.586   1.642
 2942SOL    HW210621   3.824   2.696   1.575
 2943SOL     OW10622   4.337   3.227   0.726
 2943SOL    HW110623   4.288   3.140   0.735
 2943SOL    HW210624   4.314   3.270   0.639
 2944SOL     OW10625   5.017   3.090   1.423
 2944SOL    HW110626   5.054   3.017   1.365
 2944SOL    HW210627   5.069   3.095   1.508
 2945SOL     OW10628   3.921   2.838   1.264
 2945SOL    HW110629   4.010   2.793   1.250
 2945SOL    HW210630   3.848   2.773   1.245
 2946SOL     OW10631   4.911   3.654   1.616
 2946SOL    HW110632   4.935   3.714   1.540
 2946SOL    HW210633   4.918   3.559   1.586
 2947SOL     OW10634   4.041   2.113   1.801
 2947SOL    HW110635   4.112   2.184   1.807
 2947SOL    HW210636   3.953   2.152   1.829
 2948SOL     OW10637   4.322   2.591   0.270
 2948SOL    HW110638   4.346   2.660   0.202
 2948SOL    HW210639   4.244   2.624   0.324
 2949SOL     OW10640   4.531   2.467   1.465
 2949SOL    HW110641   4.484   2.464   1.554
 2949SOL    HW210642   4.480   2.412   1.399
 2950SOL     OW10643   4.697   2.752   1.572
 2950SOL    HW110644   4.743   2.668   1.543
 2950SOL    HW210645   4.641   2.786   1.497
 2951SOL     OW10646   4.715   2.272   1.242
 2951SOL    HW110647   4.638   2.306   1.296
 2951SOL    HW210648   4.681   2.221   1.163
 2952SOL     OW10649   3.800   2.673   0.789
 2952SOL    HW110650   3.899   2.661   0.798
 2952SOL    HW210651   3.776   2.768   0.810
 2953SOL     OW10652   3.854   3.683   1.571
 2953SOL    HW110653   3.844   3.668   1.670
 2953SOL    HW210654   3.768   3.719   1.535
 2954SOL     OW10655   4.274   2.058   0.885
 2954SOL    HW110656   4.269   2.053   0.985
 2954SOL    HW210657   4.276   2.154   0.856
 2955SOL     OW10658   4.732   3.318   0.477
 2955SOL    HW110659   4.686   3.390   0.425
 2955SOL    HW210660   4.728   3.338   0.575
 2956SOL     OW10661   4.075   3.663   0.853
 2956SOL    HW110662   4.125   3.577   0.859
 2956SOL    HW210663   4.140   3.740   0.850
 2957SOL     OW10664   4.951   3.412   1.506
 2957SOL    HW110665   4.957   3.335   1.570
 2957SOL    HW210666   4.899   3.386   1.426
 2958SOL     OW10667   4.045   2.805   0.242
 2958SOL    HW110668   4.127   2.844   0.200
 2958SOL    HW210669   4.018   2.723   0.193
 2959SOL     OW10670   4.185   3.128   1.727
 2959SOL    HW110671   4.135   3.129   1.641
 2959SOL    HW210672   4.122   3.110   1.803
 2960SOL     OW10673   4.835   3.638   0.237
 2960SOL    HW110674   4.775   3.576   0.287
 2960SOL    HW210675   4.866   3.594   0.152
 2961SOL     OW10676   3.926   2.147   1.498
 2961SOL    HW110677   3.846   2.207   1.485
 2961SOL    HW210678   3.916   2.098   1.584
 2962SOL     OW10679   4.188   3.605   0.323
 2962SOL    HW110680   4.221   3.644   0.409
 2962SOL    HW210681   4.264   3.598   0.258
 2963SOL     OW10682   3.973   3.647   1.241
 2963SOL    HW110683   4.030   3.582   1.291
 2963SOL    HW210684   3.957   3.614   1.148
 2964SOL     OW10685   4.664   3.560   0.904
 2964SOL    HW110686   4.744   3.503   0.925
 2964SOL    HW210687   4.615   3.520   0.827
 2965SOL     OW10688   4.106   2.562   0.480
 2965SOL    HW110689   4.151   2.472   0.477
 2965SOL    HW210690   4.012   2.551   0.513
 2966SOL     OW10691   4.505   2.126   1.749
 2966SOL    HW110692   4.572   2.065   1.792
 2966SOL    HW210693   4.432   2.145   1.814
 2967SOL     OW10694   4.612   3.376   1.195
 2967SOL    HW110695   4.589   3.351   1.101
 2967SOL    HW210696   4.673   3.307   1.234
 2968SOL     OW10697   4.527   3.264   0.924
 2968SOL    HW110698   4.617   3.278   0.882
 2968SOL    HW210699   4.456   3.266   0.853
 2969SOL     OW10700   4.263   1.926   0.512
 2969SOL    HW110701   4.182   1.927   0.570
 2969SOL    HW210702   4.266   2.009   0.457
 2970SOL     OW10703   4.800   2.545   1.464
 2970SOL    HW110704   4.720   2.484   1.467
 2970SOL    HW210705   4.881   2.492   1.440
 2971SOL     OW10706   4.951   3.432   0.793
 2971SOL    HW110707   4.972   3.506   0.728
 2971SOL    HW210708   5.019   3.432   0.866
 2972SOL     OW10709   4.995   3.659   0.591
 2972SOL    HW110710   5.039   3.723   0.527
 2972SOL    HW210711   4.945   3.711   0.661
 2973SOL     OW10712   4.756   2.411   0.016
 2973SOL    HW110713   4.715   2.493  -0.023
 2973SOL    HW210714   4.820   2.437   0.089
 2974SOL     OW10715   3.802   2.418   1.386
 2974SOL    HW110716   3.894   2.417   1.345
 2974SOL    HW210717   3.796   2.492   1.453
 2975SOL     OW10718   4.285   2.084   1.147
 2975SOL    HW110719   4.323   2.000   1.184
 2975SOL    HW210720   4.197   2.103   1.191
 2976SOL     OW10721   4.741   1.901   0.753
 2976SOL    HW110722   4.669   1.906   0.684
 2976SOL    HW210723   4.717   1.832   0.822
 2977SOL     OW10724   4.212   3.247   0.174
 2977SOL    HW110725   4.125   3.232   0.221
 2977SOL    HW210726   4.195   3.273   0.079
 2978SOL     OW10727   4.251   2.118   0.328
 2978SOL    HW110728   4.278   2.059   0.253
 2978SOL    HW210729   4.251   2.213   0.297
 2979SOL     OW10730   4.788   3.209   1.340
 2979SOL    HW110731   4.708   3.186   1.395
 2979SOL    HW210732   4.871   3.183   1.389
 2980SOL     OW10733   4.835   3.057   1.100
 2980SOL    HW110734   4.795   3.101   1.181
 2980SOL    HW210735   4.794   3.094   1.017
 2981SOL     OW10736   4.639   1.951   1.402
 2981SOL    HW110737   4.664   1.931   1.307
 2981SOL    HW210738   4.711   2.007   1.444
 2982SOL     OW10739   4.704   2.978   1.719
 2982SOL    HW110740   4.605   2.984   1.729
 2982SOL    HW210741   4.727   2.898   1.663
 2983SOL     OW10742   4.134   2.675   1.251
 2983SOL    HW110743   4.220   2.687   1.301
 2983SOL    HW210744   4.092   2.588   1.278
 2984SOL     OW10745   4.998   2.248   1.262
 2984SOL    HW110746   5.019   2.322   1.326
 2984SOL    HW210747   4.909   2.265   1.219
 2985SOL     OW10748   3.788   3.426   1.331
 2985SOL    HW110749   3.742   3.508   1.297
 2985SOL    HW210750   3.886   3.445   1.340
 2986SOL     OW10751   4.290   2.399   0.865
 2986SOL    HW110752   4.302   2.465   0.791
 2986SOL    HW210753   4.336   2.433   0.948
 2987SOL     OW10754   4.976   3.210   0.388
 2987SOL    HW110755   5.026   3.287   0.428
 2987SOL    HW210756   4.881   3.212   0.420
 2988SOL     OW10757   4.078   3.372   1.329
 2988SOL    HW110758   4.057   3.328   1.242
 2988SOL    HW210759   4.175   3.398   1.332
 2989SOL     OW10760   4.126   2.613   1.598
 2989SOL    HW110761   4.194   2.668   1.551
 2989SOL    HW210762   4.166   2.525   1.625
 2990SOL     OW10763   4.737   1.967   1.770
 2990SOL    HW110764   4.743   2.052   1.718
 2990SOL    HW210765   4.769   1.891   1.713
 2991SOL     OW10766   4.228   1.912   1.740
 2991SOL    HW110767   4.186   1.855   1.670
 2991SOL    HW210768   4.162   1.981   1.772
 2992SOL     OW10769   4.297   2.732   1.029
 2992SOL    HW110770   4.341   2.821   1.020
 2992SOL    HW210771   4.234   2.732   1.106
 2993SOL     OW10772   5.084   2.724   1.045
 2993SOL    HW110773   5.009   2.724   0.979
 2993SOL    HW210774   5.121   2.632   1.054
 2994SOL     OW10775   4.933   2.387   0.275
 2994SOL    HW110776   4.946   2.303   0.329
 2994SOL    HW210777   4.904   2.461   0.335
 2995SOL     OW10778   4.031   2.075   1.231
 2995SOL    HW110779   4.008   2.112   1.321
 2995SOL    HW210780   4.001   1.980   1.225
 2996SOL     OW10781   3.761   3.172   1.282
 2996SOL    HW110782   3.814   3.123   1.350
 2996SOL    HW210783   3.783   3.270   1.287
 2997SOL     OW10784   4.456   2.496   1.064
 2997SOL    HW110785   4.515   2.470   0.988
 2997SOL    HW210786   4.428   2.592   1.053
 2998SOL     OW10787   4.031   1.925   0.618
 2998SOL    HW110788   4.020   2.019   0.651
 2998SOL    HW210789   4.026   1.862   0.695
 2999SOL     OW10790   5.346   2.229   0.374
 2999SOL    HW110791   5.348   2.153   0.438
 2999SOL    HW210792   5.298   2.306   0.414
 3000SOL     OW10793   4.704   3.435   1.700
 3000SOL    HW110794   4.684   3.479   1.612
 3000SOL    HW210795   4.743   3.344   1.684
 3001SOL     OW10796   5.027   2.700   0.042
 3001SOL    HW110797   5.061   2.607   0.057
 3001SOL    HW210798   5.045   2.727  -0.053
 3002SOL     OW10799   4.792   3.195   0.849
 3002SOL    HW110800   4.799   3.111   0.794
 3002SOL    HW210801   4.854   3.264   0.813
 3003SOL     OW10802   4.043   2.672   0.949
 3003SOL    HW110803   4.136   2.708   0.954
 3003SOL    HW210804   4.037   2.587   1.001
 3004SOL     OW10805   4.063   2.371   1.006
 3004SOL    HW110806   4.011   2.288   0.989
 3004SOL    HW210807   4.140   2.376   0.942
 3005SOL     OW10808   4.862   2.242   1.678
 3005SOL    HW110809   4.817   2.305   1.742
 3005SOL    HW210810   4.955   2.273   1.661
 3006SOL     OW10811   4.884   2.069   1.477
 3006SOL    HW110812   4.884   2.133   1.554
 3006SOL    HW210813   4.912   2.117   1.394
 3007SOL     OW10814   3.812   3.663   0.927
 3007SOL    HW110815   3.770   3.577   0.900
 3007SOL    HW210816   3.906   3.666   0.893
 3008SOL     OW10817   4.228   3.430   0.910
 3008SOL    HW110818   4.294   3.504   0.919
 3008SOL    HW210819   4.272   3.351   0.868
 3009SOL     OW10820   4.726   2.658   1.238
 3009SOL    HW110821   4.767   2.626   1.324
 3009SOL    HW210822   4.630   2.631   1.235
 3010SOL     OW10823   3.764   2.406   1.114
 3010SOL    HW110824   3.849   2.373   1.073
 3010SOL    HW210825   3.777   2.421   1.212
 3011SOL     OW10826   3.913   2.382   1.722
 3011SOL    HW110827   3.972   2.342   1.652
 3011SOL    HW210828   3.855   2.453   1.681
 3012SOL     OW10829   4.395   2.326   1.269
 3012SOL    HW110830   4.361   2.237   1.239
 3012SOL    HW210831   4.421   2.380   1.189
 3013SOL     OW10832   4.654   3.540   1.465
 3013SOL    HW110833   4.630   3.522   1.370
 3013SOL    HW210834   4.684   3.634   1.475
 3014SOL     OW10835   4.197   2.362   0.191
 3014SOL    HW110836   4.258   2.442   0.195
 3014SOL    HW210837   4.102   2.393   0.198
 3015SOL     OW10838   3.883   2.999   1.466
 3015SOL    HW110839   3.905   2.938   1.542
 3015SOL    HW210840   3.893   2.950   1.380
 3016SOL     OW10841   5.071   2.921   1.234
 3016SOL    HW110842   5.095   2.858   1.160
 3016SOL    HW210843   4.981   2.961   1.216
 3017SOL     OW10844   4.976   3.593   1.128
 3017SOL    HW110845   5.060   3.598   1.074
 3017SOL    HW210846   4.953   3.497   1.146
 3018SOL     OW10847   3.807   3.120   1.022
 3018SOL    HW110848   3.802   3.119   1.122
 3018SOL    HW210849   3.724   3.079   0.984
 3019SOL     OW10850   4.412   3.524   1.716
 3019SOL    HW110851   4.356   3.605   1.725
 3019SOL    HW210852   4.464   3.528   1.630
 3020SOL     OW10853   4.627   1.948   0.133
 3020SOL    HW110854   4.678   1.949   0.047
 3020SOL    HW210855   4.683   1.906   0.204
 3021SOL     OW10856   3.854   3.656   1.851
 3021SOL    HW110857   3.813   3.582   1.904
 3021SOL    HW210858   3.918   3.707   1.909
 3022SOL     OW10859   4.554   3.135   1.422
 3022SOL    HW110860   4.549   3.168   1.517
 3022SOL    HW210861   4.468   3.154   1.376
 3023SOL     OW10862   4.396   3.478   0.154
 3023SOL    HW110863   4.405   3.488   0.055
 3023SOL    HW210864   4.356   3.389   0.175
 3024SOL     OW10865   3.987   2.188   0.720
 3024SOL    HW110866   3.908   2.239   0.686
 3024SOL    HW210867   3.978   2.173   0.818
 3025SOL     OW10868   4.918   3.474   0.031
 3025SOL    HW110869   4.924   3.381   0.068
 3025SOL    HW210870   4.859   3.474  -0.049
 3026SOL     OW10871   4.546   2.864   1.372
 3026SOL    HW110872   4.586   2.863   1.280
 3026SOL    HW210873   4.556   2.956   1.412
 3027SOL     OW10874   4.763   2.960   0.696
 3027SOL    HW110875   4.693   2.913   0.750
 3027SOL    HW210876   4.822   2.892   0.653
 3028SOL     OW10877   4.738   2.098   0.971
 3028SOL    HW110878   4.730   2.062   0.878
 3028SOL    HW210879   4.736   2.022   1.036
 3029SOL     OW10880   4.314   3.349   0.491
 3029SOL    HW110881   4.356   3.291   0.421
 3029SOL    HW210882   4.270   3.428   0.447
 3030SOL     OW10883   3.979   3.210   0.290
 3030SOL    HW110884   3.883   3.211   0.263
 3030SOL    HW210885   3.991   3.263   0.374
 3031SOL     OW10886   4.396   2.065   1.489
 3031SOL    HW110887   4.486   2.049   1.449
 3031SOL    HW210888   4.404   2.070   1.588
 3032SOL     OW10889   5.164   2.718   1.398
 3032SOL    HW110890   5.107   2.770   1.335
 3032SOL    HW210891   5.260   2.730   1.374
 3033SOL     OW10892   3.796   2.028   0.318
 3033SOL    HW110893   3.779   2.111   0.264
 3033SOL    HW210894   3.886   1.991   0.296
 3034SOL     OW10895   4.337   2.704   1.431
 3034SOL    HW110896   4.393   2.785   1.414
 3034SOL    HW210897   4.396   2.624   1.434
 3035SOL     OW10898   4.440   2.427   1.708
 3035SOL    HW110899   4.459   2.492   1.782
 3035SOL    HW210900   4.500   2.347   1.717
 3036SOL     OW10901   4.114   3.603   1.560
 3036SOL    HW110902   4.023   3.644   1.558
 3036SOL    HW210903   4.107   3.509   1.592
 3037SOL     OW10904   4.583   3.236   0.016
 3037SOL    HW110905   4.537   3.251   0.104
 3037SOL    HW210906   4.627   3.321  -0.014
 3038SOL     OW10907   4.385   3.652   0.953
 3038SOL    HW110908   4.339   3.740   0.940
 3038SOL    HW210909   4.484   3.664   0.946
 3039SOL     OW10910   4.583   2.818   0.861
 3039SOL    HW110911   4.637   2.749   0.909
 3039SOL    HW210912   4.551   2.887   0.927
 3040SOL     OW10913   4.807   2.846   0.087
 3040SOL    HW110914   4.784   2.899   0.005
 3040SOL    HW210915   4.888   2.790   0.068
 3041SOL     OW10916   4.396   3.253   1.624
 3041SOL    HW110917   4.318   3.203   1.662
 3041SOL    HW210918   4.393   3.348   1.655
 3042SOL     OW10919   4.152   2.286   0.520
 3042SOL    HW110920   4.182   2.214   0.458
 3042SOL    HW210921   4.113   2.246   0.603
 3043SOL     OW10922   4.041   2.409   1.280
 3043SOL    HW110923   4.079   2.350   1.352
 3043SOL    HW210924   4.081   2.383   1.192
 3044SOL     OW10925   4.536   3.448   0.687
 3044SOL    HW110926   4.568   3.458   0.593
 3044SOL    HW210927   4.457   3.386   0.689
 3045SOL     OW10928   4.725   1.896   1.154
 3045SOL    HW110929   4.662   1.824   1.123
 3045SOL    HW210930   4.818   1.860   1.154
 3046SOL     OW10931   4.494   3.192   0.301
 3046SOL    HW110932   4.448   3.105   0.318
 3046SOL    HW210933   4.585   3.189   0.342
 3047SOL     OW10934   4.342   3.429   1.284
 3047SOL    HW110935   4.337   3.511   1.341
 3047SOL    HW210936   4.431   3.426   1.239
 3048SOL     OW10937   3.763   2.939   0.300
 3048SOL    HW110938   3.862   2.928   0.291
 3048SOL    HW210939   3.723   2.853   0.332
 3049SOL     OW10940   4.599   3.508   0.337
 3049SOL    HW110941   4.522   3.473   0.283
 3049SOL    HW210942   4.567   3.579   0.399
 3050SOL     OW10943   3.949   2.137   2.858
 3050SOL    HW110944   3.984   2.120   2.950
 3050SOL    HW210945   3.861   2.092   2.846
 3051SOL     OW10946   4.293   3.137   3.027
 3051SOL    HW110947   4.200   3.130   2.990
 3051SOL    HW210948   4.304   3.226   3.071
 3052SOL     OW10949   4.574   2.660   3.685
 3052SOL    HW110950   4.570   2.736   3.750
 3052SOL    HW210951   4.596   2.696   3.594
 3053SOL     OW10952   4.410   3.023   3.665
 3053SOL    HW110953   4.470   3.102   3.679
 3053SOL    HW210954   4.324   3.054   3.624
 3054SOL     OW10955   4.059   3.297   2.923
 3054SOL    HW110956   3.981   3.266   2.870
 3054SOL    HW210957   4.117   3.355   2.866
 3055SOL     OW10958   4.162   2.254   3.361
 3055SOL    HW110959   4.244   2.198   3.370
 3055SOL    HW210960   4.081   2.196   3.365
 3056SOL     OW10961   3.955   3.575   2.345
 3056SOL    HW110962   3.989   3.652   2.399
 3056SOL    HW210963   3.999   3.575   2.255
 3057SOL     OW10964   3.954   3.296   2.400
 3057SOL    HW110965   3.928   3.392   2.400
 3057SOL    HW210966   3.883   3.242   2.445
 3058SOL     OW10967   3.964   2.953   2.748
 3058SOL    HW110968   3.978   2.869   2.800
 3058SOL    HW210969   3.909   3.017   2.803
 3059SOL     OW10970   4.344   3.648   3.301
 3059SOL    HW110971   4.252   3.631   3.336
 3059SOL    HW210972   4.372   3.740   3.327
 3060SOL     OW10973   3.846   2.505   2.425
 3060SOL    HW110974   3.801   2.417   2.442
 3060SOL    HW210975   3.845   2.559   2.509
 3061SOL     OW10976   3.751   3.458   1.979
 3061SOL    HW110977   3.732   3.362   2.000
 3061SOL    HW210978   3.718   3.516   2.054
 3062SOL     OW10979   3.837   2.599   3.459
 3062SOL    HW110980   3.925   2.586   3.504
 3062SOL    HW210981   3.824   2.696   3.437
 3063SOL     OW10982   4.337   3.227   2.588
 3063SOL    HW110983   4.288   3.140   2.597
 3063SOL    HW210984   4.314   3.270   2.501
 3064SOL     OW10985   5.017   3.090   3.285
 3064SOL    HW110986   5.054   3.017   3.227
 3064SOL    HW210987   5.069   3.095   3.370
 3065SOL     OW10988   3.921   2.838   3.126
 3065SOL    HW110989   4.010   2.793   3.112
 3065SOL    HW210990   3.848   2.773   3.107
 3066SOL     OW10991   4.911   3.654   3.478
 3066SOL    HW110992   4.935   3.714   3.402
 3066SOL    HW210993   4.918   3.559   3.448
 3067SOL     OW10994   4.041   2.113   3.663
 3067SOL    HW110995   4.112   2.184   3.669
 3067SOL    HW210996   3.953   2.152   3.691
 3068SOL     OW10997   4.322   2.591   2.132
 3068SOL    HW110998   4.346   2.660   2.064
 3068SOL    HW210999   4.244   2.624   2.186
 3069SOL     OW11000   5.005   2.207   2.806
 3069SOL    HW111001   4.919   2.157   2.793
 3069SOL    HW211002   5.067   2.153   2.862
 3070SOL     OW11003   4.531   2.467   3.327
 3070SOL    HW111004   4.484   2.464   3.416
 3070SOL    HW211005   4.480   2.412   3.261
 3071SOL     OW11006   4.697   2.752   3.434
 3071SOL    HW111007   4.743   2.668   3.405
 3071SOL    HW211008   4.641   2.786   3.359
 3072SOL     OW11009   4.765   2.563   2.291
 3072SOL    HW111010   4.791   2.559   2.387
 3072SOL    HW211011   4.680   2.512   2.277
 3073SOL     OW11012   3.800   2.673   2.651
 3073SOL    HW111013   3.899   2.661   2.660
 3073SOL    HW211014   3.776   2.768   2.672
 3074SOL     OW11015   3.854   3.683   3.433
 3074SOL    HW111016   3.844   3.668   3.532
 3074SOL    HW211017   3.768   3.719   3.397
 3075SOL     OW11018   4.589   2.210   2.057
 3075SOL    HW111019   4.648   2.273   2.008
 3075SOL    HW211020   4.608   2.116   2.028
 3076SOL     OW11021   4.732   3.318   2.339
 3076SOL    HW111022   4.686   3.390   2.287
 3076SOL    HW211023   4.728   3.338   2.437
 3077SOL     OW11024   4.075   3.663   2.715
 3077SOL    HW111025   4.125   3.577   2.721
 3077SOL    HW211026   4.140   3.740   2.712
 3078SOL     OW11027   4.951   3.412   3.368
 3078SOL    HW111028   4.957   3.335   3.432
 3078SOL    HW211029   4.899   3.386   3.288
 3079SOL     OW11030   4.185   3.128   3.589
 3079SOL    HW111031   4.135   3.129   3.503
 3079SOL    HW211032   4.122   3.110   3.665
 3080SOL     OW11033   3.926   2.147   3.360
 3080SOL    HW111034   3.846   2.207   3.347
 3080SOL    HW211035   3.916   2.098   3.446
 3081SOL     OW11036   4.188   3.605   2.185
 3081SOL    HW111037   4.221   3.644   2.271
 3081SOL    HW211038   4.264   3.598   2.120
 3082SOL     OW11039   3.973   3.647   3.103
 3082SOL    HW111040   4.030   3.582   3.153
 3082SOL    HW211041   3.957   3.614   3.010
 3083SOL     OW11042   4.664   3.560   2.766
 3083SOL    HW111043   4.744   3.503   2.787
 3083SOL    HW211044   4.615   3.520   2.689
 3084SOL     OW11045   4.106   2.562   2.342
 3084SOL    HW111046   4.151   2.472   2.339
 3084SOL    HW211047   4.012   2.551   2.375
 3085SOL     OW11048   4.338   1.984   1.979
 3085SOL    HW111049   4.436   1.962   1.986
 3085SOL    HW211050   4.307   1.967   1.886
 3086SOL     OW11051   4.505   2.126   3.611
 3086SOL    HW111052   4.572   2.065   3.654
 3086SOL    HW211053   4.432   2.145   3.676
 3087SOL     OW11054   4.612   3.376   3.057
 3087SOL    HW111055   4.589   3.351   2.963
 3087SOL    HW211056   4.673   3.307   3.096
 3088SOL     OW11057   4.527   3.264   2.786
 3088SOL    HW111058   4.617   3.278   2.744
 3088SOL    HW211059   4.456   3.266   2.715
 3089SOL     OW11060   4.263   1.926   2.374
 3089SOL    HW111061   4.182   1.927   2.432
 3089SOL    HW211062   4.266   2.009   2.319
 3090SOL     OW11063   4.659   2.098   2.342
 3090SOL    HW111064   4.611   2.139   2.264
 3090SOL    HW211065   4.758   2.096   2.323
 3091SOL     OW11066   4.800   2.545   3.326
 3091SOL    HW111067   4.720   2.484   3.329
 3091SOL    HW211068   4.881   2.492   3.302
 3092SOL     OW11069   4.183   3.014   2.603
 3092SOL    HW111070   4.112   2.987   2.668
 3092SOL    HW211071   4.157   2.986   2.510
 3093SOL     OW11072   4.756   2.411   1.878
 3093SOL    HW111073   4.715   2.493   1.839
 3093SOL    HW211074   4.820   2.437   1.951
 3094SOL     OW11075   3.802   2.418   3.248
 3094SOL    HW111076   3.894   2.417   3.207
 3094SOL    HW211077   3.796   2.492   3.315
 3095SOL     OW11078   4.285   2.084   3.009
 3095SOL    HW111079   4.323   2.000   3.046
 3095SOL    HW211080   4.197   2.103   3.053
 3096SOL     OW11081   4.212   3.247   2.036
 3096SOL    HW111082   4.125   3.232   2.083
 3096SOL    HW211083   4.195   3.273   1.941
 3097SOL     OW11084   5.388   3.142   2.519
 3097SOL    HW111085   5.487   3.150   2.533
 3097SOL    HW211086   5.343   3.226   2.550
 3098SOL     OW11087   4.251   2.118   2.190
 3098SOL    HW111088   4.278   2.059   2.115
 3098SOL    HW211089   4.251   2.213   2.159
 3099SOL     OW11090   4.788   3.209   3.202
 3099SOL    HW111091   4.708   3.186   3.257
 3099SOL    HW211092   4.871   3.183   3.251
 3100SOL     OW11093   4.835   3.057   2.962
 3100SOL    HW111094   4.795   3.101   3.043
 3100SOL    HW211095   4.794   3.094   2.879
 3101SOL     OW11096   4.704   2.978   3.581
 3101SOL    HW111097   4.605   2.984   3.591
 3101SOL    HW211098   4.727   2.898   3.525
 3102SOL     OW11099   4.134   2.675   3.113
 3102SOL    HW111100   4.220   2.687   3.163
 3102SOL    HW211101   4.092   2.588   3.140
 3103SOL     OW11102   4.998   2.248   3.124
 3103SOL    HW111103   5.019   2.322   3.188
 3103SOL    HW211104   4.909   2.265   3.081
 3104SOL     OW11105   3.788   3.426   3.193
 3104SOL    HW111106   3.742   3.508   3.159
 3104SOL    HW211107   3.886   3.445   3.202
 3105SOL     OW11108   4.091   2.962   2.363
 3105SOL    HW111109   4.084   3.045   2.307
 3105SOL    HW211110   4.095   2.882   2.303
 3106SOL     OW11111   4.078   3.372   3.191
 3106SOL    HW111112   4.057   3.328   3.104
 3106SOL    HW211113   4.175   3.398   3.194
 3107SOL     OW11114   4.126   2.613   3.460
 3107SOL    HW111115   4.194   2.668   3.413
 3107SOL    HW211116   4.166   2.525   3.487
 3108SOL     OW11117   4.737   1.967   3.632
 3108SOL    HW111118   4.743   2.052   3.580
 3108SOL    HW211119   4.769   1.891   3.575
 3109SOL     OW11120   4.228   1.912   3.602
 3109SOL    HW111121   4.186   1.855   3.532
 3109SOL    HW211122   4.162   1.981   3.634
 3110SOL     OW11123   5.084   2.724   2.907
 3110SOL    HW111124   5.009   2.724   2.841
 3110SOL    HW211125   5.121   2.632   2.916
 3111SOL     OW11126   4.933   2.387   2.137
 3111SOL    HW111127   4.946   2.303   2.191
 3111SOL    HW211128   4.904   2.461   2.197
 3112SOL     OW11129   4.031   2.075   3.093
 3112SOL    HW111130   4.008   2.112   3.183
 3112SOL    HW211131   4.001   1.980   3.087
 3113SOL     OW11132   3.761   3.172   3.144
 3113SOL    HW111133   3.814   3.123   3.212
 3113SOL    HW211134   3.783   3.270   3.149
 3114SOL     OW11135   5.346   2.229   2.236
 3114SOL    HW111136   5.348   2.153   2.300
 3114SOL    HW211137   5.298   2.306   2.276
 3115SOL     OW11138   4.704   3.435   3.562
 3115SOL    HW111139   4.684   3.479   3.474
 3115SOL    HW211140   4.743   3.344   3.546
 3116SOL     OW11141   4.074   2.760   3.666
 3116SOL    HW111142   4.150   2.804   3.714
 3116SOL    HW211143   4.109   2.713   3.584
 3117SOL     OW11144   5.027   2.700   1.904
 3117SOL    HW111145   5.061   2.607   1.919
 3117SOL    HW211146   5.045   2.727   1.809
 3118SOL     OW11147   4.792   3.195   2.711
 3118SOL    HW111148   4.799   3.111   2.656
 3118SOL    HW211149   4.854   3.264   2.675
 3119SOL     OW11150   4.043   2.672   2.811
 3119SOL    HW111151   4.136   2.708   2.816
 3119SOL    HW211152   4.037   2.587   2.863
 3120SOL     OW11153   4.063   2.371   2.868
 3120SOL    HW111154   4.011   2.288   2.851
 3120SOL    HW211155   4.140   2.376   2.804
 3121SOL     OW11156   3.812   3.663   2.789
 3121SOL    HW111157   3.770   3.577   2.762
 3121SOL    HW211158   3.906   3.666   2.755
 3122SOL     OW11159   4.228   3.430   2.772
 3122SOL    HW111160   4.294   3.504   2.781
 3122SOL    HW211161   4.272   3.351   2.730
 3123SOL     OW11162   3.764   2.406   2.976
 3123SOL    HW111163   3.849   2.373   2.935
 3123SOL    HW211164   3.777   2.421   3.074
 3124SOL     OW11165   3.913   2.382   3.584
 3124SOL    HW111166   3.972   2.342   3.514
 3124SOL    HW211167   3.855   2.453   3.543
 3125SOL     OW11168   4.539   2.434   2.187
 3125SOL    HW111169   4.546   2.345   2.141
 3125SOL    HW211170   4.445   2.468   2.179
 3126SOL     OW11171   3.976   3.426   3.606
 3126SOL    HW111172   3.946   3.483   3.682
 3126SOL    HW211173   3.969   3.329   3.632
 3127SOL     OW11174   4.395   2.326   3.131
 3127SOL    HW111175   4.361   2.237   3.101
 3127SOL    HW211176   4.421   2.380   3.051
 3128SOL     OW11177   4.654   3.540   3.327
 3128SOL    HW111178   4.630   3.522   3.232
 3128SOL    HW211179   4.684   3.634   3.337
 3129SOL     OW11180   4.197   2.362   2.053
 3129SOL    HW111181   4.258   2.442   2.057
 3129SOL    HW211182   4.102   2.393   2.060
 3130SOL     OW11183   3.883   2.999   3.328
 3130SOL    HW111184   3.905   2.938   3.404
 3130SOL    HW211185   3.893   2.950   3.242
 3131SOL     OW11186   5.071   2.921   3.096
 3131SOL    HW111187   5.095   2.858   3.022
 3131SOL    HW211188   4.981   2.961   3.078
 3132SOL     OW11189   4.412   3.524   3.578
 3132SOL    HW111190   4.356   3.605   3.587
 3132SOL    HW211191   4.464   3.528   3.492
 3133SOL     OW11192   3.854   3.656   3.713
 3133SOL    HW111193   3.813   3.582   3.766
 3133SOL    HW211194   3.918   3.707   3.771
 3134SOL     OW11195   5.004   2.789   2.534
 3134SOL    HW111196   5.064   2.708   2.536
 3134SOL    HW211197   5.044   2.858   2.474
 3135SOL     OW11198   4.554   3.135   3.284
 3135SOL    HW111199   4.549   3.168   3.379
 3135SOL    HW211200   4.468   3.154   3.238
 3136SOL     OW11201   4.396   3.478   2.016
 3136SOL    HW111202   4.405   3.488   1.917
 3136SOL    HW211203   4.356   3.389   2.037
 3137SOL     OW11204   3.987   2.188   2.582
 3137SOL    HW111205   3.908   2.239   2.548
 3137SOL    HW211206   3.978   2.173   2.680
 3138SOL     OW11207   4.918   3.474   1.893
 3138SOL    HW111208   4.924   3.381   1.930
 3138SOL    HW211209   4.859   3.474   1.813
 3139SOL     OW11210   4.640   2.772   2.153
 3139SOL    HW111211   4.703   2.810   2.085
 3139SOL    HW211212   4.680   2.689   2.192
 3140SOL     OW11213   4.096   3.150   3.352
 3140SOL    HW111214   4.083   3.243   3.318
 3140SOL    HW211215   4.012   3.098   3.339
 3141SOL     OW11216   4.763   2.960   2.558
 3141SOL    HW111217   4.693   2.913   2.612
 3141SOL    HW211218   4.822   2.892   2.515
 3142SOL     OW11219   4.314   3.349   2.353
 3142SOL    HW111220   4.356   3.291   2.283
 3142SOL    HW211221   4.270   3.428   2.309
 3143SOL     OW11222   3.829   2.875   3.588
 3143SOL    HW111223   3.752   2.842   3.642
 3143SOL    HW211224   3.914   2.845   3.630
 3144SOL     OW11225   3.799   2.207   1.895
 3144SOL    HW111226   3.707   2.179   1.866
 3144SOL    HW211227   3.830   2.284   1.839
 3145SOL     OW11228   5.164   2.718   3.260
 3145SOL    HW111229   5.107   2.770   3.197
 3145SOL    HW211230   5.260   2.730   3.236
 3146SOL     OW11231   4.337   2.704   3.293
 3146SOL    HW111232   4.393   2.785   3.276
 3146SOL    HW211233   4.396   2.624   3.296
 3147SOL     OW11234   4.440   2.427   3.570
 3147SOL    HW111235   4.459   2.492   3.644
 3147SOL    HW211236   4.500   2.347   3.579
 3148SOL     OW11237   4.114   3.603   3.422
 3148SOL    HW111238   4.023   3.644   3.420
 3148SOL    HW211239   4.107   3.509   3.454
 3149SOL     OW11240   4.949   2.187   2.311
 3149SOL    HW111241   5.014   2.113   2.300
 3149SOL    HW211242   4.969   2.237   2.395
 3150SOL     OW11243   4.583   3.236   1.878
 3150SOL    HW111244   4.537   3.251   1.966
 3150SOL    HW211245   4.627   3.321   1.848
 3151SOL     OW11246   4.385   3.652   2.815
 3151SOL    HW111247   4.339   3.740   2.802
 3151SOL    HW211248   4.484   3.664   2.808
 3152SOL     OW11249   4.807   2.846   1.949
 3152SOL    HW111250   4.784   2.899   1.867
 3152SOL    HW211251   4.888   2.790   1.930
 3153SOL     OW11252   3.945   3.176   3.706
 3153SOL    HW111253   3.880   3.103   3.685
 3153SOL    HW211254   3.949   3.190   3.804
 3154SOL     OW11255   3.803   3.102   2.515
 3154SOL    HW111256   3.802   3.055   2.603
 3154SOL    HW211257   3.885   3.074   2.464
 3155SOL     OW11258   4.396   3.253   3.486
 3155SOL    HW111259   4.318   3.203   3.524
 3155SOL    HW211260   4.393   3.348   3.517
 3156SOL     OW11261   4.152   2.286   2.382
 3156SOL    HW111262   4.182   2.214   2.320
 3156SOL    HW211263   4.113   2.246   2.465
 3157SOL     OW11264   4.041   2.409   3.142
 3157SOL    HW111265   4.079   2.350   3.214
 3157SOL    HW211266   4.081   2.383   3.054
 3158SOL     OW11267   4.536   3.448   2.549
 3158SOL    HW111268   4.568   3.458   2.455
 3158SOL    HW211269   4.457   3.386   2.551
 3159SOL     OW11270   4.725   1.896   3.016
 3159SOL    HW111271   4.662   1.824   2.985
 3159SOL    HW211272   4.818   1.860   3.016
 3160SOL     OW11273   4.342   3.429   3.146
 3160SOL    HW111274   4.337   3.511   3.203
 3160SOL    HW211275   4.431   3.426   3.101
 3161SOL     OW11276   3.763   2.939   2.162
 3161SOL    HW111277   3.862   2.928   2.153
 3161SOL    HW211278   3.723   2.853   2.194
 3162SOL     OW11279   4.599   3.508   2.199
 3162SOL    HW111280   4.522   3.473   2.145
 3162SOL    HW211281   4.567   3.579   2.261
 3163SOL     OW11282   3.954   2.490   3.837
 3163SOL    HW111283   3.861   2.488   3.874
 3163SOL    HW211284   3.955   2.451   3.745
 3164SOL     OW11285   4.293   3.137   4.889
 3164SOL    HW111286   4.200   3.130   4.852
 3164SOL    HW211287   4.304   3.226   4.933
 3165SOL     OW11288   4.859   2.565   4.441
 3165SOL    HW111289   4.916   2.643   4.416
 3165SOL    HW211290   4.799   2.591   4.517
 3166SOL     OW11291   4.492   3.006   4.747
 3166SOL    HW111292   4.414   3.023   4.807
 3166SOL    HW211293   4.526   3.093   4.711
 3167SOL     OW11294   4.059   3.297   4.785
 3167SOL    HW111295   3.981   3.266   4.732
 3167SOL    HW211296   4.117   3.355   4.728
 3168SOL     OW11297   3.955   3.575   4.207
 3168SOL    HW111298   3.989   3.652   4.261
 3168SOL    HW211299   3.999   3.575   4.117
 3169SOL     OW11300   3.964   2.953   4.610
 3169SOL    HW111301   3.978   2.869   4.662
 3169SOL    HW211302   3.909   3.017   4.665
 3170SOL     OW11303   4.344   3.648   5.163
 3170SOL    HW111304   4.252   3.631   5.198
 3170SOL    HW211305   4.372   3.740   5.189
 3171SOL     OW11306   4.330   2.826   3.847
 3171SOL    HW111307   4.337   2.910   3.793
 3171SOL    HW211308   4.376   2.839   3.935
 3172SOL     OW11309   3.846   2.505   4.287
 3172SOL    HW111310   3.801   2.417   4.304
 3172SOL    HW211311   3.845   2.559   4.371
 3173SOL     OW11312   3.751   3.458   3.841
 3173SOL    HW111313   3.732   3.362   3.862
 3173SOL    HW211314   3.718   3.516   3.916
 3174SOL     OW11315   3.921   2.838   4.988
 3174SOL    HW111316   4.010   2.793   4.974
 3174SOL    HW211317   3.848   2.773   4.969
 3175SOL     OW11318   4.322   2.591   3.994
 3175SOL    HW111319   4.346   2.660   3.926
 3175SOL    HW211320   4.244   2.624   4.048
 3176SOL     OW11321   5.005   2.207   4.668
 3176SOL    HW111322   4.919   2.157   4.655
 3176SOL    HW211323   5.067   2.153   4.724
 3177SOL     OW11324   4.765   2.563   4.153
 3177SOL    HW111325   4.791   2.559   4.249
 3177SOL    HW211326   4.680   2.512   4.139
 3178SOL     OW11327   4.589   2.210   3.919
 3178SOL    HW111328   4.648   2.273   3.870
 3178SOL    HW211329   4.608   2.116   3.890
 3179SOL     OW11330   4.274   2.058   4.609
 3179SOL    HW111331   4.269   2.053   4.709
 3179SOL    HW211332   4.276   2.154   4.580
 3180SOL     OW11333   4.732   3.318   4.201
 3180SOL    HW111334   4.686   3.390   4.149
 3180SOL    HW211335   4.728   3.338   4.299
 3181SOL     OW11336   4.075   3.663   4.577
 3181SOL    HW111337   4.125   3.577   4.583
 3181SOL    HW211338   4.140   3.740   4.574
 3182SOL     OW11339   4.835   3.638   3.961
 3182SOL    HW111340   4.775   3.576   4.011
 3182SOL    HW211341   4.866   3.594   3.876
 3183SOL     OW11342   4.188   3.605   4.047
 3183SOL    HW111343   4.221   3.644   4.133
 3183SOL    HW211344   4.264   3.598   3.982
 3184SOL     OW11345   3.973   3.647   4.965
 3184SOL    HW111346   4.030   3.582   5.015
 3184SOL    HW211347   3.957   3.614   4.872
 3185SOL     OW11348   4.664   3.560   4.628
 3185SOL    HW111349   4.744   3.503   4.649
 3185SOL    HW211350   4.615   3.520   4.551
 3186SOL     OW11351   4.106   2.562   4.204
 3186SOL    HW111352   4.151   2.472   4.201
 3186SOL    HW211353   4.012   2.551   4.237
 3187SOL     OW11354   4.338   1.984   3.841
 3187SOL    HW111355   4.436   1.962   3.848
 3187SOL    HW211356   4.307   1.967   3.748
 3188SOL     OW11357   4.527   3.264   4.648
 3188SOL    HW111358   4.617   3.278   4.606
 3188SOL    HW211359   4.456   3.266   4.577
 3189SOL     OW11360   4.021   1.897   3.895
 3189SOL    HW111361   4.070   1.981   3.874
 3189SOL    HW211362   4.083   1.832   3.940
 3190SOL     OW11363   4.659   2.098   4.204
 3190SOL    HW111364   4.611   2.139   4.126
 3190SOL    HW211365   4.758   2.096   4.185
 3191SOL     OW11366   4.951   3.432   4.517
 3191SOL    HW111367   4.972   3.506   4.452
 3191SOL    HW211368   5.019   3.432   4.590
 3192SOL     OW11369   4.995   3.659   4.315
 3192SOL    HW111370   5.039   3.723   4.251
 3192SOL    HW211371   4.945   3.711   4.385
 3193SOL     OW11372   4.590   2.316   4.366
 3193SOL    HW111373   4.558   2.388   4.304
 3193SOL    HW211374   4.614   2.235   4.313
 3194SOL     OW11375   4.251   2.118   4.052
 3194SOL    HW111376   4.278   2.059   3.977
 3194SOL    HW211377   4.251   2.213   4.021
 3195SOL     OW11378   5.316   3.491   5.349
 3195SOL    HW111379   5.343   3.525   5.259
 3195SOL    HW211380   5.395   3.453   5.395
 3196SOL     OW11381   4.835   3.057   4.824
 3196SOL    HW111382   4.795   3.101   4.905
 3196SOL    HW211383   4.794   3.094   4.741
 3197SOL     OW11384   4.429   2.912   4.092
 3197SOL    HW111385   4.415   2.919   4.191
 3197SOL    HW211386   4.513   2.861   4.074
 3198SOL     OW11387   4.134   2.675   4.975
 3198SOL    HW111388   4.220   2.687   5.025
 3198SOL    HW211389   4.092   2.588   5.002
 3199SOL     OW11390   4.290   2.399   4.589
 3199SOL    HW111391   4.302   2.465   4.515
 3199SOL    HW211392   4.336   2.433   4.672
 3200SOL     OW11393   4.078   3.372   5.053
 3200SOL    HW111394   4.057   3.328   4.966
 3200SOL    HW211395   4.175   3.398   5.056
 3201SOL     OW11396   5.084   2.724   4.769
 3201SOL    HW111397   5.009   2.724   4.703
 3201SOL    HW211398   5.121   2.632   4.778
 3202SOL     OW11399   3.761   3.172   5.006
 3202SOL    HW111400   3.814   3.123   5.074
 3202SOL    HW211401   3.783   3.270   5.011
 3203SOL     OW11402   4.456   2.496   4.788
 3203SOL    HW111403   4.515   2.470   4.712
 3203SOL    HW211404   4.428   2.592   4.777
 3204SOL     OW11405   5.346   2.229   4.098
 3204SOL    HW111406   5.348   2.153   4.162
 3204SOL    HW211407   5.298   2.306   4.138
 3205SOL     OW11408   4.747   2.628   4.690
 3205SOL    HW111409   4.762   2.649   4.786
 3205SOL    HW211410   4.717   2.533   4.681
 3206SOL     OW11411   4.792   3.195   4.573
 3206SOL    HW111412   4.799   3.111   4.518
 3206SOL    HW211413   4.854   3.264   4.537
 3207SOL     OW11414   4.063   2.371   4.730
 3207SOL    HW111415   4.011   2.288   4.713
 3207SOL    HW211416   4.140   2.376   4.666
 3208SOL     OW11417   4.884   2.069   5.201
 3208SOL    HW111418   4.884   2.133   5.278
 3208SOL    HW211419   4.912   2.117   5.118
 3209SOL     OW11420   3.732   3.188   3.924
 3209SOL    HW111421   3.639   3.209   3.893
 3209SOL    HW211422   3.742   3.089   3.937
 3210SOL     OW11423   3.812   3.663   4.651
 3210SOL    HW111424   3.770   3.577   4.624
 3210SOL    HW211425   3.906   3.666   4.617
 3211SOL     OW11426   4.228   3.430   4.634
 3211SOL    HW111427   4.294   3.504   4.643
 3211SOL    HW211428   4.272   3.351   4.592
 3212SOL     OW11429   4.726   2.658   4.962
 3212SOL    HW111430   4.767   2.626   5.048
 3212SOL    HW211431   4.630   2.631   4.959
 3213SOL     OW11432   4.539   2.434   4.049
 3213SOL    HW111433   4.546   2.345   4.003
 3213SOL    HW211434   4.445   2.468   4.041
 3214SOL     OW11435   4.395   2.326   4.993
 3214SOL    HW111436   4.361   2.237   4.963
 3214SOL    HW211437   4.421   2.380   4.913
 3215SOL     OW11438   4.654   3.540   5.189
 3215SOL    HW111439   4.630   3.522   5.094
 3215SOL    HW211440   4.684   3.634   5.199
 3216SOL     OW11441   4.197   2.362   3.915
 3216SOL    HW111442   4.258   2.442   3.919
 3216SOL    HW211443   4.102   2.393   3.922
 3217SOL     OW11444   3.807   3.120   4.746
 3217SOL    HW111445   3.802   3.119   4.846
 3217SOL    HW211446   3.724   3.079   4.708
 3218SOL     OW11447   5.112   3.435   4.201
 3218SOL    HW111448   5.179   3.447   4.127
 3218SOL    HW211449   5.072   3.524   4.224
 3219SOL     OW11450   4.396   3.478   3.878
 3219SOL    HW111451   4.405   3.488   3.779
 3219SOL    HW211452   4.356   3.389   3.899
 3220SOL     OW11453   4.918   3.474   3.755
 3220SOL    HW111454   4.924   3.381   3.792
 3220SOL    HW211455   4.859   3.474   3.675
 3221SOL     OW11456   4.640   2.772   4.015
 3221SOL    HW111457   4.703   2.810   3.947
 3221SOL    HW211458   4.680   2.689   4.054
 3222SOL     OW11459   4.763   2.960   4.420
 3222SOL    HW111460   4.693   2.913   4.474
 3222SOL    HW211461   4.822   2.892   4.377
 3223SOL     OW11462   3.979   3.210   4.014
 3223SOL    HW111463   3.883   3.211   3.987
 3223SOL    HW211464   3.991   3.263   4.098
 3224SOL     OW11465   3.799   2.207   3.757
 3224SOL    HW111466   3.707   2.179   3.728
 3224SOL    HW211467   3.830   2.284   3.701
 3225SOL     OW11468   4.318   2.607   4.376
 3225SOL    HW111469   4.368   2.692   4.357
 3225SOL    HW211470   4.230   2.609   4.328
 3226SOL     OW11471   4.583   3.236   3.740
 3226SOL    HW111472   4.537   3.251   3.828
 3226SOL    HW211473   4.627   3.321   3.710
 3227SOL     OW11474   4.385   3.652   4.677
 3227SOL    HW111475   4.339   3.740   4.664
 3227SOL    HW211476   4.484   3.664   4.670
 3228SOL     OW11477   4.583   2.818   4.585
 3228SOL    HW111478   4.637   2.749   4.633
 3228SOL    HW211479   4.551   2.887   4.651
 3229SOL     OW11480   4.807   2.846   3.811
 3229SOL    HW111481   4.784   2.899   3.729
 3229SOL    HW211482   4.888   2.790   3.792
 3230SOL     OW11483   4.152   2.286   4.244
 3230SOL    HW111484   4.182   2.214   4.182
 3230SOL    HW211485   4.113   2.246   4.327
 3231SOL     OW11486   4.536   3.448   4.411
 3231SOL    HW111487   4.568   3.458   4.317
 3231SOL    HW211488   4.457   3.386   4.413
 3232SOL     OW11489   4.494   3.192   4.025
 3232SOL    HW111490   4.448   3.105   4.042
 3232SOL    HW211491   4.585   3.189   4.066
 3233SOL     OW11492   4.599   3.508   4.061
 3233SOL    HW111493   4.522   3.473   4.007
 3233SOL    HW211494   4.567   3.579   4.123
 3234SOL     OW11495   3.954   4.352   0.113
 3234SOL    HW111496   3.861   4.350   0.150
 3234SOL    HW211497   3.955   4.313   0.021
 3235SOL     OW11498   3.743   4.092   0.647
 3235SOL    HW111499   3.661   4.135   0.686
 3235SOL    HW211500   3.715   4.019   0.584
 3236SOL     OW11501   4.293   4.999   1.165
 3236SOL    HW111502   4.200   4.992   1.128
 3236SOL    HW211503   4.304   5.088   1.209
 3237SOL     OW11504   4.859   4.427   0.717
 3237SOL    HW111505   4.916   4.505   0.692
 3237SOL    HW211506   4.799   4.453   0.793
 3238SOL     OW11507   4.492   4.868   1.023
 3238SOL    HW111508   4.414   4.885   1.083
 3238SOL    HW211509   4.526   4.955   0.987
 3239SOL     OW11510   4.574   4.522   1.823
 3239SOL    HW111511   4.570   4.598   1.888
 3239SOL    HW211512   4.596   4.558   1.732
 3240SOL     OW11513   4.409   4.736   0.665
 3240SOL    HW111514   4.478   4.720   0.735
 3240SOL    HW211515   4.336   4.793   0.703
 3241SOL     OW11516   4.410   4.885   1.803
 3241SOL    HW111517   4.470   4.964   1.817
 3241SOL    HW211518   4.324   4.916   1.762
 3242SOL     OW11519   4.059   5.159   1.061
 3242SOL    HW111520   3.981   5.128   1.008
 3242SOL    HW211521   4.117   5.217   1.004
 3243SOL     OW11522   3.964   4.815   0.886
 3243SOL    HW111523   3.978   4.731   0.938
 3243SOL    HW211524   3.909   4.879   0.941
 3244SOL     OW11525   4.330   4.688   0.123
 3244SOL    HW111526   4.337   4.772   0.069
 3244SOL    HW211527   4.376   4.701   0.211
 3245SOL     OW11528   3.846   4.367   0.563
 3245SOL    HW111529   3.801   4.279   0.580
 3245SOL    HW211530   3.845   4.421   0.647
 3246SOL     OW11531   3.837   4.461   1.597
 3246SOL    HW111532   3.925   4.448   1.642
 3246SOL    HW211533   3.824   4.558   1.575
 3247SOL     OW11534   5.017   4.952   1.423
 3247SOL    HW111535   5.054   4.879   1.365
 3247SOL    HW211536   5.069   4.957   1.508
 3248SOL     OW11537   4.533   3.728   0.502
 3248SOL    HW111538   4.573   3.819   0.493
 3248SOL    HW211539   4.433   3.736   0.508
 3249SOL     OW11540   3.921   4.700   1.264
 3249SOL    HW111541   4.010   4.655   1.250
 3249SOL    HW211542   3.848   4.635   1.245
 3250SOL     OW11543   4.322   4.453   0.270
 3250SOL    HW111544   4.346   4.522   0.202
 3250SOL    HW211545   4.244   4.486   0.324
 3251SOL     OW11546   5.005   4.069   0.944
 3251SOL    HW111547   4.919   4.019   0.931
 3251SOL    HW211548   5.067   4.015   1.000
 3252SOL     OW11549   4.697   4.614   1.572
 3252SOL    HW111550   4.743   4.530   1.543
 3252SOL    HW211551   4.641   4.648   1.497
 3253SOL     OW11552   4.715   4.134   1.242
 3253SOL    HW111553   4.638   4.168   1.296
 3253SOL    HW211554   4.681   4.083   1.163
 3254SOL     OW11555   4.765   4.425   0.429
 3254SOL    HW111556   4.791   4.421   0.525
 3254SOL    HW211557   4.680   4.374   0.415
 3255SOL     OW11558   3.800   4.535   0.789
 3255SOL    HW111559   3.899   4.523   0.798
 3255SOL    HW211560   3.776   4.630   0.810
 3256SOL     OW11561   4.589   4.072   0.195
 3256SOL    HW111562   4.648   4.135   0.146
 3256SOL    HW211563   4.608   3.978   0.166
 3257SOL     OW11564   4.045   4.667   0.242
 3257SOL    HW111565   4.127   4.706   0.200
 3257SOL    HW211566   4.018   4.585   0.193
 3258SOL     OW11567   4.106   4.424   0.480
 3258SOL    HW111568   4.151   4.334   0.477
 3258SOL    HW211569   4.012   4.413   0.513
 3259SOL     OW11570   4.527   5.126   0.924
 3259SOL    HW111571   4.617   5.140   0.882
 3259SOL    HW211572   4.456   5.128   0.853
 3260SOL     OW11573   4.646   4.227   0.899
 3260SOL    HW111574   4.621   4.218   0.803
 3260SOL    HW211575   4.694   4.145   0.930
 3261SOL     OW11576   4.021   3.759   0.171
 3261SOL    HW111577   4.070   3.843   0.150
 3261SOL    HW211578   4.083   3.694   0.216
 3262SOL     OW11579   4.659   3.960   0.480
 3262SOL    HW111580   4.611   4.001   0.402
 3262SOL    HW211581   4.758   3.958   0.461
 3263SOL     OW11582   4.800   4.407   1.464
 3263SOL    HW111583   4.720   4.346   1.467
 3263SOL    HW211584   4.881   4.354   1.440
 3264SOL     OW11585   4.183   4.876   0.741
 3264SOL    HW111586   4.112   4.849   0.806
 3264SOL    HW211587   4.157   4.848   0.648
 3265SOL     OW11588   4.756   4.273   0.016
 3265SOL    HW111589   4.715   4.355  -0.023
 3265SOL    HW211590   4.820   4.299   0.089
 3266SOL     OW11591   3.802   4.280   1.386
 3266SOL    HW111592   3.894   4.279   1.345
 3266SOL    HW211593   3.796   4.354   1.453
 3267SOL     OW11594   4.285   3.946   1.147
 3267SOL    HW111595   4.323   3.862   1.184
 3267SOL    HW211596   4.197   3.965   1.191
 3268SOL     OW11597   4.590   4.178   0.642
 3268SOL    HW111598   4.558   4.250   0.580
 3268SOL    HW211599   4.614   4.097   0.589
 3269SOL     OW11600   4.741   3.763   0.753
 3269SOL    HW111601   4.669   3.768   0.684
 3269SOL    HW211602   4.717   3.694   0.822
 3270SOL     OW11603   4.251   3.980   0.328
 3270SOL    HW111604   4.278   3.921   0.253
 3270SOL    HW211605   4.251   4.075   0.297
 3271SOL     OW11606   4.639   3.813   1.402
 3271SOL    HW111607   4.664   3.793   1.307
 3271SOL    HW211608   4.711   3.869   1.444
 3272SOL     OW11609   4.704   4.840   1.719
 3272SOL    HW111610   4.605   4.846   1.729
 3272SOL    HW211611   4.727   4.760   1.663
 3273SOL     OW11612   4.429   4.774   0.368
 3273SOL    HW111613   4.415   4.781   0.467
 3273SOL    HW211614   4.513   4.723   0.350
 3274SOL     OW11615   4.134   4.537   1.251
 3274SOL    HW111616   4.220   4.549   1.301
 3274SOL    HW211617   4.092   4.450   1.278
 3275SOL     OW11618   4.998   4.110   1.262
 3275SOL    HW111619   5.019   4.184   1.326
 3275SOL    HW211620   4.909   4.127   1.219
 3276SOL     OW11621   4.091   4.824   0.501
 3276SOL    HW111622   4.084   4.907   0.445
 3276SOL    HW211623   4.095   4.744   0.441
 3277SOL     OW11624   4.976   5.072   0.388
 3277SOL    HW111625   5.026   5.149   0.428
 3277SOL    HW211626   4.881   5.074   0.420
 3278SOL     OW11627   4.737   3.829   1.770
 3278SOL    HW111628   4.743   3.914   1.718
 3278SOL    HW211629   4.769   3.753   1.713
 3279SOL     OW11630   4.228   3.774   1.740
 3279SOL    HW111631   4.186   3.717   1.670
 3279SOL    HW211632   4.162   3.843   1.772
 3280SOL     OW11633   4.297   4.594   1.029
 3280SOL    HW111634   4.341   4.683   1.020
 3280SOL    HW211635   4.234   4.594   1.106
 3281SOL     OW11636   5.084   4.586   1.045
 3281SOL    HW111637   5.009   4.586   0.979
 3281SOL    HW211638   5.121   4.494   1.054
 3282SOL     OW11639   4.933   4.249   0.275
 3282SOL    HW111640   4.946   4.165   0.329
 3282SOL    HW211641   4.904   4.323   0.335
 3283SOL     OW11642   4.747   4.490   0.966
 3283SOL    HW111643   4.762   4.511   1.062
 3283SOL    HW211644   4.717   4.395   0.957
 3284SOL     OW11645   4.074   4.622   1.804
 3284SOL    HW111646   4.150   4.666   1.852
 3284SOL    HW211647   4.109   4.575   1.722
 3285SOL     OW11648   5.027   4.562   0.042
 3285SOL    HW111649   5.061   4.469   0.057
 3285SOL    HW211650   5.045   4.589  -0.053
 3286SOL     OW11651   4.043   4.534   0.949
 3286SOL    HW111652   4.136   4.570   0.954
 3286SOL    HW211653   4.037   4.449   1.001
 3287SOL     OW11654   4.862   4.104   1.678
 3287SOL    HW111655   4.817   4.167   1.742
 3287SOL    HW211656   4.955   4.135   1.661
 3288SOL     OW11657   4.884   3.931   1.477
 3288SOL    HW111658   4.884   3.995   1.554
 3288SOL    HW211659   4.912   3.979   1.394
 3289SOL     OW11660   4.726   4.520   1.238
 3289SOL    HW111661   4.767   4.488   1.324
 3289SOL    HW211662   4.630   4.493   1.235
 3290SOL     OW11663   4.539   4.296   0.325
 3290SOL    HW111664   4.546   4.207   0.279
 3290SOL    HW211665   4.445   4.330   0.317
 3291SOL     OW11666   4.197   4.224   0.191
 3291SOL    HW111667   4.258   4.304   0.195
 3291SOL    HW211668   4.102   4.255   0.198
 3292SOL     OW11669   3.883   4.861   1.466
 3292SOL    HW111670   3.905   4.800   1.542
 3292SOL    HW211671   3.893   4.812   1.380
 3293SOL     OW11672   5.071   4.783   1.234
 3293SOL    HW111673   5.095   4.720   1.160
 3293SOL    HW211674   4.981   4.823   1.216
 3294SOL     OW11675   3.807   4.982   1.022
 3294SOL    HW111676   3.802   4.981   1.122
 3294SOL    HW211677   3.724   4.941   0.984
 3295SOL     OW11678   4.627   3.810   0.133
 3295SOL    HW111679   4.678   3.811   0.047
 3295SOL    HW211680   4.683   3.768   0.204
 3296SOL     OW11681   5.004   4.651   0.672
 3296SOL    HW111682   5.064   4.570   0.674
 3296SOL    HW211683   5.044   4.720   0.612
 3297SOL     OW11684   4.554   4.997   1.422
 3297SOL    HW111685   4.549   5.030   1.517
 3297SOL    HW211686   4.468   5.016   1.376
 3298SOL     OW11687   3.987   4.050   0.720
 3298SOL    HW111688   3.908   4.101   0.686
 3298SOL    HW211689   3.978   4.035   0.818
 3299SOL     OW11690   4.546   4.726   1.372
 3299SOL    HW111691   4.586   4.725   1.280
 3299SOL    HW211692   4.556   4.818   1.412
 3300SOL     OW11693   4.640   4.634   0.291
 3300SOL    HW111694   4.703   4.672   0.223
 3300SOL    HW211695   4.680   4.551   0.330
 3301SOL     OW11696   4.096   5.012   1.490
 3301SOL    HW111697   4.083   5.105   1.456
 3301SOL    HW211698   4.012   4.960   1.477
 3302SOL     OW11699   4.763   4.822   0.696
 3302SOL    HW111700   4.693   4.775   0.750
 3302SOL    HW211701   4.822   4.754   0.653
 3303SOL     OW11702   4.738   3.960   0.971
 3303SOL    HW111703   4.730   3.924   0.878
 3303SOL    HW211704   4.736   3.884   1.036
 3304SOL     OW11705   3.829   4.737   1.726
 3304SOL    HW111706   3.752   4.704   1.780
 3304SOL    HW211707   3.914   4.707   1.768
 3305SOL     OW11708   4.396   3.927   1.489
 3305SOL    HW111709   4.486   3.911   1.449
 3305SOL    HW211710   4.404   3.932   1.588
 3306SOL     OW11711   5.164   4.580   1.398
 3306SOL    HW111712   5.107   4.632   1.335
 3306SOL    HW211713   5.260   4.592   1.374
 3307SOL     OW11714   4.337   4.566   1.431
 3307SOL    HW111715   4.393   4.647   1.414
 3307SOL    HW211716   4.396   4.486   1.434
 3308SOL     OW11717   4.440   4.289   1.708
 3308SOL    HW111718   4.459   4.354   1.782
 3308SOL    HW211719   4.500   4.209   1.717
 3309SOL     OW11720   5.174   4.944   1.633
 3309SOL    HW111721   5.165   4.934   1.732
 3309SOL    HW211722   5.270   4.937   1.607
 3310SOL     OW11723   4.949   4.049   0.449
 3310SOL    HW111724   5.014   3.975   0.438
 3310SOL    HW211725   4.969   4.099   0.533
 3311SOL     OW11726   4.318   4.469   0.652
 3311SOL    HW111727   4.368   4.554   0.633
 3311SOL    HW211728   4.230   4.471   0.604
 3312SOL     OW11729   4.583   4.680   0.861
 3312SOL    HW111730   4.637   4.611   0.909
 3312SOL    HW211731   4.551   4.749   0.927
 3313SOL     OW11732   4.807   4.708   0.087
 3313SOL    HW111733   4.784   4.761   0.005
 3313SOL    HW211734   4.888   4.652   0.068
 3314SOL     OW11735   3.803   4.964   0.653
 3314SOL    HW111736   3.802   4.917   0.741
 3314SOL    HW211737   3.885   4.936   0.602
 3315SOL     OW11738   4.152   4.148   0.520
 3315SOL    HW111739   4.182   4.076   0.458
 3315SOL    HW211740   4.113   4.108   0.603
 3316SOL     OW11741   4.725   3.758   1.154
 3316SOL    HW111742   4.662   3.686   1.123
 3316SOL    HW211743   4.818   3.722   1.154
 3317SOL     OW11744   4.494   5.054   0.301
 3317SOL    HW111745   4.448   4.967   0.318
 3317SOL    HW211746   4.585   5.051   0.342
 3318SOL     OW11747   3.763   4.801   0.300
 3318SOL    HW111748   3.862   4.790   0.291
 3318SOL    HW211749   3.723   4.715   0.332
 3319SOL     OW11750   3.954   4.352   1.975
 3319SOL    HW111751   3.861   4.350   2.012
 3319SOL    HW211752   3.955   4.313   1.883
 3320SOL     OW11753   3.949   3.999   2.858
 3320SOL    HW111754   3.984   3.982   2.950
 3320SOL    HW211755   3.861   3.954   2.846
 3321SOL     OW11756   4.293   4.999   3.027
 3321SOL    HW111757   4.200   4.992   2.990
 3321SOL    HW211758   4.304   5.088   3.071
 3322SOL     OW11759   4.859   4.427   2.579
 3322SOL    HW111760   4.916   4.505   2.554
 3322SOL    HW211761   4.799   4.453   2.655
 3323SOL     OW11762   4.492   4.868   2.885
 3323SOL    HW111763   4.414   4.885   2.945
 3323SOL    HW211764   4.526   4.955   2.849
 3324SOL     OW11765   4.409   4.736   2.527
 3324SOL    HW111766   4.478   4.720   2.597
 3324SOL    HW211767   4.336   4.793   2.565
 3325SOL     OW11768   4.410   4.885   3.665
 3325SOL    HW111769   4.470   4.964   3.679
 3325SOL    HW211770   4.324   4.916   3.624
 3326SOL     OW11771   4.059   5.159   2.923
 3326SOL    HW111772   3.981   5.128   2.870
 3326SOL    HW211773   4.117   5.217   2.866
 3327SOL     OW11774   4.162   4.116   3.361
 3327SOL    HW111775   4.244   4.060   3.370
 3327SOL    HW211776   4.081   4.058   3.365
 3328SOL     OW11777   4.330   4.688   1.985
 3328SOL    HW111778   4.337   4.772   1.931
 3328SOL    HW211779   4.376   4.701   2.073
 3329SOL     OW11780   3.846   4.367   2.425
 3329SOL    HW111781   3.801   4.279   2.442
 3329SOL    HW211782   3.845   4.421   2.509
 3330SOL     OW11783   3.837   4.461   3.459
 3330SOL    HW111784   3.925   4.448   3.504
 3330SOL    HW211785   3.824   4.558   3.437
 3331SOL     OW11786   5.017   4.952   3.285
 3331SOL    HW111787   5.054   4.879   3.227
 3331SOL    HW211788   5.069   4.957   3.370
 3332SOL     OW11789   4.533   3.728   2.364
 3332SOL    HW111790   4.573   3.819   2.355
 3332SOL    HW211791   4.433   3.736   2.370
 3333SOL     OW11792   3.921   4.700   3.126
 3333SOL    HW111793   4.010   4.655   3.112
 3333SOL    HW211794   3.848   4.635   3.107
 3334SOL     OW11795   4.041   3.975   3.663
 3334SOL    HW111796   4.112   4.046   3.669
 3334SOL    HW211797   3.953   4.014   3.691
 3335SOL     OW11798   4.715   4.134   3.104
 3335SOL    HW111799   4.638   4.168   3.158
 3335SOL    HW211800   4.681   4.083   3.025
 3336SOL     OW11801   4.765   4.425   2.291
 3336SOL    HW111802   4.791   4.421   2.387
 3336SOL    HW211803   4.680   4.374   2.277
 3337SOL     OW11804   3.800   4.535   2.651
 3337SOL    HW111805   3.899   4.523   2.660
 3337SOL    HW211806   3.776   4.630   2.672
 3338SOL     OW11807   4.589   4.072   2.057
 3338SOL    HW111808   4.648   4.135   2.008
 3338SOL    HW211809   4.608   3.978   2.028
 3339SOL     OW11810   4.274   3.920   2.747
 3339SOL    HW111811   4.269   3.915   2.847
 3339SOL    HW211812   4.276   4.016   2.718
 3340SOL     OW11813   4.045   4.667   2.104
 3340SOL    HW111814   4.127   4.706   2.062
 3340SOL    HW211815   4.018   4.585   2.055
 3341SOL     OW11816   3.926   4.009   3.360
 3341SOL    HW111817   3.846   4.069   3.347
 3341SOL    HW211818   3.916   3.960   3.446
 3342SOL     OW11819   4.338   3.846   1.979
 3342SOL    HW111820   4.436   3.824   1.986
 3342SOL    HW211821   4.307   3.829   1.886
 3343SOL     OW11822   4.505   3.988   3.611
 3343SOL    HW111823   4.572   3.927   3.654
 3343SOL    HW211824   4.432   4.007   3.676
 3344SOL     OW11825   4.527   5.126   2.786
 3344SOL    HW111826   4.617   5.140   2.744
 3344SOL    HW211827   4.456   5.128   2.715
 3345SOL     OW11828   4.646   4.227   2.761
 3345SOL    HW111829   4.621   4.218   2.665
 3345SOL    HW211830   4.694   4.145   2.792
 3346SOL     OW11831   4.263   3.788   2.374
 3346SOL    HW111832   4.182   3.789   2.432
 3346SOL    HW211833   4.266   3.871   2.319
 3347SOL     OW11834   5.158   4.912   1.903
 3347SOL    HW111835   5.190   4.836   1.960
 3347SOL    HW211836   5.066   4.939   1.933
 3348SOL     OW11837   4.951   5.294   2.655
 3348SOL    HW111838   4.972   5.368   2.590
 3348SOL    HW211839   5.019   5.294   2.728
 3349SOL     OW11840   4.183   4.876   2.603
 3349SOL    HW111841   4.112   4.849   2.668
 3349SOL    HW211842   4.157   4.848   2.510
 3350SOL     OW11843   4.756   4.273   1.878
 3350SOL    HW111844   4.715   4.355   1.839
 3350SOL    HW211845   4.820   4.299   1.951
 3351SOL     OW11846   3.802   4.280   3.248
 3351SOL    HW111847   3.894   4.279   3.207
 3351SOL    HW211848   3.796   4.354   3.315
 3352SOL     OW11849   4.285   3.946   3.009
 3352SOL    HW111850   4.323   3.862   3.046
 3352SOL    HW211851   4.197   3.965   3.053
 3353SOL     OW11852   4.590   4.178   2.504
 3353SOL    HW111853   4.558   4.250   2.442
 3353SOL    HW211854   4.614   4.097   2.451
 3354SOL     OW11855   4.639   3.813   3.264
 3354SOL    HW111856   4.664   3.793   3.169
 3354SOL    HW211857   4.711   3.869   3.306
 3355SOL     OW11858   4.134   4.537   3.113
 3355SOL    HW111859   4.220   4.549   3.163
 3355SOL    HW211860   4.092   4.450   3.140
 3356SOL     OW11861   4.091   4.824   2.363
 3356SOL    HW111862   4.084   4.907   2.307
 3356SOL    HW211863   4.095   4.744   2.303
 3357SOL     OW11864   4.290   4.261   2.727
 3357SOL    HW111865   4.302   4.327   2.653
 3357SOL    HW211866   4.336   4.295   2.810
 3358SOL     OW11867   4.976   5.072   2.250
 3358SOL    HW111868   5.026   5.149   2.290
 3358SOL    HW211869   4.881   5.074   2.282
 3359SOL     OW11870   4.126   4.475   3.460
 3359SOL    HW111871   4.194   4.530   3.413
 3359SOL    HW211872   4.166   4.387   3.487
 3360SOL     OW11873   4.228   3.774   3.602
 3360SOL    HW111874   4.186   3.717   3.532
 3360SOL    HW211875   4.162   3.843   3.634
 3361SOL     OW11876   4.297   4.594   2.891
 3361SOL    HW111877   4.341   4.683   2.882
 3361SOL    HW211878   4.234   4.594   2.968
 3362SOL     OW11879   4.933   4.249   2.137
 3362SOL    HW111880   4.946   4.165   2.191
 3362SOL    HW211881   4.904   4.323   2.197
 3363SOL     OW11882   4.031   3.937   3.093
 3363SOL    HW111883   4.008   3.974   3.183
 3363SOL    HW211884   4.001   3.842   3.087
 3364SOL     OW11885   4.456   4.358   2.926
 3364SOL    HW111886   4.515   4.332   2.850
 3364SOL    HW211887   4.428   4.454   2.915
 3365SOL     OW11888   5.346   4.091   2.236
 3365SOL    HW111889   5.348   4.015   2.300
 3365SOL    HW211890   5.298   4.168   2.276
 3366SOL     OW11891   4.074   4.622   3.666
 3366SOL    HW111892   4.150   4.666   3.714
 3366SOL    HW211893   4.109   4.575   3.584
 3367SOL     OW11894   5.027   4.562   1.904
 3367SOL    HW111895   5.061   4.469   1.919
 3367SOL    HW211896   5.045   4.589   1.809
 3368SOL     OW11897   4.043   4.534   2.811
 3368SOL    HW111898   4.136   4.570   2.816
 3368SOL    HW211899   4.037   4.449   2.863
 3369SOL     OW11900   4.063   4.233   2.868
 3369SOL    HW111901   4.011   4.150   2.851
 3369SOL    HW211902   4.140   4.238   2.804
 3370SOL     OW11903   4.884   3.931   3.339
 3370SOL    HW111904   4.884   3.995   3.416
 3370SOL    HW211905   4.912   3.979   3.256
 3371SOL     OW11906   3.732   5.050   2.062
 3371SOL    HW111907   3.639   5.071   2.031
 3371SOL    HW211908   3.742   4.951   2.075
 3372SOL     OW11909   3.764   4.268   2.976
 3372SOL    HW111910   3.849   4.235   2.935
 3372SOL    HW211911   3.777   4.283   3.074
 3373SOL     OW11912   4.395   4.188   3.131
 3373SOL    HW111913   4.361   4.099   3.101
 3373SOL    HW211914   4.421   4.242   3.051
 3374SOL     OW11915   4.197   4.224   2.053
 3374SOL    HW111916   4.258   4.304   2.057
 3374SOL    HW211917   4.102   4.255   2.060
 3375SOL     OW11918   3.883   4.861   3.328
 3375SOL    HW111919   3.905   4.800   3.404
 3375SOL    HW211920   3.893   4.812   3.242
 3376SOL     OW11921   5.071   4.783   3.096
 3376SOL    HW111922   5.095   4.720   3.022
 3376SOL    HW211923   4.981   4.823   3.078
 3377SOL     OW11924   5.004   4.651   2.534
 3377SOL    HW111925   5.064   4.570   2.536
 3377SOL    HW211926   5.044   4.720   2.474
 3378SOL     OW11927   4.554   4.997   3.284
 3378SOL    HW111928   4.549   5.030   3.379
 3378SOL    HW211929   4.468   5.016   3.238
 3379SOL     OW11930   4.918   5.336   1.893
 3379SOL    HW111931   4.924   5.243   1.930
 3379SOL    HW211932   4.859   5.336   1.813
 3380SOL     OW11933   4.096   5.012   3.352
 3380SOL    HW111934   4.083   5.105   3.318
 3380SOL    HW211935   4.012   4.960   3.339
 3381SOL     OW11936   4.763   4.822   2.558
 3381SOL    HW111937   4.693   4.775   2.612
 3381SOL    HW211938   4.822   4.754   2.515
 3382SOL     OW11939   3.829   4.737   3.588
 3382SOL    HW111940   3.752   4.704   3.642
 3382SOL    HW211941   3.914   4.707   3.630
 3383SOL     OW11942   4.396   3.927   3.351
 3383SOL    HW111943   4.486   3.911   3.311
 3383SOL    HW211944   4.404   3.932   3.450
 3384SOL     OW11945   3.799   4.069   1.895
 3384SOL    HW111946   3.707   4.041   1.866
 3384SOL    HW211947   3.830   4.146   1.839
 3385SOL     OW11948   5.164   4.580   3.260
 3385SOL    HW111949   5.107   4.632   3.197
 3385SOL    HW211950   5.260   4.592   3.236
 3386SOL     OW11951   4.337   4.566   3.293
 3386SOL    HW111952   4.393   4.647   3.276
 3386SOL    HW211953   4.396   4.486   3.296
 3387SOL     OW11954   5.174   4.944   3.495
 3387SOL    HW111955   5.165   4.934   3.594
 3387SOL    HW211956   5.270   4.937   3.469
 3388SOL     OW11957   4.949   4.049   2.311
 3388SOL    HW111958   5.014   3.975   2.300
 3388SOL    HW211959   4.969   4.099   2.395
 3389SOL     OW11960   4.583   4.680   2.723
 3389SOL    HW111961   4.637   4.611   2.771
 3389SOL    HW211962   4.551   4.749   2.789
 3390SOL     OW11963   4.807   4.708   1.949
 3390SOL    HW111964   4.784   4.761   1.867
 3390SOL    HW211965   4.888   4.652   1.930
 3391SOL     OW11966   4.041   4.271   3.142
 3391SOL    HW111967   4.079   4.212   3.214
 3391SOL    HW211968   4.081   4.245   3.054
 3392SOL     OW11969   4.725   3.758   3.016
 3392SOL    HW111970   4.662   3.686   2.985
 3392SOL    HW211971   4.818   3.722   3.016
 3393SOL     OW11972   4.494   5.054   2.163
 3393SOL    HW111973   4.448   4.967   2.180
 3393SOL    HW211974   4.585   5.051   2.204
 3394SOL     OW11975   5.076   3.776   2.030
 3394SOL    HW111976   5.111   3.735   1.946
 3394SOL    HW211977   4.986   3.738   2.050
 3395SOL     OW11978   3.763   4.801   2.162
 3395SOL    HW111979   3.862   4.790   2.153
 3395SOL    HW211980   3.723   4.715   2.194
 3396SOL     OW11981   3.949   3.999   4.720
 3396SOL    HW111982   3.984   3.982   4.812
 3396SOL    HW211983   3.861   3.954   4.708
 3397SOL     OW11984   3.743   4.092   4.371
 3397SOL    HW111985   3.661   4.135   4.410
 3397SOL    HW211986   3.715   4.019   4.308
 3398SOL     OW11987   4.293   4.999   4.889
 3398SOL    HW111988   4.200   4.992   4.852
 3398SOL    HW211989   4.304   5.088   4.933
 3399SOL     OW11990   4.859   4.427   4.441
 3399SOL    HW111991   4.916   4.505   4.416
 3399SOL    HW211992   4.799   4.453   4.517
 3400SOL     OW11993   4.492   4.868   4.747
 3400SOL    HW111994   4.414   4.885   4.807
 3400SOL    HW211995   4.526   4.955   4.711
 3401SOL     OW11996   4.409   4.736   4.389
 3401SOL    HW111997   4.478   4.720   4.459
 3401SOL    HW211998   4.336   4.793   4.427
 3402SOL     OW11999   4.059   5.159   4.785
 3402SOL    HW112000   3.981   5.128   4.732
 3402SOL    HW212001   4.117   5.217   4.728
 3403SOL     OW12002   3.964   4.815   4.610
 3403SOL    HW112003   3.978   4.731   4.662
 3403SOL    HW212004   3.909   4.879   4.665
 3404SOL     OW12005   4.330   4.688   3.847
 3404SOL    HW112006   4.337   4.772   3.793
 3404SOL    HW212007   4.376   4.701   3.935
 3405SOL     OW12008   3.846   4.367   4.287
 3405SOL    HW112009   3.801   4.279   4.304
 3405SOL    HW212010   3.845   4.421   4.371
 3406SOL     OW12011   4.533   3.728   4.226
 3406SOL    HW112012   4.573   3.819   4.217
 3406SOL    HW212013   4.433   3.736   4.232
 3407SOL     OW12014   3.921   4.700   4.988
 3407SOL    HW112015   4.010   4.655   4.974
 3407SOL    HW212016   3.848   4.635   4.969
 3408SOL     OW12017   4.322   4.453   3.994
 3408SOL    HW112018   4.346   4.522   3.926
 3408SOL    HW212019   4.244   4.486   4.048
 3409SOL     OW12020   5.005   4.069   4.668
 3409SOL    HW112021   4.919   4.019   4.655
 3409SOL    HW212022   5.067   4.015   4.724
 3410SOL     OW12023   4.715   4.134   4.966
 3410SOL    HW112024   4.638   4.168   5.020
 3410SOL    HW212025   4.681   4.083   4.887
 3411SOL     OW12026   4.765   4.425   4.153
 3411SOL    HW112027   4.791   4.421   4.249
 3411SOL    HW212028   4.680   4.374   4.139
 3412SOL     OW12029   3.800   4.535   4.513
 3412SOL    HW112030   3.899   4.523   4.522
 3412SOL    HW212031   3.776   4.630   4.534
 3413SOL     OW12032   4.274   3.920   4.609
 3413SOL    HW112033   4.269   3.915   4.709
 3413SOL    HW212034   4.276   4.016   4.580
 3414SOL     OW12035   4.045   4.667   3.966
 3414SOL    HW112036   4.127   4.706   3.924
 3414SOL    HW212037   4.018   4.585   3.917
 3415SOL     OW12038   4.338   3.846   3.841
 3415SOL    HW112039   4.436   3.824   3.848
 3415SOL    HW212040   4.307   3.829   3.748
 3416SOL     OW12041   4.527   5.126   4.648
 3416SOL    HW112042   4.617   5.140   4.606
 3416SOL    HW212043   4.456   5.128   4.577
 3417SOL     OW12044   4.646   4.227   4.623
 3417SOL    HW112045   4.621   4.218   4.527
 3417SOL    HW212046   4.694   4.145   4.654
 3418SOL     OW12047   4.263   3.788   4.236
 3418SOL    HW112048   4.182   3.789   4.294
 3418SOL    HW212049   4.266   3.871   4.181
 3419SOL     OW12050   5.158   4.912   3.765
 3419SOL    HW112051   5.190   4.836   3.822
 3419SOL    HW212052   5.066   4.939   3.795
 3420SOL     OW12053   4.021   3.759   3.895
 3420SOL    HW112054   4.070   3.843   3.874
 3420SOL    HW212055   4.083   3.694   3.940
 3421SOL     OW12056   4.659   3.960   4.204
 3421SOL    HW112057   4.611   4.001   4.126
 3421SOL    HW212058   4.758   3.958   4.185
 3422SOL     OW12059   4.951   5.294   4.517
 3422SOL    HW112060   4.972   5.368   4.452
 3422SOL    HW212061   5.019   5.294   4.590
 3423SOL     OW12062   4.183   4.876   4.465
 3423SOL    HW112063   4.112   4.849   4.530
 3423SOL    HW212064   4.157   4.848   4.372
 3424SOL     OW12065   4.285   3.946   4.871
 3424SOL    HW112066   4.323   3.862   4.908
 3424SOL    HW212067   4.197   3.965   4.915
 3425SOL     OW12068   4.590   4.178   4.366
 3425SOL    HW112069   4.558   4.250   4.304
 3425SOL    HW212070   4.614   4.097   4.313
 3426SOL     OW12071   4.741   3.763   4.477
 3426SOL    HW112072   4.669   3.768   4.408
 3426SOL    HW212073   4.717   3.694   4.546
 3427SOL     OW12074   4.251   3.980   4.052
 3427SOL    HW112075   4.278   3.921   3.977
 3427SOL    HW212076   4.251   4.075   4.021
 3428SOL     OW12077   4.429   4.774   4.092
 3428SOL    HW112078   4.415   4.781   4.191
 3428SOL    HW212079   4.513   4.723   4.074
 3429SOL     OW12080   4.134   4.537   4.975
 3429SOL    HW112081   4.220   4.549   5.025
 3429SOL    HW212082   4.092   4.450   5.002
 3430SOL     OW12083   4.290   4.261   4.589
 3430SOL    HW112084   4.302   4.327   4.515
 3430SOL    HW212085   4.336   4.295   4.672
 3431SOL     OW12086   4.976   5.072   4.112
 3431SOL    HW112087   5.026   5.149   4.152
 3431SOL    HW212088   4.881   5.074   4.144
 3432SOL     OW12089   4.297   4.594   4.753
 3432SOL    HW112090   4.341   4.683   4.744
 3432SOL    HW212091   4.234   4.594   4.830
 3433SOL     OW12092   5.084   4.586   4.769
 3433SOL    HW112093   5.009   4.586   4.703
 3433SOL    HW212094   5.121   4.494   4.778
 3434SOL     OW12095   4.031   3.937   4.955
 3434SOL    HW112096   4.008   3.974   5.045
 3434SOL    HW212097   4.001   3.842   4.949
 3435SOL     OW12098   4.456   4.358   4.788
 3435SOL    HW112099   4.515   4.332   4.712
 3435SOL    HW212100   4.428   4.454   4.777
 3436SOL     OW12101   4.031   3.787   4.342
 3436SOL    HW112102   4.020   3.881   4.375
 3436SOL    HW212103   4.026   3.724   4.419
 3437SOL     OW12104   4.747   4.490   4.690
 3437SOL    HW112105   4.762   4.511   4.786
 3437SOL    HW212106   4.717   4.395   4.681
 3438SOL     OW12107   5.027   4.562   3.766
 3438SOL    HW112108   5.061   4.469   3.781
 3438SOL    HW212109   5.045   4.589   3.671
 3439SOL     OW12110   4.043   4.534   4.673
 3439SOL    HW112111   4.136   4.570   4.678
 3439SOL    HW212112   4.037   4.449   4.725
 3440SOL     OW12113   4.063   4.233   4.730
 3440SOL    HW112114   4.011   4.150   4.713
 3440SOL    HW212115   4.140   4.238   4.666
 3441SOL     OW12116   4.884   3.931   5.201
 3441SOL    HW112117   4.884   3.995   5.278
 3441SOL    HW212118   4.912   3.979   5.118
 3442SOL     OW12119   3.732   5.050   3.924
 3442SOL    HW112120   3.639   5.071   3.893
 3442SOL    HW212121   3.742   4.951   3.937
 3443SOL     OW12122   4.726   4.520   4.962
 3443SOL    HW112123   4.767   4.488   5.048
 3443SOL    HW212124   4.630   4.493   4.959
 3444SOL     OW12125   3.764   4.268   4.838
 3444SOL    HW112126   3.849   4.235   4.797
 3444SOL    HW212127   3.777   4.283   4.936
 3445SOL     OW12128   4.539   4.296   4.049
 3445SOL    HW112129   4.546   4.207   4.003
 3445SOL    HW212130   4.445   4.330   4.041
 3446SOL     OW12131   4.395   4.188   4.993
 3446SOL    HW112132   4.361   4.099   4.963
 3446SOL    HW212133   4.421   4.242   4.913
 3447SOL     OW12134   4.197   4.224   3.915
 3447SOL    HW112135   4.258   4.304   3.919
 3447SOL    HW212136   4.102   4.255   3.922
 3448SOL     OW12137   5.071   4.783   4.958
 3448SOL    HW112138   5.095   4.720   4.884
 3448SOL    HW212139   4.981   4.823   4.940
 3449SOL     OW12140   3.807   4.982   4.746
 3449SOL    HW112141   3.802   4.981   4.846
 3449SOL    HW212142   3.724   4.941   4.708
 3450SOL     OW12143   5.004   4.651   4.396
 3450SOL    HW112144   5.064   4.570   4.398
 3450SOL    HW212145   5.044   4.720   4.336
 3451SOL     OW12146   4.554   4.997   5.146
 3451SOL    HW112147   4.549   5.030   5.241
 3451SOL    HW212148   4.468   5.016   5.100
 3452SOL     OW12149   3.987   4.050   4.444
 3452SOL    HW112150   3.908   4.101   4.410
 3452SOL    HW212151   3.978   4.035   4.542
 3453SOL     OW12152   4.918   5.336   3.755
 3453SOL    HW112153   4.924   5.243   3.792
 3453SOL    HW212154   4.859   5.336   3.675
 3454SOL     OW12155   4.546   4.726   5.096
 3454SOL    HW112156   4.586   4.725   5.004
 3454SOL    HW212157   4.556   4.818   5.136
 3455SOL     OW12158   4.640   4.634   4.015
 3455SOL    HW112159   4.703   4.672   3.947
 3455SOL    HW212160   4.680   4.551   4.054
 3456SOL     OW12161   4.763   4.822   4.420
 3456SOL    HW112162   4.693   4.775   4.474
 3456SOL    HW212163   4.822   4.754   4.377
 3457SOL     OW12164   4.738   3.960   4.695
 3457SOL    HW112165   4.730   3.924   4.602
 3457SOL    HW212166   4.736   3.884   4.760
 3458SOL     OW12167   4.318   4.469   4.376
 3458SOL    HW112168   4.368   4.554   4.357
 3458SOL    HW212169   4.230   4.471   4.328
 3459SOL     OW12170   4.583   4.680   4.585
 3459SOL    HW112171   4.637   4.611   4.633
 3459SOL    HW212172   4.551   4.749   4.651
 3460SOL     OW12173   4.807   4.708   3.811
 3460SOL    HW112174   4.784   4.761   3.729
 3460SOL    HW212175   4.888   4.652   3.792
 3461SOL     OW12176   3.803   4.964   4.377
 3461SOL    HW112177   3.802   4.917   4.465
 3461SOL    HW212178   3.885   4.936   4.326
 3462SOL     OW12179   4.725   3.758   4.878
 3462SOL    HW112180   4.662   3.686   4.847
 3462SOL    HW212181   4.818   3.722   4.878
 3463SOL     OW12182   4.494   5.054   4.025
 3463SOL    HW112183   4.448   4.967   4.042
 3463SOL    HW212184   4.585   5.051   4.066
 3464SOL     OW12185   5.076   3.776   3.892
 3464SOL    HW112186   5.111   3.735   3.808
 3464SOL    HW212187   4.986   3.738   3.912
 3465SOL     OW12188   3.763   4.801   4.024
 3465SOL    HW112189   3.862   4.790   4.015
 3465SOL    HW212190   3.723   4.715   4.056
   5.08970   5.08970   5.08970
