UNITED ATOM STRUCTURE FOR MOLECULE UNK
12007
    0X2IT   H18    1   3.092   2.352   2.583
    0X2IT    N4    2   3.026   2.419   2.548
    0X2IT   H17    3   3.059   2.484   2.478
    0X2IT   C14    4   2.895   2.380   2.546
    0X2IT    O5    5   2.849   2.285   2.607
    0X2IT    O4    6   2.822   2.466   2.469
    0X2IT   C13    7   2.680   2.441   2.463
    0X2IT   C10    8   2.607   2.502   2.584
    0X2IT    C9    9   2.457   2.484   2.578
    0X2IT    C4   10   2.394   2.607   2.582
    0X2IT    C5   11   2.245   2.625   2.577
    0X2IT    O1   12   2.197   2.739   2.585
    0X2IT    C6   13   2.166   2.505   2.564
    0X2IT   C12   14   2.015   2.516   2.558
    0X2IT    C7   15   2.229   2.382   2.561
    0X2IT    C8   16   2.381   2.365   2.567
    0X2IT    O2   17   2.427   2.250   2.559
    0X2IT    N3   18   2.164   2.265   2.551
    0X2IT   H15   19   2.064   2.258   2.544
    0X2IT   H16   20   2.221   2.180   2.548
    0X2IT    N2   21   2.482   2.709   2.599
    0X2IT    C3   22   2.473   2.846   2.546
    0X2IT    C2   23   2.599   2.856   2.461
    0X2IT    H2   24   2.639   2.954   2.435
    0X2IT    N1   25   2.611   2.744   2.365
    0X2IT   H14   26   2.674   2.771   2.289
    0X2IT    C1   27   2.688   2.741   2.491
    0X2IT    H1   28   2.796   2.748   2.490
    0X2IT   C11   29   2.622   2.658   2.600
    0X2IT    O3   30   2.691   2.695   2.718
    0X2IT   C15   31   2.628   2.664   2.843
    1X2IT   H18   32   0.518   3.592  -0.312
    1X2IT    N4   33   0.460   3.650  -0.254
    1X2IT   H17   34   0.360   3.638  -0.262
    1X2IT   C14   35   0.513   3.688  -0.134
    1X2IT    O5   36   0.631   3.681  -0.104
    1X2IT    O4   37   0.415   3.738  -0.053
    1X2IT   C13   38   0.458   3.788   0.075
    1X2IT   C10   39   0.510   3.932   0.065
    1X2IT    C9   40   0.549   3.991   0.198
    1X2IT    C4   41   0.477   4.106   0.223
    1X2IT    C5   42   0.491   4.189   0.348
    1X2IT    O1   43   0.425   4.293   0.360
    1X2IT    C6   44   0.584   4.141   0.447
    1X2IT   C12   45   0.603   4.220   0.575
    1X2IT    C7   46   0.657   4.026   0.422
    1X2IT    C8   47   0.643   3.943   0.294
    1X2IT    O2   48   0.710   3.840   0.284
    1X2IT    N3   49   0.748   3.975   0.507
    1X2IT   H15   50   0.768   4.016   0.596
    1X2IT   H16   51   0.795   3.889   0.478
    1X2IT    N2   52   0.398   4.140   0.118
    1X2IT    C3   53   0.266   4.206   0.122
    1X2IT    C2   54   0.176   4.103   0.055
    1X2IT    H2   55   0.081   4.134   0.013
    1X2IT    N1   56   0.190   3.969   0.116
    1X2IT   H14   57   0.107   3.913   0.094
    1X2IT    C1   58   0.261   3.999  -0.010
    1X2IT    H1   59   0.233   3.950  -0.102
    1X2IT   C11   60   0.406   4.038   0.011
    1X2IT    O3   61   0.445   4.094  -0.113
    1X2IT   C15   62   0.563   4.175  -0.114
    2X2IT   H18   63   4.494   3.003   0.687
    2X2IT    N4   64   4.503   2.959   0.598
    2X2IT   H17   65   4.452   2.872   0.585
    2X2IT   C14   66   4.523   3.041   0.491
    2X2IT    O5   67   4.559   3.157   0.497
    2X2IT    O4   68   4.503   2.972   0.375
    2X2IT   C13   69   4.528   3.044   0.252
    2X2IT   C10   70   4.677   3.043   0.216
    2X2IT    C9   71   4.706   3.112   0.084
    2X2IT    C4   72   4.769   3.024  -0.003
    2X2IT    C5   73   4.811   3.061  -0.142
    2X2IT    O1   74   4.869   2.977  -0.212
    2X2IT    C6   75   4.780   3.195  -0.186
    2X2IT   C12   76   4.820   3.238  -0.326
    2X2IT    C7   77   4.719   3.283  -0.098
    2X2IT    C8   78   4.677   3.244   0.044
    2X2IT    O2   79   4.619   3.330   0.112
    2X2IT    N3   80   4.688   3.410  -0.129
    2X2IT   H15   81   4.707   3.450  -0.219
    2X2IT   H16   82   4.641   3.465  -0.057
    2X2IT    N2   83   4.794   2.904   0.055
    2X2IT    C3   84   4.795   2.772  -0.008
    2X2IT    C2   85   4.688   2.698   0.070
    2X2IT    H2   86   4.686   2.589   0.071
    2X2IT    N1   87   4.560   2.773   0.075
    2X2IT   H14   88   4.484   2.708   0.096
    2X2IT    C1   89   4.652   2.776   0.191
    2X2IT    H1   90   4.624   2.731   0.285
    2X2IT   C11   91   4.740   2.900   0.194
    2X2IT    O3   92   4.840   2.869   0.289
    2X2IT   C15   93   4.959   2.948   0.287
    3X2IT   H18   94   2.273  -0.034   1.134
    3X2IT    N4   95   2.241  -0.040   1.229
    3X2IT   H17   96   2.168  -0.107   1.248
    3X2IT   C14   97   2.333  -0.012   1.325
    3X2IT    O5   98   2.439   0.046   1.307
    3X2IT    O4   99   2.287  -0.054   1.447
    3X2IT   C13  100   2.372  -0.024   1.560
    3X2IT   C10  101   2.349   0.119   1.611
    3X2IT    C9  102   2.430   0.152   1.734
    3X2IT    C4  103   2.347   0.190   1.838
    3X2IT    C5  104   2.395   0.228   1.975
    3X2IT    O1  105   2.314   0.264   2.061
    3X2IT    C6  106   2.538   0.221   1.997
    3X2IT   C12  107   2.594   0.258   2.133
    3X2IT    C7  108   2.621   0.185   1.893
    3X2IT    C8  109   2.570   0.146   1.754
    3X2IT    O2  110   2.654   0.111   1.669
    3X2IT    N3  111   2.755   0.177   1.904
    3X2IT   H15  112   2.805   0.197   1.989
    3X2IT   H16  113   2.806   0.147   1.820
    3X2IT    N2  114   2.217   0.196   1.800
    3X2IT    C3  115   2.097   0.166   1.880
    3X2IT    C2  116   2.033   0.052   1.802
    3X2IT    H2  117   1.927   0.030   1.816
    3X2IT    N1  118   2.128  -0.058   1.775
    3X2IT   H14  119   2.076  -0.143   1.755
    3X2IT    C1  120   2.098   0.041   1.669
    3X2IT    H1  121   2.045   0.012   1.580
    3X2IT   C11  122   2.202   0.152   1.658
    3X2IT    O3  123   2.139   0.250   1.578
    3X2IT   C15  124   2.195   0.382   1.582
    4X2IT   H18  125   4.673   3.717   0.659
    4X2IT    N4  126   4.629   3.790   0.712
    4X2IT   H17  127   4.672   3.882   0.710
    4X2IT   C14  128   4.494   3.781   0.727
    4X2IT    O5  129   4.427   3.680   0.707
    4X2IT    O4  130   4.443   3.899   0.773
    4X2IT   C13  131   4.302   3.902   0.800
    4X2IT   C10  132   4.270   3.846   0.939
    4X2IT    C9  133   4.123   3.853   0.974
    4X2IT    C4  134   4.105   3.927   1.090
    4X2IT    C5  135   3.971   3.954   1.152
    4X2IT    O1  136   3.965   4.018   1.258
    4X2IT    C6  137   3.856   3.902   1.082
    4X2IT   C12  138   3.717   3.927   1.139
    4X2IT    C7  139   3.874   3.828   0.967
    4X2IT    C8  140   4.011   3.800   0.905
    4X2IT    O2  141   4.015   3.736   0.799
    4X2IT    N3  142   3.773   3.774   0.896
    4X2IT   H15  143   3.676   3.785   0.921
    4X2IT   H16  144   3.798   3.723   0.811
    4X2IT    N2  145   4.223   3.964   1.145
    4X2IT    C3  146   4.253   4.087   1.220
    4X2IT    C2  147   4.362   4.151   1.136
    4X2IT    H2  148   4.429   4.225   1.181
    4X2IT    N1  149   4.324   4.163   0.994
    4X2IT   H14  150   4.381   4.235   0.949
    4X2IT    C1  151   4.412   4.052   1.037
    4X2IT    H1  152   4.515   4.048   1.004
    4X2IT   C11  153   4.337   3.922   1.059
    4X2IT    O3  154   4.430   3.841   1.131
    4X2IT   C15  155   4.377   3.728   1.200
    5X2IT   H18  156   3.401   4.732   2.957
    5X2IT    N4  157   3.499   4.711   2.964
    5X2IT   H17  158   3.563   4.790   2.966
    5X2IT   C14  159   3.532   4.597   3.032
    5X2IT    O5  160   3.455   4.507   3.059
    5X2IT    O4  161   3.666   4.598   3.061
    5X2IT   C13  162   3.717   4.480   3.127
    5X2IT   C10  163   3.748   4.368   3.026
    5X2IT    C9  164   3.808   4.245   3.090
    5X2IT    C4  165   3.932   4.218   3.035
    5X2IT    C5  166   4.019   4.103   3.076
    5X2IT    O1  167   4.127   4.084   3.018
    5X2IT    C6  168   3.969   4.020   3.183
    5X2IT   C12  169   4.052   3.902   3.231
    5X2IT    C7  170   3.845   4.047   3.238
    5X2IT    C8  171   3.757   4.164   3.194
    5X2IT    O2  172   3.649   4.181   3.253
    5X2IT    N3  173   3.790   3.974   3.336
    5X2IT   H15  174   3.835   3.895   3.378
    5X2IT   H16  175   3.698   4.004   3.371
    5X2IT    N2  176   3.962   4.302   2.933
    5X2IT    C3  177   4.094   4.353   2.893
    5X2IT    C2  178   4.077   4.503   2.908
    5X2IT    H2  179   4.145   4.571   2.856
    5X2IT    N1  180   4.025   4.541   3.041
    5X2IT   H14  181   4.047   4.639   3.060
    5X2IT    C1  182   3.933   4.535   2.925
    5X2IT    H1  183   3.888   4.625   2.887
    5X2IT   C11  184   3.855   4.405   2.916
    5X2IT    O3  185   3.802   4.406   2.785
    5X2IT   C15  186   3.756   4.281   2.733
    6X2IT   H18  187   3.293   0.673   3.498
    6X2IT    N4  188   3.352   0.715   3.568
    6X2IT   H17  189   3.406   0.795   3.541
    6X2IT   C14  190   3.308   0.706   3.697
    6X2IT    O5  191   3.221   0.629   3.737
    6X2IT    O4  192   3.378   0.792   3.777
    6X2IT   C13  193   3.347   0.789   3.918
    6X2IT   C10  194   3.422   0.675   3.989
    6X2IT    C9  195   3.398   0.673   4.138
    6X2IT    C4  196   3.517   0.685   4.207
    6X2IT    C5  197   3.528   0.686   4.356
    6X2IT    O1  198   3.640   0.694   4.409
    6X2IT    C6  199   3.405   0.678   4.430
    6X2IT   C12  200   3.409   0.680   4.582
    6X2IT    C7  201   3.285   0.665   4.362
    6X2IT    C8  202   3.275   0.662   4.209
    6X2IT    O2  203   3.163   0.655   4.158
    6X2IT    N3  204   3.166   0.654   4.422
    6X2IT   H15  205   3.154   0.656   4.522
    6X2IT   H16  206   3.083   0.647   4.361
    6X2IT    N2  207   3.624   0.687   4.123
    6X2IT    C3  208   3.751   0.760   4.140
    6X2IT    C2  209   3.753   0.850   4.017
    6X2IT    H2  210   3.847   0.892   3.983
    6X2IT    N1  211   3.628   0.928   4.004
    6X2IT   H14  212   3.646   1.010   3.944
    6X2IT    C1  213   3.647   0.807   3.922
    6X2IT    H1  214   3.658   0.813   3.815
    6X2IT   C11  215   3.579   0.684   3.981
    6X2IT    O3  216   3.637   0.576   3.910
    6X2IT   C15  217   3.623   0.445   3.967
    7X2IT   H18  218   1.917   3.645   2.620
    7X2IT    N4  219   1.843   3.581   2.600
    7X2IT   H17  220   1.756   3.594   2.651
    7X2IT   C14  221   1.839   3.528   2.474
    7X2IT    O5  222   1.931   3.530   2.394
    7X2IT    O4  223   1.718   3.468   2.452
    7X2IT   C13  224   1.702   3.402   2.325
    7X2IT   C10  225   1.762   3.260   2.328
    7X2IT    C9  226   1.741   3.185   2.199
    7X2IT    C4  227   1.672   3.067   2.222
    7X2IT    C5  228   1.634   2.969   2.115
    7X2IT    O1  229   1.575   2.865   2.146
    7X2IT    C6  230   1.670   3.004   1.980
    7X2IT   C12  231   1.635   2.910   1.867
    7X2IT    C7  232   1.740   3.121   1.956
    7X2IT    C8  233   1.779   3.220   2.067
    7X2IT    O2  234   1.838   3.324   2.034
    7X2IT    N3  235   1.780   3.161   1.835
    7X2IT   H15  236   1.761   3.109   1.751
    7X2IT   H16  237   1.830   3.250   1.829
    7X2IT    N2  238   1.649   3.047   2.355
    7X2IT    C3  239   1.534   2.982   2.418
    7X2IT    C2  240   1.477   3.093   2.506
    7X2IT    H2  241   1.412   3.067   2.589
    7X2IT    N1  242   1.455   3.218   2.430
    7X2IT   H14  243   1.387   3.276   2.480
    7X2IT    C1  244   1.576   3.204   2.514
    7X2IT    H1  245   1.589   3.264   2.602
    7X2IT   C11  246   1.699   3.163   2.435
    7X2IT    O3  247   1.792   3.122   2.534
    7X2IT   C15  248   1.903   3.043   2.491
    8X2IT   H18  249   0.481   5.231   3.200
    8X2IT    N4  250   0.526   5.142   3.204
    8X2IT   H17  251   0.620   5.136   3.167
    8X2IT   C14  252   0.490   5.059   3.307
    8X2IT    O5  253   0.391   5.073   3.376
    8X2IT    O4  254   0.579   4.957   3.318
    8X2IT   C13  255   0.549   4.857   3.418
    8X2IT   C10  256   0.449   4.753   3.367
    8X2IT    C9  257   0.421   4.643   3.467
    8X2IT    C4  258   0.452   4.520   3.413
    8X2IT    C5  259   0.436   4.390   3.486
    8X2IT    O1  260   0.463   4.284   3.428
    8X2IT    C6  261   0.389   4.398   3.622
    8X2IT   C12  262   0.371   4.270   3.702
    8X2IT    C7  263   0.357   4.521   3.676
    8X2IT    C8  264   0.372   4.653   3.600
    8X2IT    O2  265   0.345   4.758   3.659
    8X2IT    N3  266   0.310   4.539   3.800
    8X2IT   H15  267   0.296   4.463   3.865
    8X2IT   H16  268   0.291   4.635   3.830
    8X2IT    N2  269   0.490   4.529   3.283
    8X2IT    C3  270   0.588   4.446   3.211
    8X2IT    C2  271   0.692   4.548   3.168
    8X2IT    H2  272   0.760   4.525   3.085
    8X2IT    N1  273   0.740   4.632   3.280
    8X2IT   H14  274   0.830   4.673   3.256
    8X2IT    C1  275   0.638   4.685   3.187
    8X2IT    H1  276   0.661   4.768   3.122
    8X2IT   C11  277   0.496   4.672   3.240
    8X2IT    O3  278   0.415   4.696   3.126
    8X2IT   C15  279   0.278   4.653   3.133
    9X2IT   H18  280   5.551   1.594   4.362
    9X2IT    N4  281   5.487   1.516   4.360
    9X2IT   H17  282   5.511   1.439   4.299
    9X2IT   C14  283   5.417   1.492   4.475
    9X2IT    O5  284   5.405   1.570   4.567
    9X2IT    O4  285   5.360   1.368   4.469
    9X2IT   C13  286   5.277   1.331   4.581
    9X2IT   C10  287   5.134   1.388   4.567
    9X2IT    C9  288   5.042   1.346   4.679
    9X2IT    C4  289   4.932   1.280   4.628
    9X2IT    C5  290   4.822   1.224   4.713
    9X2IT    O1  291   4.725   1.169   4.658
    9X2IT    C6  292   4.836   1.239   4.856
    9X2IT   C12  293   4.728   1.185   4.947
    9X2IT    C7  294   4.945   1.307   4.906
    9X2IT    C8  295   5.057   1.364   4.819
    9X2IT    O2  296   5.153   1.419   4.875
    9X2IT    N3  297   4.966   1.328   5.037
    9X2IT   H15  298   4.903   1.295   5.109
    9X2IT   H16  299   5.051   1.377   5.064
    9X2IT    N2  300   4.932   1.278   4.492
    9X2IT    C3  301   4.881   1.173   4.403
    9X2IT    C2  302   5.005   1.133   4.325
    9X2IT    H2  303   4.995   1.081   4.230
    9X2IT    N1  304   5.119   1.100   4.414
    9X2IT   H14  305   5.186   1.043   4.363
    9X2IT    C1  306   5.112   1.233   4.349
    9X2IT    H1  307   5.184   1.261   4.273
    9X2IT   C11  308   5.056   1.342   4.439
    9X2IT    O3  309   5.026   1.448   4.350
    9X2IT   C15  310   4.937   1.550   4.397
   10X2IT   H18  311   2.926  -0.068   3.371
   10X2IT    N4  312   2.864   0.011   3.365
   10X2IT   H17  313   2.774  -0.005   3.321
   10X2IT   C14  314   2.874   0.104   3.465
   10X2IT    O5  315   2.968   0.114   3.542
   10X2IT    O4  316   2.766   0.187   3.462
   10X2IT   C13  317   2.766   0.295   3.558
   10X2IT   C10  318   2.848   0.415   3.507
   10X2IT    C9  319   2.845   0.533   3.602
   10X2IT    C4  320   2.795   0.644   3.537
   10X2IT    C5  321   2.778   0.778   3.603
   10X2IT    O1  322   2.736   0.874   3.536
   10X2IT    C6  323   2.814   0.787   3.743
   10X2IT   C12  324   2.799   0.919   3.815
   10X2IT    C7  325   2.865   0.675   3.807
   10X2IT    C8  326   2.883   0.540   3.738
   10X2IT    O2  327   2.925   0.445   3.807
   10X2IT    N3  328   2.903   0.674   3.935
   10X2IT   H15  329   2.897   0.754   3.995
   10X2IT   H16  330   2.938   0.585   3.973
   10X2IT    N2  331   2.771   0.621   3.406
   10X2IT    C3  332   2.665   0.679   3.322
   10X2IT    C2  333   2.588   0.555   3.277
   10X2IT    H2  334   2.524   0.560   3.189
   10X2IT    N1  335   2.548   0.470   3.391
   10X2IT   H14  336   2.470   0.410   3.363
   10X2IT    C1  337   2.666   0.434   3.310
   10X2IT    H1  338   2.666   0.345   3.249
   10X2IT   C11  339   2.797   0.478   3.372
   10X2IT    O3  340   2.891   0.465   3.267
   10X2IT   C15  341   3.016   0.535   3.281
   11X2IT   H18  342   4.960   2.437  -0.101
   11X2IT    N4  343   4.939   2.467  -0.007
   11X2IT   H17  344   4.867   2.537   0.004
   11X2IT   C14  345   4.959   2.375   0.092
   11X2IT    O5  346   5.023   2.272   0.081
   11X2IT    O4  347   4.899   2.418   0.208
   11X2IT   C13  348   4.917   2.334   0.323
   11X2IT   C10  349   5.051   2.362   0.393
   11X2IT    C9  350   5.071   2.281   0.519
   11X2IT    C4  351   5.091   2.364   0.627
   11X2IT    C5  352   5.113   2.316   0.768
   11X2IT    O1  353   5.134   2.398   0.858
   11X2IT    C6  354   5.109   2.173   0.788
   11X2IT   C12  355   5.130   2.117   0.927
   11X2IT    C7  356   5.091   2.089   0.679
   11X2IT    C8  357   5.069   2.140   0.537
   11X2IT    O2  358   5.049   2.056   0.448
   11X2IT    N3  359   5.088   1.956   0.688
   11X2IT   H15  360   5.098   1.906   0.775
   11X2IT   H16  361   5.071   1.903   0.601
   11X2IT    N2  362   5.096   2.495   0.591
   11X2IT    C3  363   5.051   2.612   0.667
   11X2IT    C2  364   4.946   2.672   0.575
   11X2IT    H2  365   4.917   2.777   0.587
   11X2IT    N1  366   4.845   2.573   0.533
   11X2IT   H14  367   4.760   2.621   0.502
   11X2IT    C1  368   4.955   2.608   0.441
   11X2IT    H1  369   4.935   2.661   0.349
   11X2IT   C11  370   5.071   2.510   0.445
   11X2IT    O3  371   5.176   2.578   0.379
   11X2IT   C15  372   5.309   2.528   0.399
   12X2IT   H18  373   0.602   3.347   4.328
   12X2IT    N4  374   0.548   3.309   4.252
   12X2IT   H17  375   0.533   3.369   4.172
   12X2IT   C14  376   0.555   3.174   4.234
   12X2IT    O5  377   0.597   3.094   4.316
   12X2IT    O4  378   0.503   3.140   4.113
   12X2IT   C13  379   0.497   2.999   4.082
   12X2IT   C10  380   0.372   2.933   4.144
   12X2IT    C9  381   0.359   2.787   4.109
   12X2IT    C4  382   0.239   2.764   4.044
   12X2IT    C5  383   0.195   2.629   3.995
   12X2IT    O1  384   0.084   2.617   3.942
   12X2IT    C6  385   0.287   2.520   4.015
   12X2IT   C12  386   0.249   2.381   3.967
   12X2IT    C7  387   0.407   2.543   4.080
   12X2IT    C8  388   0.450   2.681   4.130
   12X2IT    O2  389   0.562   2.691   4.183
   12X2IT    N3  390   0.498   2.447   4.104
   12X2IT   H15  391   0.487   2.352   4.076
   12X2IT   H16  392   0.584   2.476   4.152
   12X2IT    N2  393   0.162   2.876   4.038
   12X2IT    C3  394   0.068   2.915   3.932
   12X2IT    C2  395   0.127   3.048   3.885
   12X2IT    H2  396   0.064   3.118   3.831
   12X2IT    N1  397   0.270   3.037   3.852
   12X2IT   H14  398   0.297   3.115   3.790
   12X2IT    C1  399   0.229   3.094   3.982
   12X2IT    H1  400   0.246   3.198   4.005
   12X2IT   C11  401   0.235   2.992   4.095
   12X2IT    O3  402   0.161   3.054   4.200
   12X2IT   C15  403   0.115   2.969   4.306
   13X2IT   H18  404   3.897   1.974   1.808
   13X2IT    N4  405   3.909   1.914   1.888
   13X2IT   H17  406   3.973   1.837   1.878
   13X2IT   C14  407   3.891   1.971   2.010
   13X2IT    O5  408   3.837   2.078   2.031
   13X2IT    O4  409   3.939   1.888   2.108
   13X2IT   C13  410   3.921   1.932   2.244
   13X2IT   C10  411   3.781   1.898   2.296
   13X2IT    C9  412   3.761   1.937   2.441
   13X2IT    C4  413   3.727   1.826   2.516
   13X2IT    C5  414   3.700   1.829   2.664
   13X2IT    O1  415   3.666   1.725   2.722
   13X2IT    C6  416   3.715   1.957   2.729
   13X2IT   C12  417   3.690   1.967   2.878
   13X2IT    C7  418   3.748   2.068   2.654
   13X2IT    C8  419   3.774   2.063   2.503
   13X2IT    O2  420   3.808   2.168   2.446
   13X2IT    N3  421   3.763   2.191   2.705
   13X2IT   H15  422   3.752   2.212   2.803
   13X2IT   H16  423   3.789   2.266   2.640
   13X2IT    N2  424   3.712   1.715   2.439
   13X2IT    C3  425   3.741   1.575   2.475
   13X2IT    C2  426   3.846   1.536   2.372
   13X2IT    H2  427   3.865   1.431   2.350
   13X2IT    N1  428   3.958   1.633   2.367
   13X2IT   H14  429   4.040   1.588   2.325
   13X2IT    C1  430   3.851   1.640   2.266
   13X2IT    H1  431   3.872   1.617   2.162
   13X2IT   C11  432   3.745   1.744   2.297
   13X2IT    O3  433   3.639   1.712   2.210
   13X2IT   C15  434   3.510   1.767   2.241
   14X2IT   H18  435   1.658   2.198   2.651
   14X2IT    N4  436   1.740   2.226   2.600
   14X2IT   H17  437   1.805   2.286   2.649
   14X2IT   C14  438   1.787   2.139   2.507
   14X2IT    O5  439   1.725   2.045   2.460
   14X2IT    O4  440   1.914   2.174   2.469
   14X2IT   C13  441   1.974   2.095   2.365
   14X2IT   C10  442   1.930   2.141   2.226
   14X2IT    C9  443   1.996   2.065   2.113
   14X2IT    C4  444   2.065   2.152   2.031
   14X2IT    C5  445   2.143   2.108   1.910
   14X2IT    O1  446   2.198   2.193   1.839
   14X2IT    C6  447   2.147   1.966   1.883
   14X2IT   C12  448   2.224   1.916   1.763
   14X2IT    C7  449   2.078   1.880   1.966
   14X2IT    C8  450   1.998   1.926   2.088
   14X2IT    O2  451   1.943   1.839   2.158
   14X2IT    N3  452   2.074   1.747   1.948
   14X2IT   H15  453   2.123   1.700   1.874
   14X2IT   H16  454   2.021   1.692   2.016
   14X2IT    N2  455   2.047   2.281   2.066
   14X2IT    C3  456   2.143   2.393   2.054
   14X2IT    C2  457   2.159   2.437   2.199
   14X2IT    H2  458   2.197   2.537   2.221
   14X2IT    N1  459   2.193   2.324   2.289
   14X2IT   H14  460   2.236   2.361   2.374
   14X2IT    C1  461   2.054   2.373   2.282
   14X2IT    H1  462   2.008   2.422   2.367
   14X2IT   C11  463   1.965   2.291   2.190
   14X2IT    O3  464   1.850   2.372   2.171
   14X2IT   C15  465   1.765   2.340   2.060
   15X2IT   H18  466   0.318   2.634   2.164
   15X2IT    N4  467   0.352   2.726   2.144
   15X2IT   H17  468   0.325   2.800   2.208
   15X2IT   C14  469   0.473   2.734   2.081
   15X2IT    O5  470   0.528   2.642   2.023
   15X2IT    O4  471   0.521   2.861   2.088
   15X2IT   C13  472   0.646   2.886   2.020
   15X2IT   C10  473   0.623   2.913   1.870
   15X2IT    C9  474   0.751   2.946   1.796
   15X2IT    C4  475   0.740   3.070   1.736
   15X2IT    C5  476   0.849   3.134   1.655
   15X2IT    O1  477   0.830   3.244   1.601
   15X2IT    C6  478   0.973   3.060   1.644
   15X2IT   C12  479   1.087   3.118   1.564
   15X2IT    C7  480   0.983   2.935   1.703
   15X2IT    C8  481   0.870   2.871   1.785
   15X2IT    O2  482   0.892   2.761   1.837
   15X2IT    N3  483   1.093   2.858   1.697
   15X2IT   H15  484   1.177   2.886   1.649
   15X2IT   H16  485   1.090   2.769   1.746
   15X2IT    N2  486   0.617   3.124   1.752
   15X2IT    C3  487   0.581   3.267   1.765
   15X2IT    C2  488   0.514   3.270   1.902
   15X2IT    H2  489   0.448   3.353   1.928
   15X2IT    N1  490   0.598   3.208   2.007
   15X2IT   H14  491   0.568   3.242   2.099
   15X2IT    C1  492   0.487   3.131   1.947
   15X2IT    H1  493   0.400   3.105   2.006
   15X2IT   C11  494   0.531   3.037   1.837
   15X2IT    O3  495   0.411   3.000   1.772
   15X2IT   C15  496   0.422   2.943   1.641
   16X2IT   H18  497   1.320   0.405   1.207
   16X2IT    N4  498   1.236   0.419   1.260
   16X2IT   H17  499   1.149   0.396   1.216
   16X2IT   C14  500   1.248   0.406   1.396
   16X2IT    O5  501   1.352   0.406   1.458
   16X2IT    O4  502   1.123   0.397   1.452
   16X2IT   C13  503   1.119   0.390   1.596
   16X2IT   C10  504   1.128   0.530   1.660
   16X2IT    C9  505   1.117   0.527   1.811
   16X2IT    C4  506   1.011   0.605   1.852
   16X2IT    C5  507   0.971   0.623   1.996
   16X2IT    O1  508   0.877   0.698   2.024
   16X2IT    C6  509   1.049   0.551   2.094
   16X2IT   C12  510   1.015   0.565   2.241
   16X2IT    C7  511   1.156   0.474   2.052
   16X2IT    C8  512   1.196   0.457   1.905
   16X2IT    O2  513   1.291   0.382   1.879
   16X2IT    N3  514   1.236   0.405   2.136
   16X2IT   H15  515   1.223   0.404   2.235
   16X2IT   H16  516   1.311   0.350   2.094
   16X2IT    N2  517   0.951   0.669   1.749
   16X2IT    C3  518   0.809   0.704   1.734
   16X2IT    C2  519   0.771   0.629   1.606
   16X2IT    H2  520   0.682   0.660   1.550
   16X2IT    N1  521   0.808   0.486   1.612
   16X2IT   H14  522   0.752   0.434   1.544
   16X2IT    C1  523   0.894   0.581   1.538
   16X2IT    H1  524   0.903   0.576   1.431
   16X2IT   C11  525   1.013   0.630   1.619
   16X2IT    O3  526   1.061   0.742   1.547
   16X2IT   C15  527   1.148   0.832   1.616
   17X2IT   H18  528   1.774   4.060   0.633
   17X2IT    N4  529   1.781   3.999   0.712
   17X2IT   H17  530   1.711   3.927   0.722
   17X2IT   C14  531   1.908   3.974   0.758
   17X2IT    O5  532   2.006   4.041   0.731
   17X2IT    O4  533   1.907   3.868   0.844
   17X2IT   C13  534   2.033   3.834   0.906
   17X2IT   C10  535   2.059   3.921   1.030
   17X2IT    C9  536   2.187   3.885   1.102
   17X2IT    C4  537   2.160   3.851   1.233
   17X2IT    C5  538   2.265   3.808   1.332
   17X2IT    O1  539   2.232   3.783   1.449
   17X2IT    C6  540   2.400   3.801   1.283
   17X2IT   C12  541   2.511   3.759   1.377
   17X2IT    C7  542   2.427   3.837   1.152
   17X2IT    C8  543   2.320   3.880   1.053
   17X2IT    O2  544   2.355   3.905   0.936
   17X2IT    N3  545   2.550   3.835   1.098
   17X2IT   H15  546   2.632   3.807   1.149
   17X2IT   H16  547   2.558   3.862   1.000
   17X2IT    N2  548   2.029   3.867   1.264
   17X2IT    C3  549   1.947   3.788   1.358
   17X2IT    C2  550   1.838   3.734   1.267
   17X2IT    H2  551   1.744   3.699   1.310
   17X2IT    N1  552   1.892   3.666   1.147
   17X2IT   H14  553   1.822   3.603   1.108
   17X2IT    C1  554   1.841   3.805   1.137
   17X2IT    H1  555   1.753   3.827   1.079
   17X2IT   C11  556   1.951   3.910   1.144
   17X2IT    O3  557   1.881   4.031   1.167
   17X2IT   C15  558   1.957   4.142   1.216
   18X2IT   H18  559   3.907   4.212   1.804
   18X2IT    N4  560   3.841   4.286   1.823
   18X2IT   H17  561   3.838   4.320   1.918
   18X2IT   C14  562   3.814   4.371   1.720
   18X2IT    O5  563   3.838   4.350   1.603
   18X2IT    O4  564   3.750   4.482   1.768
   18X2IT   C13  565   3.708   4.579   1.669
   18X2IT   C10  566   3.574   4.540   1.606
   18X2IT    C9  567   3.523   4.642   1.506
   18X2IT    C4  568   3.398   4.688   1.545
   18X2IT    C5  569   3.320   4.791   1.468
   18X2IT    O1  570   3.207   4.824   1.508
   18X2IT    C6  571   3.383   4.846   1.351
   18X2IT   C12  572   3.310   4.950   1.269
   18X2IT    C7  573   3.507   4.799   1.312
   18X2IT    C8  574   3.586   4.693   1.390
   18X2IT    O2  575   3.698   4.662   1.349
   18X2IT    N3  576   3.573   4.842   1.203
   18X2IT   H15  577   3.536   4.913   1.141
   18X2IT   H16  578   3.665   4.802   1.185
   18X2IT    N2  579   3.352   4.624   1.654
   18X2IT    C3  580   3.266   4.678   1.762
   18X2IT    C2  581   3.354   4.659   1.885
   18X2IT    H2  582   3.308   4.658   1.984
   18X2IT    N1  583   3.489   4.716   1.867
   18X2IT   H14  584   3.531   4.733   1.959
   18X2IT    C1  585   3.468   4.571   1.851
   18X2IT    H1  586   3.512   4.501   1.921
   18X2IT   C11  587   3.453   4.527   1.706
   18X2IT    O3  588   3.402   4.396   1.715
   18X2IT   C15  589   3.340   4.342   1.597
   19X2IT   H18  590   4.146   3.659   3.570
   19X2IT    N4  591   4.096   3.715   3.637
   19X2IT   H17  592   4.012   3.761   3.605
   19X2IT   C14  593   4.103   3.674   3.768
   19X2IT    O5  594   4.185   3.596   3.813
   19X2IT    O4  595   4.007   3.738   3.841
   19X2IT   C13  596   4.007   3.711   3.983
   19X2IT   C10  597   4.110   3.798   4.057
   19X2IT    C9  598   4.108   3.777   4.207
   19X2IT    C4  599   4.082   3.896   4.272
   19X2IT    C5  600   4.073   3.910   4.421
   19X2IT    O1  601   4.053   4.022   4.471
   19X2IT    C6  602   4.089   3.789   4.498
   19X2IT   C12  603   4.080   3.796   4.649
   19X2IT    C7  604   4.115   3.670   4.434
   19X2IT    C8  605   4.126   3.657   4.281
   19X2IT    O2  606   4.145   3.544   4.234
   19X2IT    N3  607   4.133   3.553   4.497
   19X2IT   H15  608   4.128   3.543   4.597
   19X2IT   H16  609   4.151   3.471   4.439
   19X2IT    N2  610   4.075   4.000   4.185
   19X2IT    C3  611   3.990   4.121   4.196
   19X2IT    C2  612   3.906   4.112   4.070
   19X2IT    H2  613   3.857   4.201   4.031
   19X2IT    N1  614   3.839   3.980   4.055
   19X2IT   H14  615   3.759   3.989   3.992
   19X2IT    C1  616   3.962   4.009   3.979
   19X2IT    H1  617   3.960   4.017   3.871
   19X2IT   C11  618   4.088   3.953   4.045
   19X2IT    O3  619   4.194   4.018   3.977
   19X2IT   C15  620   4.323   4.017   4.040
   20X2IT   H18  621   4.905   3.821   3.836
   20X2IT    N4  622   4.948   3.878   3.907
   20X2IT   H17  623   5.004   3.957   3.875
   20X2IT   C14  624   4.881   3.888   4.026
   20X2IT    O5  625   4.792   3.814   4.063
   20X2IT    O4  626   4.932   3.991   4.099
   20X2IT   C13  627   4.876   4.010   4.231
   20X2IT   C10  628   4.942   3.916   4.334
   20X2IT    C9  629   4.890   3.937   4.474
   20X2IT    C4  630   4.995   3.969   4.559
   20X2IT    C5  631   4.978   3.997   4.706
   20X2IT    O1  632   5.078   4.021   4.775
   20X2IT    C6  633   4.844   3.992   4.757
   20X2IT   C12  634   4.820   4.020   4.904
   20X2IT    C7  635   4.739   3.959   4.673
   20X2IT    C8  636   4.758   3.930   4.524
   20X2IT    O2  637   4.656   3.906   4.456
   20X2IT    N3  638   4.611   3.951   4.712
   20X2IT   H15  639   4.581   3.969   4.806
   20X2IT   H16  640   4.542   3.927   4.640
   20X2IT    N2  641   5.115   3.964   4.496
   20X2IT    C3  642   5.234   4.047   4.521
   20X2IT    C2  643   5.255   4.116   4.387
   20X2IT    H2  644   5.352   4.158   4.362
   20X2IT    N1  645   5.131   4.182   4.338
   20X2IT   H14  646   5.156   4.253   4.269
   20X2IT    C1  647   5.170   4.049   4.284
   20X2IT    H1  648   5.200   4.038   4.181
   20X2IT   C11  649   5.097   3.934   4.351
   20X2IT    O3  650   5.171   3.819   4.312
   20X2IT   C15  651   5.152   3.700   4.388
   21X2IT   H18  652   5.207   1.885   2.703
   21X2IT    N4  653   5.151   1.813   2.744
   21X2IT   H17  654   5.198   1.741   2.795
   21X2IT   C14  655   5.024   1.849   2.781
   21X2IT    O5  656   4.966   1.950   2.745
   21X2IT    O4  657   4.970   1.753   2.862
   21X2IT   C13  658   4.834   1.774   2.904
   21X2IT   C10  659   4.734   1.728   2.797
   21X2IT    C9  660   4.590   1.742   2.840
   21X2IT    C4  661   4.526   1.619   2.836
   21X2IT    C5  662   4.383   1.598   2.873
   21X2IT    O1  663   4.333   1.485   2.863
   21X2IT    C6  664   4.310   1.714   2.920
   21X2IT   C12  665   4.165   1.700   2.959
   21X2IT    C7  666   4.373   1.837   2.923
   21X2IT    C8  667   4.520   1.857   2.884
   21X2IT    O2  668   4.568   1.971   2.895
   21X2IT    N3  669   4.314   1.950   2.963
   21X2IT   H15  670   4.219   1.955   2.994
   21X2IT   H16  671   4.371   2.035   2.963
   21X2IT    N2  672   4.607   1.522   2.786
   21X2IT    C3  673   4.609   1.379   2.822
   21X2IT    C2  674   4.751   1.361   2.873
   21X2IT    H2  675   4.795   1.261   2.877
   21X2IT    N1  676   4.787   1.460   2.977
   21X2IT   H14  677   4.866   1.425   3.032
   21X2IT    C1  678   4.832   1.480   2.838
   21X2IT    H1  679   4.937   1.475   2.812
   21X2IT   C11  680   4.743   1.575   2.759
   21X2IT    O3  681   4.782   1.554   2.624
   21X2IT   C15  682   4.692   1.599   2.522
   22X2IT   H18  683   4.751   0.003   2.623
   22X2IT    N4  684   4.819   0.023   2.552
   22X2IT   H17  685   4.916   0.017   2.578
   22X2IT   C14  686   4.783  -0.004   2.423
   22X2IT    O5  687   4.669  -0.025   2.385
   22X2IT    O4  688   4.893  -0.001   2.342
   22X2IT   C13  689   4.870  -0.023   2.202
   22X2IT   C10  690   4.826   0.108   2.132
   22X2IT    C9  691   4.807   0.091   1.983
   22X2IT    C4  692   4.890   0.179   1.914
   22X2IT    C5  693   4.896   0.188   1.764
   22X2IT    O1  694   4.970   0.272   1.712
   22X2IT    C6  695   4.813   0.096   1.691
   22X2IT   C12  696   4.814   0.100   1.539
   22X2IT    C7  697   4.729   0.010   1.759
   22X2IT    C8  698   4.723   0.002   1.912
   22X2IT    O2  699   4.648  -0.083   1.963
   22X2IT    N3  700   4.647  -0.077   1.699
   22X2IT   H15  701   4.640  -0.087   1.600
   22X2IT   H16  702   4.591  -0.138   1.760
   22X2IT    N2  703   4.958   0.261   1.998
   22X2IT    C3  704   5.093   0.316   1.980
   22X2IT    C2  705   5.167   0.261   2.101
   22X2IT    H2  706   5.259   0.309   2.135
   22X2IT    N1  707   5.152   0.114   2.114
   22X2IT   H14  708   5.228   0.077   2.172
   22X2IT    C1  709   5.069   0.203   2.197
   22X2IT    H1  710   5.082   0.207   2.304
   22X2IT   C11  711   4.930   0.226   2.140
   22X2IT    O3  712   4.881   0.337   2.213
   22X2IT   C15  713   4.769   0.407   2.158
   23X2IT   H18  714   2.814   4.084   1.589
   23X2IT    N4  715   2.804   4.003   1.530
   23X2IT   H17  716   2.739   3.932   1.560
   23X2IT   C14  717   2.822   4.023   1.396
   23X2IT    O5  718   2.876   4.121   1.346
   23X2IT    O4  719   2.775   3.916   1.326
   23X2IT   C13  720   2.794   3.921   1.183
   23X2IT   C10  721   2.935   3.873   1.143
   23X2IT    C9  722   2.957   3.870   0.994
   23X2IT    C4  723   2.991   3.742   0.953
   23X2IT    C5  724   3.019   3.704   0.811
   23X2IT    O1  725   3.054   3.588   0.784
   23X2IT    C6  726   3.005   3.808   0.712
   23X2IT   C12  727   3.031   3.776   0.566
   23X2IT    C7  728   2.971   3.936   0.753
   23X2IT    C8  729   2.944   3.974   0.898
   23X2IT    O2  730   2.909   4.090   0.923
   23X2IT    N3  731   2.957   4.039   0.669
   23X2IT   H15  732   2.969   4.032   0.569
   23X2IT   H16  733   2.930   4.129   0.709
   23X2IT    N2  734   3.005   3.657   1.059
   23X2IT    C3  735   2.976   3.513   1.063
   23X2IT    C2  736   2.870   3.505   1.172
   23X2IT    H2  737   2.852   3.410   1.222
   23X2IT    N1  738   2.758   3.599   1.148
   23X2IT   H14  739   2.676   3.567   1.201
   23X2IT    C1  740   2.864   3.634   1.245
   23X2IT    H1  741   2.843   3.642   1.351
   23X2IT   C11  742   2.971   3.726   1.186
   23X2IT    O3  743   3.077   3.720   1.280
   23X2IT   C15  744   3.206   3.764   1.236
   24X2IT   H18  745   2.308   0.499   4.953
   24X2IT    N4  746   2.231   0.555   4.921
   24X2IT   H17  747   2.247   0.654   4.910
   24X2IT   C14  748   2.142   0.492   4.839
   24X2IT    O5  749   2.132   0.371   4.824
   24X2IT    O4  750   2.061   0.585   4.779
   24X2IT   C13  751   1.957   0.533   4.694
   24X2IT   C10  752   1.833   0.492   4.775
   24X2IT    C9  753   1.719   0.443   4.689
   24X2IT    C4  754   1.606   0.520   4.711
   24X2IT    C5  755   1.475   0.499   4.641
   24X2IT    O1  756   1.378   0.571   4.670
   24X2IT    C6  757   1.470   0.394   4.543
   24X2IT   C12  758   1.341   0.367   4.468
   24X2IT    C7  759   1.583   0.316   4.522
   24X2IT    C8  760   1.716   0.338   4.595
   24X2IT    O2  761   1.811   0.265   4.564
   24X2IT    N3  762   1.588   0.214   4.434
   24X2IT   H15  763   1.510   0.187   4.377
   24X2IT   H16  764   1.677   0.164   4.425
   24X2IT    N2  765   1.625   0.612   4.810
   24X2IT    C3  766   1.567   0.747   4.820
   24X2IT    C2  767   1.691   0.835   4.822
   24X2IT    H2  768   1.684   0.937   4.861
   24X2IT    N1  769   1.781   0.807   4.708
   24X2IT   H14  770   1.842   0.888   4.692
   24X2IT    C1  771   1.812   0.752   4.842
   24X2IT    H1  772   1.898   0.785   4.897
   24X2IT   C11  773   1.766   0.607   4.859
   24X2IT    O3  774   1.773   0.586   4.998
   24X2IT   C15  775   1.700   0.473   5.051
   25X2IT   H18  776   2.313   2.485   4.833
   25X2IT    N4  777   2.330   2.567   4.778
   25X2IT   H17  778   2.332   2.557   4.678
   25X2IT   C14  779   2.287   2.686   4.832
   25X2IT    O5  780   2.256   2.703   4.948
   25X2IT    O4  781   2.288   2.783   4.736
   25X2IT   C13  782   2.251   2.916   4.780
   25X2IT   C10  783   2.371   2.989   4.843
   25X2IT    C9  784   2.338   3.131   4.884
   25X2IT    C4  785   2.423   3.220   4.819
   25X2IT    C5  786   2.417   3.369   4.837
   25X2IT    O1  787   2.499   3.441   4.778
   25X2IT    C6  788   2.314   3.419   4.924
   25X2IT   C12  789   2.302   3.569   4.946
   25X2IT    C7  790   2.230   3.330   4.989
   25X2IT    C8  791   2.238   3.179   4.971
   25X2IT    O2  792   2.155   3.109   5.031
   25X2IT    N3  793   2.133   3.368   5.074
   25X2IT   H15  794   2.112   3.464   5.096
   25X2IT   H16  795   2.075   3.293   5.115
   25X2IT    N2  796   2.517   3.156   4.745
   25X2IT    C3  797   2.578   3.201   4.619
   25X2IT    C2  798   2.539   3.089   4.523
   25X2IT    H2  799   2.596   3.075   4.431
   25X2IT    N1  800   2.394   3.060   4.525
   25X2IT   H14  801   2.367   3.012   4.439
   25X2IT    C1  802   2.487   2.974   4.600
   25X2IT    H1  803   2.502   2.871   4.571
   25X2IT   C11  804   2.495   3.009   4.748
   25X2IT    O3  805   2.610   2.939   4.793
   25X2IT   C15  806   2.668   2.982   4.917
   26X2IT   H18  807   0.548   3.908   2.035
   26X2IT    N4  808   0.581   3.975   2.102
   26X2IT   H17  809   0.584   4.072   2.073
   26X2IT   C14  810   0.558   3.946   2.234
   26X2IT    O5  811   0.528   3.836   2.277
   26X2IT    O4  812   0.580   4.057   2.310
   26X2IT   C13  813   0.566   4.039   2.453
   26X2IT   C10  814   0.695   3.982   2.515
   26X2IT    C9  815   0.686   3.969   2.666
   26X2IT    C4  816   0.787   4.042   2.726
   26X2IT    C5  817   0.807   4.051   2.874
   26X2IT    O1  818   0.903   4.116   2.919
   26X2IT    C6  819   0.712   3.980   2.956
   26X2IT   C12  820   0.726   3.985   3.107
   26X2IT    C7  821   0.612   3.906   2.896
   26X2IT    C8  822   0.593   3.898   2.745
   26X2IT    O2  823   0.497   3.832   2.702
   26X2IT    N3  824   0.520   3.836   2.964
   26X2IT   H15  825   0.517   3.833   3.065
   26X2IT   H16  826   0.449   3.786   2.910
   26X2IT    N2  827   0.871   4.098   2.634
   26X2IT    C3  828   0.942   4.227   2.645
   26X2IT    C2  829   0.888   4.304   2.525
   26X2IT    H2  830   0.943   4.388   2.485
   26X2IT    N1  831   0.740   4.306   2.523
   26X2IT   H14  832   0.708   4.384   2.465
   26X2IT    C1  833   0.813   4.211   2.436
   26X2IT    H1  834   0.811   4.221   2.329
   26X2IT   C11  835   0.823   4.071   2.496
   26X2IT    O3  836   0.923   4.007   2.418
   26X2IT   C15  837   0.983   3.889   2.472
   27X2IT   H18  838   4.254   1.451   3.962
   27X2IT    N4  839   4.263   1.524   3.894
   27X2IT   H17  840   4.182   1.582   3.877
   27X2IT   C14  841   4.388   1.580   3.880
   27X2IT    O5  842   4.491   1.531   3.922
   27X2IT    O4  843   4.379   1.696   3.809
   27X2IT   C13  844   4.505   1.762   3.781
   27X2IT   C10  845   4.574   1.702   3.657
   27X2IT    C9  846   4.702   1.773   3.620
   27X2IT    C4  847   4.694   1.821   3.491
   27X2IT    C5  848   4.804   1.897   3.423
   27X2IT    O1  849   4.790   1.933   3.305
   27X2IT    C6  850   4.922   1.923   3.501
   27X2IT   C12  851   5.037   2.000   3.439
   27X2IT    C7  852   4.930   1.874   3.631
   27X2IT    C8  853   4.818   1.796   3.698
   27X2IT    O2  854   4.834   1.761   3.816
   27X2IT    N3  855   5.037   1.892   3.711
   27X2IT   H15  856   5.119   1.943   3.683
   27X2IT   H16  857   5.031   1.853   3.805
   27X2IT    N2  858   4.579   1.784   3.429
   27X2IT    C3  859   4.502   1.859   3.329
   27X2IT    C2  860   4.367   1.876   3.398
   27X2IT    H2  861   4.278   1.898   3.338
   27X2IT    N1  862   4.380   1.934   3.533
   27X2IT   H14  863   4.291   1.975   3.561
   27X2IT    C1  864   4.361   1.788   3.517
   27X2IT    H1  865   4.270   1.740   3.551
   27X2IT   C11  866   4.491   1.709   3.524
   27X2IT    O3  867   4.456   1.581   3.473
   27X2IT   C15  868   4.563   1.496   3.430
   28X2IT   H18  869   4.088   0.810   1.846
   28X2IT    N4  870   4.161   0.743   1.830
   28X2IT   H17  871   4.133   0.647   1.816
   28X2IT   C14  872   4.274   0.790   1.769
   28X2IT    O5  873   4.304   0.907   1.757
   28X2IT    O4  874   4.350   0.685   1.726
   28X2IT   C13  875   4.476   0.719   1.664
   28X2IT   C10  876   4.585   0.744   1.770
   28X2IT    C9  877   4.721   0.773   1.709
   28X2IT    C4  878   4.814   0.681   1.754
   28X2IT    C5  879   4.958   0.681   1.712
   28X2IT    O1  880   5.035   0.597   1.760
   28X2IT    C6  881   4.998   0.782   1.618
   28X2IT   C12  882   5.142   0.788   1.571
   28X2IT    C7  883   4.905   0.875   1.574
   28X2IT    C8  884   4.758   0.874   1.618
   28X2IT    O2  885   4.683   0.959   1.569
   28X2IT    N3  886   4.933   0.974   1.488
   28X2IT   H15  887   5.024   0.987   1.447
   28X2IT   H16  888   4.856   1.035   1.461
   28X2IT    N2  889   4.761   0.596   1.846
   28X2IT    C3  890   4.796   0.454   1.868
   28X2IT    C2  891   4.663   0.384   1.843
   28X2IT    H2  892   4.646   0.284   1.883
   28X2IT    N1  893   4.603   0.423   1.714
   28X2IT   H14  894   4.535   0.351   1.685
   28X2IT    C1  895   4.554   0.485   1.838
   28X2IT    H1  896   4.454   0.466   1.875
   28X2IT   C11  897   4.616   0.622   1.865
   28X2IT    O3  898   4.584   0.648   2.000
   28X2IT   C15  899   4.661   0.750   2.067
   29X2IT   H18  900   0.613   3.960   3.789
   29X2IT    N4  901   0.687   4.027   3.776
   29X2IT   H17  902   0.700   4.065   3.683
   29X2IT   C14  903   0.717   4.106   3.884
   29X2IT    O5  904   0.683   4.083   3.999
   29X2IT    O4  905   0.795   4.211   3.844
   29X2IT   C13  906   0.840   4.299   3.949
   29X2IT   C10  907   0.966   4.244   4.019
   29X2IT    C9  908   1.020   4.337   4.125
   29X2IT    C4  909   1.151   4.371   4.096
   29X2IT    C5  910   1.235   4.463   4.180
   29X2IT    O1  911   1.353   4.484   4.149
   29X2IT    C6  912   1.171   4.519   4.297
   29X2IT   C12  913   1.249   4.613   4.386
   29X2IT    C7  914   1.040   4.485   4.326
   29X2IT    C8  915   0.956   4.391   4.239
   29X2IT    O2  916   0.839   4.370   4.273
   29X2IT    N3  917   0.973   4.531   4.433
   29X2IT   H15  918   1.012   4.595   4.499
   29X2IT   H16  919   0.876   4.500   4.444
   29X2IT    N2  920   1.198   4.306   3.986
   29X2IT    C3  921   1.295   4.354   3.886
   29X2IT    C2  922   1.213   4.349   3.758
   29X2IT    H2  923   1.265   4.347   3.661
   29X2IT    N1  924   1.084   4.419   3.770
   29X2IT   H14  925   1.050   4.444   3.677
   29X2IT    C1  926   1.088   4.272   3.781
   29X2IT    H1  927   1.042   4.210   3.706
   29X2IT   C11  928   1.090   4.223   3.925
   29X2IT    O3  929   1.128   4.087   3.914
   29X2IT   C15  930   1.176   4.022   4.033
   30X2IT   H18  931   0.985   1.593   0.897
   30X2IT    N4  932   1.032   1.509   0.922
   30X2IT   H17  933   1.098   1.513   0.999
   30X2IT   C14  934   0.964   1.392   0.900
   30X2IT    O5  935   0.866   1.381   0.828
   30X2IT    O4  936   1.025   1.289   0.966
   30X2IT   C13  937   0.968   1.158   0.946
   30X2IT   C10  938   1.020   1.093   0.817
   30X2IT    C9  939   0.967   0.953   0.796
   30X2IT    C4  940   1.073   0.864   0.785
   30X2IT    C5  941   1.056   0.716   0.765
   30X2IT    O1  942   1.156   0.644   0.753
   30X2IT    C6  943   0.920   0.667   0.760
   30X2IT   C12  944   0.896   0.519   0.739
   30X2IT    C7  945   0.815   0.756   0.769
   30X2IT    C8  946   0.834   0.907   0.789
   30X2IT    O2  947   0.732   0.977   0.800
   30X2IT    N3  948   0.686   0.720   0.763
   30X2IT   H15  949   0.655   0.625   0.752
   30X2IT   H16  950   0.616   0.795   0.773
   30X2IT    N2  951   1.193   0.927   0.788
   30X2IT    C3  952   1.320   0.877   0.844
   30X2IT    C2  953   1.352   0.981   0.950
   30X2IT    H2  954   1.454   0.992   0.986
   30X2IT    N1  955   1.238   1.004   1.042
   30X2IT   H14  956   1.273   1.046   1.129
   30X2IT    C1  957   1.263   1.099   0.931
   30X2IT    H1  958   1.294   1.200   0.951
   30X2IT   C11  959   1.176   1.073   0.809
   30X2IT    O3  960   1.237   1.149   0.707
   30X2IT   C15  961   1.202   1.116   0.572
   31X2IT   H18  962   0.536   0.441   0.774
   31X2IT    N4  963   0.583   0.407   0.856
   31X2IT   H17  964   0.679   0.377   0.846
   31X2IT   C14  965   0.542   0.460   0.975
   31X2IT    O5  966   0.438   0.521   0.993
   31X2IT    O4  967   0.632   0.429   1.073
   31X2IT   C13  968   0.598   0.473   1.207
   31X2IT   C10  969   0.503   0.373   1.276
   31X2IT    C9  970   0.471   0.412   1.419
   31X2IT    C4  971   0.507   0.311   1.505
   31X2IT    C5  972   0.490   0.317   1.654
   31X2IT    O1  973   0.522   0.220   1.723
   31X2IT    C6  974   0.434   0.439   1.707
   31X2IT   C12  975   0.414   0.452   1.857
   31X2IT    C7  976   0.396   0.540   1.621
   31X2IT    C8  977   0.414   0.532   1.469
   31X2IT    O2  978   0.381   0.631   1.401
   31X2IT    N3  979   0.342   0.656   1.660
   31X2IT   H15  980   0.326   0.679   1.757
   31X2IT   H16  981   0.320   0.725   1.588
   31X2IT    N2  982   0.553   0.201   1.439
   31X2IT    C3  983   0.657   0.106   1.482
   31X2IT    C2  984   0.761   0.120   1.372
   31X2IT    H2  985   0.834   0.040   1.357
   31X2IT    N1  986   0.800   0.260   1.349
   31X2IT   H14  987   0.891   0.263   1.302
   31X2IT    C1  988   0.703   0.195   1.258
   31X2IT    H1  989   0.729   0.175   1.155
   31X2IT   C11  990   0.559   0.227   1.292
   31X2IT    O3  991   0.484   0.131   1.219
   31X2IT   C15  992   0.348   0.110   1.259
   32X2IT   H18  993   4.344   2.685   0.672
   32X2IT    N4  994   4.381   2.718   0.760
   32X2IT   H17  995   4.322   2.780   0.814
   32X2IT   C14  996   4.467   2.635   0.825
   32X2IT    O5  997   4.524   2.539   0.775
   32X2IT    O4  998   4.484   2.677   0.954
   32X2IT   C13  999   4.578   2.602   1.033
   32X2IT   C10 1000   4.723   2.649   1.009
   32X2IT    C9 1001   4.824   2.578   1.095
   32X2IT    C4 1002   4.895   2.669   1.172
   32X2IT    C5 1003   5.002   2.631   1.269
   32X2IT    O1 1004   5.063   2.720   1.331
   32X2IT    C6 1005   5.029   2.490   1.284
   32X2IT   C12 1006   5.136   2.445   1.381
   32X2IT    C7 1007   4.959   2.399   1.207
   32X2IT    C8 1008   4.850   2.439   1.107
   32X2IT    O2 1009   4.791   2.348   1.047
   32X2IT    N3 1010   4.978   2.266   1.213
   32X2IT   H15 1011   5.045   2.223   1.274
   32X2IT   H16 1012   4.920   2.208   1.152
   32X2IT    N2 1013   4.861   2.797   1.142
   32X2IT    C3 1014   4.857   2.912   1.233
   32X2IT    C2 1015   4.711   2.955   1.225
   32X2IT    H2 1016   4.682   3.056   1.254
   32X2IT    N1 1017   4.618   2.843   1.250
   32X2IT   H14 1018   4.526   2.879   1.277
   32X2IT    C1 1019   4.645   2.885   1.111
   32X2IT    H1 1020   4.568   2.931   1.051
   32X2IT   C11 1021   4.751   2.801   1.042
   32X2IT    O3 1022   4.786   2.876   0.927
   32X2IT   C15 1023   4.910   2.843   0.862
   33X2IT   H18 1024   3.089   4.924   2.811
   33X2IT    N4 1025   3.059   4.830   2.792
   33X2IT   H17 1026   3.036   4.807   2.697
   33X2IT   C14 1027   3.109   4.733   2.874
   33X2IT    O5 1028   3.163   4.752   2.981
   33X2IT    O4 1029   3.085   4.610   2.820
   33X2IT   C13 1030   3.127   4.496   2.899
   33X2IT   C10 1031   3.021   4.460   3.005
   33X2IT    C9 1032   3.058   4.337   3.085
   33X2IT    C4 1033   2.959   4.241   3.072
   33X2IT    C5 1034   2.965   4.106   3.139
   33X2IT    O1 1035   2.870   4.028   3.125
   33X2IT    C6 1036   3.083   4.078   3.217
   33X2IT   C12 1037   3.095   3.944   3.287
   33X2IT    C7 1038   3.180   4.175   3.230
   33X2IT    C8 1039   3.173   4.312   3.163
   33X2IT    O2 1040   3.269   4.389   3.178
   33X2IT    N3 1041   3.293   4.158   3.302
   33X2IT   H15 1042   3.314   4.073   3.352
   33X2IT   H16 1043   3.359   4.236   3.304
   33X2IT    N2 1044   2.853   4.285   3.000
   33X2IT    C3 1045   2.766   4.207   2.910
   33X2IT    C2 1046   2.786   4.277   2.777
   33X2IT    H2 1047   2.712   4.265   2.698
   33X2IT    N1 1048   2.930   4.290   2.741
   33X2IT   H14 1049   2.939   4.304   2.640
   33X2IT    C1 1050   2.857   4.405   2.798
   33X2IT    H1 1051   2.839   4.494   2.739
   33X2IT   C11 1052   2.879   4.422   2.948
   33X2IT    O3 1053   2.778   4.513   2.987
   33X2IT   C15 1054   2.747   4.520   3.127
   34X2IT   H18 1055   1.290   1.244   1.800
   34X2IT    N4 1056   1.351   1.187   1.856
   34X2IT   H17 1057   1.317   1.160   1.948
   34X2IT   C14 1058   1.435   1.103   1.789
   34X2IT    O5 1059   1.462   1.110   1.671
   34X2IT    O4 1060   1.488   1.012   1.876
   34X2IT   C13 1061   1.585   0.920   1.820
   34X2IT   C10 1062   1.725   0.983   1.815
   34X2IT    C9 1063   1.831   0.887   1.763
   34X2IT    C4 1064   1.931   0.872   1.857
   34X2IT    C5 1065   2.051   0.783   1.839
   34X2IT    O1 1066   2.138   0.779   1.927
   34X2IT    C6 1067   2.057   0.709   1.715
   34X2IT   C12 1068   2.175   0.617   1.690
   34X2IT    C7 1069   1.957   0.725   1.621
   34X2IT    C8 1070   1.836   0.816   1.641
   34X2IT    O2 1071   1.750   0.819   1.552
   34X2IT    N3 1072   1.955   0.661   1.503
   34X2IT   H15 1073   2.026   0.596   1.474
   34X2IT   H16 1074   1.875   0.679   1.441
   34X2IT    N2 1075   1.912   0.952   1.965
   34X2IT    C3 1076   1.949   0.925   2.105
   34X2IT    C2 1077   1.814   0.933   2.176
   34X2IT    H2 1078   1.810   0.951   2.283
   34X2IT    N1 1079   1.712   0.847   2.111
   34X2IT   H14 1080   1.637   0.827   2.178
   34X2IT    C1 1081   1.713   0.992   2.083
   34X2IT    H1 1082   1.632   1.056   2.117
   34X2IT   C11 1083   1.784   1.028   1.954
   34X2IT    O3 1084   1.804   1.168   1.962
   34X2IT   C15 1085   1.902   1.225   1.875
   35X2IT   H18 1086   3.095   0.538   2.548
   35X2IT    N4 1087   3.037   0.589   2.612
   35X2IT   H17 1088   2.939   0.564   2.614
   35X2IT   C14 1089   3.096   0.635   2.726
   35X2IT    O5 1090   3.216   0.644   2.744
   35X2IT    O4 1091   3.001   0.674   2.816
   35X2IT   C13 1092   3.049   0.732   2.939
   35X2IT   C10 1093   3.082   0.881   2.922
   35X2IT    C9 1094   3.127   0.947   3.051
   35X2IT    C4 1095   3.043   1.053   3.082
   35X2IT    C5 1096   3.059   1.139   3.204
   35X2IT    O1 1097   2.982   1.234   3.221
   35X2IT    C6 1098   3.166   1.105   3.293
   35X2IT   C12 1099   3.188   1.187   3.419
   35X2IT    C7 1100   3.250   0.999   3.262
   35X2IT    C8 1101   3.234   0.913   3.137
   35X2IT    O2 1102   3.312   0.818   3.121
   35X2IT    N3 1103   3.354   0.961   3.338
   35X2IT   H15 1104   3.378   1.006   3.425
   35X2IT   H16 1105   3.409   0.881   3.306
   35X2IT    N2 1106   2.950   1.075   2.985
   35X2IT    C3 1107   2.813   1.124   3.001
   35X2IT    C2 1108   2.730   1.009   2.944
   35X2IT    H2 1109   2.628   1.027   2.911
   35X2IT    N1 1110   2.766   0.879   3.004
   35X2IT   H14 1111   2.689   0.813   2.991
   35X2IT    C1 1112   2.820   0.915   2.872
   35X2IT    H1 1113   2.790   0.861   2.783
   35X2IT   C11 1114   2.961   0.972   2.878
   35X2IT    O3 1115   2.980   1.030   2.750
   35X2IT   C15 1116   3.087   1.125   2.737
   36X2IT   H18 1117   2.485   1.451   2.669
   36X2IT    N4 1118   2.385   1.441   2.663
   36X2IT   H17 1119   2.349   1.394   2.581
   36X2IT   C14 1120   2.318   1.430   2.781
   36X2IT    O5 1121   2.363   1.459   2.891
   36X2IT    O4 1122   2.191   1.387   2.759
   36X2IT   C13 1123   2.105   1.377   2.874
   36X2IT   C10 1124   2.043   1.513   2.910
   36X2IT    C9 1125   1.947   1.505   3.027
   36X2IT    C4 1126   1.822   1.550   2.989
   36X2IT    C5 1127   1.703   1.555   3.081
   36X2IT    O1 1128   1.596   1.600   3.039
   36X2IT    C6 1129   1.724   1.506   3.215
   36X2IT   C12 1130   1.608   1.508   3.313
   36X2IT    C7 1131   1.849   1.463   3.253
   36X2IT    C8 1132   1.969   1.459   3.159
   36X2IT    O2 1133   2.076   1.413   3.202
   36X2IT    N3 1134   1.878   1.417   3.376
   36X2IT   H15 1135   1.810   1.411   3.450
   36X2IT   H16 1136   1.974   1.386   3.393
   36X2IT    N2 1137   1.821   1.596   2.861
   36X2IT    C3 1138   1.710   1.590   2.764
   36X2IT    C2 1139   1.772   1.510   2.650
   36X2IT    H2 1140   1.729   1.515   2.550
   36X2IT    N1 1141   1.832   1.383   2.698
   36X2IT   H14 1142   1.840   1.318   2.619
   36X2IT    C1 1143   1.919   1.499   2.672
   36X2IT    H1 1144   1.990   1.497   2.590
   36X2IT   C11 1145   1.954   1.577   2.797
   36X2IT    O3 1146   2.007   1.699   2.748
   36X2IT   C15 1147   2.013   1.809   2.840
   37X2IT   H18 1148   0.244   1.756   1.205
   37X2IT    N4 1149   0.251   1.855   1.190
   37X2IT   H17 1150   0.189   1.914   1.243
   37X2IT   C14 1151   0.375   1.902   1.154
   37X2IT    O5 1152   0.467   1.834   1.113
   37X2IT    O4 1153   0.378   2.038   1.167
   37X2IT   C13 1154   0.500   2.103   1.127
   37X2IT   C10 1155   0.504   2.126   0.974
   37X2IT    C9 1156   0.627   2.201   0.929
   37X2IT    C4 1157   0.592   2.317   0.863
   37X2IT    C5 1158   0.691   2.414   0.806
   37X2IT    O1 1159   0.649   2.514   0.745
   37X2IT    C6 1160   0.830   2.383   0.825
   37X2IT   C12 1161   0.935   2.477   0.770
   37X2IT    C7 1162   0.866   2.266   0.890
   37X2IT    C8 1163   0.764   2.167   0.947
   37X2IT    O2 1164   0.807   2.068   1.007
   37X2IT    N3 1165   0.993   2.228   0.910
   37X2IT   H15 1166   1.072   2.282   0.881
   37X2IT   H16 1167   1.007   2.140   0.961
   37X2IT    N2 1168   0.457   2.329   0.850
   37X2IT    C3 1169   0.377   2.452   0.850
   37X2IT    C2 1170   0.284   2.430   0.969
   37X2IT    H2 1171   0.191   2.487   0.976
   37X2IT    N1 1172   0.357   2.394   1.092
   37X2IT   H14 1173   0.299   2.414   1.173
   37X2IT    C1 1174   0.292   2.288   1.012
   37X2IT    H1 1175   0.207   2.233   1.051
   37X2IT   C11 1176   0.387   2.216   0.918
   37X2IT    O3 1177   0.302   2.146   0.829
   37X2IT   C15 1178   0.359   2.100   0.706
   38X2IT   H18 1179   2.126   3.213   3.729
   38X2IT    N4 1180   2.222   3.191   3.712
   38X2IT   H17 1181   2.290   3.230   3.776
   38X2IT   C14 1182   2.247   3.069   3.654
   38X2IT    O5 1183   2.164   3.000   3.597
   38X2IT    O4 1184   2.379   3.039   3.665
   38X2IT   C13 1185   2.422   2.916   3.602
   38X2IT   C10 1186   2.448   2.936   3.452
   38X2IT    C9 1187   2.499   2.812   3.383
   38X2IT    C4 1188   2.622   2.837   3.324
   38X2IT    C5 1189   2.701   2.734   3.249
   38X2IT    O1 1190   2.808   2.766   3.196
   38X2IT    C6 1191   2.644   2.601   3.242
   38X2IT   C12 1192   2.719   2.492   3.167
   38X2IT    C7 1193   2.521   2.577   3.300
   38X2IT    C8 1194   2.441   2.683   3.376
   38X2IT    O2 1195   2.334   2.648   3.428
   38X2IT    N3 1196   2.460   2.457   3.297
   38X2IT   H15 1197   2.499   2.376   3.253
   38X2IT   H16 1198   2.369   2.450   3.345
   38X2IT    N2 1199   2.659   2.967   3.336
   38X2IT    C3 1200   2.795   3.021   3.350
   38X2IT    C2 1201   2.787   3.094   3.484
   38X2IT    H2 1202   2.859   3.171   3.507
   38X2IT    N1 1203   2.735   3.006   3.591
   38X2IT   H14 1204   2.763   3.044   3.682
   38X2IT    C1 1205   2.645   3.104   3.526
   38X2IT    H1 1206   2.606   3.188   3.581
   38X2IT   C11 1207   2.559   3.043   3.416
   38X2IT    O3 1208   2.508   3.154   3.346
   38X2IT   C15 1209   2.455   3.130   3.215
   39X2IT   H18 1210   3.311  -0.215   2.347
   39X2IT    N4 1211   3.299  -0.128   2.298
   39X2IT   H17 1212   3.233  -0.127   2.221
   39X2IT   C14 1213   3.316  -0.014   2.371
   39X2IT    O5 1214   3.371  -0.008   2.480
   39X2IT    O4 1215   3.267   0.093   2.303
   39X2IT   C13 1216   3.284   0.222   2.366
   39X2IT   C10 1217   3.424   0.280   2.337
   39X2IT    C9 1218   3.444   0.418   2.395
   39X2IT    C4 1219   3.476   0.508   2.295
   39X2IT    C5 1220   3.502   0.654   2.319
   39X2IT    O1 1221   3.534   0.726   2.223
   39X2IT    C6 1222   3.488   0.701   2.454
   39X2IT   C12 1223   3.512   0.847   2.485
   39X2IT    C7 1224   3.457   0.611   2.554
   39X2IT    C8 1225   3.432   0.462   2.529
   39X2IT    O2 1226   3.400   0.391   2.626
   39X2IT    N3 1227   3.444   0.645   2.684
   39X2IT   H15 1228   3.455   0.739   2.717
   39X2IT   H16 1229   3.418   0.570   2.749
   39X2IT    N2 1230   3.490   0.447   2.174
   39X2IT    C3 1231   3.459   0.502   2.042
   39X2IT    C2 1232   3.354   0.404   1.990
   39X2IT    H2 1233   3.334   0.397   1.883
   39X2IT    N1 1234   3.243   0.385   2.087
   39X2IT   H14 1235   3.161   0.349   2.037
   39X2IT    C1 1236   3.351   0.284   2.078
   39X2IT    H1 1237   3.330   0.185   2.042
   39X2IT   C11 1238   3.458   0.302   2.185
   39X2IT    O3 1239   3.565   0.221   2.140
   39X2IT   C15 1240   3.694   0.245   2.197
   40X2IT   H18 1241   1.220   3.775   3.064
   40X2IT    N4 1242   1.163   3.735   2.991
   40X2IT   H17 1243   1.071   3.703   3.017
   40X2IT   C14 1244   1.184   3.782   2.864
   40X2IT    O5 1245   1.282   3.846   2.829
   40X2IT    O4 1246   1.082   3.743   2.783
   40X2IT   C13 1247   1.094   3.780   2.644
   40X2IT   C10 1248   1.182   3.680   2.566
   40X2IT    C9 1249   1.192   3.712   2.419
   40X2IT    C4 1250   1.147   3.604   2.344
   40X2IT    C5 1251   1.142   3.603   2.194
   40X2IT    O1 1252   1.104   3.501   2.135
   40X2IT    C6 1253   1.185   3.723   2.127
   40X2IT   C12 1254   1.183   3.728   1.976
   40X2IT    C7 1255   1.231   3.830   2.202
   40X2IT    C8 1256   1.236   3.830   2.355
   40X2IT    O2 1257   1.275   3.933   2.412
   40X2IT    N3 1258   1.275   3.945   2.148
   40X2IT   H15 1259   1.276   3.963   2.049
   40X2IT   H16 1260   1.305   4.018   2.213
   40X2IT    N2 1261   1.115   3.498   2.422
   40X2IT    C3 1262   1.010   3.397   2.399
   40X2IT    C2 1263   0.922   3.414   2.522
   40X2IT    H2 1264   0.855   3.333   2.552
   40X2IT    N1 1265   0.882   3.555   2.544
   40X2IT   H14 1266   0.798   3.557   2.604
   40X2IT    C1 1267   0.993   3.497   2.623
   40X2IT    H1 1268   0.984   3.482   2.729
   40X2IT   C11 1269   1.130   3.532   2.566
   40X2IT    O3 1270   1.218   3.442   2.632
   40X2IT   C15 1271   1.347   3.423   2.574
   41X2IT   H18 1272   1.423   2.545   2.356
   41X2IT    N4 1273   1.363   2.562   2.434
   41X2IT   H17 1274   1.269   2.526   2.429
   41X2IT   C14 1275   1.423   2.573   2.557
   41X2IT    O5 1276   1.542   2.591   2.576
   41X2IT    O4 1277   1.328   2.565   2.656
   41X2IT   C13 1278   1.376   2.582   2.791
   41X2IT   C10 1279   1.390   2.731   2.828
   41X2IT    C9 1280   1.433   2.752   2.971
   41X2IT    C4 1281   1.340   2.829   3.038
   41X2IT    C5 1282   1.352   2.868   3.182
   41X2IT    O1 1283   1.265   2.940   3.234
   41X2IT    C6 1284   1.468   2.819   3.253
   41X2IT   C12 1285   1.486   2.855   3.399
   41X2IT    C7 1286   1.562   2.743   3.186
   41X2IT    C8 1287   1.549   2.705   3.038
   41X2IT    O2 1288   1.637   2.633   2.989
   41X2IT    N3 1289   1.673   2.695   3.242
   41X2IT   H15 1290   1.696   2.709   3.339
   41X2IT   H16 1291   1.735   2.639   3.183
   41X2IT    N2 1292   1.240   2.871   2.956
   41X2IT    C3 1293   1.098   2.892   2.990
   41X2IT    C2 1294   1.027   2.795   2.897
   41X2IT    H2 1295   0.922   2.810   2.874
   41X2IT    N1 1296   1.082   2.658   2.907
   41X2IT   H14 1297   1.012   2.591   2.872
   41X2IT    C1 1298   1.123   2.745   2.795
   41X2IT    H1 1299   1.095   2.722   2.693
   41X2IT   C11 1300   1.257   2.814   2.819
   41X2IT    O3 1301   1.261   2.916   2.721
   41X2IT   C15 1302   1.355   3.022   2.741
   42X2IT   H18 1303   5.231   3.771   2.628
   42X2IT    N4 1304   5.248   3.865   2.598
   42X2IT   H17 1305   5.326   3.880   2.536
   42X2IT   C14 1306   5.139   3.947   2.590
   42X2IT    O5 1307   5.030   3.925   2.640
   42X2IT    O4 1308   5.171   4.060   2.520
   42X2IT   C13 1309   5.067   4.160   2.509
   42X2IT   C10 1310   5.061   4.249   2.634
   42X2IT    C9 1311   4.958   4.359   2.623
   42X2IT    C4 1312   5.018   4.482   2.639
   42X2IT    C5 1313   4.944   4.613   2.632
   42X2IT    O1 1314   5.005   4.719   2.651
   42X2IT    C6 1315   4.802   4.606   2.605
   42X2IT   C12 1316   4.721   4.734   2.597
   42X2IT    C7 1317   4.742   4.482   2.591
   42X2IT    C8 1318   4.819   4.350   2.598
   42X2IT    O2 1319   4.755   4.245   2.579
   42X2IT    N3 1320   4.611   4.465   2.568
   42X2IT   H15 1321   4.546   4.541   2.558
   42X2IT   H16 1322   4.577   4.369   2.557
   42X2IT    N2 1323   5.150   4.472   2.668
   42X2IT    C3 1324   5.259   4.563   2.629
   42X2IT    C2 1325   5.350   4.472   2.548
   42X2IT    H2 1326   5.454   4.499   2.534
   42X2IT    N1 1327   5.277   4.400   2.442
   42X2IT   H14 1328   5.343   4.369   2.370
   42X2IT    C1 1329   5.309   4.330   2.568
   42X2IT    H1 1330   5.379   4.248   2.570
   42X2IT   C11 1331   5.193   4.329   2.667
   42X2IT    O3 1332   5.252   4.290   2.789
   42X2IT   C15 1333   5.178   4.317   2.909
   43X2IT   H18 1334   2.474   2.149   4.275
   43X2IT    N4 1335   2.445   2.066   4.226
   43X2IT   H17 1336   2.376   2.077   4.153
   43X2IT   C14 1337   2.539   1.967   4.215
   43X2IT    O5 1338   2.641   1.959   4.281
   43X2IT    O4 1339   2.499   1.875   4.122
   43X2IT   C13 1340   2.585   1.761   4.104
   43X2IT   C10 1341   2.557   1.652   4.209
   43X2IT    C9 1342   2.641   1.528   4.190
   43X2IT    C4 1343   2.559   1.418   4.174
   43X2IT    C5 1344   2.610   1.278   4.151
   43X2IT    O1 1345   2.529   1.185   4.142
   43X2IT    C6 1346   2.753   1.262   4.144
   43X2IT   C12 1347   2.811   1.124   4.121
   43X2IT    C7 1348   2.835   1.373   4.161
   43X2IT    C8 1349   2.782   1.514   4.184
   43X2IT    O2 1350   2.864   1.606   4.194
   43X2IT    N3 1351   2.969   1.367   4.157
   43X2IT   H15 1352   3.020   1.283   4.141
   43X2IT   H16 1353   3.019   1.456   4.169
   43X2IT    N2 1354   2.428   1.449   4.188
   43X2IT    C3 1355   2.312   1.388   4.120
   43X2IT    C2 1356   2.251   1.508   4.048
   43X2IT    H2 1357   2.147   1.504   4.015
   43X2IT    N1 1358   2.351   1.581   3.966
   43X2IT   H14 1359   2.303   1.636   3.895
   43X2IT    C1 1360   2.312   1.633   4.099
   43X2IT    H1 1361   2.258   1.726   4.109
   43X2IT   C11 1362   2.410   1.595   4.209
   43X2IT    O3 1363   2.340   1.624   4.329
   43X2IT   C15 1364   2.389   1.564   4.450
   44X2IT   H18 1365   4.221   0.781   3.158
   44X2IT    N4 1366   4.288   0.787   3.084
   44X2IT   H17 1367   4.386   0.783   3.110
   44X2IT   C14 1368   4.250   0.739   2.962
   44X2IT    O5 1369   4.135   0.715   2.929
   44X2IT    O4 1370   4.358   0.725   2.881
   44X2IT   C13 1371   4.332   0.681   2.746
   44X2IT   C10 1372   4.291   0.799   2.656
   44X2IT    C9 1373   4.269   0.758   2.512
   44X2IT    C4 1374   4.352   0.830   2.428
   44X2IT    C5 1375   4.356   0.814   2.279
   44X2IT    O1 1376   4.432   0.885   2.212
   44X2IT    C6 1377   4.269   0.713   2.223
   44X2IT   C12 1378   4.269   0.691   2.073
   44X2IT    C7 1379   4.185   0.642   2.306
   44X2IT    C8 1380   4.181   0.660   2.458
   44X2IT    O2 1381   4.105   0.588   2.524
   44X2IT    N3 1382   4.099   0.548   2.263
   44X2IT   H15 1383   4.090   0.522   2.167
   44X2IT   H16 1384   4.043   0.500   2.334
   44X2IT    N2 1385   4.424   0.923   2.496
   44X2IT    C3 1386   4.560   0.971   2.467
   44X2IT    C2 1387   4.635   0.935   2.595
   44X2IT    H2 1388   4.728   0.985   2.620
   44X2IT    N1 1389   4.616   0.793   2.633
   44X2IT   H14 1390   4.692   0.764   2.695
   44X2IT    C1 1391   4.537   0.897   2.701
   44X2IT    H1 1392   4.552   0.919   2.806
   44X2IT   C11 1393   4.397   0.914   2.643
   44X2IT    O3 1394   4.352   1.037   2.696
   44X2IT   C15 1395   4.241   1.100   2.631
   45X2IT   H18 1396   2.644   5.277   1.048
   45X2IT    N4 1397   2.634   5.189   1.002
   45X2IT   H17 1398   2.627   5.107   1.059
   45X2IT   C14 1399   2.568   5.192   0.882
   45X2IT    O5 1400   2.547   5.292   0.815
   45X2IT    O4 1401   2.534   5.065   0.845
   45X2IT   C13 1402   2.470   5.051   0.716
   45X2IT   C10 1403   2.572   5.047   0.602
   45X2IT    C9 1404   2.509   5.025   0.466
   45X2IT    C4 1405   2.561   4.912   0.407
   45X2IT    C5 1406   2.519   4.861   0.272
   45X2IT    O1 1407   2.573   4.760   0.225
   45X2IT    C6 1408   2.416   4.937   0.204
   45X2IT   C12 1409   2.369   4.891   0.067
   45X2IT    C7 1410   2.366   5.051   0.263
   45X2IT    C8 1411   2.410   5.102   0.400
   45X2IT    O2 1412   2.354   5.203   0.446
   45X2IT    N3 1413   2.271   5.128   0.207
   45X2IT   H15 1414   2.230   5.108   0.117
   45X2IT   H16 1415   2.240   5.210   0.260
   45X2IT    N2 1416   2.659   4.855   0.482
   45X2IT    C3 1417   2.693   4.712   0.494
   45X2IT    C2 1418   2.674   4.688   0.643
   45X2IT    H2 1419   2.722   4.602   0.691
   45X2IT    N1 1420   2.542   4.734   0.692
   45X2IT   H14 1421   2.520   4.687   0.780
   45X2IT    C1 1422   2.661   4.819   0.713
   45X2IT    H1 1423   2.700   4.836   0.813
   45X2IT   C11 1424   2.677   4.929   0.610
   45X2IT    O3 1425   2.810   4.974   0.627
   45X2IT   C15 1426   2.868   5.050   0.520
   46X2IT   H18 1427   4.341   2.483   4.002
   46X2IT    N4 1428   4.273   2.545   3.962
   46X2IT   H17 1429   4.278   2.560   3.862
   46X2IT   C14 1430   4.152   2.552   4.024
   46X2IT    O5 1431   4.129   2.512   4.137
   46X2IT    O4 1432   4.061   2.614   3.944
   46X2IT   C13 1433   3.929   2.634   3.999
   46X2IT   C10 1434   3.924   2.760   4.087
   46X2IT    C9 1435   3.786   2.788   4.142
   46X2IT    C4 1436   3.744   2.914   4.102
   46X2IT    C5 1437   3.610   2.973   4.138
   46X2IT    O1 1438   3.582   3.088   4.101
   46X2IT    C6 1439   3.523   2.890   4.217
   46X2IT   C12 1440   3.386   2.943   4.257
   46X2IT    C7 1441   3.565   2.765   4.258
   46X2IT    C8 1442   3.702   2.706   4.220
   46X2IT    O2 1443   3.728   2.591   4.259
   46X2IT    N3 1444   3.492   2.681   4.333
   46X2IT   H15 1445   3.399   2.703   4.364
   46X2IT   H16 1446   3.533   2.590   4.356
   46X2IT    N2 1447   3.839   2.981   4.033
   46X2IT    C3 1448   3.821   3.077   3.922
   46X2IT    C2 1449   3.897   3.010   3.808
   46X2IT    H2 1450   3.930   3.069   3.724
   46X2IT    N1 1451   3.854   2.869   3.787
   46X2IT   H14 1452   3.879   2.840   3.693
   46X2IT    C1 1453   3.978   2.898   3.862
   46X2IT    H1 1454   4.075   2.870   3.822
   46X2IT   C11 1455   3.960   2.895   4.013
   46X2IT    O3 1456   4.077   2.956   4.063
   46X2IT   C15 1457   4.073   3.003   4.199
   47X2IT   H18 1458   4.976   0.853   4.439
   47X2IT    N4 1459   5.040   0.777   4.428
   47X2IT   H17 1460   5.137   0.800   4.412
   47X2IT   C14 1461   5.010   0.662   4.496
   47X2IT    O5 1462   4.901   0.636   4.544
   47X2IT    O4 1463   5.118   0.579   4.499
   47X2IT   C13 1464   5.099   0.451   4.562
   47X2IT   C10 1465   5.035   0.350   4.464
   47X2IT    C9 1466   5.019   0.212   4.524
   47X2IT    C4 1467   5.087   0.118   4.448
   47X2IT    C5 1468   5.092  -0.028   4.480
   47X2IT    O1 1469   5.152  -0.105   4.403
   47X2IT    C6 1470   5.025  -0.070   4.600
   47X2IT   C12 1471   5.026  -0.217   4.638
   47X2IT    C7 1472   4.956   0.023   4.676
   47X2IT    C8 1473   4.951   0.172   4.642
   47X2IT    O2 1474   4.890   0.247   4.719
   47X2IT    N3 1475   4.889  -0.007   4.788
   47X2IT   H15 1476   4.884  -0.100   4.826
   47X2IT   H16 1477   4.843   0.070   4.837
   47X2IT    N2 1478   5.141   0.173   4.336
   47X2IT    C3 1479   5.266   0.135   4.268
   47X2IT    C2 1480   5.347   0.264   4.275
   47X2IT    H2 1481   5.430   0.279   4.206
   47X2IT    N1 1482   5.356   0.317   4.413
   47X2IT   H14 1483   5.437   0.379   4.420
   47X2IT    C1 1484   5.259   0.375   4.318
   47X2IT    H1 1485   5.271   0.477   4.282
   47X2IT   C11 1486   5.118   0.321   4.334
   47X2IT    O3 1487   5.052   0.362   4.216
   47X2IT   C15 1488   4.930   0.294   4.182
   48X2IT   H18 1489   3.167   3.609   4.863
   48X2IT    N4 1490   3.126   3.527   4.902
   48X2IT   H17 1491   3.081   3.536   4.992
   48X2IT   C14 1492   3.077   3.435   4.813
   48X2IT    O5 1493   3.104   3.431   4.694
   48X2IT    O4 1494   2.998   3.345   4.878
   48X2IT   C13 1495   2.945   3.237   4.798
   48X2IT   C10 1496   3.047   3.122   4.783
   48X2IT    C9 1497   2.993   3.005   4.705
   48X2IT    C4 1498   2.998   2.890   4.782
   48X2IT    C5 1499   2.952   2.755   4.735
   48X2IT    O1 1500   2.964   2.657   4.810
   48X2IT    C6 1501   2.895   2.749   4.603
   48X2IT   C12 1502   2.846   2.616   4.549
   48X2IT    C7 1503   2.890   2.864   4.525
   48X2IT    C8 1504   2.939   3.000   4.574
   48X2IT    O2 1505   2.926   3.097   4.498
   48X2IT    N3 1506   2.841   2.868   4.400
   48X2IT   H15 1507   2.803   2.787   4.354
   48X2IT   H16 1508   2.841   2.958   4.353
   48X2IT    N2 1509   3.058   2.912   4.902
   48X2IT    C3 1510   3.029   2.847   5.031
   48X2IT    C2 1511   2.990   2.965   5.118
   48X2IT    H2 1512   2.994   2.956   5.227
   48X2IT    N1 1513   2.884   3.048   5.056
   48X2IT   H14 1514   2.836   3.102   5.128
   48X2IT    C1 1515   3.025   3.091   5.049
   48X2IT    H1 1516   3.058   3.180   5.102
   48X2IT   C11 1517   3.093   3.056   4.918
   48X2IT    O3 1518   3.231   3.074   4.944
   48X2IT   C15 1519   3.324   3.013   4.854
   49X2IT   H18 1520   4.442   0.463   1.385
   49X2IT    N4 1521   4.458   0.544   1.329
   49X2IT   H17 1522   4.496   0.626   1.375
   49X2IT   C14 1523   4.487   0.522   1.197
   49X2IT    O5 1524   4.469   0.417   1.138
   49X2IT    O4 1525   4.536   0.637   1.141
   49X2IT   C13 1526   4.566   0.630   1.000
   49X2IT   C10 1527   4.440   0.653   0.915
   49X2IT    C9 1528   4.468   0.654   0.766
   49X2IT    C4 1529   4.427   0.774   0.711
   49X2IT    C5 1530   4.442   0.808   0.565
   49X2IT    O1 1531   4.399   0.917   0.524
   49X2IT    C6 1532   4.505   0.709   0.482
   49X2IT   C12 1533   4.523   0.737   0.334
   49X2IT    C7 1534   4.545   0.589   0.537
   49X2IT    C8 1535   4.529   0.555   0.685
   49X2IT    O2 1536   4.572   0.446   0.725
   49X2IT    N3 1537   4.603   0.490   0.467
   49X2IT   H15 1538   4.622   0.496   0.369
   49X2IT   H16 1539   4.629   0.406   0.519
   49X2IT    N2 1540   4.366   0.854   0.802
   49X2IT    C3 1541   4.367   1.001   0.808
   49X2IT    C2 1542   4.429   1.027   0.945
   49X2IT    H2 1543   4.414   1.123   0.994
   49X2IT    N1 1544   4.557   0.954   0.964
   49X2IT   H14 1545   4.611   0.999   1.038
   49X2IT    C1 1546   4.433   0.900   1.022
   49X2IT    H1 1547   4.419   0.895   1.129
   49X2IT   C11 1548   4.368   0.792   0.937
   49X2IT    O3 1549   4.238   0.778   0.991
   49X2IT   C15 1550   4.140   0.713   0.910
   50X2IT   H18 1551   1.800   3.946   5.063
   50X2IT    N4 1552   1.793   3.927   4.965
   50X2IT   H17 1553   1.835   3.993   4.902
   50X2IT   C14 1554   1.789   3.794   4.930
   50X2IT    O5 1555   1.766   3.702   5.006
   50X2IT    O4 1556   1.811   3.781   4.796
   50X2IT   C13 1557   1.804   3.647   4.743
   50X2IT   C10 1558   1.658   3.607   4.713
   50X2IT    C9 1559   1.646   3.470   4.651
   50X2IT    C4 1560   1.582   3.478   4.529
   50X2IT    C5 1561   1.555   3.360   4.441
   50X2IT    O1 1562   1.493   3.376   4.334
   50X2IT    C6 1563   1.602   3.232   4.487
   50X2IT   C12 1564   1.578   3.108   4.403
   50X2IT    C7 1565   1.666   3.223   4.610
   50X2IT    C8 1566   1.692   3.345   4.700
   50X2IT    O2 1567   1.754   3.326   4.806
   50X2IT    N3 1568   1.711   3.109   4.663
   50X2IT   H15 1569   1.704   3.020   4.616
   50X2IT   H16 1570   1.758   3.115   4.754
   50X2IT    N2 1571   1.540   3.604   4.502
   50X2IT    C3 1572   1.530   3.670   4.371
   50X2IT    C2 1573   1.623   3.789   4.388
   50X2IT    H2 1574   1.613   3.875   4.322
   50X2IT    N1 1575   1.757   3.750   4.437
   50X2IT   H14 1576   1.825   3.823   4.414
   50X2IT    C1 1577   1.658   3.805   4.531
   50X2IT    H1 1578   1.673   3.901   4.578
   50X2IT   C11 1579   1.583   3.698   4.609
   50X2IT    O3 1580   1.473   3.767   4.666
   50X2IT   C15 1581   1.363   3.688   4.713
   51X2IT   H18 1582   1.456   4.851   3.970
   51X2IT    N4 1583   1.487   4.818   3.880
   51X2IT   H17 1584   1.446   4.732   3.847
   51X2IT   C14 1585   1.524   4.914   3.790
   51X2IT    O5 1586   1.550   5.030   3.817
   51X2IT    O4 1587   1.533   4.859   3.665
   51X2IT   C13 1588   1.578   4.948   3.560
   51X2IT   C10 1589   1.731   4.957   3.557
   51X2IT    C9 1590   1.783   5.044   3.444
   51X2IT    C4 1591   1.867   4.970   3.363
   51X2IT    C5 1592   1.935   5.026   3.241
   51X2IT    O1 1593   2.012   4.954   3.176
   51X2IT    C6 1594   1.905   5.163   3.207
   51X2IT   C12 1595   1.970   5.225   3.085
   51X2IT    C7 1596   1.821   5.236   3.289
   51X2IT    C8 1597   1.754   5.179   3.413
   51X2IT    O2 1598   1.677   5.253   3.477
   51X2IT    N3 1599   1.789   5.365   3.267
   51X2IT   H15 1600   1.824   5.417   3.188
   51X2IT   H16 1601   1.725   5.409   3.333
   51X2IT    N2 1602   1.888   4.845   3.411
   51X2IT    C3 1603   1.911   4.721   3.334
   51X2IT    C2 1604   1.795   4.634   3.378
   51X2IT    H2 1605   1.801   4.526   3.366
   51X2IT    N1 1606   1.664   4.702   3.364
   51X2IT   H14 1607   1.589   4.633   3.361
   51X2IT    C1 1608   1.729   4.695   3.497
   51X2IT    H1 1609   1.685   4.637   3.577
   51X2IT   C11 1610   1.807   4.821   3.533
   51X2IT    O3 1611   1.886   4.782   3.643
   51X2IT   C15 1612   1.998   4.866   3.676
   52X2IT   H18 1613   0.791   1.294   4.188
   52X2IT    N4 1614   0.817   1.291   4.091
   52X2IT   H17 1615   0.832   1.380   4.045
   52X2IT   C14 1616   0.889   1.182   4.050
   52X2IT    O5 1617   0.900   1.078   4.113
   52X2IT    O4 1618   0.943   1.205   3.927
   52X2IT   C13 1619   1.016   1.096   3.868
   52X2IT   C10 1620   0.922   0.997   3.798
   52X2IT    C9 1621   0.995   0.884   3.729
   52X2IT    C4 1622   0.964   0.882   3.594
   52X2IT    C5 1623   1.021   0.784   3.496
   52X2IT    O1 1624   0.985   0.787   3.378
   52X2IT    C6 1625   1.116   0.688   3.548
   52X2IT   C12 1626   1.177   0.586   3.455
   52X2IT    C7 1627   1.146   0.689   3.683
   52X2IT    C8 1628   1.087   0.790   3.782
   52X2IT    O2 1629   1.124   0.784   3.900
   52X2IT    N3 1630   1.231   0.603   3.741
   52X2IT   H15 1631   1.280   0.532   3.691
   52X2IT   H16 1632   1.247   0.614   3.842
   52X2IT    N2 1633   0.871   0.975   3.562
   52X2IT    C3 1634   0.858   1.051   3.436
   52X2IT    C2 1635   0.871   1.195   3.484
   52X2IT    H2 1636   0.833   1.276   3.422
   52X2IT    N1 1637   0.992   1.216   3.567
   52X2IT   H14 1638   1.016   1.316   3.567
   52X2IT    C1 1639   0.860   1.199   3.632
   52X2IT    H1 1640   0.814   1.281   3.686
   52X2IT   C11 1641   0.835   1.058   3.681
   52X2IT    O3 1642   0.696   1.054   3.708
   52X2IT   C15 1643   0.635   0.925   3.719
   53X2IT   H18 1644   1.020   3.310   5.112
   53X2IT    N4 1645   0.988   3.225   5.070
   53X2IT   H17 1646   0.889   3.219   5.047
   53X2IT   C14 1647   1.078   3.157   4.993
   53X2IT    O5 1648   1.199   3.176   4.993
   53X2IT    O4 1649   1.014   3.062   4.919
   53X2IT   C13 1650   1.098   2.978   4.837
   53X2IT   C10 1651   1.157   2.862   4.918
   53X2IT    C9 1652   1.240   2.767   4.835
   53X2IT    C4 1653   1.189   2.639   4.843
   53X2IT    C5 1654   1.248   2.521   4.771
   53X2IT    O1 1655   1.198   2.408   4.787
   53X2IT    C6 1656   1.362   2.547   4.687
   53X2IT   C12 1657   1.426   2.432   4.611
   53X2IT    C7 1658   1.414   2.675   4.680
   53X2IT    C8 1659   1.354   2.794   4.754
   53X2IT    O2 1660   1.405   2.906   4.737
   53X2IT    N3 1661   1.521   2.708   4.606
   53X2IT   H15 1662   1.571   2.642   4.549
   53X2IT   H16 1663   1.549   2.807   4.607
   53X2IT    N2 1664   1.085   2.631   4.929
   53X2IT    C3 1665   0.967   2.543   4.921
   53X2IT    C2 1666   0.853   2.643   4.916
   53X2IT    H2 1667   0.752   2.611   4.942
   53X2IT    N1 1668   0.872   2.745   4.810
   53X2IT   H14 1669   0.782   2.787   4.786
   53X2IT    C1 1670   0.904   2.778   4.951
   53X2IT    H1 1671   0.845   2.851   5.005
   53X2IT   C11 1672   1.051   2.765   4.984
   53X2IT    O3 1673   1.055   2.767   5.126
   53X2IT   C15 1674   1.174   2.719   5.189
   54X2IT   H18 1675   1.910   1.586   4.439
   54X2IT    N4 1676   1.925   1.531   4.521
   54X2IT   H17 1677   1.965   1.439   4.508
   54X2IT   C14 1678   1.952   1.599   4.637
   54X2IT    O5 1679   1.931   1.718   4.654
   54X2IT    O4 1680   2.000   1.514   4.731
   54X2IT   C13 1681   2.027   1.571   4.861
   54X2IT   C10 1682   1.899   1.578   4.947
   54X2IT    C9 1683   1.924   1.631   5.086
   54X2IT    C4 1684   1.883   1.538   5.180
   54X2IT    C5 1685   1.894   1.559   5.328
   54X2IT    O1 1686   1.852   1.472   5.406
   54X2IT    C6 1687   1.955   1.683   5.372
   54X2IT   C12 1688   1.970   1.710   5.520
   54X2IT    C7 1689   1.994   1.776   5.278
   54X2IT    C8 1690   1.981   1.754   5.127
   54X2IT    O2 1691   2.025   1.842   5.051
   54X2IT    N3 1692   2.050   1.894   5.308
   54X2IT   H15 1693   2.067   1.924   5.403
   54X2IT   H16 1694   2.077   1.954   5.230
   54X2IT    N2 1695   1.824   1.430   5.123
   54X2IT    C3 1696   1.828   1.290   5.170
   54X2IT    C2 1697   1.893   1.218   5.052
   54X2IT    H2 1698   1.880   1.111   5.041
   54X2IT    N1 1699   2.020   1.282   5.011
   54X2IT   H14 1700   2.076   1.214   4.959
   54X2IT    C1 1701   1.897   1.309   4.935
   54X2IT    H1 1702   1.886   1.274   4.833
   54X2IT   C11 1703   1.829   1.439   4.975
   54X2IT    O3 1704   1.700   1.430   4.917
   54X2IT   C15 1705   1.599   1.519   4.968
   55X2IT   H18 1706   3.793   2.436   3.279
   55X2IT    N4 1707   3.728   2.447   3.354
   55X2IT   H17 1708   3.745   2.523   3.420
   55X2IT   C14 1709   3.599   2.409   3.330
   55X2IT    O5 1710   3.563   2.339   3.237
   55X2IT    O4 1711   3.516   2.458   3.427
   55X2IT   C13 1712   3.377   2.420   3.417
   55X2IT   C10 1713   3.353   2.281   3.479
   55X2IT    C9 1714   3.207   2.240   3.477
   55X2IT    C4 1715   3.163   2.214   3.605
   55X2IT    C5 1716   3.023   2.172   3.639
   55X2IT    O1 1717   2.993   2.148   3.757
   55X2IT    C6 1718   2.930   2.163   3.529
   55X2IT   C12 1719   2.787   2.121   3.556
   55X2IT    C7 1720   2.974   2.188   3.400
   55X2IT    C8 1721   3.118   2.230   3.367
   55X2IT    O2 1722   3.145   2.254   3.249
   55X2IT    N3 1723   2.896   2.180   3.291
   55X2IT   H15 1724   2.799   2.155   3.295
   55X2IT   H16 1725   2.939   2.202   3.201
   55X2IT    N2 1726   3.263   2.223   3.696
   55X2IT    C3 1727   3.255   2.268   3.836
   55X2IT    C2 1728   3.349   2.388   3.838
   55X2IT    H2 1729   3.390   2.423   3.932
   55X2IT    N1 1730   3.318   2.485   3.731
   55X2IT   H14 1731   3.357   2.576   3.755
   55X2IT    C1 1732   3.429   2.389   3.713
   55X2IT    H1 1733   3.531   2.424   3.708
   55X2IT   C11 1734   3.390   2.267   3.631
   55X2IT    O3 1735   3.496   2.176   3.654
   55X2IT   C15 1736   3.471   2.038   3.623
   56X2IT   H18 1737   3.731   2.338   2.215
   56X2IT    N4 1738   3.663   2.293   2.157
   56X2IT   H17 1739   3.692   2.268   2.063
   56X2IT   C14 1740   3.569   2.216   2.220
   56X2IT    O5 1741   3.545   2.220   2.340
   56X2IT    O4 1742   3.504   2.137   2.130
   56X2IT   C13 1743   3.398   2.055   2.182
   56X2IT   C10 1744   3.266   2.134   2.194
   56X2IT    C9 1745   3.150   2.049   2.242
   56X2IT    C4 1746   3.048   2.052   2.149
   56X2IT    C5 1747   2.918   1.978   2.166
   56X2IT    O1 1748   2.830   1.989   2.079
   56X2IT    C6 1749   2.905   1.897   2.285
   56X2IT   C12 1750   2.777   1.820   2.307
   56X2IT    C7 1751   3.007   1.896   2.378
   56X2IT    C8 1752   3.138   1.972   2.360
   56X2IT    O2 1753   3.225   1.960   2.448
   56X2IT    N3 1754   3.002   1.826   2.492
   56X2IT   H15 1755   2.924   1.768   2.519
   56X2IT   H16 1756   3.084   1.830   2.553
   56X2IT    N2 1757   3.075   2.135   2.046
   56X2IT    C3 1758   3.034   2.121   1.905
   56X2IT    C2 1759   3.168   2.116   1.833
   56X2IT    H2 1760   3.173   2.139   1.726
   56X2IT    N1 1761   3.259   2.015   1.890
   56X2IT   H14 1762   3.330   1.990   1.821
   56X2IT    C1 1763   3.276   2.157   1.926
   56X2IT    H1 1764   3.364   2.212   1.895
   56X2IT   C11 1765   3.211   2.193   2.059
   56X2IT    O3 1766   3.209   2.335   2.058
   56X2IT   C15 1767   3.120   2.399   2.151
   57X2IT   H18 1768   2.330   4.133   4.726
   57X2IT    N4 1769   2.351   4.056   4.665
   57X2IT   H17 1770   2.279   3.986   4.653
   57X2IT   C14 1771   2.438   4.081   4.563
   57X2IT    O5 1772   2.512   4.178   4.555
   57X2IT    O4 1773   2.433   3.979   4.472
   57X2IT   C13 1774   2.525   3.989   4.361
   57X2IT   C10 1775   2.665   3.936   4.399
   57X2IT    C9 1776   2.762   3.938   4.283
   57X2IT    C4 1777   2.811   3.811   4.259
   57X2IT    C5 1778   2.909   3.777   4.151
   57X2IT    O1 1779   2.950   3.661   4.139
   57X2IT    C6 1780   2.950   3.886   4.066
   57X2IT   C12 1781   3.049   3.859   3.954
   57X2IT    C7 1782   2.903   4.014   4.090
   57X2IT    C8 1783   2.803   4.046   4.201
   57X2IT    O2 1784   2.763   4.164   4.211
   57X2IT    N3 1785   2.937   4.121   4.018
   57X2IT   H15 1786   3.000   4.117   3.939
   57X2IT   H16 1787   2.894   4.211   4.043
   57X2IT    N2 1788   2.765   3.721   4.351
   57X2IT    C3 1789   2.736   3.578   4.330
   57X2IT    C2 1790   2.588   3.571   4.366
   57X2IT    H2 1791   2.544   3.475   4.393
   57X2IT    N1 1792   2.507   3.671   4.293
   57X2IT   H14 1793   2.409   3.641   4.292
   57X2IT    C1 1794   2.547   3.697   4.433
   57X2IT    H1 1795   2.473   3.701   4.512
   57X2IT   C11 1796   2.670   3.786   4.445
   57X2IT    O3 1797   2.710   3.771   4.580
   57X2IT   C15 1798   2.844   3.810   4.613
   58X2IT   H18 1799   0.031   3.983   0.922
   58X2IT    N4 1800   0.086   3.988   1.005
   58X2IT   H17 1801   0.178   4.029   0.998
   58X2IT   C14 1802   0.016   4.001   1.123
   58X2IT    O5 1803  -0.103   3.980   1.137
   58X2IT    O4 1804   0.101   4.038   1.223
   58X2IT   C13 1805   0.043   4.050   1.354
   58X2IT   C10 1806   0.034   3.913   1.424
   58X2IT    C9 1807  -0.020   3.922   1.565
   58X2IT    C4 1808   0.072   3.870   1.655
   58X2IT    C5 1809   0.050   3.864   1.803
   58X2IT    O1 1810   0.136   3.812   1.876
   58X2IT    C6 1811  -0.074   3.920   1.852
   58X2IT   C12 1812  -0.103   3.918   2.001
   58X2IT    C7 1813  -0.166   3.971   1.763
   58X2IT    C8 1814  -0.142   3.976   1.611
   58X2IT    O2 1815  -0.230   4.028   1.541
   58X2IT    N3 1816  -0.284   4.023   1.798
   58X2IT   H15 1817  -0.315   4.030   1.894
   58X2IT   H16 1818  -0.344   4.060   1.724
   58X2IT    N2 1819   0.180   3.817   1.592
   58X2IT    C3 1820   0.319   3.814   1.640
   58X2IT    C2 1821   0.393   3.892   1.532
   58X2IT    H2 1822   0.500   3.879   1.520
   58X2IT    N1 1823   0.331   4.023   1.506
   58X2IT   H14 1824   0.399   4.085   1.461
   58X2IT    C1 1825   0.303   3.910   1.415
   58X2IT    H1 1826   0.339   3.911   1.313
   58X2IT   C11 1827   0.172   3.839   1.445
   58X2IT    O3 1828   0.181   3.718   1.373
   58X2IT   C15 1829   0.091   3.612   1.411
   59X2IT   H18 1830   4.553   2.207   0.464
   59X2IT    N4 1831   4.522   2.140   0.397
   59X2IT   H17 1832   4.593   2.080   0.356
   59X2IT   C14 1833   4.395   2.092   0.411
   59X2IT    O5 1834   4.308   2.143   0.480
   59X2IT    O4 1835   4.378   1.981   0.333
   59X2IT   C13 1836   4.246   1.923   0.333
   59X2IT   C10 1837   4.153   1.996   0.234
   59X2IT    C9 1838   4.015   1.934   0.226
   59X2IT    C4 1839   3.988   1.895   0.096
   59X2IT    C5 1840   3.859   1.829   0.054
   59X2IT    O1 1841   3.842   1.802  -0.066
   59X2IT    C6 1842   3.763   1.804   0.157
   59X2IT   C12 1843   3.631   1.737   0.121
   59X2IT    C7 1844   3.790   1.843   0.287
   59X2IT    C8 1845   3.920   1.911   0.329
   59X2IT    O2 1846   3.936   1.938   0.449
   59X2IT    N3 1847   3.705   1.825   0.390
   59X2IT   H15 1848   3.616   1.781   0.380
   59X2IT   H16 1849   3.736   1.857   0.482
   59X2IT    N2 1850   4.087   1.931   0.010
   59X2IT    C3 1851   4.131   1.859  -0.110
   59X2IT    C2 1852   4.277   1.830  -0.078
   59X2IT    H2 1853   4.347   1.808  -0.159
   59X2IT    N1 1854   4.294   1.764   0.053
   59X2IT   H14 1855   4.384   1.716   0.056
   59X2IT    C1 1856   4.318   1.909   0.041
   59X2IT    H1 1857   4.418   1.950   0.054
   59X2IT   C11 1858   4.200   1.994   0.084
   59X2IT    O3 1859   4.230   2.123   0.034
   59X2IT   C15 1860   4.121   2.216   0.024
   60X2IT   H18 1861   4.826   5.387   0.413
   60X2IT    N4 1862   4.824   5.299   0.365
   60X2IT   H17 1863   4.902   5.237   0.380
   60X2IT   C14 1864   4.701   5.245   0.340
   60X2IT    O5 1865   4.595   5.306   0.346
   60X2IT    O4 1866   4.713   5.114   0.304
   60X2IT   C13 1867   4.591   5.046   0.268
   60X2IT   C10 1868   4.552   5.074   0.122
   60X2IT    C9 1869   4.428   4.999   0.078
   60X2IT    C4 1870   4.457   4.918  -0.030
   60X2IT    C5 1871   4.356   4.830  -0.098
   60X2IT    O1 1872   4.390   4.764  -0.197
   60X2IT    C6 1873   4.223   4.829  -0.042
   60X2IT   C12 1874   4.117   4.741  -0.105
   60X2IT    C7 1875   4.195   4.910   0.066
   60X2IT    C8 1876   4.298   5.000   0.134
   60X2IT    O2 1877   4.262   5.066   0.233
   60X2IT    N3 1878   4.074   4.917   0.124
   60X2IT   H15 1879   3.995   4.863   0.093
   60X2IT   H16 1880   4.064   4.980   0.204
   60X2IT    N2 1881   4.585   4.934  -0.074
   60X2IT    C3 1882   4.673   4.833  -0.134
   60X2IT    C2 1883   4.790   4.831  -0.036
   60X2IT    H2 1884   4.887   4.792  -0.068
   60X2IT    N1 1885   4.746   4.812   0.104
   60X2IT   H14 1886   4.824   4.776   0.160
   60X2IT    C1 1887   4.780   4.947   0.056
   60X2IT    H1 1888   4.867   5.000   0.095
   60X2IT   C11 1889   4.659   5.029   0.015
   60X2IT    O3 1890   4.713   5.138  -0.058
   60X2IT   C15 1891   4.624   5.211  -0.142
   61X2IT   H18 1892   2.754   3.520   3.176
   61X2IT    N4 1893   2.672   3.574   3.197
   61X2IT   H17 1894   2.601   3.581   3.125
   61X2IT   C14 1895   2.634   3.579   3.328
   61X2IT    O5 1896   2.704   3.547   3.422
   61X2IT    O4 1897   2.507   3.628   3.338
   61X2IT   C13 1898   2.455   3.645   3.472
   61X2IT   C10 1899   2.502   3.778   3.534
   61X2IT    C9 1900   2.445   3.802   3.671
   61X2IT    C4 1901   2.374   3.921   3.673
   61X2IT    C5 1902   2.304   3.975   3.794
   61X2IT    O1 1903   2.246   4.084   3.788
   61X2IT    C6 1904   2.309   3.894   3.913
   61X2IT   C12 1905   2.240   3.942   4.039
   61X2IT    C7 1906   2.381   3.775   3.912
   61X2IT    C8 1907   2.453   3.722   3.788
   61X2IT    O2 1908   2.510   3.612   3.797
   61X2IT    N3 1909   2.393   3.694   4.018
   61X2IT   H15 1910   2.351   3.713   4.107
   61X2IT   H16 1911   2.447   3.608   4.005
   61X2IT    N2 1912   2.383   3.987   3.555
   61X2IT    C3 1913   2.281   4.072   3.491
   61X2IT    C2 1914   2.256   4.001   3.359
   61X2IT    H2 1915   2.212   4.055   3.276
   61X2IT    N1 1916   2.226   3.857   3.378
   61X2IT   H14 1917   2.178   3.821   3.295
   61X2IT    C1 1918   2.362   3.899   3.338
   61X2IT    H1 1919   2.402   3.874   3.241
   61X2IT   C11 1920   2.459   3.907   3.455
   61X2IT    O3 1921   2.570   3.979   3.403
   61X2IT   C15 1922   2.660   4.038   3.498
   62X2IT   H18 1923   4.691   4.237   4.024
   62X2IT    N4 1924   4.706   4.328   3.984
   62X2IT   H17 1925   4.728   4.403   4.047
   62X2IT   C14 1926   4.757   4.330   3.857
   62X2IT    O5 1927   4.759   4.236   3.780
   62X2IT    O4 1928   4.801   4.456   3.827
   62X2IT   C13 1929   4.852   4.475   3.693
   62X2IT   C10 1930   4.738   4.502   3.593
   62X2IT    C9 1931   4.787   4.529   3.453
   62X2IT    C4 1932   4.742   4.653   3.410
   62X2IT    C5 1933   4.774   4.711   3.275
   62X2IT    O1 1934   4.727   4.822   3.244
   62X2IT    C6 1935   4.859   4.633   3.189
   62X2IT   C12 1936   4.895   4.686   3.052
   62X2IT    C7 1937   4.903   4.509   3.232
   62X2IT    C8 1938   4.869   4.450   3.369
   62X2IT    O2 1939   4.917   4.339   3.398
   62X2IT    N3 1940   4.980   4.427   3.158
   62X2IT   H15 1941   5.013   4.451   3.066
   62X2IT   H16 1942   5.008   4.338   3.200
   62X2IT    N2 1943   4.660   4.712   3.501
   62X2IT    C3 1944   4.645   4.855   3.529
   62X2IT    C2 1945   4.683   4.863   3.677
   62X2IT    H2 1946   4.651   4.948   3.736
   62X2IT    N1 1947   4.814   4.799   3.704
   62X2IT   H14 1948   4.852   4.835   3.792
   62X2IT    C1 1949   4.689   4.726   3.733
   62X2IT    H1 1950   4.661   4.703   3.835
   62X2IT   C11 1951   4.649   4.628   3.624
   62X2IT    O3 1952   4.515   4.596   3.653
   62X2IT   C15 1953   4.437   4.537   3.548
   63X2IT   H18 1954   3.009   4.975   1.972
   63X2IT    N4 1955   2.964   4.910   2.034
   63X2IT   H17 1956   3.003   4.817   2.038
   63X2IT   C14 1957   2.906   4.963   2.146
   63X2IT    O5 1958   2.879   5.081   2.162
   63X2IT    O4 1959   2.877   4.864   2.235
   63X2IT   C13 1960   2.809   4.904   2.356
   63X2IT   C10 1961   2.657   4.915   2.333
   63X2IT    C9 1962   2.581   4.950   2.459
   63X2IT    C4 1963   2.487   4.853   2.487
   63X2IT    C5 1964   2.395   4.857   2.606
   63X2IT    O1 1965   2.311   4.767   2.621
   63X2IT    C6 1966   2.411   4.969   2.695
   63X2IT   C12 1967   2.321   4.979   2.817
   63X2IT    C7 1968   2.504   5.067   2.667
   63X2IT    C8 1969   2.596   5.062   2.545
   63X2IT    O2 1970   2.680   5.153   2.531
   63X2IT    N3 1971   2.524   5.175   2.743
   63X2IT   H15 1972   2.473   5.193   2.828
   63X2IT   H16 1973   2.597   5.241   2.713
   63X2IT    N2 1974   2.482   4.757   2.391
   63X2IT    C3 1975   2.453   4.614   2.407
   63X2IT    C2 1976   2.580   4.549   2.354
   63X2IT    H2 1977   2.578   4.445   2.322
   63X2IT    N1 1978   2.702   4.603   2.419
   63X2IT   H14 1979   2.778   4.536   2.409
   63X2IT    C1 1980   2.663   4.651   2.285
   63X2IT    H1 1981   2.724   4.628   2.198
   63X2IT   C11 1982   2.586   4.782   2.287
   63X2IT    O3 1983   2.531   4.792   2.157
   63X2IT   C15 1984   2.422   4.884   2.139
   64X2IT   H18 1985  -0.093   3.034   2.648
   64X2IT    N4 1986  -0.089   2.938   2.621
   64X2IT   H17 1987  -0.143   2.910   2.540
   64X2IT   C14 1988   0.028   2.872   2.649
   64X2IT    O5 1989   0.114   2.910   2.726
   64X2IT    O4 1990   0.031   2.753   2.581
   64X2IT   C13 1991   0.146   2.669   2.606
   64X2IT   C10 1992   0.127   2.585   2.733
   64X2IT    C9 1993   0.242   2.490   2.759
   64X2IT    C4 1994   0.196   2.360   2.765
   64X2IT    C5 1995   0.285   2.241   2.788
   64X2IT    O1 1996   0.235   2.128   2.796
   64X2IT    C6 1997   0.426   2.268   2.802
   64X2IT   C12 1998   0.521   2.152   2.826
   64X2IT    C7 1999   0.472   2.398   2.798
   64X2IT    C8 2000   0.380   2.518   2.774
   64X2IT    O2 2001   0.432   2.631   2.768
   64X2IT    N3 2002   0.601   2.433   2.812
   64X2IT   H15 2003   0.674   2.366   2.826
   64X2IT   H16 2004   0.623   2.532   2.805
   64X2IT    N2 2005   0.061   2.353   2.754
   64X2IT    C3 2006  -0.019   2.246   2.692
   64X2IT    C2 2007  -0.094   2.322   2.583
   64X2IT    H2 2008  -0.185   2.280   2.541
   64X2IT    N1 2009  -0.003   2.400   2.497
   64X2IT   H14 2010  -0.049   2.420   2.408
   64X2IT    C1 2011  -0.078   2.468   2.605
   64X2IT    H1 2012  -0.156   2.540   2.581
   64X2IT   C11 2013   0.003   2.488   2.732
   64X2IT    O3 2014  -0.094   2.521   2.830
   64X2IT   C15 2015  -0.055   2.508   2.967
   65X2IT   H18 2016   4.708   3.252   3.651
   65X2IT    N4 2017   4.618   3.234   3.610
   65X2IT   H17 2018   4.570   3.311   3.567
   65X2IT   C14 2019   4.600   3.108   3.560
   65X2IT    O5 2020   4.669   3.011   3.585
   65X2IT    O4 2021   4.488   3.106   3.480
   65X2IT   C13 2022   4.452   2.977   3.425
   65X2IT   C10 2023   4.371   2.894   3.526
   65X2IT    C9 2024   4.325   2.761   3.470
   65X2IT    C4 2025   4.187   2.752   3.476
   65X2IT    C5 2026   4.109   2.633   3.428
   65X2IT    O1 2027   3.986   2.632   3.440
   65X2IT    C6 2028   4.185   2.525   3.369
   65X2IT   C12 2029   4.112   2.403   3.318
   65X2IT    C7 2030   4.323   2.534   3.364
   65X2IT    C8 2031   4.401   2.656   3.414
   65X2IT    O2 2032   4.525   2.655   3.401
   65X2IT    N3 2033   4.402   2.439   3.313
   65X2IT   H15 2034   4.367   2.353   3.274
   65X2IT   H16 2035   4.503   2.457   3.313
   65X2IT    N2 2036   4.131   2.859   3.538
   65X2IT    C3 2037   4.001   2.922   3.510
   65X2IT    C2 2038   4.041   3.064   3.473
   65X2IT    H2 2039   3.968   3.144   3.479
   65X2IT    N1 2040   4.145   3.067   3.367
   65X2IT   H14 2041   4.143   3.158   3.321
   65X2IT    C1 2042   4.184   3.086   3.508
   65X2IT    H1 2043   4.222   3.181   3.542
   65X2IT   C11 2044   4.236   2.959   3.574
   65X2IT    O3 2045   4.235   2.989   3.712
   65X2IT   C15 2046   4.241   2.879   3.803
   66X2IT   H18 2047   0.555   0.284   3.330
   66X2IT    N4 2048   0.632   0.273   3.394
   66X2IT   H17 2049   0.725   0.289   3.359
   66X2IT   C14 2050   0.605   0.301   3.526
   66X2IT    O5 2051   0.494   0.310   3.574
   66X2IT    O4 2052   0.722   0.312   3.595
   66X2IT   C13 2053   0.709   0.335   3.737
   66X2IT   C10 2054   0.687   0.203   3.814
   66X2IT    C9 2055   0.680   0.222   3.963
   66X2IT    C4 2056   0.778   0.146   4.026
   66X2IT    C5 2057   0.799   0.143   4.174
   66X2IT    O1 2058   0.887   0.069   4.222
   66X2IT    C6 2059   0.713   0.227   4.254
   66X2IT   C12 2060   0.729   0.228   4.404
   66X2IT    C7 2061   0.615   0.302   4.192
   66X2IT    C8 2062   0.594   0.304   4.040
   66X2IT    O2 2063   0.505   0.379   3.995
   66X2IT    N3 2064   0.529   0.381   4.257
   66X2IT   H15 2065   0.530   0.393   4.357
   66X2IT   H16 2066   0.461   0.434   4.201
   66X2IT    N2 2067   0.847   0.070   3.937
   66X2IT    C3 2068   0.988   0.030   3.944
   66X2IT    C2 2069   1.044   0.089   3.815
   66X2IT    H2 2070   1.137   0.050   3.773
   66X2IT    N1 2071   1.012   0.233   3.801
   66X2IT   H14 2072   1.078   0.276   3.735
   66X2IT    C1 2073   0.932   0.132   3.728
   66X2IT    H1 2074   0.935   0.127   3.620
   66X2IT   C11 2075   0.802   0.096   3.798
   66X2IT    O3 2076   0.759  -0.021   3.732
   66X2IT   C15 2077   0.661  -0.101   3.800
   67X2IT   H18 2078   0.557   1.115   1.721
   67X2IT    N4 2079   0.532   1.043   1.787
   67X2IT   H17 2080   0.524   0.949   1.752
   67X2IT   C14 2081   0.570   1.063   1.916
   67X2IT    O5 2082   0.607   1.169   1.963
   67X2IT    O4 2083   0.557   0.947   1.987
   67X2IT   C13 2084   0.589   0.954   2.128
   67X2IT   C10 2085   0.469   1.006   2.209
   67X2IT    C9 2086   0.495   1.009   2.358
   67X2IT    C4 2087   0.401   0.932   2.424
   67X2IT    C5 2088   0.399   0.913   2.573
   67X2IT    O1 2089   0.309   0.845   2.625
   67X2IT    C6 2090   0.504   0.977   2.648
   67X2IT   C12 2091   0.508   0.961   2.799
   67X2IT    C7 2092   0.597   1.055   2.582
   67X2IT    C8 2093   0.598   1.075   2.430
   67X2IT    O2 2094   0.689   1.143   2.381
   67X2IT    N3 2095   0.697   1.120   2.643
   67X2IT   H15 2096   0.713   1.117   2.742
   67X2IT   H16 2097   0.761   1.174   2.584
   67X2IT    N2 2098   0.307   0.883   2.340
   67X2IT    C3 2099   0.236   0.754   2.350
   67X2IT    C2 2100   0.275   0.686   2.219
   67X2IT    H2 2101   0.214   0.604   2.181
   67X2IT    N1 2102   0.422   0.684   2.199
   67X2IT   H14 2103   0.446   0.610   2.132
   67X2IT    C1 2104   0.339   0.785   2.129
   67X2IT    H1 2105   0.329   0.782   2.022
   67X2IT   C11 2106   0.338   0.920   2.199
   67X2IT    O3 2107   0.230   0.989   2.138
   67X2IT   C15 2108   0.178   1.103   2.207
   68X2IT   H18 2109   2.932   2.038   1.534
   68X2IT    N4 2110   3.005   1.991   1.484
   68X2IT   H17 2111   3.097   1.994   1.525
   68X2IT   C14 2112   2.968   1.882   1.410
   68X2IT    O5 2113   2.854   1.855   1.378
   68X2IT    O4 2114   3.079   1.811   1.374
   68X2IT   C13 2115   3.055   1.697   1.289
   68X2IT   C10 2116   3.044   1.737   1.141
   68X2IT    C9 2117   3.027   1.619   1.049
   68X2IT    C4 2118   3.128   1.616   0.955
   68X2IT    C5 2119   3.141   1.511   0.848
   68X2IT    O1 2120   3.234   1.519   0.766
   68X2IT    C6 2121   3.042   1.407   0.848
   68X2IT   C12 2122   3.050   1.298   0.744
   68X2IT    C7 2123   2.940   1.410   0.941
   68X2IT    C8 2124   2.927   1.518   1.049
   68X2IT    O2 2125   2.834   1.509   1.130
   68X2IT    N3 2126   2.842   1.319   0.948
   68X2IT   H15 2127   2.836   1.240   0.886
   68X2IT   H16 2128   2.772   1.330   1.022
   68X2IT    N2 2129   3.211   1.724   0.966
   68X2IT    C3 2130   3.355   1.730   0.939
   68X2IT    C2 2131   3.411   1.773   1.074
   68X2IT    H2 2132   3.510   1.819   1.080
   68X2IT    N1 2133   3.364   1.687   1.184
   68X2IT   H14 2134   3.428   1.695   1.264
   68X2IT    C1 2135   3.300   1.818   1.162
   68X2IT    H1 2136   3.310   1.898   1.234
   68X2IT   C11 2137   3.171   1.809   1.081
   68X2IT    O3 2138   3.145   1.943   1.042
   68X2IT   C15 2139   3.053   1.963   0.935
   69X2IT   H18 2140   1.610   4.030   3.953
   69X2IT    N4 2141   1.591   3.991   3.862
   69X2IT   H17 2142   1.516   4.034   3.809
   69X2IT   C14 2143   1.696   3.935   3.796
   69X2IT    O5 2144   1.803   3.904   3.847
   69X2IT    O4 2145   1.664   3.915   3.665
   69X2IT   C13 2146   1.764   3.850   3.584
   69X2IT   C10 2147   1.758   3.697   3.600
   69X2IT    C9 2148   1.856   3.624   3.511
   69X2IT    C4 2149   1.790   3.536   3.428
   69X2IT    C5 2150   1.858   3.449   3.326
   69X2IT    O1 2151   1.791   3.370   3.258
   69X2IT    C6 2152   2.001   3.463   3.315
   69X2IT   C12 2153   2.077   3.378   3.215
   69X2IT    C7 2154   2.068   3.550   3.399
   69X2IT    C8 2155   1.997   3.638   3.503
   69X2IT    O2 2156   2.066   3.716   3.570
   69X2IT    N3 2157   2.201   3.568   3.398
   69X2IT   H15 2158   2.262   3.520   3.335
   69X2IT   H16 2159   2.239   3.637   3.464
   69X2IT    N2 2160   1.657   3.532   3.453
   69X2IT    C3 2161   1.547   3.510   3.358
   69X2IT    C2 2162   1.465   3.638   3.373
   69X2IT    H2 2163   1.361   3.639   3.341
   69X2IT    N1 2164   1.548   3.759   3.357
   69X2IT   H14 2165   1.488   3.838   3.332
   69X2IT    C1 2166   1.512   3.713   3.492
   69X2IT    H1 2167   1.445   3.771   3.555
   69X2IT   C11 2168   1.621   3.630   3.559
   69X2IT    O3 2169   1.555   3.569   3.669
   69X2IT   C15 2170   1.620   3.456   3.729
   70X2IT   H18 2171   0.895   4.803   0.580
   70X2IT    N4 2172   0.938   4.747   0.651
   70X2IT   H17 2173   1.021   4.696   0.626
   70X2IT   C14 2174   0.922   4.789   0.780
   70X2IT    O5 2175   0.841   4.872   0.818
   70X2IT    O4 2176   1.008   4.723   0.862
   70X2IT   C13 2177   0.999   4.753   1.003
   70X2IT   C10 2178   0.887   4.672   1.070
   70X2IT    C9 2179   0.878   4.695   1.219
   70X2IT    C4 2180   0.893   4.576   1.288
   70X2IT    C5 2181   0.890   4.564   1.437
   70X2IT    O1 2182   0.900   4.452   1.490
   70X2IT    C6 2183   0.873   4.687   1.511
   70X2IT   C12 2184   0.870   4.682   1.663
   70X2IT    C7 2185   0.857   4.806   1.443
   70X2IT    C8 2186   0.860   4.816   1.290
   70X2IT    O2 2187   0.849   4.929   1.240
   70X2IT    N3 2188   0.840   4.925   1.503
   70X2IT   H15 2189   0.838   4.936   1.603
   70X2IT   H16 2190   0.830   5.007   1.443
   70X2IT    N2 2191   0.902   4.470   1.204
   70X2IT    C3 2192   0.980   4.346   1.222
   70X2IT    C2 2193   1.075   4.349   1.103
   70X2IT    H2 2194   1.122   4.257   1.070
   70X2IT    N1 2195   1.148   4.477   1.092
   70X2IT   H14 2196   1.232   4.464   1.036
   70X2IT    C1 2197   1.030   4.453   1.007
   70X2IT    H1 2198   1.040   4.443   0.900
   70X2IT   C11 2199   0.902   4.515   1.062
   70X2IT    O3 2200   0.799   4.454   0.986
   70X2IT   C15 2201   0.666   4.461   1.039
   71X2IT   H18 2202   0.319   0.065   0.874
   71X2IT    N4 2203   0.335   0.035   0.779
   71X2IT   H17 2204   0.338  -0.064   0.762
   71X2IT   C14 2205   0.291   0.119   0.681
   71X2IT    O5 2206   0.260   0.236   0.697
   71X2IT    O4 2207   0.291   0.053   0.561
   71X2IT   C13 2208   0.252   0.132   0.446
   71X2IT   C10 2209   0.371   0.213   0.391
   71X2IT    C9 2210   0.336   0.291   0.266
   71X2IT    C4 2211   0.419   0.254   0.162
   71X2IT    C5 2212   0.411   0.312   0.024
   71X2IT    O1 2213   0.493   0.276  -0.062
   71X2IT    C6 2214   0.307   0.409   0.001
   71X2IT   C12 2215   0.293   0.471  -0.137
   71X2IT    C7 2216   0.225   0.447   0.105
   71X2IT    C8 2217   0.234   0.388   0.246
   71X2IT    O2 2218   0.152   0.425   0.330
   71X2IT    N3 2219   0.127   0.538   0.093
   71X2IT   H15 2220   0.105   0.585   0.007
   71X2IT   H16 2221   0.070   0.556   0.177
   71X2IT    N2 2222   0.514   0.166   0.202
   71X2IT    C3 2223   0.575   0.057   0.123
   71X2IT    C2 2224   0.538  -0.066   0.205
   71X2IT    H2 2225   0.595  -0.159   0.193
   71X2IT    N1 2226   0.393  -0.073   0.235
   71X2IT   H14 2227   0.367  -0.169   0.258
   71X2IT    C1 2228   0.487  -0.024   0.338
   71X2IT    H1 2229   0.504  -0.080   0.429
   71X2IT   C11 2230   0.495   0.128   0.345
   71X2IT    O3 2231   0.611   0.153   0.422
   71X2IT   C15 2232   0.667   0.285   0.415
   72X2IT   H18 2233   4.064   0.465   3.778
   72X2IT    N4 2234   4.152   0.456   3.824
   72X2IT   H17 2235   4.200   0.541   3.850
   72X2IT   C14 2236   4.170   0.344   3.900
   72X2IT    O5 2237   4.101   0.244   3.895
   72X2IT    O4 2238   4.280   0.359   3.980
   72X2IT   C13 2239   4.315   0.245   4.062
   72X2IT   C10 2240   4.398   0.142   3.983
   72X2IT    C9 2241   4.442   0.025   4.067
   72X2IT    C4 2242   4.580   0.015   4.066
   72X2IT    C5 2243   4.657  -0.091   4.140
   72X2IT    O1 2244   4.781  -0.094   4.130
   72X2IT    C6 2245   4.580  -0.184   4.219
   72X2IT   C12 2246   4.651  -0.292   4.296
   72X2IT    C7 2247   4.442  -0.174   4.219
   72X2IT    C8 2248   4.364  -0.067   4.142
   72X2IT    O2 2249   4.241  -0.065   4.154
   72X2IT    N3 2250   4.361  -0.257   4.288
   72X2IT   H15 2251   4.396  -0.332   4.345
   72X2IT   H16 2252   4.261  -0.240   4.282
   72X2IT    N2 2253   4.637   0.106   3.984
   72X2IT    C3 2254   4.767   0.174   4.000
   72X2IT    C2 2255   4.727   0.321   4.005
   72X2IT    H2 2256   4.800   0.398   3.984
   72X2IT    N1 2257   4.621   0.346   4.106
   72X2IT   H14 2258   4.622   0.445   4.132
   72X2IT    C1 2259   4.585   0.334   3.963
   72X2IT    H1 2260   4.547   0.420   3.909
   72X2IT   C11 2261   4.534   0.196   3.925
   72X2IT    O3 2262   4.537   0.196   3.784
   72X2IT   C15 2263   4.532   0.069   3.718
   73X2IT   H18 2264   4.461  -0.423   3.365
   73X2IT    N4 2265   4.382  -0.369   3.336
   73X2IT   H17 2266   4.298  -0.419   3.312
   73X2IT   C14 2267   4.373  -0.243   3.389
   73X2IT    O5 2268   4.463  -0.183   3.444
   73X2IT    O4 2269   4.248  -0.193   3.366
   73X2IT   C13 2270   4.225  -0.057   3.411
   73X2IT   C10 2271   4.274   0.045   3.307
   73X2IT    C9 2272   4.246   0.188   3.347
   73X2IT    C4 2273   4.169   0.251   3.251
   73X2IT    C5 2274   4.122   0.393   3.259
   73X2IT    O1 2275   4.057   0.442   3.166
   73X2IT    C6 2276   4.158   0.465   3.379
   73X2IT   C12 2277   4.114   0.609   3.394
   73X2IT    C7 2278   4.236   0.403   3.475
   73X2IT    C8 2279   4.284   0.258   3.465
   73X2IT    O2 2280   4.349   0.211   3.559
   73X2IT    N3 2281   4.276   0.463   3.589
   73X2IT   H15 2282   4.252   0.558   3.613
   73X2IT   H16 2283   4.332   0.407   3.654
   73X2IT    N2 2284   4.148   0.170   3.143
   73X2IT    C3 2285   4.029   0.166   3.056
   73X2IT    C2 2286   3.983   0.022   3.073
   73X2IT    H2 2287   3.918  -0.024   2.998
   73X2IT    N1 2288   3.967  -0.016   3.215
   73X2IT   H14 2289   3.905  -0.097   3.223
   73X2IT    C1 2290   4.088  -0.057   3.142
   73X2IT    H1 2291   4.108  -0.161   3.121
   73X2IT   C11 2292   4.207   0.036   3.165
   73X2IT    O3 2293   4.299   0.000   3.063
   73X2IT   C15 2294   4.403   0.094   3.034
   74X2IT   H18 2295  -0.287   1.028   1.146
   74X2IT    N4 2296  -0.200   1.067   1.113
   74X2IT   H17 2297  -0.160   1.142   1.167
   74X2IT   C14 2298  -0.118   0.981   1.046
   74X2IT    O5 2299  -0.151   0.873   1.000
   74X2IT    O4 2300   0.007   1.036   1.034
   74X2IT   C13 2301   0.103   0.960   0.959
   74X2IT   C10 2302   0.089   0.983   0.808
   74X2IT    C9 2303   0.193   0.910   0.726
   74X2IT    C4 2304   0.265   1.000   0.650
   74X2IT    C5 2305   0.377   0.960   0.558
   74X2IT    O1 2306   0.434   1.047   0.490
   74X2IT    C6 2307   0.410   0.820   0.553
   74X2IT   C12 2308   0.523   0.773   0.463
   74X2IT    C7 2309   0.337   0.730   0.629
   74X2IT    C8 2310   0.223   0.772   0.722
   74X2IT    O2 2311   0.167   0.683   0.788
   74X2IT    N3 2312   0.360   0.598   0.630
   74X2IT   H15 2313   0.432   0.554   0.576
   74X2IT   H16 2314   0.300   0.541   0.691
   74X2IT    N2 2315   0.218   1.127   0.662
   74X2IT    C3 2316   0.295   1.252   0.657
   74X2IT    C2 2317   0.267   1.313   0.793
   74X2IT    H2 2318   0.281   1.420   0.809
   74X2IT    N1 2319   0.294   1.218   0.904
   74X2IT   H14 2320   0.308   1.270   0.991
   74X2IT    C1 2321   0.155   1.239   0.858
   74X2IT    H1 2322   0.083   1.286   0.923
   74X2IT   C11 2323   0.107   1.132   0.761
   74X2IT    O3 2324  -0.011   1.188   0.705
   74X2IT   C15 2325  -0.058   1.130   0.583
   75X2IT   H18 2326   1.005   1.487   2.977
   75X2IT    N4 2327   1.080   1.554   2.977
   75X2IT   H17 2328   1.134   1.564   3.062
   75X2IT   C14 2329   1.141   1.577   2.856
   75X2IT    O5 2330   1.096   1.544   2.748
   75X2IT    O4 2331   1.258   1.644   2.875
   75X2IT   C13 2332   1.331   1.681   2.756
   75X2IT   C10 2333   1.276   1.811   2.695
   75X2IT    C9 2334   1.354   1.856   2.573
   75X2IT    C4 2335   1.404   1.983   2.593
   75X2IT    C5 2336   1.487   2.058   2.493
   75X2IT    O1 2337   1.524   2.173   2.518
   75X2IT    C6 2338   1.517   1.988   2.370
   75X2IT   C12 2339   1.600   2.058   2.264
   75X2IT    C7 2340   1.466   1.862   2.349
   75X2IT    C8 2341   1.381   1.787   2.453
   75X2IT    O2 2342   1.345   1.672   2.425
   75X2IT    N3 2343   1.487   1.790   2.238
   75X2IT   H15 2344   1.542   1.823   2.161
   75X2IT   H16 2345   1.446   1.696   2.234
   75X2IT    N2 2346   1.363   2.036   2.711
   75X2IT    C3 2347   1.436   2.129   2.800
   75X2IT    C2 2348   1.446   2.049   2.929
   75X2IT    H2 2349   1.465   2.101   3.023
   75X2IT    N1 2350   1.502   1.914   2.907
   75X2IT   H14 2351   1.539   1.877   2.996
   75X2IT    C1 2352   1.356   1.932   2.921
   75X2IT    H1 2353   1.303   1.892   3.007
   75X2IT   C11 2354   1.282   1.937   2.788
   75X2IT    O3 2355   1.154   1.988   2.821
   75X2IT   C15 2356   1.075   2.041   2.714
   76X2IT   H18 2357   0.324   2.980  -0.076
   76X2IT    N4 2358   0.357   3.036   0.001
   76X2IT   H17 2359   0.303   3.118   0.024
   76X2IT   C14 2360   0.424   2.970   0.100
   76X2IT    O5 2361   0.471   2.858   0.091
   76X2IT    O4 2362   0.434   3.050   0.210
   76X2IT   C13 2363   0.509   2.996   0.321
   76X2IT   C10 2364   0.660   3.017   0.303
   76X2IT    C9 2365   0.741   2.968   0.421
   76X2IT    C4 2366   0.816   3.071   0.474
   76X2IT    C5 2367   0.908   3.057   0.592
   76X2IT    O1 2368   0.974   3.154   0.630
   76X2IT    C6 2369   0.913   2.927   0.654
   76X2IT   C12 2370   1.002   2.905   0.774
   76X2IT    C7 2371   0.838   2.823   0.601
   76X2IT    C8 2372   0.746   2.839   0.479
   76X2IT    O2 2373   0.680   2.740   0.443
   76X2IT    N3 2374   0.838   2.698   0.650
   76X2IT   H15 2375   0.891   2.671   0.731
   76X2IT   H16 2376   0.777   2.630   0.604
   76X2IT    N2 2377   0.804   3.185   0.401
   76X2IT    C3 2378   0.808   3.324   0.450
   76X2IT    C2 2379   0.671   3.377   0.408
   76X2IT    H2 2380   0.655   3.484   0.400
   76X2IT    N1 2381   0.561   3.289   0.454
   76X2IT   H14 2382   0.474   3.342   0.456
   76X2IT    C1 2383   0.608   3.281   0.314
   76X2IT    H1 2384   0.544   3.311   0.233
   76X2IT   C11 2385   0.706   3.167   0.290
   76X2IT    O3 2386   0.763   3.197   0.164
   76X2IT   C15 2387   0.886   3.131   0.130
   77X2IT   H18 2388   3.766   3.334   0.656
   77X2IT    N4 2389   3.830   3.279   0.710
   77X2IT   H17 2390   3.915   3.249   0.664
   77X2IT   C14 2391   3.833   3.305   0.844
   77X2IT    O5 2392   3.747   3.365   0.906
   77X2IT    O4 2393   3.944   3.248   0.900
   77X2IT   C13 2394   3.957   3.261   1.043
   77X2IT   C10 2395   3.876   3.153   1.117
   77X2IT    C9 2396   3.893   3.158   1.267
   77X2IT    C4 2397   3.942   3.038   1.314
   77X2IT    C5 2398   3.970   3.010   1.459
   77X2IT    O1 2399   4.010   2.898   1.493
   77X2IT    C6 2400   3.948   3.119   1.551
   77X2IT   C12 2401   3.975   3.098   1.699
   77X2IT    C7 2402   3.898   3.239   1.504
   77X2IT    C8 2403   3.868   3.266   1.356
   77X2IT    O2 2404   3.828   3.379   1.324
   77X2IT    N3 2405   3.872   3.345   1.582
   77X2IT   H15 2406   3.887   3.345   1.681
   77X2IT   H16 2407   3.837   3.429   1.536
   77X2IT    N2 2408   3.953   2.945   1.216
   77X2IT    C3 2409   4.053   2.838   1.203
   77X2IT    C2 2410   4.121   2.872   1.071
   77X2IT    H2 2411   4.176   2.795   1.017
   77X2IT    N1 2412   4.167   3.013   1.066
   77X2IT   H14 2413   4.239   3.022   0.994
   77X2IT    C1 2414   4.040   2.975   1.000
   77X2IT    H1 2415   4.031   2.978   0.892
   77X2IT   C11 2416   3.917   3.004   1.084
   77X2IT    O3 2417   3.814   2.932   1.020
   77X2IT   C15 2418   3.694   2.907   1.095
   78X2IT   H18 2419   2.583   4.082   2.637
   78X2IT    N4 2420   2.498   4.054   2.683
   78X2IT   H17 2421   2.504   4.023   2.779
   78X2IT   C14 2422   2.383   4.116   2.641
   78X2IT    O5 2423   2.371   4.179   2.537
   78X2IT    O4 2424   2.282   4.093   2.730
   78X2IT   C13 2425   2.153   4.147   2.695
   78X2IT   C10 2426   2.077   4.054   2.599
   78X2IT    C9 2427   1.938   4.103   2.566
   78X2IT    C4 2428   1.844   4.009   2.601
   78X2IT    C5 2429   1.696   4.027   2.582
   78X2IT    O1 2430   1.619   3.935   2.613
   78X2IT    C6 2431   1.653   4.153   2.526
   78X2IT   C12 2432   1.505   4.178   2.505
   78X2IT    C7 2433   1.748   4.247   2.490
   78X2IT    C8 2434   1.898   4.227   2.509
   78X2IT    O2 2435   1.974   4.320   2.477
   78X2IT    N3 2436   1.717   4.366   2.436
   78X2IT   H15 2437   1.623   4.396   2.418
   78X2IT   H16 2438   1.795   4.429   2.415
   78X2IT    N2 2439   1.901   3.895   2.647
   78X2IT    C3 2440   1.849   3.803   2.750
   78X2IT    C2 2441   1.959   3.807   2.856
   78X2IT    H2 2442   1.967   3.726   2.928
   78X2IT    N1 2443   1.993   3.945   2.895
   78X2IT   H14 2444   2.039   3.944   2.987
   78X2IT    C1 2445   2.079   3.874   2.799
   78X2IT    H1 2446   2.180   3.845   2.825
   78X2IT   C11 2447   2.049   3.909   2.654
   78X2IT    O3 2448   2.115   3.808   2.580
   78X2IT   C15 2449   2.075   3.790   2.443
   79X2IT   H18 2450   3.020   0.164   1.672
   79X2IT    N4 2451   3.098   0.207   1.626
   79X2IT   H17 2452   3.179   0.229   1.682
   79X2IT   C14 2453   3.115   0.176   1.494
   79X2IT    O5 2454   3.031   0.123   1.422
   79X2IT    O4 2455   3.238   0.216   1.452
   79X2IT   C13 2456   3.268   0.195   1.312
   79X2IT   C10 2457   3.212   0.309   1.225
   79X2IT    C9 2458   3.247   0.295   1.079
   79X2IT    C4 2459   3.316   0.406   1.035
   79X2IT    C5 2460   3.367   0.424   0.895
   79X2IT    O1 2461   3.425   0.529   0.864
   79X2IT    C6 2462   3.343   0.315   0.804
   79X2IT   C12 2463   3.391   0.326   0.661
   79X2IT    C7 2464   3.273   0.204   0.847
   79X2IT    C8 2465   3.221   0.188   0.990
   79X2IT    O2 2466   3.163   0.082   1.019
   79X2IT    N3 2467   3.244   0.098   0.769
   79X2IT   H15 2468   3.272   0.092   0.673
   79X2IT   H16 2469   3.193   0.021   0.812
   79X2IT    N2 2470   3.326   0.501   1.132
   79X2IT    C3 2471   3.437   0.596   1.154
   79X2IT    C2 2472   3.481   0.560   1.295
   79X2IT    H2 2473   3.538   0.632   1.354
   79X2IT    N1 2474   3.508   0.415   1.311
   79X2IT   H14 2475   3.569   0.401   1.392
   79X2IT    C1 2476   3.380   0.471   1.358
   79X2IT    H1 2477   3.357   0.474   1.464
   79X2IT   C11 2478   3.266   0.453   1.259
   79X2IT    O3 2479   3.165   0.540   1.307
   79X2IT   C15 2480   3.061   0.575   1.215
   80X2IT   H18 2481   3.258   3.543   0.289
   80X2IT    N4 2482   3.287   3.451   0.258
   80X2IT   H17 2483   3.305   3.439   0.159
   80X2IT   C14 2484   3.357   3.377   0.348
   80X2IT    O5 2485   3.364   3.399   0.468
   80X2IT    O4 2486   3.416   3.270   0.285
   80X2IT   C13 2487   3.488   3.178   0.369
   80X2IT   C10 2488   3.394   3.076   0.434
   80X2IT    C9 2489   3.467   2.973   0.518
   80X2IT    C4 2490   3.440   2.846   0.471
   80X2IT    C5 2491   3.498   2.721   0.531
   80X2IT    O1 2492   3.465   2.610   0.486
   80X2IT    C6 2493   3.589   2.738   0.642
   80X2IT   C12 2494   3.651   2.616   0.707
   80X2IT    C7 2495   3.615   2.866   0.689
   80X2IT    C8 2496   3.555   2.992   0.627
   80X2IT    O2 2497   3.589   3.102   0.675
   80X2IT    N3 2498   3.697   2.892   0.792
   80X2IT   H15 2499   3.746   2.820   0.843
   80X2IT   H16 2500   3.710   2.990   0.817
   80X2IT    N2 2501   3.350   2.846   0.370
   80X2IT    C3 2502   3.342   2.755   0.255
   80X2IT    C2 2503   3.356   2.850   0.137
   80X2IT    H2 2504   3.322   2.820   0.038
   80X2IT    N1 2505   3.475   2.937   0.150
   80X2IT   H14 2506   3.501   2.973   0.057
   80X2IT    C1 2507   3.342   2.990   0.185
   80X2IT    H1 2508   3.296   3.068   0.126
   80X2IT   C11 2509   3.312   2.986   0.334
   80X2IT    O3 2510   3.173   3.007   0.342
   80X2IT   C15 2511   3.108   2.971   0.465
   81X2IT   H18 2512   2.570   4.672   3.937
   81X2IT    N4 2513   2.655   4.695   3.890
   81X2IT   H17 2514   2.690   4.789   3.900
   81X2IT   C14 2515   2.744   4.592   3.873
   81X2IT    O5 2516   2.718   4.474   3.885
   81X2IT    O4 2517   2.867   4.642   3.838
   81X2IT   C13 2518   2.969   4.545   3.810
   81X2IT   C10 2519   2.959   4.491   3.666
   81X2IT    C9 2520   3.069   4.394   3.631
   81X2IT    C4 2521   3.140   4.439   3.522
   81X2IT    C5 2522   3.257   4.367   3.461
   81X2IT    O1 2523   3.313   4.413   3.361
   81X2IT    C6 2524   3.297   4.244   3.526
   81X2IT   C12 2525   3.414   4.166   3.470
   81X2IT    C7 2526   3.225   4.198   3.635
   81X2IT    C8 2527   3.106   4.272   3.695
   81X2IT    O2 2528   3.052   4.224   3.795
   81X2IT    N3 2529   3.253   4.084   3.700
   81X2IT   H15 2530   3.330   4.024   3.675
   81X2IT   H16 2531   3.195   4.060   3.780
   81X2IT    N2 2532   3.087   4.553   3.470
   81X2IT    C3 2533   3.158   4.665   3.406
   81X2IT    C2 2534   3.122   4.782   3.496
   81X2IT    H2 2535   3.131   4.884   3.458
   81X2IT    N1 2536   3.150   4.754   3.638
   81X2IT   H14 2537   3.158   4.843   3.689
   81X2IT    C1 2538   3.012   4.743   3.587
   81X2IT    H1 2539   2.935   4.811   3.620
   81X2IT   C11 2540   2.972   4.600   3.553
   81X2IT    O3 2541   2.854   4.614   3.476
   81X2IT   C15 2542   2.814   4.502   3.397
   82X2IT   H18 2543   2.688   1.282   2.031
   82X2IT    N4 2544   2.675   1.214   1.958
   82X2IT   H17 2545   2.584   1.171   1.953
   82X2IT   C14 2546   2.747   1.232   1.843
   82X2IT    O5 2547   2.844   1.305   1.832
   82X2IT    O4 2548   2.696   1.153   1.744
   82X2IT   C13 2549   2.767   1.156   1.618
   82X2IT   C10 2550   2.888   1.062   1.619
   82X2IT    C9 2551   2.961   1.057   1.487
   82X2IT    C4 2552   2.964   0.928   1.439
   82X2IT    C5 2553   3.028   0.888   1.309
   82X2IT    O1 2554   3.030   0.769   1.275
   82X2IT    C6 2555   3.086   0.995   1.231
   82X2IT   C12 2556   3.152   0.962   1.098
   82X2IT    C7 2557   3.084   1.124   1.279
   82X2IT    C8 2558   3.019   1.163   1.412
   82X2IT    O2 2559   3.019   1.283   1.444
   82X2IT    N3 2560   3.137   1.229   1.214
   82X2IT   H15 2561   3.181   1.222   1.125
   82X2IT   H16 2562   3.128   1.321   1.259
   82X2IT    N2 2563   2.910   0.839   1.526
   82X2IT    C3 2564   2.836   0.716   1.496
   82X2IT    C2 2565   2.701   0.743   1.561
   82X2IT    H2 2566   2.635   0.659   1.585
   82X2IT    N1 2567   2.643   0.872   1.519
   82X2IT   H14 2568   2.542   0.871   1.535
   82X2IT    C1 2569   2.711   0.862   1.649
   82X2IT    H1 2570   2.656   0.872   1.742
   82X2IT   C11 2571   2.855   0.910   1.645
   82X2IT    O3 2572   2.911   0.861   1.766
   82X2IT   C15 2573   3.054   0.857   1.775
   83X2IT   H18 2574   1.477   1.617   0.516
   83X2IT    N4 2575   1.562   1.665   0.540
   83X2IT   H17 2576   1.623   1.692   0.464
   83X2IT   C14 2577   1.558   1.742   0.653
   83X2IT    O5 2578   1.472   1.736   0.739
   83X2IT    O4 2579   1.667   1.824   0.657
   83X2IT   C13 2580   1.680   1.907   0.774
   83X2IT   C10 2581   1.745   1.830   0.891
   83X2IT    C9 2582   1.766   1.915   1.014
   83X2IT    C4 2583   1.900   1.917   1.048
   83X2IT    C5 2584   1.956   1.993   1.165
   83X2IT    O1 2585   2.077   1.985   1.190
   83X2IT    C6 2586   1.862   2.071   1.242
   83X2IT   C12 2587   1.911   2.150   1.361
   83X2IT    C7 2588   1.728   2.068   1.208
   83X2IT    C8 2589   1.672   1.990   1.089
   83X2IT    O2 2590   1.551   1.999   1.065
   83X2IT    N3 2591   1.633   2.136   1.275
   83X2IT   H15 2592   1.652   2.194   1.354
   83X2IT   H16 2593   1.537   2.128   1.240
   83X2IT    N2 2594   1.974   1.835   0.969
   83X2IT    C3 2595   2.113   1.853   0.925
   83X2IT    C2 2596   2.100   1.857   0.774
   83X2IT    H2 2597   2.186   1.837   0.711
   83X2IT    N1 2598   1.999   1.956   0.729
   83X2IT   H14 2599   2.016   1.981   0.631
   83X2IT    C1 2600   1.963   1.813   0.735
   83X2IT    H1 2601   1.943   1.757   0.645
   83X2IT   C11 2602   1.889   1.774   0.862
   83X2IT    O3 2603   1.895   1.633   0.864
   83X2IT   C15 2604   1.869   1.568   0.989
   84X2IT   H18 2605   3.421   4.655   3.995
   84X2IT    N4 2606   3.518   4.682   3.989
   84X2IT   H17 2607   3.543   4.745   3.914
   84X2IT   C14 2608   3.587   4.689   4.107
   84X2IT    O5 2609   3.551   4.638   4.212
   84X2IT    O4 2610   3.704   4.756   4.089
   84X2IT   C13 2611   3.791   4.765   4.204
   84X2IT   C10 2612   3.877   4.638   4.219
   84X2IT    C9 2613   3.974   4.646   4.334
   84X2IT    C4 2614   4.104   4.629   4.289
   84X2IT    C5 2615   4.225   4.632   4.377
   84X2IT    O1 2616   4.337   4.612   4.328
   84X2IT    C6 2617   4.202   4.658   4.517
   84X2IT   C12 2618   4.319   4.663   4.612
   84X2IT    C7 2619   4.072   4.674   4.563
   84X2IT    C8 2620   3.949   4.670   4.472
   84X2IT    O2 2621   3.838   4.690   4.523
   84X2IT    N3 2622   4.040   4.697   4.691
   84X2IT   H15 2623   4.109   4.704   4.764
   84X2IT   H16 2624   3.941   4.709   4.714
   84X2IT    N2 2625   4.108   4.601   4.156
   84X2IT    C3 2626   4.211   4.640   4.058
   84X2IT    C2 2627   4.133   4.723   3.958
   84X2IT    H2 2628   4.172   4.738   3.858
   84X2IT    N1 2629   4.055   4.830   4.024
   84X2IT   H14 2630   4.032   4.903   3.955
   84X2IT    C1 2631   3.987   4.705   3.983
   84X2IT    H1 2632   3.913   4.705   3.904
   84X2IT   C11 2633   3.971   4.606   4.097
   84X2IT    O3 2634   3.937   4.484   4.032
   84X2IT   C15 2635   3.953   4.363   4.107
   85X2IT   H18 2636   1.433   2.449   0.573
   85X2IT    N4 2637   1.458   2.400   0.489
   85X2IT   H17 2638   1.423   2.305   0.479
   85X2IT   C14 2639   1.474   2.476   0.376
   85X2IT    O5 2640   1.490   2.597   0.375
   85X2IT    O4 2641   1.476   2.396   0.266
   85X2IT   C13 2642   1.500   2.462   0.140
   85X2IT   C10 2643   1.650   2.483   0.115
   85X2IT    C9 2644   1.680   2.546  -0.020
   85X2IT    C4 2645   1.763   2.464  -0.093
   85X2IT    C5 2646   1.811   2.496  -0.232
   85X2IT    O1 2647   1.889   2.418  -0.289
   85X2IT    C6 2648   1.763   2.619  -0.290
   85X2IT   C12 2649   1.808   2.658  -0.429
   85X2IT    C7 2650   1.681   2.702  -0.215
   85X2IT    C8 2651   1.633   2.668  -0.074
   85X2IT    O2 2652   1.556   2.747  -0.018
   85X2IT    N3 2653   1.633   2.819  -0.260
   85X2IT   H15 2654   1.653   2.855  -0.351
   85X2IT   H16 2655   1.571   2.871  -0.197
   85X2IT    N2 2656   1.802   2.354  -0.023
   85X2IT    C3 2657   1.830   2.219  -0.074
   85X2IT    C2 2658   1.730   2.134   0.002
   85X2IT    H2 2659   1.746   2.027   0.012
   85X2IT    N1 2660   1.592   2.187  -0.010
   85X2IT   H14 2661   1.525   2.112   0.011
   85X2IT    C1 2662   1.671   2.215   0.112
   85X2IT    H1 2663   1.642   2.173   0.208
   85X2IT   C11 2664   1.737   2.352   0.111
   85X2IT    O3 2665   1.832   2.345   0.216
   85X2IT   C15 2666   1.936   2.443   0.216
   86X2IT   H18 2667   1.157   0.615  -0.362
   86X2IT    N4 2668   1.164   0.544  -0.292
   86X2IT   H17 2669   1.153   0.448  -0.322
   86X2IT   C14 2670   1.245   0.571  -0.185
   86X2IT    O5 2671   1.287   0.682  -0.155
   86X2IT    O4 2672   1.270   0.457  -0.115
   86X2IT   C13 2673   1.349   0.471   0.005
   86X2IT   C10 2674   1.263   0.516   0.124
   86X2IT    C9 2675   1.342   0.525   0.253
   86X2IT    C4 2676   1.286   0.443   0.349
   86X2IT    C5 2677   1.341   0.428   0.489
   86X2IT    O1 2678   1.282   0.354   0.569
   86X2IT    C6 2679   1.459   0.504   0.520
   86X2IT   C12 2680   1.520   0.493   0.658
   86X2IT    C7 2681   1.514   0.587   0.424
   86X2IT    C8 2682   1.457   0.602   0.283
   86X2IT    O2 2683   1.517   0.676   0.203
   86X2IT    N3 2684   1.623   0.662   0.444
   86X2IT   H15 2685   1.674   0.663   0.531
   86X2IT   H16 2686   1.656   0.719   0.366
   86X2IT    N2 2687   1.173   0.383   0.306
   86X2IT    C3 2688   1.122   0.249   0.340
   86X2IT    C2 2689   1.117   0.180   0.205
   86X2IT    H2 2690   1.054   0.092   0.191
   86X2IT    N1 2691   1.245   0.190   0.132
   86X2IT   H14 2692   1.250   0.116   0.061
   86X2IT    C1 2693   1.134   0.281   0.097
   86X2IT    H1 2694   1.085   0.274   0.001
   86X2IT   C11 2695   1.146   0.418   0.163
   86X2IT    O3 2696   1.018   0.475   0.146
   86X2IT   C15 2697   0.985   0.587   0.230
   87X2IT   H18 2698   3.118   0.186  -0.055
   87X2IT    N4 2699   3.067   0.216   0.026
   87X2IT   H17 2700   3.085   0.168   0.113
   87X2IT   C14 2701   3.031   0.348   0.030
   87X2IT    O5 2702   3.030   0.424  -0.065
   87X2IT    O4 2703   2.991   0.381   0.157
   87X2IT   C13 2704   2.944   0.517   0.175
   87X2IT   C10 2705   2.796   0.530   0.134
   87X2IT    C9 2706   2.741   0.669   0.158
   87X2IT    C4 2707   2.632   0.663   0.243
   87X2IT    C5 2708   2.554   0.783   0.288
   87X2IT    O1 2709   2.455   0.768   0.362
   87X2IT    C6 2710   2.600   0.911   0.241
   87X2IT   C12 2711   2.526   1.037   0.282
   87X2IT    C7 2712   2.708   0.917   0.155
   87X2IT    C8 2713   2.786   0.794   0.109
   87X2IT    O2 2714   2.884   0.811   0.035
   87X2IT    N3 2715   2.756   1.031   0.104
   87X2IT   H15 2716   2.718   1.122   0.125
   87X2IT   H16 2717   2.838   1.024   0.042
   87X2IT    N2 2718   2.599   0.535   0.275
   87X2IT    C3 2719   2.542   0.485   0.402
   87X2IT    C2 2720   2.648   0.385   0.447
   87X2IT    H2 2721   2.622   0.308   0.519
   87X2IT    N1 2722   2.784   0.445   0.449
   87X2IT   H14 2723   2.844   0.390   0.511
   87X2IT    C1 2724   2.743   0.360   0.336
   87X2IT    H1 2725   2.790   0.264   0.319
   87X2IT   C11 2726   2.696   0.439   0.215
   87X2IT    O3 2727   2.631   0.343   0.134
   87X2IT   C15 2728   2.543   0.392   0.032
   88SOL     OW 2729   0.225   0.275   0.996
   88SOL    HW1 2730   0.260   0.258   1.088
   88SOL    HW2 2731   0.137   0.230   0.984
   89SOL     OW 2732   0.019   0.368   0.647
   89SOL    HW1 2733  -0.063   0.411   0.686
   89SOL    HW2 2734  -0.009   0.295   0.584
   90SOL     OW 2735   0.569   1.275   1.165
   90SOL    HW1 2736   0.476   1.268   1.128
   90SOL    HW2 2737   0.580   1.364   1.209
   91SOL     OW 2738   1.555   1.511   0.703
   91SOL    HW1 2739   1.498   1.495   0.784
   91SOL    HW2 2740   1.496   1.521   0.623
   92SOL     OW 2741   1.755   0.607   0.231
   92SOL    HW1 2742   1.743   0.594   0.132
   92SOL    HW2 2743   1.725   0.526   0.280
   93SOL     OW 2744   0.768   1.144   1.023
   93SOL    HW1 2745   0.690   1.161   1.083
   93SOL    HW2 2746   0.802   1.231   0.987
   94SOL     OW 2747   0.335   1.435   1.061
   94SOL    HW1 2748   0.257   1.404   1.008
   94SOL    HW2 2749   0.393   1.493   1.004
   95SOL     OW 2750   1.460   1.505   1.339
   95SOL    HW1 2751   1.484   1.599   1.365
   95SOL    HW2 2752   1.444   1.451   1.421
   96SOL     OW 2753   0.231   1.713   0.483
   96SOL    HW1 2754   0.265   1.790   0.537
   96SOL    HW2 2755   0.275   1.713   0.393
   97SOL     OW 2756   1.127   1.341   1.690
   97SOL    HW1 2757   1.174   1.341   1.778
   97SOL    HW2 2758   1.079   1.254   1.679
   98SOL     OW 2759   0.230   1.434   0.538
   98SOL    HW1 2760   0.204   1.530   0.538
   98SOL    HW2 2761   0.159   1.380   0.583
   99SOL     OW 2762   0.620   1.786   1.439
   99SOL    HW1 2763   0.528   1.769   1.474
   99SOL    HW2 2764   0.648   1.878   1.465
  100SOL     OW 2765   0.606   0.964   0.123
  100SOL    HW1 2766   0.613   1.048   0.069
  100SOL    HW2 2767   0.652   0.977   0.211
  101SOL     OW 2768   1.594   0.114   1.480
  101SOL    HW1 2769   1.576   0.181   1.408
  101SOL    HW2 2770   1.591   0.160   1.569
  102SOL     OW 2771   0.027   1.596   0.117
  102SOL    HW1 2772   0.008   1.500   0.138
  102SOL    HW2 2773  -0.006   1.654   0.192
  103SOL     OW 2774   1.689   0.922   0.612
  103SOL    HW1 2775   1.784   0.893   0.620
  103SOL    HW2 2776   1.681   0.987   0.537
  104SOL     OW 2777   1.641   1.108   0.432
  104SOL    HW1 2778   1.727   1.110   0.380
  104SOL    HW2 2779   1.655   1.155   0.520
  105SOL     OW 2780   0.613   1.365   0.726
  105SOL    HW1 2781   0.564   1.278   0.735
  105SOL    HW2 2782   0.590   1.408   0.639
  106SOL     OW 2783   1.293   1.228   1.423
  106SOL    HW1 2784   1.330   1.155   1.365
  106SOL    HW2 2785   1.345   1.233   1.508
  107SOL     OW 2786   0.809   0.004   0.502
  107SOL    HW1 2787   0.849   0.095   0.493
  107SOL    HW2 2788   0.709   0.012   0.508
  108SOL     OW 2789   0.197   0.976   1.264
  108SOL    HW1 2790   0.286   0.931   1.250
  108SOL    HW2 2791   0.124   0.911   1.245
  109SOL     OW 2792   1.525   0.999   0.190
  109SOL    HW1 2793   1.462   0.923   0.203
  109SOL    HW2 2794   1.573   1.017   0.276
  110SOL     OW 2795   1.187   1.792   1.616
  110SOL    HW1 2796   1.211   1.852   1.540
  110SOL    HW2 2797   1.194   1.697   1.586
  111SOL     OW 2798   1.466   1.417   0.953
  111SOL    HW1 2799   1.407   1.423   1.033
  111SOL    HW2 2800   1.451   1.329   0.907
  112SOL     OW 2801   1.281   0.345   0.944
  112SOL    HW1 2802   1.195   0.295   0.931
  112SOL    HW2 2803   1.343   0.291   1.000
  113SOL     OW 2804   1.576   1.662   0.307
  113SOL    HW1 2805   1.665   1.708   0.310
  113SOL    HW2 2806   1.555   1.638   0.212
  114SOL     OW 2807   1.394   0.469   1.674
  114SOL    HW1 2808   1.374   0.512   1.762
  114SOL    HW2 2809   1.472   0.407   1.683
  115SOL     OW 2810   0.991   0.410   1.242
  115SOL    HW1 2811   0.914   0.444   1.296
  115SOL    HW2 2812   0.957   0.359   1.163
  116SOL     OW 2813   1.041   0.701   0.429
  116SOL    HW1 2814   1.067   0.697   0.525
  116SOL    HW2 2815   0.956   0.650   0.415
  117SOL     OW 2816   0.130   1.821   1.571
  117SOL    HW1 2817   0.120   1.806   1.670
  117SOL    HW2 2818   0.044   1.857   1.535
  118SOL     OW 2819   1.719   0.585   1.831
  118SOL    HW1 2820   1.693   0.674   1.795
  118SOL    HW2 2821   1.717   0.517   1.758
  119SOL     OW 2822   1.008   1.456   0.477
  119SOL    HW1 2823   0.962   1.528   0.425
  119SOL    HW2 2824   1.004   1.476   0.575
  120SOL     OW 2825   0.351   1.801   0.853
  120SOL    HW1 2826   0.401   1.715   0.859
  120SOL    HW2 2827   0.416   1.878   0.850
  121SOL     OW 2828   1.795   1.066   0.873
  121SOL    HW1 2829   1.733   1.051   0.797
  121SOL    HW2 2830   1.743   1.077   0.958
  122SOL     OW 2831   1.227   1.550   1.506
  122SOL    HW1 2832   1.233   1.473   1.570
  122SOL    HW2 2833   1.175   1.524   1.426
  123SOL     OW 2834   0.321   0.943   0.242
  123SOL    HW1 2835   0.403   0.982   0.200
  123SOL    HW2 2836   0.294   0.861   0.193
  124SOL     OW 2837   1.458   0.735   0.728
  124SOL    HW1 2838   1.453   0.670   0.803
  124SOL    HW2 2839   1.538   0.794   0.741
  125SOL     OW 2840   0.461   1.266   1.727
  125SOL    HW1 2841   0.411   1.267   1.641
  125SOL    HW2 2842   0.398   1.248   1.803
  126SOL     OW 2843   1.111   1.776   0.237
  126SOL    HW1 2844   1.051   1.714   0.287
  126SOL    HW2 2845   1.142   1.732   0.152
  127SOL     OW 2846   0.202   0.285   1.498
  127SOL    HW1 2847   0.122   0.345   1.485
  127SOL    HW2 2848   0.192   0.236   1.584
  128SOL     OW 2849   1.632   1.377   0.081
  128SOL    HW1 2850   1.600   1.471   0.071
  128SOL    HW2 2851   1.556   1.314   0.069
  129SOL     OW 2852   0.464   1.743   0.323
  129SOL    HW1 2853   0.497   1.782   0.409
  129SOL    HW2 2854   0.540   1.736   0.258
  130SOL     OW 2855   1.400   0.107   0.426
  130SOL    HW1 2856   1.376   0.070   0.336
  130SOL    HW2 2857   1.499   0.123   0.430
  131SOL     OW 2858   1.547   0.222   1.729
  131SOL    HW1 2859   1.542   0.259   1.821
  131SOL    HW2 2860   1.475   0.153   1.717
  132SOL     OW 2861   0.781   0.264   1.749
  132SOL    HW1 2862   0.848   0.203   1.792
  132SOL    HW2 2863   0.708   0.283   1.814
  133SOL     OW 2864   0.888   1.514   1.195
  133SOL    HW1 2865   0.865   1.489   1.101
  133SOL    HW2 2866   0.949   1.445   1.234
  134SOL     OW 2867   1.351   0.590   1.433
  134SOL    HW1 2868   1.379   0.547   1.518
  134SOL    HW2 2869   1.376   0.686   1.434
  135SOL     OW 2870   1.434   1.188   0.041
  135SOL    HW1 2871   1.466   1.112   0.098
  135SOL    HW2 2872   1.342   1.215   0.071
  136SOL     OW 2873   1.227   1.570   0.793
  136SOL    HW1 2874   1.248   1.644   0.728
  136SOL    HW2 2875   1.295   1.570   0.866
  137SOL     OW 2876   0.459   1.152   0.741
  137SOL    HW1 2877   0.388   1.125   0.806
  137SOL    HW2 2878   0.433   1.124   0.648
  138SOL     OW 2879   1.271   1.797   0.591
  138SOL    HW1 2880   1.315   1.861   0.527
  138SOL    HW2 2881   1.221   1.849   0.661
  139SOL     OW 2882   0.078   0.556   1.386
  139SOL    HW1 2883   0.170   0.555   1.345
  139SOL    HW2 2884   0.072   0.630   1.453
  140SOL     OW 2885   1.017   0.039   0.753
  140SOL    HW1 2886   0.945   0.044   0.684
  140SOL    HW2 2887   0.993  -0.030   0.822
  141SOL     OW 2888   1.466   0.590   0.992
  141SOL    HW1 2889   1.436   0.495   0.999
  141SOL    HW2 2890   1.539   0.606   1.058
  142SOL     OW 2891   1.857   0.833   0.377
  142SOL    HW1 2892   1.899   0.769   0.441
  142SOL    HW2 2893   1.819   0.782   0.299
  143SOL     OW 2894   0.488   1.385   0.174
  143SOL    HW1 2895   0.401   1.370   0.221
  143SOL    HW2 2896   0.471   1.411   0.079
  144SOL     OW 2897   1.664   1.280   0.657
  144SOL    HW1 2898   1.763   1.288   0.671
  144SOL    HW2 2899   1.619   1.364   0.688
  145SOL     OW 2900   1.754   1.223   1.588
  145SOL    HW1 2901   1.845   1.184   1.575
  145SOL    HW2 2902   1.762   1.319   1.612
  146SOL     OW 2903   1.064   1.347   1.340
  146SOL    HW1 2904   0.984   1.324   1.395
  146SOL    HW2 2905   1.147   1.321   1.389
  147SOL     OW 2906   1.592   1.629   1.625
  147SOL    HW1 2907   1.619   1.663   1.535
  147SOL    HW2 2908   1.671   1.591   1.671
  148SOL     OW 2909   1.638   1.099   1.079
  148SOL    HW1 2910   1.643   1.180   1.138
  148SOL    HW2 2911   1.552   1.101   1.028
  149SOL     OW 2912   0.980   1.116   1.719
  149SOL    HW1 2913   0.881   1.122   1.729
  149SOL    HW2 2914   1.003   1.036   1.663
  150SOL     OW 2915   0.705   1.050   0.368
  150SOL    HW1 2916   0.691   1.057   0.467
  150SOL    HW2 2917   0.789   0.999   0.350
  151SOL     OW 2918   0.410   0.813   1.251
  151SOL    HW1 2919   0.496   0.825   1.301
  151SOL    HW2 2920   0.368   0.726   1.278
  152SOL     OW 2921   0.064   1.564   1.331
  152SOL    HW1 2922   0.018   1.646   1.297
  152SOL    HW2 2923   0.162   1.583   1.340
  153SOL     OW 2924   1.252   1.348   0.388
  153SOL    HW1 2925   1.302   1.425   0.428
  153SOL    HW2 2926   1.157   1.350   0.420
  154SOL     OW 2927   1.272   1.445   1.142
  154SOL    HW1 2928   1.319   1.458   1.229
  154SOL    HW2 2929   1.206   1.371   1.151
  155SOL     OW 2930   0.354   1.510   1.329
  155SOL    HW1 2931   0.333   1.466   1.242
  155SOL    HW2 2932   0.451   1.536   1.332
  156SOL     OW 2933   1.013   0.105   1.770
  156SOL    HW1 2934   1.019   0.190   1.718
  156SOL    HW2 2935   1.045   0.029   1.713
  157SOL     OW 2936   0.573   0.870   1.029
  157SOL    HW1 2937   0.617   0.959   1.020
  157SOL    HW2 2938   0.510   0.870   1.106
  158SOL     OW 2939   0.037   1.310   1.282
  158SOL    HW1 2940   0.090   1.261   1.350
  158SOL    HW2 2941   0.059   1.408   1.287
  159SOL     OW 2942   0.732   0.634   1.064
  159SOL    HW1 2943   0.791   0.608   0.988
  159SOL    HW2 2944   0.704   0.730   1.053
  160SOL     OW 2945   1.023   0.766   0.966
  160SOL    HW1 2946   1.038   0.787   1.062
  160SOL    HW2 2947   0.993   0.671   0.957
  161SOL     OW 2948   0.980   1.573   1.700
  161SOL    HW1 2949   0.960   1.617   1.612
  161SOL    HW2 2950   1.019   1.482   1.684
  162SOL     OW 2951   1.859   1.518   1.605
  162SOL    HW1 2952   1.873   1.545   1.510
  162SOL    HW2 2953   1.942   1.540   1.658
  163SOL     OW 2954   0.350   0.898   1.804
  163SOL    HW1 2955   0.426   0.942   1.852
  163SOL    HW2 2956   0.385   0.851   1.722
  164SOL     OW 2957   1.540   0.274   0.125
  164SOL    HW1 2958   1.479   0.199   0.148
  164SOL    HW2 2959   1.562   0.326   0.208
  165SOL     OW 2960   1.303   0.838   0.042
  165SOL    HW1 2961   1.337   0.745   0.057
  165SOL    HW2 2962   1.321   0.865  -0.053
  166SOL     OW 2963   0.319   0.810   0.949
  166SOL    HW1 2964   0.412   0.846   0.954
  166SOL    HW2 2965   0.313   0.725   1.001
  167SOL     OW 2966   0.008   1.326   0.200
  167SOL    HW1 2967  -0.085   1.347   0.169
  167SOL    HW2 2968   0.018   1.227   0.213
  168SOL     OW 2969   0.088   1.801   0.927
  168SOL    HW1 2970   0.046   1.715   0.900
  168SOL    HW2 2971   0.182   1.804   0.893
  169SOL     OW 2972   0.504   1.568   0.910
  169SOL    HW1 2973   0.570   1.642   0.919
  169SOL    HW2 2974   0.548   1.489   0.868
  170SOL     OW 2975   1.002   0.796   1.238
  170SOL    HW1 2976   1.043   0.764   1.324
  170SOL    HW2 2977   0.906   0.769   1.235
  171SOL     OW 2978   0.040   0.544   1.114
  171SOL    HW1 2979   0.125   0.511   1.073
  171SOL    HW2 2980   0.053   0.559   1.212
  172SOL     OW 2981   0.815   0.572   0.325
  172SOL    HW1 2982   0.822   0.483   0.279
  172SOL    HW2 2983   0.721   0.606   0.317
  173SOL     OW 2984   1.657   0.604   1.206
  173SOL    HW1 2985   1.619   0.535   1.268
  173SOL    HW2 2986   1.739   0.568   1.162
  174SOL     OW 2987   0.252   1.564   1.744
  174SOL    HW1 2988   0.222   1.621   1.820
  174SOL    HW2 2989   0.245   1.467   1.770
  175SOL     OW 2990   0.930   1.678   1.465
  175SOL    HW1 2991   0.906   1.660   1.370
  175SOL    HW2 2992   0.960   1.772   1.475
  176SOL     OW 2993   0.473   0.500   0.191
  176SOL    HW1 2994   0.534   0.580   0.195
  176SOL    HW2 2995   0.378   0.531   0.198
  177SOL     OW 2996   0.159   1.137   1.466
  177SOL    HW1 2997   0.181   1.076   1.542
  177SOL    HW2 2998   0.169   1.088   1.380
  178SOL     OW 2999   1.302   0.855   0.309
  178SOL    HW1 3000   1.216   0.824   0.351
  178SOL    HW2 3001   1.298   0.841   0.210
  179SOL     OW 3002   1.252   1.731   1.128
  179SOL    HW1 3003   1.336   1.736   1.074
  179SOL    HW2 3004   1.229   1.635   1.146
  180SOL     OW 3005   0.688   1.662   1.716
  180SOL    HW1 3006   0.632   1.743   1.725
  180SOL    HW2 3007   0.740   1.666   1.630
  181SOL     OW 3008   1.726   0.135   0.523
  181SOL    HW1 3009   1.799   0.118   0.456
  181SOL    HW2 3010   1.695   0.048   0.561
  182SOL     OW 3011   0.130   1.794   1.851
  182SOL    HW1 3012   0.089   1.720   1.904
  182SOL    HW2 3013   0.194   1.845   1.909
  183SOL     OW 3014   0.830   1.273   1.422
  183SOL    HW1 3015   0.825   1.306   1.517
  183SOL    HW2 3016   0.744   1.292   1.376
  184SOL     OW 3017   0.672   1.616   0.154
  184SOL    HW1 3018   0.681   1.626   0.055
  184SOL    HW2 3019   0.632   1.527   0.175
  185SOL     OW 3020   1.650   1.720   1.394
  185SOL    HW1 3021   1.703   1.730   1.310
  185SOL    HW2 3022   1.623   1.810   1.428
  186SOL     OW 3023   1.841   0.175   0.963
  186SOL    HW1 3024   1.880   0.090   0.927
  186SOL    HW2 3025   1.743   0.177   0.944
  187SOL     OW 3026   1.194   1.612   0.031
  187SOL    HW1 3027   1.200   1.519   0.068
  187SOL    HW2 3028   1.135   1.612  -0.049
  188SOL     OW 3029   0.822   1.002   1.372
  188SOL    HW1 3030   0.862   1.001   1.280
  188SOL    HW2 3031   0.832   1.094   1.412
  189SOL     OW 3032   0.916   0.910   0.291
  189SOL    HW1 3033   0.979   0.948   0.223
  189SOL    HW2 3034   0.956   0.827   0.330
  190SOL     OW 3035   0.372   1.288   1.490
  190SOL    HW1 3036   0.359   1.381   1.456
  190SOL    HW2 3037   0.288   1.236   1.477
  191SOL     OW 3038   1.614   1.292   1.289
  191SOL    HW1 3039   1.674   1.295   1.369
  191SOL    HW2 3040   1.539   1.356   1.302
  192SOL     OW 3041   1.014   0.236   0.971
  192SOL    HW1 3042   1.006   0.200   0.878
  192SOL    HW2 3043   1.012   0.160   1.036
  193SOL     OW 3044   0.590   1.487   0.491
  193SOL    HW1 3045   0.632   1.429   0.421
  193SOL    HW2 3046   0.546   1.566   0.447
  194SOL     OW 3047   1.709   0.385   1.381
  194SOL    HW1 3048   1.782   0.454   1.385
  194SOL    HW2 3049   1.737   0.310   1.322
  195SOL     OW 3050   0.255   1.348   0.290
  195SOL    HW1 3051   0.159   1.349   0.263
  195SOL    HW2 3052   0.267   1.401   0.374
  196SOL     OW 3053   0.105   1.013   1.726
  196SOL    HW1 3054   0.028   0.980   1.780
  196SOL    HW2 3055   0.190   0.983   1.768
  197SOL     OW 3056   0.075   0.345   0.033
  197SOL    HW1 3057  -0.017   0.317   0.004
  197SOL    HW2 3058   0.106   0.422  -0.023
  198SOL     OW 3059   1.440   0.856   1.398
  198SOL    HW1 3060   1.383   0.908   1.335
  198SOL    HW2 3061   1.536   0.868   1.374
  199SOL     OW 3062   0.072   0.166   0.318
  199SOL    HW1 3063   0.055   0.249   0.264
  199SOL    HW2 3064   0.162   0.129   0.296
  200SOL     OW 3065   1.183   1.335   0.119
  200SOL    HW1 3066   1.084   1.324   0.121
  200SOL    HW2 3067   1.217   1.350   0.212
  201SOL     OW 3068   0.613   0.842   1.431
  201SOL    HW1 3069   0.669   0.923   1.414
  201SOL    HW2 3070   0.672   0.762   1.434
  202SOL     OW 3071   1.493   1.767   0.959
  202SOL    HW1 3072   1.526   1.831   0.890
  202SOL    HW2 3073   1.559   1.761   1.034
  203SOL     OW 3074   0.390   1.741   1.560
  203SOL    HW1 3075   0.299   1.782   1.558
  203SOL    HW2 3076   0.383   1.647   1.592
  204SOL     OW 3077   1.674   0.883   1.254
  204SOL    HW1 3078   1.647   0.794   1.217
  204SOL    HW2 3079   1.675   0.951   1.181
  205SOL     OW 3080   1.777   0.342   1.642
  205SOL    HW1 3081   1.760   0.373   1.548
  205SOL    HW2 3082   1.693   0.305   1.680
  206SOL     OW 3083   0.859   1.374   0.016
  206SOL    HW1 3084   0.813   1.389   0.104
  206SOL    HW2 3085   0.903   1.459  -0.014
  207SOL     OW 3086   0.661   1.790   0.953
  207SOL    HW1 3087   0.615   1.878   0.940
  207SOL    HW2 3088   0.760   1.802   0.946
  208SOL     OW 3089   1.083   0.984   0.087
  208SOL    HW1 3090   1.060   1.037   0.005
  208SOL    HW2 3091   1.164   0.928   0.068
  209SOL     OW 3092   0.221   1.314   1.844
  209SOL    HW1 3093   0.156   1.241   1.823
  209SOL    HW2 3094   0.225   1.328   1.942
  210SOL     OW 3095   0.672   1.391   1.624
  210SOL    HW1 3096   0.594   1.341   1.662
  210SOL    HW2 3097   0.669   1.486   1.655
  211SOL     OW 3098   1.824   0.192   1.227
  211SOL    HW1 3099   1.820   0.102   1.271
  211SOL    HW2 3100   1.827   0.181   1.128
  212SOL     OW 3101   1.705   1.487   1.104
  212SOL    HW1 3102   1.612   1.462   1.077
  212SOL    HW2 3103   1.731   1.437   1.186
  213SOL     OW 3104   0.812   1.586   0.687
  213SOL    HW1 3105   0.844   1.596   0.593
  213SOL    HW2 3106   0.733   1.524   0.689
  214SOL     OW 3107   1.424   0.214   1.112
  214SOL    HW1 3108   1.476   0.149   1.167
  214SOL    HW2 3109   1.375   0.277   1.173
  215SOL     OW 3110   1.001   0.034   1.154
  215SOL    HW1 3111   0.938  -0.038   1.123
  215SOL    HW2 3112   1.094  -0.002   1.154
  216SOL     OW 3113   0.770   1.330   0.301
  216SOL    HW1 3114   0.724   1.243   0.318
  216SOL    HW2 3115   0.861   1.327   0.342
  217SOL     OW 3116   0.618   1.567   1.284
  217SOL    HW1 3117   0.613   1.649   1.341
  217SOL    HW2 3118   0.707   1.564   1.239
  218SOL     OW 3119   1.352   0.052   0.168
  218SOL    HW1 3120   1.387   0.011   0.084
  218SOL    HW2 3121   1.262   0.014   0.188
  219SOL     OW 3122   1.593   0.221   0.882
  219SOL    HW1 3123   1.509   0.220   0.936
  219SOL    HW2 3124   1.595   0.304   0.826
  220SOL     OW 3125   0.039   1.077   0.300
  220SOL    HW1 3126   0.138   1.066   0.291
  220SOL    HW2 3127  -0.001   0.991   0.332
  221SOL     OW 3128   0.875   1.646   0.337
  221SOL    HW1 3129   0.798   1.611   0.283
  221SOL    HW2 3130   0.843   1.717   0.399
  222SOL     OW 3131   0.230   0.628   1.975
  222SOL    HW1 3132   0.137   0.626   2.012
  222SOL    HW2 3133   0.231   0.589   1.883
  223SOL     OW 3134   0.225   0.275   2.858
  223SOL    HW1 3135   0.260   0.258   2.950
  223SOL    HW2 3136   0.137   0.230   2.846
  224SOL     OW 3137   0.019   0.368   2.509
  224SOL    HW1 3138  -0.063   0.411   2.548
  224SOL    HW2 3139  -0.009   0.295   2.446
  225SOL     OW 3140   0.569   1.275   3.027
  225SOL    HW1 3141   0.476   1.268   2.990
  225SOL    HW2 3142   0.580   1.364   3.071
  226SOL     OW 3143   1.555   1.511   2.565
  226SOL    HW1 3144   1.498   1.495   2.646
  226SOL    HW2 3145   1.496   1.521   2.485
  227SOL     OW 3146   1.135   0.703   2.579
  227SOL    HW1 3147   1.192   0.781   2.554
  227SOL    HW2 3148   1.075   0.729   2.655
  228SOL     OW 3149   1.755   0.607   2.093
  228SOL    HW1 3150   1.743   0.594   1.994
  228SOL    HW2 3151   1.725   0.526   2.142
  229SOL     OW 3152   0.768   1.144   2.885
  229SOL    HW1 3153   0.690   1.161   2.945
  229SOL    HW2 3154   0.802   1.231   2.849
  230SOL     OW 3155   0.335   1.435   2.923
  230SOL    HW1 3156   0.257   1.404   2.870
  230SOL    HW2 3157   0.393   1.493   2.866
  231SOL     OW 3158   1.460   1.505   3.201
  231SOL    HW1 3159   1.484   1.599   3.227
  231SOL    HW2 3160   1.444   1.451   3.283
  232SOL     OW 3161   1.603   0.447   2.599
  232SOL    HW1 3162   1.529   0.493   2.549
  232SOL    HW2 3163   1.654   0.515   2.652
  233SOL     OW 3164   0.231   1.713   2.345
  233SOL    HW1 3165   0.265   1.790   2.399
  233SOL    HW2 3166   0.275   1.713   2.255
  234SOL     OW 3167   0.230   1.434   2.400
  234SOL    HW1 3168   0.204   1.530   2.400
  234SOL    HW2 3169   0.159   1.380   2.445
  235SOL     OW 3170   0.240   1.091   2.748
  235SOL    HW1 3171   0.254   1.007   2.800
  235SOL    HW2 3172   0.185   1.155   2.803
  236SOL     OW 3173   0.620   1.786   3.301
  236SOL    HW1 3174   0.528   1.769   3.336
  236SOL    HW2 3175   0.648   1.878   3.327
  237SOL     OW 3176   0.027   1.596   1.979
  237SOL    HW1 3177   0.008   1.500   2.000
  237SOL    HW2 3178  -0.006   1.654   2.054
  238SOL     OW 3179   1.689   0.922   2.474
  238SOL    HW1 3180   1.784   0.893   2.482
  238SOL    HW2 3181   1.681   0.987   2.399
  239SOL     OW 3182   1.641   1.108   2.294
  239SOL    HW1 3183   1.727   1.110   2.242
  239SOL    HW2 3184   1.655   1.155   2.382
  240SOL     OW 3185   0.113   0.737   3.459
  240SOL    HW1 3186   0.201   0.724   3.504
  240SOL    HW2 3187   0.100   0.834   3.437
  241SOL     OW 3188   0.613   1.365   2.588
  241SOL    HW1 3189   0.564   1.278   2.597
  241SOL    HW2 3190   0.590   1.408   2.501
  242SOL     OW 3191   1.293   1.228   3.285
  242SOL    HW1 3192   1.330   1.155   3.227
  242SOL    HW2 3193   1.345   1.233   3.370
  243SOL     OW 3194   0.809   0.004   2.364
  243SOL    HW1 3195   0.849   0.095   2.355
  243SOL    HW2 3196   0.709   0.012   2.370
  244SOL     OW 3197   0.197   0.976   3.126
  244SOL    HW1 3198   0.286   0.931   3.112
  244SOL    HW2 3199   0.124   0.911   3.107
  245SOL     OW 3200   1.187   1.792   3.478
  245SOL    HW1 3201   1.211   1.852   3.402
  245SOL    HW2 3202   1.194   1.697   3.448
  246SOL     OW 3203   1.466   1.417   2.815
  246SOL    HW1 3204   1.407   1.423   2.895
  246SOL    HW2 3205   1.451   1.329   2.769
  247SOL     OW 3206   1.667   1.714   2.434
  247SOL    HW1 3207   1.626   1.691   2.346
  247SOL    HW2 3208   1.649   1.640   2.499
  248SOL     OW 3209   1.281   0.345   2.806
  248SOL    HW1 3210   1.195   0.295   2.793
  248SOL    HW2 3211   1.343   0.291   2.862
  249SOL     OW 3212   0.807   0.605   3.327
  249SOL    HW1 3213   0.760   0.602   3.416
  249SOL    HW2 3214   0.756   0.550   3.261
  250SOL     OW 3215   0.991   0.410   3.104
  250SOL    HW1 3216   0.914   0.444   3.158
  250SOL    HW2 3217   0.957   0.359   3.025
  251SOL     OW 3218   0.130   1.821   3.433
  251SOL    HW1 3219   0.120   1.806   3.532
  251SOL    HW2 3220   0.044   1.857   3.397
  252SOL     OW 3221   0.865   0.348   2.057
  252SOL    HW1 3222   0.924   0.411   2.008
  252SOL    HW2 3223   0.884   0.254   2.028
  253SOL     OW 3224   1.719   0.585   3.693
  253SOL    HW1 3225   1.693   0.674   3.657
  253SOL    HW2 3226   1.717   0.517   3.620
  254SOL     OW 3227   1.362   1.144   2.407
  254SOL    HW1 3228   1.445   1.115   2.359
  254SOL    HW2 3229   1.313   1.211   2.351
  255SOL     OW 3230   0.550   0.196   2.747
  255SOL    HW1 3231   0.545   0.191   2.847
  255SOL    HW2 3232   0.552   0.292   2.718
  256SOL     OW 3233   1.008   1.456   2.339
  256SOL    HW1 3234   0.962   1.528   2.287
  256SOL    HW2 3235   1.004   1.476   2.437
  257SOL     OW 3236   0.351   1.801   2.715
  257SOL    HW1 3237   0.401   1.715   2.721
  257SOL    HW2 3238   0.416   1.878   2.712
  258SOL     OW 3239   1.795   1.066   2.735
  258SOL    HW1 3240   1.733   1.051   2.659
  258SOL    HW2 3241   1.743   1.077   2.820
  259SOL     OW 3242   1.227   1.550   3.368
  259SOL    HW1 3243   1.233   1.473   3.432
  259SOL    HW2 3244   1.175   1.524   3.288
  260SOL     OW 3245   1.458   0.735   2.590
  260SOL    HW1 3246   1.453   0.670   2.665
  260SOL    HW2 3247   1.538   0.794   2.603
  261SOL     OW 3248   0.461   1.266   3.589
  261SOL    HW1 3249   0.411   1.267   3.503
  261SOL    HW2 3250   0.398   1.248   3.665
  262SOL     OW 3251   1.111   1.776   2.099
  262SOL    HW1 3252   1.051   1.714   2.149
  262SOL    HW2 3253   1.142   1.732   2.014
  263SOL     OW 3254   0.202   0.285   3.360
  263SOL    HW1 3255   0.122   0.345   3.347
  263SOL    HW2 3256   0.192   0.236   3.446
  264SOL     OW 3257   1.632   1.377   1.943
  264SOL    HW1 3258   1.600   1.471   1.933
  264SOL    HW2 3259   1.556   1.314   1.931
  265SOL     OW 3260   0.464   1.743   2.185
  265SOL    HW1 3261   0.497   1.782   2.271
  265SOL    HW2 3262   0.540   1.736   2.120
  266SOL     OW 3263   1.400   0.107   2.288
  266SOL    HW1 3264   1.376   0.070   2.198
  266SOL    HW2 3265   1.499   0.123   2.292
  267SOL     OW 3266   0.249   1.785   3.103
  267SOL    HW1 3267   0.306   1.720   3.153
  267SOL    HW2 3268   0.233   1.752   3.010
  268SOL     OW 3269   1.547   0.222   3.591
  268SOL    HW1 3270   1.542   0.259   3.683
  268SOL    HW2 3271   1.475   0.153   3.579
  269SOL     OW 3272   0.614   0.122   1.979
  269SOL    HW1 3273   0.712   0.100   1.986
  269SOL    HW2 3274   0.583   0.105   1.886
  270SOL     OW 3275   1.351   0.590   3.295
  270SOL    HW1 3276   1.379   0.547   3.380
  270SOL    HW2 3277   1.376   0.686   3.296
  271SOL     OW 3278   0.803   1.402   2.786
  271SOL    HW1 3279   0.893   1.416   2.744
  271SOL    HW2 3280   0.732   1.404   2.715
  272SOL     OW 3281   0.922   0.503   2.761
  272SOL    HW1 3282   0.897   0.494   2.665
  272SOL    HW2 3283   0.970   0.421   2.792
  273SOL     OW 3284   0.539   0.064   2.374
  273SOL    HW1 3285   0.458   0.065   2.432
  273SOL    HW2 3286   0.542   0.147   2.319
  274SOL     OW 3287   0.297   0.035   2.033
  274SOL    HW1 3288   0.346   0.119   2.012
  274SOL    HW2 3289   0.359  -0.030   2.078
  275SOL     OW 3290   0.935   0.236   2.342
  275SOL    HW1 3291   0.887   0.277   2.264
  275SOL    HW2 3292   1.034   0.234   2.323
  276SOL     OW 3293   0.078   0.556   3.248
  276SOL    HW1 3294   0.170   0.555   3.207
  276SOL    HW2 3295   0.072   0.630   3.315
  277SOL     OW 3296   0.561   0.222   3.009
  277SOL    HW1 3297   0.599   0.138   3.046
  277SOL    HW2 3298   0.473   0.241   3.053
  278SOL     OW 3299   0.866   0.454   2.504
  278SOL    HW1 3300   0.834   0.526   2.442
  278SOL    HW2 3301   0.890   0.373   2.451
  279SOL     OW 3302   1.017   0.039   2.615
  279SOL    HW1 3303   0.945   0.044   2.546
  279SOL    HW2 3304   0.993  -0.030   2.684
  280SOL     OW 3305   1.429   1.173   2.729
  280SOL    HW1 3306   1.374   1.089   2.722
  280SOL    HW2 3307   1.455   1.202   2.637
  281SOL     OW 3308   1.466   0.590   2.854
  281SOL    HW1 3309   1.436   0.495   2.861
  281SOL    HW2 3310   1.539   0.606   2.920
  282SOL     OW 3311   0.488   1.385   2.036
  282SOL    HW1 3312   0.401   1.370   2.083
  282SOL    HW2 3313   0.471   1.411   1.941
  283SOL     OW 3314   1.390   0.575   1.940
  283SOL    HW1 3315   1.336   0.554   2.021
  283SOL    HW2 3316   1.481   0.534   1.949
  284SOL     OW 3317   0.527   0.256   2.190
  284SOL    HW1 3318   0.554   0.197   2.115
  284SOL    HW2 3319   0.527   0.351   2.159
  285SOL     OW 3320   1.064   1.347   3.202
  285SOL    HW1 3321   0.984   1.324   3.257
  285SOL    HW2 3322   1.147   1.321   3.251
  286SOL     OW 3323   1.592   1.629   3.487
  286SOL    HW1 3324   1.619   1.663   3.397
  286SOL    HW2 3325   1.671   1.591   3.533
  287SOL     OW 3326   1.111   1.195   2.962
  287SOL    HW1 3327   1.071   1.239   3.043
  287SOL    HW2 3328   1.070   1.232   2.879
  288SOL     OW 3329   1.638   1.099   2.941
  288SOL    HW1 3330   1.643   1.180   3.000
  288SOL    HW2 3331   1.552   1.101   2.890
  289SOL     OW 3332   0.915   0.089   3.264
  289SOL    HW1 3333   0.940   0.069   3.169
  289SOL    HW2 3334   0.987   0.145   3.306
  290SOL     OW 3335   0.410   0.813   3.113
  290SOL    HW1 3336   0.496   0.825   3.163
  290SOL    HW2 3337   0.368   0.726   3.140
  291SOL     OW 3338   1.274   0.386   3.124
  291SOL    HW1 3339   1.295   0.460   3.188
  291SOL    HW2 3340   1.185   0.403   3.081
  292SOL     OW 3341   0.064   1.564   3.193
  292SOL    HW1 3342   0.018   1.646   3.159
  292SOL    HW2 3343   0.162   1.583   3.202
  293SOL     OW 3344   0.566   0.537   2.727
  293SOL    HW1 3345   0.578   0.603   2.653
  293SOL    HW2 3346   0.612   0.571   2.810
  294SOL     OW 3347   1.252   1.348   2.250
  294SOL    HW1 3348   1.302   1.425   2.290
  294SOL    HW2 3349   1.157   1.350   2.282
  295SOL     OW 3350   1.272   1.445   3.004
  295SOL    HW1 3351   1.319   1.458   3.091
  295SOL    HW2 3352   1.206   1.371   3.013
  296SOL     OW 3353   1.582   0.639   2.334
  296SOL    HW1 3354   1.551   0.700   2.407
  296SOL    HW2 3355   1.632   0.691   2.265
  297SOL     OW 3356   0.354   1.510   3.191
  297SOL    HW1 3357   0.333   1.466   3.104
  297SOL    HW2 3358   0.451   1.536   3.194
  298SOL     OW 3359   0.402   0.751   3.460
  298SOL    HW1 3360   0.470   0.806   3.413
  298SOL    HW2 3361   0.442   0.663   3.487
  299SOL     OW 3362   1.587   0.779   3.532
  299SOL    HW1 3363   1.495   0.817   3.527
  299SOL    HW2 3364   1.647   0.826   3.467
  300SOL     OW 3365   0.504   0.050   3.602
  300SOL    HW1 3366   0.462  -0.007   3.532
  300SOL    HW2 3367   0.438   0.119   3.634
  301SOL     OW 3368   1.360   0.862   2.907
  301SOL    HW1 3369   1.285   0.862   2.841
  301SOL    HW2 3370   1.397   0.770   2.916
  302SOL     OW 3371   0.307   0.213   3.093
  302SOL    HW1 3372   0.284   0.250   3.183
  302SOL    HW2 3373   0.277   0.118   3.087
  303SOL     OW 3374   0.037   1.310   3.144
  303SOL    HW1 3375   0.090   1.261   3.212
  303SOL    HW2 3376   0.059   1.408   3.149
  304SOL     OW 3377   0.732   0.634   2.926
  304SOL    HW1 3378   0.791   0.608   2.850
  304SOL    HW2 3379   0.704   0.730   2.915
  305SOL     OW 3380   1.728   0.935   3.716
  305SOL    HW1 3381   1.682   0.928   3.627
  305SOL    HW2 3382   1.666   0.979   3.782
  306SOL     OW 3383   0.307   0.063   2.480
  306SOL    HW1 3384   0.296   0.157   2.513
  306SOL    HW2 3385   0.302   0.000   2.557
  307SOL     OW 3386   1.622   0.367   2.236
  307SOL    HW1 3387   1.624   0.291   2.300
  307SOL    HW2 3388   1.574   0.444   2.276
  308SOL     OW 3389   1.023   0.766   2.828
  308SOL    HW1 3390   1.038   0.787   2.924
  308SOL    HW2 3391   0.993   0.671   2.819
  309SOL     OW 3392   0.980   1.573   3.562
  309SOL    HW1 3393   0.960   1.617   3.474
  309SOL    HW2 3394   1.019   1.482   3.546
  310SOL     OW 3395   0.350   0.898   3.666
  310SOL    HW1 3396   0.426   0.942   3.714
  310SOL    HW2 3397   0.385   0.851   3.584
  311SOL     OW 3398   1.540   0.274   1.987
  311SOL    HW1 3399   1.479   0.199   2.010
  311SOL    HW2 3400   1.562   0.326   2.070
  312SOL     OW 3401   1.303   0.838   1.904
  312SOL    HW1 3402   1.337   0.745   1.919
  312SOL    HW2 3403   1.321   0.865   1.809
  313SOL     OW 3404   1.068   1.333   2.711
  313SOL    HW1 3405   1.075   1.249   2.656
  313SOL    HW2 3406   1.130   1.402   2.675
  314SOL     OW 3407   0.339   0.509   2.868
  314SOL    HW1 3408   0.287   0.426   2.851
  314SOL    HW2 3409   0.416   0.514   2.804
  315SOL     OW 3410   1.138   0.380   3.540
  315SOL    HW1 3411   1.093   0.443   3.604
  315SOL    HW2 3412   1.231   0.411   3.523
  316SOL     OW 3413   1.160   0.207   3.339
  316SOL    HW1 3414   1.160   0.271   3.416
  316SOL    HW2 3415   1.188   0.255   3.256
  317SOL     OW 3416   0.008   1.326   2.062
  317SOL    HW1 3417  -0.085   1.347   2.031
  317SOL    HW2 3418   0.018   1.227   2.075
  318SOL     OW 3419   0.504   1.568   2.772
  318SOL    HW1 3420   0.570   1.642   2.781
  318SOL    HW2 3421   0.548   1.489   2.730
  319SOL     OW 3422   1.002   0.796   3.100
  319SOL    HW1 3423   1.043   0.764   3.186
  319SOL    HW2 3424   0.906   0.769   3.097
  320SOL     OW 3425   0.040   0.544   2.976
  320SOL    HW1 3426   0.125   0.511   2.935
  320SOL    HW2 3427   0.053   0.559   3.074
  321SOL     OW 3428   0.189   0.520   3.584
  321SOL    HW1 3429   0.248   0.480   3.514
  321SOL    HW2 3430   0.131   0.591   3.543
  322SOL     OW 3431   1.369   0.950   3.522
  322SOL    HW1 3432   1.408   1.039   3.542
  322SOL    HW2 3433   1.379   0.930   3.425
  323SOL     OW 3434   0.815   0.572   2.187
  323SOL    HW1 3435   0.822   0.483   2.141
  323SOL    HW2 3436   0.721   0.606   2.179
  324SOL     OW 3437   1.657   0.604   3.068
  324SOL    HW1 3438   1.619   0.535   3.130
  324SOL    HW2 3439   1.739   0.568   3.024
  325SOL     OW 3440   0.252   1.564   3.606
  325SOL    HW1 3441   0.222   1.621   3.682
  325SOL    HW2 3442   0.245   1.467   3.632
  326SOL     OW 3443   0.671   0.464   3.131
  326SOL    HW1 3444   0.637   0.375   3.101
  326SOL    HW2 3445   0.697   0.518   3.051
  327SOL     OW 3446   0.930   1.678   3.327
  327SOL    HW1 3447   0.906   1.660   3.232
  327SOL    HW2 3448   0.960   1.772   3.337
  328SOL     OW 3449   0.159   1.137   3.328
  328SOL    HW1 3450   0.181   1.076   3.404
  328SOL    HW2 3451   0.169   1.088   3.242
  329SOL     OW 3452   1.347   1.059   3.096
  329SOL    HW1 3453   1.371   0.996   3.022
  329SOL    HW2 3454   1.257   1.099   3.078
  330SOL     OW 3455   1.302   0.855   2.171
  330SOL    HW1 3456   1.216   0.824   2.213
  330SOL    HW2 3457   1.298   0.841   2.072
  331SOL     OW 3458   0.083   1.258   2.884
  331SOL    HW1 3459   0.078   1.257   2.984
  331SOL    HW2 3460   0.000   1.217   2.846
  332SOL     OW 3461   0.688   1.662   3.578
  332SOL    HW1 3462   0.632   1.743   3.587
  332SOL    HW2 3463   0.740   1.666   3.492
  333SOL     OW 3464   1.726   0.135   2.385
  333SOL    HW1 3465   1.799   0.118   2.318
  333SOL    HW2 3466   1.695   0.048   2.423
  334SOL     OW 3467   0.130   1.794   3.713
  334SOL    HW1 3468   0.089   1.720   3.766
  334SOL    HW2 3469   0.194   1.845   3.771
  335SOL     OW 3470   1.280   0.927   2.534
  335SOL    HW1 3471   1.340   0.846   2.536
  335SOL    HW2 3472   1.320   0.996   2.474
  336SOL     OW 3473   0.672   1.616   2.016
  336SOL    HW1 3474   0.681   1.626   1.917
  336SOL    HW2 3475   0.632   1.527   2.037
  337SOL     OW 3476   1.650   1.720   3.256
  337SOL    HW1 3477   1.703   1.730   3.172
  337SOL    HW2 3478   1.623   1.810   3.290
  338SOL     OW 3479   1.841   0.175   2.825
  338SOL    HW1 3480   1.880   0.090   2.789
  338SOL    HW2 3481   1.743   0.177   2.806
  339SOL     OW 3482   0.263   0.326   2.582
  339SOL    HW1 3483   0.184   0.377   2.548
  339SOL    HW2 3484   0.254   0.311   2.680
  340SOL     OW 3485   1.194   1.612   1.893
  340SOL    HW1 3486   1.200   1.519   1.930
  340SOL    HW2 3487   1.135   1.612   1.813
  341SOL     OW 3488   0.822   1.002   3.234
  341SOL    HW1 3489   0.862   1.001   3.142
  341SOL    HW2 3490   0.832   1.094   3.274
  342SOL     OW 3491   0.916   0.910   2.153
  342SOL    HW1 3492   0.979   0.948   2.085
  342SOL    HW2 3493   0.956   0.827   2.192
  343SOL     OW 3494   1.504   1.607   1.906
  343SOL    HW1 3495   1.412   1.644   1.913
  343SOL    HW2 3496   1.542   1.627   1.816
  344SOL     OW 3497   0.372   1.288   3.352
  344SOL    HW1 3498   0.359   1.381   3.318
  344SOL    HW2 3499   0.288   1.236   3.339
  345SOL     OW 3500   1.614   1.292   3.151
  345SOL    HW1 3501   1.674   1.295   3.231
  345SOL    HW2 3502   1.539   1.356   3.164
  346SOL     OW 3503   1.039   1.098   2.558
  346SOL    HW1 3504   0.969   1.051   2.612
  346SOL    HW2 3505   1.098   1.030   2.515
  347SOL     OW 3506   1.014   0.236   2.833
  347SOL    HW1 3507   1.006   0.200   2.740
  347SOL    HW2 3508   1.012   0.160   2.898
  348SOL     OW 3509   0.590   1.487   2.353
  348SOL    HW1 3510   0.632   1.429   2.283
  348SOL    HW2 3511   0.546   1.566   2.309
  349SOL     OW 3512   0.255   1.348   2.152
  349SOL    HW1 3513   0.159   1.349   2.125
  349SOL    HW2 3514   0.267   1.401   2.236
  350SOL     OW 3515   0.105   1.013   3.588
  350SOL    HW1 3516   0.028   0.980   3.642
  350SOL    HW2 3517   0.190   0.983   3.630
  351SOL     OW 3518   1.440   0.856   3.260
  351SOL    HW1 3519   1.383   0.908   3.197
  351SOL    HW2 3520   1.536   0.868   3.236
  352SOL     OW 3521   1.183   1.335   1.981
  352SOL    HW1 3522   1.084   1.324   1.983
  352SOL    HW2 3523   1.217   1.350   2.074
  353SOL     OW 3524   0.613   0.842   3.293
  353SOL    HW1 3525   0.669   0.923   3.276
  353SOL    HW2 3526   0.672   0.762   3.296
  354SOL     OW 3527   0.716   0.565   3.570
  354SOL    HW1 3528   0.735   0.630   3.644
  354SOL    HW2 3529   0.776   0.485   3.579
  355SOL     OW 3530   1.450   1.220   3.495
  355SOL    HW1 3531   1.441   1.210   3.594
  355SOL    HW2 3532   1.546   1.213   3.469
  356SOL     OW 3533   0.390   1.741   3.422
  356SOL    HW1 3534   0.299   1.782   3.420
  356SOL    HW2 3535   0.383   1.647   3.454
  357SOL     OW 3536   1.674   0.883   3.116
  357SOL    HW1 3537   1.647   0.794   3.079
  357SOL    HW2 3538   1.675   0.951   3.043
  358SOL     OW 3539   0.594   0.745   2.514
  358SOL    HW1 3540   0.644   0.830   2.495
  358SOL    HW2 3541   0.506   0.747   2.466
  359SOL     OW 3542   1.730   0.934   3.379
  359SOL    HW1 3543   1.768   1.025   3.394
  359SOL    HW2 3544   1.722   0.917   3.280
  360SOL     OW 3545   0.859   1.374   1.878
  360SOL    HW1 3546   0.813   1.389   1.966
  360SOL    HW2 3547   0.903   1.459   1.848
  361SOL     OW 3548   0.661   1.790   2.815
  361SOL    HW1 3549   0.615   1.878   2.802
  361SOL    HW2 3550   0.760   1.802   2.808
  362SOL     OW 3551   0.859   0.956   2.723
  362SOL    HW1 3552   0.913   0.887   2.771
  362SOL    HW2 3553   0.827   1.025   2.789
  363SOL     OW 3554   1.083   0.984   1.949
  363SOL    HW1 3555   1.060   1.037   1.867
  363SOL    HW2 3556   1.164   0.928   1.930
  364SOL     OW 3557   0.221   1.314   3.706
  364SOL    HW1 3558   0.156   1.241   3.685
  364SOL    HW2 3559   0.225   1.328   3.804
  365SOL     OW 3560   0.079   1.240   2.515
  365SOL    HW1 3561   0.078   1.193   2.603
  365SOL    HW2 3562   0.161   1.212   2.464
  366SOL     OW 3563   0.672   1.391   3.486
  366SOL    HW1 3564   0.594   1.341   3.524
  366SOL    HW2 3565   0.669   1.486   3.517
  367SOL     OW 3566   0.428   0.424   2.382
  367SOL    HW1 3567   0.458   0.352   2.320
  367SOL    HW2 3568   0.389   0.384   2.465
  368SOL     OW 3569   0.317   0.547   3.142
  368SOL    HW1 3570   0.355   0.488   3.214
  368SOL    HW2 3571   0.357   0.521   3.054
  369SOL     OW 3572   0.812   1.586   2.549
  369SOL    HW1 3573   0.844   1.596   2.455
  369SOL    HW2 3574   0.733   1.524   2.551
  370SOL     OW 3575   1.424   0.214   2.974
  370SOL    HW1 3576   1.476   0.149   3.029
  370SOL    HW2 3577   1.375   0.277   3.035
  371SOL     OW 3578   1.001   0.034   3.016
  371SOL    HW1 3579   0.938  -0.038   2.985
  371SOL    HW2 3580   1.094  -0.002   3.016
  372SOL     OW 3581   0.770   1.330   2.163
  372SOL    HW1 3582   0.724   1.243   2.180
  372SOL    HW2 3583   0.861   1.327   2.204
  373SOL     OW 3584   0.618   1.567   3.146
  373SOL    HW1 3585   0.613   1.649   3.203
  373SOL    HW2 3586   0.707   1.564   3.101
  374SOL     OW 3587   1.352   0.052   2.030
  374SOL    HW1 3588   1.387   0.011   1.946
  374SOL    HW2 3589   1.262   0.014   2.050
  375SOL     OW 3590   1.300   0.453   2.553
  375SOL    HW1 3591   1.241   0.533   2.557
  375SOL    HW2 3592   1.315   0.418   2.646
  376SOL     OW 3593   1.593   0.221   2.744
  376SOL    HW1 3594   1.509   0.220   2.798
  376SOL    HW2 3595   1.595   0.304   2.688
  377SOL     OW 3596   0.875   1.646   2.199
  377SOL    HW1 3597   0.798   1.611   2.145
  377SOL    HW2 3598   0.843   1.717   2.261
  378SOL     OW 3599   0.230   0.628   3.837
  378SOL    HW1 3600   0.137   0.626   3.874
  378SOL    HW2 3601   0.231   0.589   3.745
  379SOL     OW 3602   0.225   0.275   4.720
  379SOL    HW1 3603   0.260   0.258   4.812
  379SOL    HW2 3604   0.137   0.230   4.708
  380SOL     OW 3605   0.569   1.275   4.889
  380SOL    HW1 3606   0.476   1.268   4.852
  380SOL    HW2 3607   0.580   1.364   4.933
  381SOL     OW 3608   1.555   1.511   4.427
  381SOL    HW1 3609   1.498   1.495   4.508
  381SOL    HW2 3610   1.496   1.521   4.347
  382SOL     OW 3611   1.135   0.703   4.441
  382SOL    HW1 3612   1.192   0.781   4.416
  382SOL    HW2 3613   1.075   0.729   4.517
  383SOL     OW 3614   1.755   0.607   3.955
  383SOL    HW1 3615   1.743   0.594   3.856
  383SOL    HW2 3616   1.725   0.526   4.004
  384SOL     OW 3617   0.768   1.144   4.747
  384SOL    HW1 3618   0.690   1.161   4.807
  384SOL    HW2 3619   0.802   1.231   4.711
  385SOL     OW 3620   0.685   1.012   4.389
  385SOL    HW1 3621   0.754   0.996   4.459
  385SOL    HW2 3622   0.612   1.069   4.427
  386SOL     OW 3623   0.335   1.435   4.785
  386SOL    HW1 3624   0.257   1.404   4.732
  386SOL    HW2 3625   0.393   1.493   4.728
  387SOL     OW 3626   0.231   1.713   4.207
  387SOL    HW1 3627   0.265   1.790   4.261
  387SOL    HW2 3628   0.275   1.713   4.117
  388SOL     OW 3629   0.230   1.434   4.262
  388SOL    HW1 3630   0.204   1.530   4.262
  388SOL    HW2 3631   0.159   1.380   4.307
  389SOL     OW 3632   0.240   1.091   4.610
  389SOL    HW1 3633   0.254   1.007   4.662
  389SOL    HW2 3634   0.185   1.155   4.665
  390SOL     OW 3635   0.620   1.786   5.163
  390SOL    HW1 3636   0.528   1.769   5.198
  390SOL    HW2 3637   0.648   1.878   5.189
  391SOL     OW 3638   1.842   1.767   4.083
  391SOL    HW1 3639   1.896   1.738   4.163
  391SOL    HW2 3640   1.872   1.857   4.054
  392SOL     OW 3641   0.027   1.596   3.841
  392SOL    HW1 3642   0.008   1.500   3.862
  392SOL    HW2 3643  -0.006   1.654   3.916
  393SOL     OW 3644   1.689   0.922   4.336
  393SOL    HW1 3645   1.784   0.893   4.344
  393SOL    HW2 3646   1.681   0.987   4.261
  394SOL     OW 3647   1.641   1.108   4.156
  394SOL    HW1 3648   1.727   1.110   4.104
  394SOL    HW2 3649   1.655   1.155   4.244
  395SOL     OW 3650   0.613   1.365   4.450
  395SOL    HW1 3651   0.564   1.278   4.459
  395SOL    HW2 3652   0.590   1.408   4.363
  396SOL     OW 3653   0.197   0.976   4.988
  396SOL    HW1 3654   0.286   0.931   4.974
  396SOL    HW2 3655   0.124   0.911   4.969
  397SOL     OW 3656   1.525   0.999   3.914
  397SOL    HW1 3657   1.462   0.923   3.927
  397SOL    HW2 3658   1.573   1.017   4.000
  398SOL     OW 3659   1.466   1.417   4.677
  398SOL    HW1 3660   1.407   1.423   4.757
  398SOL    HW2 3661   1.451   1.329   4.631
  399SOL     OW 3662   1.667   1.714   4.296
  399SOL    HW1 3663   1.626   1.691   4.208
  399SOL    HW2 3664   1.649   1.640   4.361
  400SOL     OW 3665   0.598   0.729   3.994
  400SOL    HW1 3666   0.622   0.798   3.926
  400SOL    HW2 3667   0.520   0.762   4.048
  401SOL     OW 3668   1.281   0.345   4.668
  401SOL    HW1 3669   1.195   0.295   4.655
  401SOL    HW2 3670   1.343   0.291   4.724
  402SOL     OW 3671   1.576   1.662   4.031
  402SOL    HW1 3672   1.665   1.708   4.034
  402SOL    HW2 3673   1.555   1.638   3.936
  403SOL     OW 3674   0.991   0.410   4.966
  403SOL    HW1 3675   0.914   0.444   5.020
  403SOL    HW2 3676   0.957   0.359   4.887
  404SOL     OW 3677   1.041   0.701   4.153
  404SOL    HW1 3678   1.067   0.697   4.249
  404SOL    HW2 3679   0.956   0.650   4.139
  405SOL     OW 3680   0.130   1.821   5.295
  405SOL    HW1 3681   0.120   1.806   5.394
  405SOL    HW2 3682   0.044   1.857   5.259
  406SOL     OW 3683   0.865   0.348   3.919
  406SOL    HW1 3684   0.924   0.411   3.870
  406SOL    HW2 3685   0.884   0.254   3.890
  407SOL     OW 3686   1.362   1.144   4.269
  407SOL    HW1 3687   1.445   1.115   4.221
  407SOL    HW2 3688   1.313   1.211   4.213
  408SOL     OW 3689   0.550   0.196   4.609
  408SOL    HW1 3690   0.545   0.191   4.709
  408SOL    HW2 3691   0.552   0.292   4.580
  409SOL     OW 3692   1.008   1.456   4.201
  409SOL    HW1 3693   0.962   1.528   4.149
  409SOL    HW2 3694   1.004   1.476   4.299
  410SOL     OW 3695   0.351   1.801   4.577
  410SOL    HW1 3696   0.401   1.715   4.583
  410SOL    HW2 3697   0.416   1.878   4.574
  411SOL     OW 3698   1.795   1.066   4.597
  411SOL    HW1 3699   1.733   1.051   4.521
  411SOL    HW2 3700   1.743   1.077   4.682
  412SOL     OW 3701   0.321   0.943   3.966
  412SOL    HW1 3702   0.403   0.982   3.924
  412SOL    HW2 3703   0.294   0.861   3.917
  413SOL     OW 3704   1.458   0.735   4.452
  413SOL    HW1 3705   1.453   0.670   4.527
  413SOL    HW2 3706   1.538   0.794   4.465
  414SOL     OW 3707   1.111   1.776   3.961
  414SOL    HW1 3708   1.051   1.714   4.011
  414SOL    HW2 3709   1.142   1.732   3.876
  415SOL     OW 3710   1.632   1.377   3.805
  415SOL    HW1 3711   1.600   1.471   3.795
  415SOL    HW2 3712   1.556   1.314   3.793
  416SOL     OW 3713   0.464   1.743   4.047
  416SOL    HW1 3714   0.497   1.782   4.133
  416SOL    HW2 3715   0.540   1.736   3.982
  417SOL     OW 3716   1.400   0.107   4.150
  417SOL    HW1 3717   1.376   0.070   4.060
  417SOL    HW2 3718   1.499   0.123   4.154
  418SOL     OW 3719   0.249   1.785   4.965
  418SOL    HW1 3720   0.306   1.720   5.015
  418SOL    HW2 3721   0.233   1.752   4.872
  419SOL     OW 3722   0.940   1.698   4.628
  419SOL    HW1 3723   1.020   1.641   4.649
  419SOL    HW2 3724   0.891   1.658   4.551
  420SOL     OW 3725   0.382   0.700   4.204
  420SOL    HW1 3726   0.427   0.610   4.201
  420SOL    HW2 3727   0.288   0.689   4.237
  421SOL     OW 3728   0.803   1.402   4.648
  421SOL    HW1 3729   0.893   1.416   4.606
  421SOL    HW2 3730   0.732   1.404   4.577
  422SOL     OW 3731   0.922   0.503   4.623
  422SOL    HW1 3732   0.897   0.494   4.527
  422SOL    HW2 3733   0.970   0.421   4.654
  423SOL     OW 3734   0.539   0.064   4.236
  423SOL    HW1 3735   0.458   0.065   4.294
  423SOL    HW2 3736   0.542   0.147   4.181
  424SOL     OW 3737   1.434   1.188   3.765
  424SOL    HW1 3738   1.466   1.112   3.822
  424SOL    HW2 3739   1.342   1.215   3.795
  425SOL     OW 3740   0.297   0.035   3.895
  425SOL    HW1 3741   0.346   0.119   3.874
  425SOL    HW2 3742   0.359  -0.030   3.940
  426SOL     OW 3743   1.227   1.570   4.517
  426SOL    HW1 3744   1.248   1.644   4.452
  426SOL    HW2 3745   1.295   1.570   4.590
  427SOL     OW 3746   0.459   1.152   4.465
  427SOL    HW1 3747   0.388   1.125   4.530
  427SOL    HW2 3748   0.433   1.124   4.372
  428SOL     OW 3749   1.271   1.797   4.315
  428SOL    HW1 3750   1.315   1.861   4.251
  428SOL    HW2 3751   1.221   1.849   4.385
  429SOL     OW 3752   0.866   0.454   4.366
  429SOL    HW1 3753   0.834   0.526   4.304
  429SOL    HW2 3754   0.890   0.373   4.313
  430SOL     OW 3755   1.017   0.039   4.477
  430SOL    HW1 3756   0.945   0.044   4.408
  430SOL    HW2 3757   0.993  -0.030   4.546
  431SOL     OW 3758   1.429   1.173   4.591
  431SOL    HW1 3759   1.374   1.089   4.584
  431SOL    HW2 3760   1.455   1.202   4.499
  432SOL     OW 3761   1.857   0.833   4.101
  432SOL    HW1 3762   1.899   0.769   4.165
  432SOL    HW2 3763   1.819   0.782   4.023
  433SOL     OW 3764   0.488   1.385   3.898
  433SOL    HW1 3765   0.401   1.370   3.945
  433SOL    HW2 3766   0.471   1.411   3.803
  434SOL     OW 3767   1.664   1.280   4.381
  434SOL    HW1 3768   1.763   1.288   4.395
  434SOL    HW2 3769   1.619   1.364   4.412
  435SOL     OW 3770   1.111   1.195   4.824
  435SOL    HW1 3771   1.071   1.239   4.905
  435SOL    HW2 3772   1.070   1.232   4.741
  436SOL     OW 3773   1.638   1.099   4.803
  436SOL    HW1 3774   1.643   1.180   4.862
  436SOL    HW2 3775   1.552   1.101   4.752
  437SOL     OW 3776   0.410   0.813   4.975
  437SOL    HW1 3777   0.496   0.825   5.025
  437SOL    HW2 3778   0.368   0.726   5.002
  438SOL     OW 3779   0.367   1.100   4.225
  438SOL    HW1 3780   0.360   1.183   4.169
  438SOL    HW2 3781   0.371   1.020   4.165
  439SOL     OW 3782   0.566   0.537   4.589
  439SOL    HW1 3783   0.578   0.603   4.515
  439SOL    HW2 3784   0.612   0.571   4.672
  440SOL     OW 3785   1.252   1.348   4.112
  440SOL    HW1 3786   1.302   1.425   4.152
  440SOL    HW2 3787   1.157   1.350   4.144
  441SOL     OW 3788   1.272   1.445   4.866
  441SOL    HW1 3789   1.319   1.458   4.953
  441SOL    HW2 3790   1.206   1.371   4.875
  442SOL     OW 3791   1.582   0.639   4.196
  442SOL    HW1 3792   1.551   0.700   4.269
  442SOL    HW2 3793   1.632   0.691   4.127
  443SOL     OW 3794   0.354   1.510   5.053
  443SOL    HW1 3795   0.333   1.466   4.966
  443SOL    HW2 3796   0.451   1.536   5.056
  444SOL     OW 3797   0.573   0.870   4.753
  444SOL    HW1 3798   0.617   0.959   4.744
  444SOL    HW2 3799   0.510   0.870   4.830
  445SOL     OW 3800   1.360   0.862   4.769
  445SOL    HW1 3801   1.285   0.862   4.703
  445SOL    HW2 3802   1.397   0.770   4.778
  446SOL     OW 3803   1.209   0.525   3.999
  446SOL    HW1 3804   1.222   0.441   4.053
  446SOL    HW2 3805   1.180   0.599   4.059
  447SOL     OW 3806   0.732   0.634   4.788
  447SOL    HW1 3807   0.791   0.608   4.712
  447SOL    HW2 3808   0.704   0.730   4.777
  448SOL     OW 3809   1.622   0.367   4.098
  448SOL    HW1 3810   1.624   0.291   4.162
  448SOL    HW2 3811   1.574   0.444   4.138
  449SOL     OW 3812   1.023   0.766   4.690
  449SOL    HW1 3813   1.038   0.787   4.786
  449SOL    HW2 3814   0.993   0.671   4.681
  450SOL     OW 3815   1.540   0.274   3.849
  450SOL    HW1 3816   1.479   0.199   3.872
  450SOL    HW2 3817   1.562   0.326   3.932
  451SOL     OW 3818   1.303   0.838   3.766
  451SOL    HW1 3819   1.337   0.745   3.781
  451SOL    HW2 3820   1.321   0.865   3.671
  452SOL     OW 3821   1.068   1.333   4.573
  452SOL    HW1 3822   1.075   1.249   4.518
  452SOL    HW2 3823   1.130   1.402   4.537
  453SOL     OW 3824   0.319   0.810   4.673
  453SOL    HW1 3825   0.412   0.846   4.678
  453SOL    HW2 3826   0.313   0.725   4.725
  454SOL     OW 3827   0.339   0.509   4.730
  454SOL    HW1 3828   0.287   0.426   4.713
  454SOL    HW2 3829   0.416   0.514   4.666
  455SOL     OW 3830   0.008   1.326   3.924
  455SOL    HW1 3831  -0.085   1.347   3.893
  455SOL    HW2 3832   0.018   1.227   3.937
  456SOL     OW 3833   0.088   1.801   4.651
  456SOL    HW1 3834   0.046   1.715   4.624
  456SOL    HW2 3835   0.182   1.804   4.617
  457SOL     OW 3836   0.504   1.568   4.634
  457SOL    HW1 3837   0.570   1.642   4.643
  457SOL    HW2 3838   0.548   1.489   4.592
  458SOL     OW 3839   1.002   0.796   4.962
  458SOL    HW1 3840   1.043   0.764   5.048
  458SOL    HW2 3841   0.906   0.769   4.959
  459SOL     OW 3842   0.040   0.544   4.838
  459SOL    HW1 3843   0.125   0.511   4.797
  459SOL    HW2 3844   0.053   0.559   4.936
  460SOL     OW 3845   0.815   0.572   4.049
  460SOL    HW1 3846   0.822   0.483   4.003
  460SOL    HW2 3847   0.721   0.606   4.041
  461SOL     OW 3848   0.671   0.464   4.993
  461SOL    HW1 3849   0.637   0.375   4.963
  461SOL    HW2 3850   0.697   0.518   4.913
  462SOL     OW 3851   0.930   1.678   5.189
  462SOL    HW1 3852   0.906   1.660   5.094
  462SOL    HW2 3853   0.960   1.772   5.199
  463SOL     OW 3854   1.347   1.059   4.958
  463SOL    HW1 3855   1.371   0.996   4.884
  463SOL    HW2 3856   1.257   1.099   4.940
  464SOL     OW 3857   1.302   0.855   4.033
  464SOL    HW1 3858   1.216   0.824   4.075
  464SOL    HW2 3859   1.298   0.841   3.934
  465SOL     OW 3860   1.759   1.747   4.878
  465SOL    HW1 3861   1.820   1.777   4.805
  465SOL    HW2 3862   1.721   1.658   4.856
  466SOL     OW 3863   1.252   1.731   4.852
  466SOL    HW1 3864   1.336   1.736   4.798
  466SOL    HW2 3865   1.229   1.635   4.870
  467SOL     OW 3866   1.726   0.135   4.247
  467SOL    HW1 3867   1.799   0.118   4.180
  467SOL    HW2 3868   1.695   0.048   4.285
  468SOL     OW 3869   1.388   1.573   4.201
  468SOL    HW1 3870   1.455   1.585   4.127
  468SOL    HW2 3871   1.348   1.662   4.224
  469SOL     OW 3872   1.280   0.927   4.396
  469SOL    HW1 3873   1.340   0.846   4.398
  469SOL    HW2 3874   1.320   0.996   4.336
  470SOL     OW 3875   0.672   1.616   3.878
  470SOL    HW1 3876   0.681   1.626   3.779
  470SOL    HW2 3877   0.632   1.527   3.899
  471SOL     OW 3878   1.650   1.720   5.118
  471SOL    HW1 3879   1.703   1.730   5.034
  471SOL    HW2 3880   1.623   1.810   5.152
  472SOL     OW 3881   1.194   1.612   3.755
  472SOL    HW1 3882   1.200   1.519   3.792
  472SOL    HW2 3883   1.135   1.612   3.675
  473SOL     OW 3884   0.822   1.002   5.096
  473SOL    HW1 3885   0.862   1.001   5.004
  473SOL    HW2 3886   0.832   1.094   5.136
  474SOL     OW 3887   0.916   0.910   4.015
  474SOL    HW1 3888   0.979   0.948   3.947
  474SOL    HW2 3889   0.956   0.827   4.054
  475SOL     OW 3890   1.504   1.607   3.768
  475SOL    HW1 3891   1.412   1.644   3.775
  475SOL    HW2 3892   1.542   1.627   3.678
  476SOL     OW 3893   1.039   1.098   4.420
  476SOL    HW1 3894   0.969   1.051   4.474
  476SOL    HW2 3895   1.098   1.030   4.377
  477SOL     OW 3896   1.014   0.236   4.695
  477SOL    HW1 3897   1.006   0.200   4.602
  477SOL    HW2 3898   1.012   0.160   4.760
  478SOL     OW 3899   0.590   1.487   4.215
  478SOL    HW1 3900   0.632   1.429   4.145
  478SOL    HW2 3901   0.546   1.566   4.171
  479SOL     OW 3902   0.255   1.348   4.014
  479SOL    HW1 3903   0.159   1.349   3.987
  479SOL    HW2 3904   0.267   1.401   4.098
  480SOL     OW 3905   0.075   0.345   3.757
  480SOL    HW1 3906  -0.017   0.317   3.728
  480SOL    HW2 3907   0.106   0.422   3.701
  481SOL     OW 3908   0.072   0.166   4.042
  481SOL    HW1 3909   0.055   0.249   3.988
  481SOL    HW2 3910   0.162   0.129   4.020
  482SOL     OW 3911   1.183   1.335   3.843
  482SOL    HW1 3912   1.084   1.324   3.845
  482SOL    HW2 3913   1.217   1.350   3.936
  483SOL     OW 3914   1.493   1.767   4.683
  483SOL    HW1 3915   1.526   1.831   4.614
  483SOL    HW2 3916   1.559   1.761   4.758
  484SOL     OW 3917   1.450   1.220   5.357
  484SOL    HW1 3918   1.441   1.210   5.456
  484SOL    HW2 3919   1.546   1.213   5.331
  485SOL     OW 3920   1.225   0.325   4.173
  485SOL    HW1 3921   1.290   0.251   4.162
  485SOL    HW2 3922   1.245   0.375   4.257
  486SOL     OW 3923   0.594   0.745   4.376
  486SOL    HW1 3924   0.644   0.830   4.357
  486SOL    HW2 3925   0.506   0.747   4.328
  487SOL     OW 3926   1.730   0.934   5.241
  487SOL    HW1 3927   1.768   1.025   5.256
  487SOL    HW2 3928   1.722   0.917   5.142
  488SOL     OW 3929   0.661   1.790   4.677
  488SOL    HW1 3930   0.615   1.878   4.664
  488SOL    HW2 3931   0.760   1.802   4.670
  489SOL     OW 3932   0.859   0.956   4.585
  489SOL    HW1 3933   0.913   0.887   4.633
  489SOL    HW2 3934   0.827   1.025   4.651
  490SOL     OW 3935   1.824   0.192   4.951
  490SOL    HW1 3936   1.820   0.102   4.995
  490SOL    HW2 3937   1.827   0.181   4.852
  491SOL     OW 3938   0.812   1.586   4.411
  491SOL    HW1 3939   0.844   1.596   4.317
  491SOL    HW2 3940   0.733   1.524   4.413
  492SOL     OW 3941   1.424   0.214   4.836
  492SOL    HW1 3942   1.476   0.149   4.891
  492SOL    HW2 3943   1.375   0.277   4.897
  493SOL     OW 3944   1.001   0.034   4.878
  493SOL    HW1 3945   0.938  -0.038   4.847
  493SOL    HW2 3946   1.094  -0.002   4.878
  494SOL     OW 3947   1.352   0.052   3.892
  494SOL    HW1 3948   1.387   0.011   3.808
  494SOL    HW2 3949   1.262   0.014   3.912
  495SOL     OW 3950   0.039   1.077   4.024
  495SOL    HW1 3951   0.138   1.066   4.015
  495SOL    HW2 3952  -0.001   0.991   4.056
  496SOL     OW 3953   0.875   1.646   4.061
  496SOL    HW1 3954   0.798   1.611   4.007
  496SOL    HW2 3955   0.843   1.717   4.123
  497SOL     OW 3956   0.230   2.490   0.113
  497SOL    HW1 3957   0.137   2.488   0.150
  497SOL    HW2 3958   0.231   2.451   0.021
  498SOL     OW 3959   0.569   3.137   1.165
  498SOL    HW1 3960   0.476   3.130   1.128
  498SOL    HW2 3961   0.580   3.226   1.209
  499SOL     OW 3962   1.555   3.373   0.703
  499SOL    HW1 3963   1.498   3.357   0.784
  499SOL    HW2 3964   1.496   3.383   0.623
  500SOL     OW 3965   1.135   2.565   0.717
  500SOL    HW1 3966   1.192   2.643   0.692
  500SOL    HW2 3967   1.075   2.591   0.793
  501SOL     OW 3968   0.768   3.006   1.023
  501SOL    HW1 3969   0.690   3.023   1.083
  501SOL    HW2 3970   0.802   3.093   0.987
  502SOL     OW 3971   0.335   3.297   1.061
  502SOL    HW1 3972   0.257   3.266   1.008
  502SOL    HW2 3973   0.393   3.355   1.004
  503SOL     OW 3974   1.460   3.367   1.339
  503SOL    HW1 3975   1.484   3.461   1.365
  503SOL    HW2 3976   1.444   3.313   1.421
  504SOL     OW 3977   0.438   2.254   1.499
  504SOL    HW1 3978   0.520   2.198   1.508
  504SOL    HW2 3979   0.357   2.196   1.503
  505SOL     OW 3980   1.603   2.309   0.737
  505SOL    HW1 3981   1.529   2.355   0.687
  505SOL    HW2 3982   1.654   2.377   0.790
  506SOL     OW 3983   0.231   3.575   0.483
  506SOL    HW1 3984   0.265   3.652   0.537
  506SOL    HW2 3985   0.275   3.575   0.393
  507SOL     OW 3986   0.230   3.296   0.538
  507SOL    HW1 3987   0.204   3.392   0.538
  507SOL    HW2 3988   0.159   3.242   0.583
  508SOL     OW 3989   0.240   2.953   0.886
  508SOL    HW1 3990   0.254   2.869   0.938
  508SOL    HW2 3991   0.185   3.017   0.941
  509SOL     OW 3992   0.620   3.648   1.439
  509SOL    HW1 3993   0.528   3.631   1.474
  509SOL    HW2 3994   0.648   3.740   1.465
  510SOL     OW 3995   1.594   1.976   1.480
  510SOL    HW1 3996   1.576   2.043   1.408
  510SOL    HW2 3997   1.591   2.022   1.569
  511SOL     OW 3998   1.842   3.629   0.359
  511SOL    HW1 3999   1.896   3.600   0.439
  511SOL    HW2 4000   1.872   3.719   0.330
  512SOL     OW 4001   0.027   3.458   0.117
  512SOL    HW1 4002   0.008   3.362   0.138
  512SOL    HW2 4003  -0.006   3.516   0.192
  513SOL     OW 4004   1.689   2.784   0.612
  513SOL    HW1 4005   1.784   2.755   0.620
  513SOL    HW2 4006   1.681   2.849   0.537
  514SOL     OW 4007   1.641   2.970   0.432
  514SOL    HW1 4008   1.727   2.972   0.380
  514SOL    HW2 4009   1.655   3.017   0.520
  515SOL     OW 4010   0.113   2.599   1.597
  515SOL    HW1 4011   0.201   2.586   1.642
  515SOL    HW2 4012   0.100   2.696   1.575
  516SOL     OW 4013   0.613   3.227   0.726
  516SOL    HW1 4014   0.564   3.140   0.735
  516SOL    HW2 4015   0.590   3.270   0.639
  517SOL     OW 4016   1.293   3.090   1.423
  517SOL    HW1 4017   1.330   3.017   1.365
  517SOL    HW2 4018   1.345   3.095   1.508
  518SOL     OW 4019   0.809   1.866   0.502
  518SOL    HW1 4020   0.849   1.957   0.493
  518SOL    HW2 4021   0.709   1.874   0.508
  519SOL     OW 4022   0.197   2.838   1.264
  519SOL    HW1 4023   0.286   2.793   1.250
  519SOL    HW2 4024   0.124   2.773   1.245
  520SOL     OW 4025   1.525   2.861   0.190
  520SOL    HW1 4026   1.462   2.785   0.203
  520SOL    HW2 4027   1.573   2.879   0.276
  521SOL     OW 4028   1.187   3.654   1.616
  521SOL    HW1 4029   1.211   3.714   1.540
  521SOL    HW2 4030   1.194   3.559   1.586
  522SOL     OW 4031   0.317   2.113   1.801
  522SOL    HW1 4032   0.388   2.184   1.807
  522SOL    HW2 4033   0.229   2.152   1.829
  523SOL     OW 4034   1.466   3.279   0.953
  523SOL    HW1 4035   1.407   3.285   1.033
  523SOL    HW2 4036   1.451   3.191   0.907
  524SOL     OW 4037   1.667   3.576   0.572
  524SOL    HW1 4038   1.626   3.553   0.484
  524SOL    HW2 4039   1.649   3.502   0.637
  525SOL     OW 4040   0.598   2.591   0.270
  525SOL    HW1 4041   0.622   2.660   0.202
  525SOL    HW2 4042   0.520   2.624   0.324
  526SOL     OW 4043   1.281   2.207   0.944
  526SOL    HW1 4044   1.195   2.157   0.931
  526SOL    HW2 4045   1.343   2.153   1.000
  527SOL     OW 4046   1.576   3.524   0.307
  527SOL    HW1 4047   1.665   3.570   0.310
  527SOL    HW2 4048   1.555   3.500   0.212
  528SOL     OW 4049   0.807   2.467   1.465
  528SOL    HW1 4050   0.760   2.464   1.554
  528SOL    HW2 4051   0.756   2.412   1.399
  529SOL     OW 4052   1.394   2.331   1.674
  529SOL    HW1 4053   1.374   2.374   1.762
  529SOL    HW2 4054   1.472   2.269   1.683
  530SOL     OW 4055   0.973   2.752   1.572
  530SOL    HW1 4056   1.019   2.668   1.543
  530SOL    HW2 4057   0.917   2.786   1.497
  531SOL     OW 4058   0.991   2.272   1.242
  531SOL    HW1 4059   0.914   2.306   1.296
  531SOL    HW2 4060   0.957   2.221   1.163
  532SOL     OW 4061   1.041   2.563   0.429
  532SOL    HW1 4062   1.067   2.559   0.525
  532SOL    HW2 4063   0.956   2.512   0.415
  533SOL     OW 4064   0.865   2.210   0.195
  533SOL    HW1 4065   0.924   2.273   0.146
  533SOL    HW2 4066   0.884   2.116   0.166
  534SOL     OW 4067   1.719   2.447   1.831
  534SOL    HW1 4068   1.693   2.536   1.795
  534SOL    HW2 4069   1.717   2.379   1.758
  535SOL     OW 4070   1.362   3.006   0.545
  535SOL    HW1 4071   1.445   2.977   0.497
  535SOL    HW2 4072   1.313   3.073   0.489
  536SOL     OW 4073   1.008   3.318   0.477
  536SOL    HW1 4074   0.962   3.390   0.425
  536SOL    HW2 4075   1.004   3.338   0.575
  537SOL     OW 4076   0.351   3.663   0.853
  537SOL    HW1 4077   0.401   3.577   0.859
  537SOL    HW2 4078   0.416   3.740   0.850
  538SOL     OW 4079   1.795   2.928   0.873
  538SOL    HW1 4080   1.733   2.913   0.797
  538SOL    HW2 4081   1.743   2.939   0.958
  539SOL     OW 4082   1.227   3.412   1.506
  539SOL    HW1 4083   1.233   3.335   1.570
  539SOL    HW2 4084   1.175   3.386   1.426
  540SOL     OW 4085   1.458   2.597   0.728
  540SOL    HW1 4086   1.453   2.532   0.803
  540SOL    HW2 4087   1.538   2.656   0.741
  541SOL     OW 4088   1.111   3.638   0.237
  541SOL    HW1 4089   1.051   3.576   0.287
  541SOL    HW2 4090   1.142   3.594   0.152
  542SOL     OW 4091   0.202   2.147   1.498
  542SOL    HW1 4092   0.122   2.207   1.485
  542SOL    HW2 4093   0.192   2.098   1.584
  543SOL     OW 4094   1.632   3.239   0.081
  543SOL    HW1 4095   1.600   3.333   0.071
  543SOL    HW2 4096   1.556   3.176   0.069
  544SOL     OW 4097   0.464   3.605   0.323
  544SOL    HW1 4098   0.497   3.644   0.409
  544SOL    HW2 4099   0.540   3.598   0.258
  545SOL     OW 4100   1.400   1.969   0.426
  545SOL    HW1 4101   1.376   1.932   0.336
  545SOL    HW2 4102   1.499   1.985   0.430
  546SOL     OW 4103   0.940   3.560   0.904
  546SOL    HW1 4104   1.020   3.503   0.925
  546SOL    HW2 4105   0.891   3.520   0.827
  547SOL     OW 4106   1.547   2.084   1.729
  547SOL    HW1 4107   1.542   2.121   1.821
  547SOL    HW2 4108   1.475   2.015   1.717
  548SOL     OW 4109   0.781   2.126   1.749
  548SOL    HW1 4110   0.848   2.065   1.792
  548SOL    HW2 4111   0.708   2.145   1.814
  549SOL     OW 4112   0.888   3.376   1.195
  549SOL    HW1 4113   0.865   3.351   1.101
  549SOL    HW2 4114   0.949   3.307   1.234
  550SOL     OW 4115   1.351   2.452   1.433
  550SOL    HW1 4116   1.379   2.409   1.518
  550SOL    HW2 4117   1.376   2.548   1.434
  551SOL     OW 4118   0.803   3.264   0.924
  551SOL    HW1 4119   0.893   3.278   0.882
  551SOL    HW2 4120   0.732   3.266   0.853
  552SOL     OW 4121   0.539   1.926   0.512
  552SOL    HW1 4122   0.458   1.927   0.570
  552SOL    HW2 4123   0.542   2.009   0.457
  553SOL     OW 4124   1.434   3.050   0.041
  553SOL    HW1 4125   1.466   2.974   0.098
  553SOL    HW2 4126   1.342   3.077   0.071
  554SOL     OW 4127   0.297   1.897   0.171
  554SOL    HW1 4128   0.346   1.981   0.150
  554SOL    HW2 4129   0.359   1.832   0.216
  555SOL     OW 4130   0.935   2.098   0.480
  555SOL    HW1 4131   0.887   2.139   0.402
  555SOL    HW2 4132   1.034   2.096   0.461
  556SOL     OW 4133   1.076   2.545   1.464
  556SOL    HW1 4134   0.996   2.484   1.467
  556SOL    HW2 4135   1.157   2.492   1.440
  557SOL     OW 4136   1.227   3.432   0.793
  557SOL    HW1 4137   1.248   3.506   0.728
  557SOL    HW2 4138   1.295   3.432   0.866
  558SOL     OW 4139   0.459   3.014   0.741
  558SOL    HW1 4140   0.388   2.987   0.806
  558SOL    HW2 4141   0.433   2.986   0.648
  559SOL     OW 4142   1.271   3.659   0.591
  559SOL    HW1 4143   1.315   3.723   0.527
  559SOL    HW2 4144   1.221   3.711   0.661
  560SOL     OW 4145   0.866   2.316   0.642
  560SOL    HW1 4146   0.834   2.388   0.580
  560SOL    HW2 4147   0.890   2.235   0.589
  561SOL     OW 4148   1.017   1.901   0.753
  561SOL    HW1 4149   0.945   1.906   0.684
  561SOL    HW2 4150   0.993   1.832   0.822
  562SOL     OW 4151   1.429   3.035   0.867
  562SOL    HW1 4152   1.374   2.951   0.860
  562SOL    HW2 4153   1.455   3.064   0.775
  563SOL     OW 4154   1.466   2.452   0.992
  563SOL    HW1 4155   1.436   2.357   0.999
  563SOL    HW2 4156   1.539   2.468   1.058
  564SOL     OW 4157   1.857   2.695   0.377
  564SOL    HW1 4158   1.899   2.631   0.441
  564SOL    HW2 4159   1.819   2.644   0.299
  565SOL     OW 4160   1.664   3.142   0.657
  565SOL    HW1 4161   1.763   3.150   0.671
  565SOL    HW2 4162   1.619   3.226   0.688
  566SOL     OW 4163   0.527   2.118   0.328
  566SOL    HW1 4164   0.554   2.059   0.253
  566SOL    HW2 4165   0.527   2.213   0.297
  567SOL     OW 4166   1.754   3.085   1.588
  567SOL    HW1 4167   1.845   3.046   1.575
  567SOL    HW2 4168   1.762   3.181   1.612
  568SOL     OW 4169   1.064   3.209   1.340
  568SOL    HW1 4170   0.984   3.186   1.395
  568SOL    HW2 4171   1.147   3.183   1.389
  569SOL     OW 4172   1.592   3.491   1.625
  569SOL    HW1 4173   1.619   3.525   1.535
  569SOL    HW2 4174   1.671   3.453   1.671
  570SOL     OW 4175   1.111   3.057   1.100
  570SOL    HW1 4176   1.071   3.101   1.181
  570SOL    HW2 4177   1.070   3.094   1.017
  571SOL     OW 4178   1.638   2.961   1.079
  571SOL    HW1 4179   1.643   3.042   1.138
  571SOL    HW2 4180   1.552   2.963   1.028
  572SOL     OW 4181   0.915   1.951   1.402
  572SOL    HW1 4182   0.940   1.931   1.307
  572SOL    HW2 4183   0.987   2.007   1.444
  573SOL     OW 4184   0.410   2.675   1.251
  573SOL    HW1 4185   0.496   2.687   1.301
  573SOL    HW2 4186   0.368   2.588   1.278
  574SOL     OW 4187   1.274   2.248   1.262
  574SOL    HW1 4188   1.295   2.322   1.326
  574SOL    HW2 4189   1.185   2.265   1.219
  575SOL     OW 4190   0.064   3.426   1.331
  575SOL    HW1 4191   0.018   3.508   1.297
  575SOL    HW2 4192   0.162   3.445   1.340
  576SOL     OW 4193   0.367   2.962   0.501
  576SOL    HW1 4194   0.360   3.045   0.445
  576SOL    HW2 4195   0.371   2.882   0.441
  577SOL     OW 4196   1.252   3.210   0.388
  577SOL    HW1 4197   1.302   3.287   0.428
  577SOL    HW2 4198   1.157   3.212   0.420
  578SOL     OW 4199   1.272   3.307   1.142
  578SOL    HW1 4200   1.319   3.320   1.229
  578SOL    HW2 4201   1.206   3.233   1.151
  579SOL     OW 4202   0.354   3.372   1.329
  579SOL    HW1 4203   0.333   3.328   1.242
  579SOL    HW2 4204   0.451   3.398   1.332
  580SOL     OW 4205   0.402   2.613   1.598
  580SOL    HW1 4206   0.470   2.668   1.551
  580SOL    HW2 4207   0.442   2.525   1.625
  581SOL     OW 4208   1.587   2.641   1.670
  581SOL    HW1 4209   1.495   2.679   1.665
  581SOL    HW2 4210   1.647   2.688   1.605
  582SOL     OW 4211   1.013   1.967   1.770
  582SOL    HW1 4212   1.019   2.052   1.718
  582SOL    HW2 4213   1.045   1.891   1.713
  583SOL     OW 4214   0.504   1.912   1.740
  583SOL    HW1 4215   0.462   1.855   1.670
  583SOL    HW2 4216   0.438   1.981   1.772
  584SOL     OW 4217   0.573   2.732   1.029
  584SOL    HW1 4218   0.617   2.821   1.020
  584SOL    HW2 4219   0.510   2.732   1.106
  585SOL     OW 4220   1.360   2.724   1.045
  585SOL    HW1 4221   1.285   2.724   0.979
  585SOL    HW2 4222   1.397   2.632   1.054
  586SOL     OW 4223   1.209   2.387   0.275
  586SOL    HW1 4224   1.222   2.303   0.329
  586SOL    HW2 4225   1.180   2.461   0.335
  587SOL     OW 4226   0.037   3.172   1.282
  587SOL    HW1 4227   0.090   3.123   1.350
  587SOL    HW2 4228   0.059   3.270   1.287
  588SOL     OW 4229   0.732   2.496   1.064
  588SOL    HW1 4230   0.791   2.470   0.988
  588SOL    HW2 4231   0.704   2.592   1.053
  589SOL     OW 4232   1.622   2.229   0.374
  589SOL    HW1 4233   1.624   2.153   0.438
  589SOL    HW2 4234   1.574   2.306   0.414
  590SOL     OW 4235   1.023   2.628   0.966
  590SOL    HW1 4236   1.038   2.649   1.062
  590SOL    HW2 4237   0.993   2.533   0.957
  591SOL     OW 4238   0.980   3.435   1.700
  591SOL    HW1 4239   0.960   3.479   1.612
  591SOL    HW2 4240   1.019   3.344   1.684
  592SOL     OW 4241   1.859   3.380   1.605
  592SOL    HW1 4242   1.873   3.407   1.510
  592SOL    HW2 4243   1.942   3.402   1.658
  593SOL     OW 4244   0.350   2.760   1.804
  593SOL    HW1 4245   0.426   2.804   1.852
  593SOL    HW2 4246   0.385   2.713   1.722
  594SOL     OW 4247   1.068   3.195   0.849
  594SOL    HW1 4248   1.075   3.111   0.794
  594SOL    HW2 4249   1.130   3.264   0.813
  595SOL     OW 4250   1.138   2.242   1.678
  595SOL    HW1 4251   1.093   2.305   1.742
  595SOL    HW2 4252   1.231   2.273   1.661
  596SOL     OW 4253   1.160   2.069   1.477
  596SOL    HW1 4254   1.160   2.133   1.554
  596SOL    HW2 4255   1.188   2.117   1.394
  597SOL     OW 4256   0.008   3.188   0.200
  597SOL    HW1 4257  -0.085   3.209   0.169
  597SOL    HW2 4258   0.018   3.089   0.213
  598SOL     OW 4259   0.088   3.663   0.927
  598SOL    HW1 4260   0.046   3.577   0.900
  598SOL    HW2 4261   0.182   3.666   0.893
  599SOL     OW 4262   0.504   3.430   0.910
  599SOL    HW1 4263   0.570   3.504   0.919
  599SOL    HW2 4264   0.548   3.351   0.868
  600SOL     OW 4265   1.002   2.658   1.238
  600SOL    HW1 4266   1.043   2.626   1.324
  600SOL    HW2 4267   0.906   2.631   1.235
  601SOL     OW 4268   0.189   2.382   1.722
  601SOL    HW1 4269   0.248   2.342   1.652
  601SOL    HW2 4270   0.131   2.453   1.681
  602SOL     OW 4271   1.369   2.812   1.660
  602SOL    HW1 4272   1.408   2.901   1.680
  602SOL    HW2 4273   1.379   2.792   1.563
  603SOL     OW 4274   0.815   2.434   0.325
  603SOL    HW1 4275   0.822   2.345   0.279
  603SOL    HW2 4276   0.721   2.468   0.317
  604SOL     OW 4277   1.657   2.466   1.206
  604SOL    HW1 4278   1.619   2.397   1.268
  604SOL    HW2 4279   1.739   2.430   1.162
  605SOL     OW 4280   0.252   3.426   1.744
  605SOL    HW1 4281   0.222   3.483   1.820
  605SOL    HW2 4282   0.245   3.329   1.770
  606SOL     OW 4283   0.671   2.326   1.269
  606SOL    HW1 4284   0.637   2.237   1.239
  606SOL    HW2 4285   0.697   2.380   1.189
  607SOL     OW 4286   0.930   3.540   1.465
  607SOL    HW1 4287   0.906   3.522   1.370
  607SOL    HW2 4288   0.960   3.634   1.475
  608SOL     OW 4289   0.473   2.362   0.191
  608SOL    HW1 4290   0.534   2.442   0.195
  608SOL    HW2 4291   0.378   2.393   0.198
  609SOL     OW 4292   0.159   2.999   1.466
  609SOL    HW1 4293   0.181   2.938   1.542
  609SOL    HW2 4294   0.169   2.950   1.380
  610SOL     OW 4295   1.347   2.921   1.234
  610SOL    HW1 4296   1.371   2.858   1.160
  610SOL    HW2 4297   1.257   2.961   1.216
  611SOL     OW 4298   1.302   2.717   0.309
  611SOL    HW1 4299   1.216   2.686   0.351
  611SOL    HW2 4300   1.298   2.703   0.210
  612SOL     OW 4301   1.252   3.593   1.128
  612SOL    HW1 4302   1.336   3.598   1.074
  612SOL    HW2 4303   1.229   3.497   1.146
  613SOL     OW 4304   0.083   3.120   1.022
  613SOL    HW1 4305   0.078   3.119   1.122
  613SOL    HW2 4306   0.000   3.079   0.984
  614SOL     OW 4307   0.688   3.524   1.716
  614SOL    HW1 4308   0.632   3.605   1.725
  614SOL    HW2 4309   0.740   3.528   1.630
  615SOL     OW 4310   0.903   1.948   0.133
  615SOL    HW1 4311   0.954   1.949   0.047
  615SOL    HW2 4312   0.959   1.906   0.204
  616SOL     OW 4313   1.388   3.435   0.477
  616SOL    HW1 4314   1.455   3.447   0.403
  616SOL    HW2 4315   1.348   3.524   0.500
  617SOL     OW 4316   1.280   2.789   0.672
  617SOL    HW1 4317   1.340   2.708   0.674
  617SOL    HW2 4318   1.320   2.858   0.612
  618SOL     OW 4319   1.194   3.474   0.031
  618SOL    HW1 4320   1.200   3.381   0.068
  618SOL    HW2 4321   1.135   3.474  -0.049
  619SOL     OW 4322   0.822   2.864   1.372
  619SOL    HW1 4323   0.862   2.863   1.280
  619SOL    HW2 4324   0.832   2.956   1.412
  620SOL     OW 4325   0.916   2.772   0.291
  620SOL    HW1 4326   0.979   2.810   0.223
  620SOL    HW2 4327   0.956   2.689   0.330
  621SOL     OW 4328   1.504   3.469   0.044
  621SOL    HW1 4329   1.412   3.506   0.051
  621SOL    HW2 4330   1.542   3.489  -0.046
  622SOL     OW 4331   0.372   3.150   1.490
  622SOL    HW1 4332   0.359   3.243   1.456
  622SOL    HW2 4333   0.288   3.098   1.477
  623SOL     OW 4334   1.614   3.154   1.289
  623SOL    HW1 4335   1.674   3.157   1.369
  623SOL    HW2 4336   1.539   3.218   1.302
  624SOL     OW 4337   0.255   3.210   0.290
  624SOL    HW1 4338   0.159   3.211   0.263
  624SOL    HW2 4339   0.267   3.263   0.374
  625SOL     OW 4340   0.105   2.875   1.726
  625SOL    HW1 4341   0.028   2.842   1.780
  625SOL    HW2 4342   0.190   2.845   1.768
  626SOL     OW 4343   0.672   2.065   1.489
  626SOL    HW1 4344   0.762   2.049   1.449
  626SOL    HW2 4345   0.680   2.070   1.588
  627SOL     OW 4346   1.440   2.718   1.398
  627SOL    HW1 4347   1.383   2.770   1.335
  627SOL    HW2 4348   1.536   2.730   1.374
  628SOL     OW 4349   0.072   2.028   0.318
  628SOL    HW1 4350   0.055   2.111   0.264
  628SOL    HW2 4351   0.162   1.991   0.296
  629SOL     OW 4352   1.183   3.197   0.119
  629SOL    HW1 4353   1.084   3.186   0.121
  629SOL    HW2 4354   1.217   3.212   0.212
  630SOL     OW 4355   0.613   2.704   1.431
  630SOL    HW1 4356   0.669   2.785   1.414
  630SOL    HW2 4357   0.672   2.624   1.434
  631SOL     OW 4358   1.493   3.629   0.959
  631SOL    HW1 4359   1.526   3.693   0.890
  631SOL    HW2 4360   1.559   3.623   1.034
  632SOL     OW 4361   0.716   2.427   1.708
  632SOL    HW1 4362   0.735   2.492   1.782
  632SOL    HW2 4363   0.776   2.347   1.717
  633SOL     OW 4364   1.450   3.082   1.633
  633SOL    HW1 4365   1.441   3.072   1.732
  633SOL    HW2 4366   1.546   3.075   1.607
  634SOL     OW 4367   0.390   3.603   1.560
  634SOL    HW1 4368   0.299   3.644   1.558
  634SOL    HW2 4369   0.383   3.509   1.592
  635SOL     OW 4370   1.674   2.745   1.254
  635SOL    HW1 4371   1.647   2.656   1.217
  635SOL    HW2 4372   1.675   2.813   1.181
  636SOL     OW 4373   1.225   2.187   0.449
  636SOL    HW1 4374   1.290   2.113   0.438
  636SOL    HW2 4375   1.245   2.237   0.533
  637SOL     OW 4376   1.777   2.204   1.642
  637SOL    HW1 4377   1.760   2.235   1.548
  637SOL    HW2 4378   1.693   2.167   1.680
  638SOL     OW 4379   1.730   2.796   1.517
  638SOL    HW1 4380   1.768   2.887   1.532
  638SOL    HW2 4381   1.722   2.779   1.418
  639SOL     OW 4382   0.661   3.652   0.953
  639SOL    HW1 4383   0.615   3.740   0.940
  639SOL    HW2 4384   0.760   3.664   0.946
  640SOL     OW 4385   0.859   2.818   0.861
  640SOL    HW1 4386   0.913   2.749   0.909
  640SOL    HW2 4387   0.827   2.887   0.927
  641SOL     OW 4388   1.861   3.431   0.851
  641SOL    HW1 4389   1.790   3.419   0.781
  641SOL    HW2 4390   1.862   3.352   0.911
  642SOL     OW 4391   0.221   3.176   1.844
  642SOL    HW1 4392   0.156   3.103   1.823
  642SOL    HW2 4393   0.225   3.190   1.942
  643SOL     OW 4394   0.079   3.102   0.653
  643SOL    HW1 4395   0.078   3.055   0.741
  643SOL    HW2 4396   0.161   3.074   0.602
  644SOL     OW 4397   0.428   2.286   0.520
  644SOL    HW1 4398   0.458   2.214   0.458
  644SOL    HW2 4399   0.389   2.246   0.603
  645SOL     OW 4400   1.705   3.349   1.104
  645SOL    HW1 4401   1.612   3.324   1.077
  645SOL    HW2 4402   1.731   3.299   1.186
  646SOL     OW 4403   0.812   3.448   0.687
  646SOL    HW1 4404   0.844   3.458   0.593
  646SOL    HW2 4405   0.733   3.386   0.689
  647SOL     OW 4406   1.001   1.896   1.154
  647SOL    HW1 4407   0.938   1.824   1.123
  647SOL    HW2 4408   1.094   1.860   1.154
  648SOL     OW 4409   0.618   3.429   1.284
  648SOL    HW1 4410   0.613   3.511   1.341
  648SOL    HW2 4411   0.707   3.426   1.239
  649SOL     OW 4412   1.352   1.914   0.168
  649SOL    HW1 4413   1.387   1.873   0.084
  649SOL    HW2 4414   1.262   1.876   0.188
  650SOL     OW 4415   1.300   2.315   0.691
  650SOL    HW1 4416   1.241   2.395   0.695
  650SOL    HW2 4417   1.315   2.280   0.784
  651SOL     OW 4418   1.593   2.083   0.882
  651SOL    HW1 4419   1.509   2.082   0.936
  651SOL    HW2 4420   1.595   2.166   0.826
  652SOL     OW 4421   0.875   3.508   0.337
  652SOL    HW1 4422   0.798   3.473   0.283
  652SOL    HW2 4423   0.843   3.579   0.399
  653SOL     OW 4424   0.230   2.490   1.975
  653SOL    HW1 4425   0.137   2.488   2.012
  653SOL    HW2 4426   0.231   2.451   1.883
  654SOL     OW 4427   0.569   3.137   3.027
  654SOL    HW1 4428   0.476   3.130   2.990
  654SOL    HW2 4429   0.580   3.226   3.071
  655SOL     OW 4430   1.135   2.565   2.579
  655SOL    HW1 4431   1.192   2.643   2.554
  655SOL    HW2 4432   1.075   2.591   2.655
  656SOL     OW 4433   0.768   3.006   2.885
  656SOL    HW1 4434   0.690   3.023   2.945
  656SOL    HW2 4435   0.802   3.093   2.849
  657SOL     OW 4436   0.850   2.660   3.685
  657SOL    HW1 4437   0.846   2.736   3.750
  657SOL    HW2 4438   0.872   2.696   3.594
  658SOL     OW 4439   0.685   2.874   2.527
  658SOL    HW1 4440   0.754   2.858   2.597
  658SOL    HW2 4441   0.612   2.931   2.565
  659SOL     OW 4442   0.686   3.023   3.665
  659SOL    HW1 4443   0.746   3.102   3.679
  659SOL    HW2 4444   0.600   3.054   3.624
  660SOL     OW 4445   0.335   3.297   2.923
  660SOL    HW1 4446   0.257   3.266   2.870
  660SOL    HW2 4447   0.393   3.355   2.866
  661SOL     OW 4448   0.438   2.254   3.361
  661SOL    HW1 4449   0.520   2.198   3.370
  661SOL    HW2 4450   0.357   2.196   3.365
  662SOL     OW 4451   0.231   3.575   2.345
  662SOL    HW1 4452   0.265   3.652   2.399
  662SOL    HW2 4453   0.275   3.575   2.255
  663SOL     OW 4454   1.127   3.203   3.552
  663SOL    HW1 4455   1.174   3.203   3.640
  663SOL    HW2 4456   1.079   3.116   3.541
  664SOL     OW 4457   0.230   3.296   2.400
  664SOL    HW1 4458   0.204   3.392   2.400
  664SOL    HW2 4459   0.159   3.242   2.445
  665SOL     OW 4460   0.620   3.648   3.301
  665SOL    HW1 4461   0.528   3.631   3.336
  665SOL    HW2 4462   0.648   3.740   3.327
  666SOL     OW 4463   1.594   1.976   3.342
  666SOL    HW1 4464   1.576   2.043   3.270
  666SOL    HW2 4465   1.591   2.022   3.431
  667SOL     OW 4466   0.027   3.458   1.979
  667SOL    HW1 4467   0.008   3.362   2.000
  667SOL    HW2 4468  -0.006   3.516   2.054
  668SOL     OW 4469   1.689   2.784   2.474
  668SOL    HW1 4470   1.784   2.755   2.482
  668SOL    HW2 4471   1.681   2.849   2.399
  669SOL     OW 4472   0.113   2.599   3.459
  669SOL    HW1 4473   0.201   2.586   3.504
  669SOL    HW2 4474   0.100   2.696   3.437
  670SOL     OW 4475   0.613   3.227   2.588
  670SOL    HW1 4476   0.564   3.140   2.597
  670SOL    HW2 4477   0.590   3.270   2.501
  671SOL     OW 4478   0.809   1.866   2.364
  671SOL    HW1 4479   0.849   1.957   2.355
  671SOL    HW2 4480   0.709   1.874   2.370
  672SOL     OW 4481   0.197   2.838   3.126
  672SOL    HW1 4482   0.286   2.793   3.112
  672SOL    HW2 4483   0.124   2.773   3.107
  673SOL     OW 4484   1.187   3.654   3.478
  673SOL    HW1 4485   1.211   3.714   3.402
  673SOL    HW2 4486   1.194   3.559   3.448
  674SOL     OW 4487   0.317   2.113   3.663
  674SOL    HW1 4488   0.388   2.184   3.669
  674SOL    HW2 4489   0.229   2.152   3.691
  675SOL     OW 4490   1.466   3.279   2.815
  675SOL    HW1 4491   1.407   3.285   2.895
  675SOL    HW2 4492   1.451   3.191   2.769
  676SOL     OW 4493   1.576   3.524   2.169
  676SOL    HW1 4494   1.665   3.570   2.172
  676SOL    HW2 4495   1.555   3.500   2.074
  677SOL     OW 4496   0.807   2.467   3.327
  677SOL    HW1 4497   0.760   2.464   3.416
  677SOL    HW2 4498   0.756   2.412   3.261
  678SOL     OW 4499   1.394   2.331   3.536
  678SOL    HW1 4500   1.374   2.374   3.624
  678SOL    HW2 4501   1.472   2.269   3.545
  679SOL     OW 4502   0.973   2.752   3.434
  679SOL    HW1 4503   1.019   2.668   3.405
  679SOL    HW2 4504   0.917   2.786   3.359
  680SOL     OW 4505   0.991   2.272   3.104
  680SOL    HW1 4506   0.914   2.306   3.158
  680SOL    HW2 4507   0.957   2.221   3.025
  681SOL     OW 4508   1.041   2.563   2.291
  681SOL    HW1 4509   1.067   2.559   2.387
  681SOL    HW2 4510   0.956   2.512   2.277
  682SOL     OW 4511   0.130   3.683   3.433
  682SOL    HW1 4512   0.120   3.668   3.532
  682SOL    HW2 4513   0.044   3.719   3.397
  683SOL     OW 4514   0.865   2.210   2.057
  683SOL    HW1 4515   0.924   2.273   2.008
  683SOL    HW2 4516   0.884   2.116   2.028
  684SOL     OW 4517   1.719   2.447   3.693
  684SOL    HW1 4518   1.693   2.536   3.657
  684SOL    HW2 4519   1.717   2.379   3.620
  685SOL     OW 4520   1.795   2.928   2.735
  685SOL    HW1 4521   1.733   2.913   2.659
  685SOL    HW2 4522   1.743   2.939   2.820
  686SOL     OW 4523   1.227   3.412   3.368
  686SOL    HW1 4524   1.233   3.335   3.432
  686SOL    HW2 4525   1.175   3.386   3.288
  687SOL     OW 4526   0.461   3.128   3.589
  687SOL    HW1 4527   0.411   3.129   3.503
  687SOL    HW2 4528   0.398   3.110   3.665
  688SOL     OW 4529   0.202   2.147   3.360
  688SOL    HW1 4530   0.122   2.207   3.347
  688SOL    HW2 4531   0.192   2.098   3.446
  689SOL     OW 4532   0.464   3.605   2.185
  689SOL    HW1 4533   0.497   3.644   2.271
  689SOL    HW2 4534   0.540   3.598   2.120
  690SOL     OW 4535   0.249   3.647   3.103
  690SOL    HW1 4536   0.306   3.582   3.153
  690SOL    HW2 4537   0.233   3.614   3.010
  691SOL     OW 4538   0.382   2.562   2.342
  691SOL    HW1 4539   0.427   2.472   2.339
  691SOL    HW2 4540   0.288   2.551   2.375
  692SOL     OW 4541   1.547   2.084   3.591
  692SOL    HW1 4542   1.542   2.121   3.683
  692SOL    HW2 4543   1.475   2.015   3.579
  693SOL     OW 4544   0.614   1.984   1.979
  693SOL    HW1 4545   0.712   1.962   1.986
  693SOL    HW2 4546   0.583   1.967   1.886
  694SOL     OW 4547   0.781   2.126   3.611
  694SOL    HW1 4548   0.848   2.065   3.654
  694SOL    HW2 4549   0.708   2.145   3.676
  695SOL     OW 4550   0.888   3.376   3.057
  695SOL    HW1 4551   0.865   3.351   2.963
  695SOL    HW2 4552   0.949   3.307   3.096
  696SOL     OW 4553   1.351   2.452   3.295
  696SOL    HW1 4554   1.379   2.409   3.380
  696SOL    HW2 4555   1.376   2.548   3.296
  697SOL     OW 4556   0.803   3.264   2.786
  697SOL    HW1 4557   0.893   3.278   2.744
  697SOL    HW2 4558   0.732   3.266   2.715
  698SOL     OW 4559   0.922   2.365   2.761
  698SOL    HW1 4560   0.897   2.356   2.665
  698SOL    HW2 4561   0.970   2.283   2.792
  699SOL     OW 4562   0.539   1.926   2.374
  699SOL    HW1 4563   0.458   1.927   2.432
  699SOL    HW2 4564   0.542   2.009   2.319
  700SOL     OW 4565   1.434   3.050   1.903
  700SOL    HW1 4566   1.466   2.974   1.960
  700SOL    HW2 4567   1.342   3.077   1.933
  701SOL     OW 4568   0.297   1.897   2.033
  701SOL    HW1 4569   0.346   1.981   2.012
  701SOL    HW2 4570   0.359   1.832   2.078
  702SOL     OW 4571   0.935   2.098   2.342
  702SOL    HW1 4572   0.887   2.139   2.264
  702SOL    HW2 4573   1.034   2.096   2.323
  703SOL     OW 4574   1.076   2.545   3.326
  703SOL    HW1 4575   0.996   2.484   3.329
  703SOL    HW2 4576   1.157   2.492   3.302
  704SOL     OW 4577   0.459   3.014   2.603
  704SOL    HW1 4578   0.388   2.987   2.668
  704SOL    HW2 4579   0.433   2.986   2.510
  705SOL     OW 4580   1.032   2.411   1.878
  705SOL    HW1 4581   0.991   2.493   1.839
  705SOL    HW2 4582   1.096   2.437   1.951
  706SOL     OW 4583   0.078   2.418   3.248
  706SOL    HW1 4584   0.170   2.417   3.207
  706SOL    HW2 4585   0.072   2.492   3.315
  707SOL     OW 4586   0.561   2.084   3.009
  707SOL    HW1 4587   0.599   2.000   3.046
  707SOL    HW2 4588   0.473   2.103   3.053
  708SOL     OW 4589   0.866   2.316   2.504
  708SOL    HW1 4590   0.834   2.388   2.442
  708SOL    HW2 4591   0.890   2.235   2.451
  709SOL     OW 4592   1.857   2.695   2.239
  709SOL    HW1 4593   1.899   2.631   2.303
  709SOL    HW2 4594   1.819   2.644   2.161
  710SOL     OW 4595   1.390   2.437   1.940
  710SOL    HW1 4596   1.336   2.416   2.021
  710SOL    HW2 4597   1.481   2.396   1.949
  711SOL     OW 4598   0.527   2.118   2.190
  711SOL    HW1 4599   0.554   2.059   2.115
  711SOL    HW2 4600   0.527   2.213   2.159
  712SOL     OW 4601   1.754   3.085   3.450
  712SOL    HW1 4602   1.845   3.046   3.437
  712SOL    HW2 4603   1.762   3.181   3.474
  713SOL     OW 4604   1.064   3.209   3.202
  713SOL    HW1 4605   0.984   3.186   3.257
  713SOL    HW2 4606   1.147   3.183   3.251
  714SOL     OW 4607   1.638   2.961   2.941
  714SOL    HW1 4608   1.643   3.042   3.000
  714SOL    HW2 4609   1.552   2.963   2.890
  715SOL     OW 4610   0.915   1.951   3.264
  715SOL    HW1 4611   0.940   1.931   3.169
  715SOL    HW2 4612   0.987   2.007   3.306
  716SOL     OW 4613   0.980   2.978   3.581
  716SOL    HW1 4614   0.881   2.984   3.591
  716SOL    HW2 4615   1.003   2.898   3.525
  717SOL     OW 4616   0.705   2.912   2.230
  717SOL    HW1 4617   0.691   2.919   2.329
  717SOL    HW2 4618   0.789   2.861   2.212
  718SOL     OW 4619   0.410   2.675   3.113
  718SOL    HW1 4620   0.496   2.687   3.163
  718SOL    HW2 4621   0.368   2.588   3.140
  719SOL     OW 4622   1.274   2.248   3.124
  719SOL    HW1 4623   1.295   2.322   3.188
  719SOL    HW2 4624   1.185   2.265   3.081
  720SOL     OW 4625   0.064   3.426   3.193
  720SOL    HW1 4626   0.018   3.508   3.159
  720SOL    HW2 4627   0.162   3.445   3.202
  721SOL     OW 4628   1.252   3.210   2.250
  721SOL    HW1 4629   1.302   3.287   2.290
  721SOL    HW2 4630   1.157   3.212   2.282
  722SOL     OW 4631   1.272   3.307   3.004
  722SOL    HW1 4632   1.319   3.320   3.091
  722SOL    HW2 4633   1.206   3.233   3.013
  723SOL     OW 4634   1.582   2.501   2.334
  723SOL    HW1 4635   1.551   2.562   2.407
  723SOL    HW2 4636   1.632   2.553   2.265
  724SOL     OW 4637   0.354   3.372   3.191
  724SOL    HW1 4638   0.333   3.328   3.104
  724SOL    HW2 4639   0.451   3.398   3.194
  725SOL     OW 4640   0.402   2.613   3.460
  725SOL    HW1 4641   0.470   2.668   3.413
  725SOL    HW2 4642   0.442   2.525   3.487
  726SOL     OW 4643   1.587   2.641   3.532
  726SOL    HW1 4644   1.495   2.679   3.527
  726SOL    HW2 4645   1.647   2.688   3.467
  727SOL     OW 4646   1.013   1.967   3.632
  727SOL    HW1 4647   1.019   2.052   3.580
  727SOL    HW2 4648   1.045   1.891   3.575
  728SOL     OW 4649   0.504   1.912   3.602
  728SOL    HW1 4650   0.462   1.855   3.532
  728SOL    HW2 4651   0.438   1.981   3.634
  729SOL     OW 4652   0.573   2.732   2.891
  729SOL    HW1 4653   0.617   2.821   2.882
  729SOL    HW2 4654   0.510   2.732   2.968
  730SOL     OW 4655   1.209   2.387   2.137
  730SOL    HW1 4656   1.222   2.303   2.191
  730SOL    HW2 4657   1.180   2.461   2.197
  731SOL     OW 4658   0.307   2.075   3.093
  731SOL    HW1 4659   0.284   2.112   3.183
  731SOL    HW2 4660   0.277   1.980   3.087
  732SOL     OW 4661   0.037   3.172   3.144
  732SOL    HW1 4662   0.090   3.123   3.212
  732SOL    HW2 4663   0.059   3.270   3.149
  733SOL     OW 4664   0.732   2.496   2.926
  733SOL    HW1 4665   0.791   2.470   2.850
  733SOL    HW2 4666   0.704   2.592   2.915
  734SOL     OW 4667   1.728   2.797   3.716
  734SOL    HW1 4668   1.682   2.790   3.627
  734SOL    HW2 4669   1.666   2.841   3.782
  735SOL     OW 4670   0.307   1.925   2.480
  735SOL    HW1 4671   0.296   2.019   2.513
  735SOL    HW2 4672   0.302   1.862   2.557
  736SOL     OW 4673   0.980   3.435   3.562
  736SOL    HW1 4674   0.960   3.479   3.474
  736SOL    HW2 4675   1.019   3.344   3.546
  737SOL     OW 4676   0.350   2.760   3.666
  737SOL    HW1 4677   0.426   2.804   3.714
  737SOL    HW2 4678   0.385   2.713   3.584
  738SOL     OW 4679   1.540   2.136   1.987
  738SOL    HW1 4680   1.479   2.061   2.010
  738SOL    HW2 4681   1.562   2.188   2.070
  739SOL     OW 4682   1.303   2.700   1.904
  739SOL    HW1 4683   1.337   2.607   1.919
  739SOL    HW2 4684   1.321   2.727   1.809
  740SOL     OW 4685   1.068   3.195   2.711
  740SOL    HW1 4686   1.075   3.111   2.656
  740SOL    HW2 4687   1.130   3.264   2.675
  741SOL     OW 4688   1.138   2.242   3.540
  741SOL    HW1 4689   1.093   2.305   3.604
  741SOL    HW2 4690   1.231   2.273   3.523
  742SOL     OW 4691   1.160   2.069   3.339
  742SOL    HW1 4692   1.160   2.133   3.416
  742SOL    HW2 4693   1.188   2.117   3.256
  743SOL     OW 4694   0.008   3.188   2.062
  743SOL    HW1 4695  -0.085   3.209   2.031
  743SOL    HW2 4696   0.018   3.089   2.075
  744SOL     OW 4697   0.088   3.663   2.789
  744SOL    HW1 4698   0.046   3.577   2.762
  744SOL    HW2 4699   0.182   3.666   2.755
  745SOL     OW 4700   0.504   3.430   2.772
  745SOL    HW1 4701   0.570   3.504   2.781
  745SOL    HW2 4702   0.548   3.351   2.730
  746SOL     OW 4703   1.002   2.658   3.100
  746SOL    HW1 4704   1.043   2.626   3.186
  746SOL    HW2 4705   0.906   2.631   3.097
  747SOL     OW 4706   0.189   2.382   3.584
  747SOL    HW1 4707   0.248   2.342   3.514
  747SOL    HW2 4708   0.131   2.453   3.543
  748SOL     OW 4709   0.815   2.434   2.187
  748SOL    HW1 4710   0.822   2.345   2.141
  748SOL    HW2 4711   0.721   2.468   2.179
  749SOL     OW 4712   1.657   2.466   3.068
  749SOL    HW1 4713   1.619   2.397   3.130
  749SOL    HW2 4714   1.739   2.430   3.024
  750SOL     OW 4715   0.252   3.426   3.606
  750SOL    HW1 4716   0.222   3.483   3.682
  750SOL    HW2 4717   0.245   3.329   3.632
  751SOL     OW 4718   0.671   2.326   3.131
  751SOL    HW1 4719   0.637   2.237   3.101
  751SOL    HW2 4720   0.697   2.380   3.051
  752SOL     OW 4721   0.930   3.540   3.327
  752SOL    HW1 4722   0.906   3.522   3.232
  752SOL    HW2 4723   0.960   3.634   3.337
  753SOL     OW 4724   0.473   2.362   2.053
  753SOL    HW1 4725   0.534   2.442   2.057
  753SOL    HW2 4726   0.378   2.393   2.060
  754SOL     OW 4727   0.159   2.999   3.328
  754SOL    HW1 4728   0.181   2.938   3.404
  754SOL    HW2 4729   0.169   2.950   3.242
  755SOL     OW 4730   1.302   2.717   2.171
  755SOL    HW1 4731   1.216   2.686   2.213
  755SOL    HW2 4732   1.298   2.703   2.072
  756SOL     OW 4733   1.759   3.609   3.016
  756SOL    HW1 4734   1.820   3.639   2.943
  756SOL    HW2 4735   1.721   3.520   2.994
  757SOL     OW 4736   0.083   3.120   2.884
  757SOL    HW1 4737   0.078   3.119   2.984
  757SOL    HW2 4738   0.000   3.079   2.846
  758SOL     OW 4739   0.688   3.524   3.578
  758SOL    HW1 4740   0.632   3.605   3.587
  758SOL    HW2 4741   0.740   3.528   3.492
  759SOL     OW 4742   1.388   3.435   2.339
  759SOL    HW1 4743   1.455   3.447   2.265
  759SOL    HW2 4744   1.348   3.524   2.362
  760SOL     OW 4745   0.130   3.656   3.713
  760SOL    HW1 4746   0.089   3.582   3.766
  760SOL    HW2 4747   0.194   3.707   3.771
  761SOL     OW 4748   0.830   3.135   3.284
  761SOL    HW1 4749   0.825   3.168   3.379
  761SOL    HW2 4750   0.744   3.154   3.238
  762SOL     OW 4751   0.672   3.478   2.016
  762SOL    HW1 4752   0.681   3.488   1.917
  762SOL    HW2 4753   0.632   3.389   2.037
  763SOL     OW 4754   1.841   2.037   2.825
  763SOL    HW1 4755   1.880   1.952   2.789
  763SOL    HW2 4756   1.743   2.039   2.806
  764SOL     OW 4757   1.194   3.474   1.893
  764SOL    HW1 4758   1.200   3.381   1.930
  764SOL    HW2 4759   1.135   3.474   1.813
  765SOL     OW 4760   0.822   2.864   3.234
  765SOL    HW1 4761   0.862   2.863   3.142
  765SOL    HW2 4762   0.832   2.956   3.274
  766SOL     OW 4763   0.916   2.772   2.153
  766SOL    HW1 4764   0.979   2.810   2.085
  766SOL    HW2 4765   0.956   2.689   2.192
  767SOL     OW 4766   1.504   3.469   1.906
  767SOL    HW1 4767   1.412   3.506   1.913
  767SOL    HW2 4768   1.542   3.489   1.816
  768SOL     OW 4769   0.372   3.150   3.352
  768SOL    HW1 4770   0.359   3.243   3.318
  768SOL    HW2 4771   0.288   3.098   3.339
  769SOL     OW 4772   1.614   3.154   3.151
  769SOL    HW1 4773   1.674   3.157   3.231
  769SOL    HW2 4774   1.539   3.218   3.164
  770SOL     OW 4775   1.039   2.960   2.558
  770SOL    HW1 4776   0.969   2.913   2.612
  770SOL    HW2 4777   1.098   2.892   2.515
  771SOL     OW 4778   0.590   3.349   2.353
  771SOL    HW1 4779   0.632   3.291   2.283
  771SOL    HW2 4780   0.546   3.428   2.309
  772SOL     OW 4781   1.709   2.247   3.243
  772SOL    HW1 4782   1.782   2.316   3.247
  772SOL    HW2 4783   1.737   2.172   3.184
  773SOL     OW 4784   0.255   3.210   2.152
  773SOL    HW1 4785   0.159   3.211   2.125
  773SOL    HW2 4786   0.267   3.263   2.236
  774SOL     OW 4787   0.105   2.875   3.588
  774SOL    HW1 4788   0.028   2.842   3.642
  774SOL    HW2 4789   0.190   2.845   3.630
  775SOL     OW 4790   0.672   2.065   3.351
  775SOL    HW1 4791   0.762   2.049   3.311
  775SOL    HW2 4792   0.680   2.070   3.450
  776SOL     OW 4793   0.075   2.207   1.895
  776SOL    HW1 4794  -0.017   2.179   1.866
  776SOL    HW2 4795   0.106   2.284   1.839
  777SOL     OW 4796   0.072   2.028   2.180
  777SOL    HW1 4797   0.055   2.111   2.126
  777SOL    HW2 4798   0.162   1.991   2.158
  778SOL     OW 4799   1.183   3.197   1.981
  778SOL    HW1 4800   1.084   3.186   1.983
  778SOL    HW2 4801   1.217   3.212   2.074
  779SOL     OW 4802   0.613   2.704   3.293
  779SOL    HW1 4803   0.669   2.785   3.276
  779SOL    HW2 4804   0.672   2.624   3.296
  780SOL     OW 4805   1.493   3.629   2.821
  780SOL    HW1 4806   1.526   3.693   2.752
  780SOL    HW2 4807   1.559   3.623   2.896
  781SOL     OW 4808   0.716   2.427   3.570
  781SOL    HW1 4809   0.735   2.492   3.644
  781SOL    HW2 4810   0.776   2.347   3.579
  782SOL     OW 4811   1.450   3.082   3.495
  782SOL    HW1 4812   1.441   3.072   3.594
  782SOL    HW2 4813   1.546   3.075   3.469
  783SOL     OW 4814   0.390   3.603   3.422
  783SOL    HW1 4815   0.299   3.644   3.420
  783SOL    HW2 4816   0.383   3.509   3.454
  784SOL     OW 4817   1.225   2.187   2.311
  784SOL    HW1 4818   1.290   2.113   2.300
  784SOL    HW2 4819   1.245   2.237   2.395
  785SOL     OW 4820   0.594   2.607   2.514
  785SOL    HW1 4821   0.644   2.692   2.495
  785SOL    HW2 4822   0.506   2.609   2.466
  786SOL     OW 4823   1.777   2.204   3.504
  786SOL    HW1 4824   1.760   2.235   3.410
  786SOL    HW2 4825   1.693   2.167   3.542
  787SOL     OW 4826   0.859   3.236   1.878
  787SOL    HW1 4827   0.813   3.251   1.966
  787SOL    HW2 4828   0.903   3.321   1.848
  788SOL     OW 4829   0.661   3.652   2.815
  788SOL    HW1 4830   0.615   3.740   2.802
  788SOL    HW2 4831   0.760   3.664   2.808
  789SOL     OW 4832   1.083   2.846   1.949
  789SOL    HW1 4833   1.060   2.899   1.867
  789SOL    HW2 4834   1.164   2.790   1.930
  790SOL     OW 4835   1.861   3.431   2.713
  790SOL    HW1 4836   1.790   3.419   2.643
  790SOL    HW2 4837   1.862   3.352   2.773
  791SOL     OW 4838   0.079   3.102   2.515
  791SOL    HW1 4839   0.078   3.055   2.603
  791SOL    HW2 4840   0.161   3.074   2.464
  792SOL     OW 4841   0.672   3.253   3.486
  792SOL    HW1 4842   0.594   3.203   3.524
  792SOL    HW2 4843   0.669   3.348   3.517
  793SOL     OW 4844   1.824   2.054   3.089
  793SOL    HW1 4845   1.820   1.964   3.133
  793SOL    HW2 4846   1.827   2.043   2.990
  794SOL     OW 4847   0.428   2.286   2.382
  794SOL    HW1 4848   0.458   2.214   2.320
  794SOL    HW2 4849   0.389   2.246   2.465
  795SOL     OW 4850   1.705   3.349   2.966
  795SOL    HW1 4851   1.612   3.324   2.939
  795SOL    HW2 4852   1.731   3.299   3.048
  796SOL     OW 4853   0.317   2.409   3.142
  796SOL    HW1 4854   0.355   2.350   3.214
  796SOL    HW2 4855   0.357   2.383   3.054
  797SOL     OW 4856   1.001   1.896   3.016
  797SOL    HW1 4857   0.938   1.824   2.985
  797SOL    HW2 4858   1.094   1.860   3.016
  798SOL     OW 4859   0.770   3.192   2.163
  798SOL    HW1 4860   0.724   3.105   2.180
  798SOL    HW2 4861   0.861   3.189   2.204
  799SOL     OW 4862   0.618   3.429   3.146
  799SOL    HW1 4863   0.613   3.511   3.203
  799SOL    HW2 4864   0.707   3.426   3.101
  800SOL     OW 4865   1.352   1.914   2.030
  800SOL    HW1 4866   1.387   1.873   1.946
  800SOL    HW2 4867   1.262   1.876   2.050
  801SOL     OW 4868   1.300   2.315   2.553
  801SOL    HW1 4869   1.241   2.395   2.557
  801SOL    HW2 4870   1.315   2.280   2.646
  802SOL     OW 4871   0.039   2.939   2.162
  802SOL    HW1 4872   0.138   2.928   2.153
  802SOL    HW2 4873  -0.001   2.853   2.194
  803SOL     OW 4874   0.875   3.508   2.199
  803SOL    HW1 4875   0.798   3.473   2.145
  803SOL    HW2 4876   0.843   3.579   2.261
  804SOL     OW 4877   0.225   2.137   4.720
  804SOL    HW1 4878   0.260   2.120   4.812
  804SOL    HW2 4879   0.137   2.092   4.708
  805SOL     OW 4880   0.019   2.230   4.371
  805SOL    HW1 4881  -0.063   2.273   4.410
  805SOL    HW2 4882  -0.009   2.157   4.308
  806SOL     OW 4883   0.569   3.137   4.889
  806SOL    HW1 4884   0.476   3.130   4.852
  806SOL    HW2 4885   0.580   3.226   4.933
  807SOL     OW 4886   1.135   2.565   4.441
  807SOL    HW1 4887   1.192   2.643   4.416
  807SOL    HW2 4888   1.075   2.591   4.517
  808SOL     OW 4889   1.755   2.469   3.955
  808SOL    HW1 4890   1.743   2.456   3.856
  808SOL    HW2 4891   1.725   2.388   4.004
  809SOL     OW 4892   0.768   3.006   4.747
  809SOL    HW1 4893   0.690   3.023   4.807
  809SOL    HW2 4894   0.802   3.093   4.711
  810SOL     OW 4895   0.685   2.874   4.389
  810SOL    HW1 4896   0.754   2.858   4.459
  810SOL    HW2 4897   0.612   2.931   4.427
  811SOL     OW 4898   0.335   3.297   4.785
  811SOL    HW1 4899   0.257   3.266   4.732
  811SOL    HW2 4900   0.393   3.355   4.728
  812SOL     OW 4901   1.603   2.309   4.461
  812SOL    HW1 4902   1.529   2.355   4.411
  812SOL    HW2 4903   1.654   2.377   4.514
  813SOL     OW 4904   0.231   3.575   4.207
  813SOL    HW1 4905   0.265   3.652   4.261
  813SOL    HW2 4906   0.275   3.575   4.117
  814SOL     OW 4907   0.230   3.296   4.262
  814SOL    HW1 4908   0.204   3.392   4.262
  814SOL    HW2 4909   0.159   3.242   4.307
  815SOL     OW 4910   0.240   2.953   4.610
  815SOL    HW1 4911   0.254   2.869   4.662
  815SOL    HW2 4912   0.185   3.017   4.665
  816SOL     OW 4913   0.620   3.648   5.163
  816SOL    HW1 4914   0.528   3.631   5.198
  816SOL    HW2 4915   0.648   3.740   5.189
  817SOL     OW 4916   0.606   2.826   3.847
  817SOL    HW1 4917   0.613   2.910   3.793
  817SOL    HW2 4918   0.652   2.839   3.935
  818SOL     OW 4919   0.122   2.505   4.287
  818SOL    HW1 4920   0.077   2.417   4.304
  818SOL    HW2 4921   0.121   2.559   4.371
  819SOL     OW 4922   1.842   3.629   4.083
  819SOL    HW1 4923   1.896   3.600   4.163
  819SOL    HW2 4924   1.872   3.719   4.054
  820SOL     OW 4925   0.027   3.458   3.841
  820SOL    HW1 4926   0.008   3.362   3.862
  820SOL    HW2 4927  -0.006   3.516   3.916
  821SOL     OW 4928   1.689   2.784   4.336
  821SOL    HW1 4929   1.784   2.755   4.344
  821SOL    HW2 4930   1.681   2.849   4.261
  822SOL     OW 4931   1.641   2.970   4.156
  822SOL    HW1 4932   1.727   2.972   4.104
  822SOL    HW2 4933   1.655   3.017   4.244
  823SOL     OW 4934   0.809   1.866   4.226
  823SOL    HW1 4935   0.849   1.957   4.217
  823SOL    HW2 4936   0.709   1.874   4.232
  824SOL     OW 4937   0.197   2.838   4.988
  824SOL    HW1 4938   0.286   2.793   4.974
  824SOL    HW2 4939   0.124   2.773   4.969
  825SOL     OW 4940   1.525   2.861   3.914
  825SOL    HW1 4941   1.462   2.785   3.927
  825SOL    HW2 4942   1.573   2.879   4.000
  826SOL     OW 4943   1.466   3.279   4.677
  826SOL    HW1 4944   1.407   3.285   4.757
  826SOL    HW2 4945   1.451   3.191   4.631
  827SOL     OW 4946   1.281   2.207   4.668
  827SOL    HW1 4947   1.195   2.157   4.655
  827SOL    HW2 4948   1.343   2.153   4.724
  828SOL     OW 4949   1.576   3.524   4.031
  828SOL    HW1 4950   1.665   3.570   4.034
  828SOL    HW2 4951   1.555   3.500   3.936
  829SOL     OW 4952   0.991   2.272   4.966
  829SOL    HW1 4953   0.914   2.306   5.020
  829SOL    HW2 4954   0.957   2.221   4.887
  830SOL     OW 4955   1.041   2.563   4.153
  830SOL    HW1 4956   1.067   2.559   4.249
  830SOL    HW2 4957   0.956   2.512   4.139
  831SOL     OW 4958   0.076   2.673   4.513
  831SOL    HW1 4959   0.175   2.661   4.522
  831SOL    HW2 4960   0.052   2.768   4.534
  832SOL     OW 4961   0.130   3.683   5.295
  832SOL    HW1 4962   0.120   3.668   5.394
  832SOL    HW2 4963   0.044   3.719   5.259
  833SOL     OW 4964   0.865   2.210   3.919
  833SOL    HW1 4965   0.924   2.273   3.870
  833SOL    HW2 4966   0.884   2.116   3.890
  834SOL     OW 4967   1.362   3.006   4.269
  834SOL    HW1 4968   1.445   2.977   4.221
  834SOL    HW2 4969   1.313   3.073   4.213
  835SOL     OW 4970   0.550   2.058   4.609
  835SOL    HW1 4971   0.545   2.053   4.709
  835SOL    HW2 4972   0.552   2.154   4.580
  836SOL     OW 4973   1.008   3.318   4.201
  836SOL    HW1 4974   0.962   3.390   4.149
  836SOL    HW2 4975   1.004   3.338   4.299
  837SOL     OW 4976   0.351   3.663   4.577
  837SOL    HW1 4977   0.401   3.577   4.583
  837SOL    HW2 4978   0.416   3.740   4.574
  838SOL     OW 4979   1.111   3.638   3.961
  838SOL    HW1 4980   1.051   3.576   4.011
  838SOL    HW2 4981   1.142   3.594   3.876
  839SOL     OW 4982   0.464   3.605   4.047
  839SOL    HW1 4983   0.497   3.644   4.133
  839SOL    HW2 4984   0.540   3.598   3.982
  840SOL     OW 4985   1.400   1.969   4.150
  840SOL    HW1 4986   1.376   1.932   4.060
  840SOL    HW2 4987   1.499   1.985   4.154
  841SOL     OW 4988   0.940   3.560   4.628
  841SOL    HW1 4989   1.020   3.503   4.649
  841SOL    HW2 4990   0.891   3.520   4.551
  842SOL     OW 4991   0.614   1.984   3.841
  842SOL    HW1 4992   0.712   1.962   3.848
  842SOL    HW2 4993   0.583   1.967   3.748
  843SOL     OW 4994   0.803   3.264   4.648
  843SOL    HW1 4995   0.893   3.278   4.606
  843SOL    HW2 4996   0.732   3.266   4.577
  844SOL     OW 4997   0.922   2.365   4.623
  844SOL    HW1 4998   0.897   2.356   4.527
  844SOL    HW2 4999   0.970   2.283   4.654
  845SOL     OW 5000   0.539   1.926   4.236
  845SOL    HW1 5001   0.458   1.927   4.294
  845SOL    HW2 5002   0.542   2.009   4.181
  846SOL     OW 5003   1.434   3.050   3.765
  846SOL    HW1 5004   1.466   2.974   3.822
  846SOL    HW2 5005   1.342   3.077   3.795
  847SOL     OW 5006   0.297   1.897   3.895
  847SOL    HW1 5007   0.346   1.981   3.874
  847SOL    HW2 5008   0.359   1.832   3.940
  848SOL     OW 5009   0.935   2.098   4.204
  848SOL    HW1 5010   0.887   2.139   4.126
  848SOL    HW2 5011   1.034   2.096   4.185
  849SOL     OW 5012   1.227   3.432   4.517
  849SOL    HW1 5013   1.248   3.506   4.452
  849SOL    HW2 5014   1.295   3.432   4.590
  850SOL     OW 5015   0.459   3.014   4.465
  850SOL    HW1 5016   0.388   2.987   4.530
  850SOL    HW2 5017   0.433   2.986   4.372
  851SOL     OW 5018   1.271   3.659   4.315
  851SOL    HW1 5019   1.315   3.723   4.251
  851SOL    HW2 5020   1.221   3.711   4.385
  852SOL     OW 5021   1.032   2.411   3.740
  852SOL    HW1 5022   0.991   2.493   3.701
  852SOL    HW2 5023   1.096   2.437   3.813
  853SOL     OW 5024   0.561   2.084   4.871
  853SOL    HW1 5025   0.599   2.000   4.908
  853SOL    HW2 5026   0.473   2.103   4.915
  854SOL     OW 5027   0.866   2.316   4.366
  854SOL    HW1 5028   0.834   2.388   4.304
  854SOL    HW2 5029   0.890   2.235   4.313
  855SOL     OW 5030   1.017   1.901   4.477
  855SOL    HW1 5031   0.945   1.906   4.408
  855SOL    HW2 5032   0.993   1.832   4.546
  856SOL     OW 5033   1.857   2.695   4.101
  856SOL    HW1 5034   1.899   2.631   4.165
  856SOL    HW2 5035   1.819   2.644   4.023
  857SOL     OW 5036   0.488   3.247   3.898
  857SOL    HW1 5037   0.401   3.232   3.945
  857SOL    HW2 5038   0.471   3.273   3.803
  858SOL     OW 5039   1.390   2.437   3.802
  858SOL    HW1 5040   1.336   2.416   3.883
  858SOL    HW2 5041   1.481   2.396   3.811
  859SOL     OW 5042   0.527   2.118   4.052
  859SOL    HW1 5043   0.554   2.059   3.977
  859SOL    HW2 5044   0.527   2.213   4.021
  860SOL     OW 5045   0.705   2.912   4.092
  860SOL    HW1 5046   0.691   2.919   4.191
  860SOL    HW2 5047   0.789   2.861   4.074
  861SOL     OW 5048   0.410   2.675   4.975
  861SOL    HW1 5049   0.496   2.687   5.025
  861SOL    HW2 5050   0.368   2.588   5.002
  862SOL     OW 5051   1.274   2.248   4.986
  862SOL    HW1 5052   1.295   2.322   5.050
  862SOL    HW2 5053   1.185   2.265   4.943
  863SOL     OW 5054   0.566   2.399   4.589
  863SOL    HW1 5055   0.578   2.465   4.515
  863SOL    HW2 5056   0.612   2.433   4.672
  864SOL     OW 5057   1.252   3.210   4.112
  864SOL    HW1 5058   1.302   3.287   4.152
  864SOL    HW2 5059   1.157   3.212   4.144
  865SOL     OW 5060   1.582   2.501   4.196
  865SOL    HW1 5061   1.551   2.562   4.269
  865SOL    HW2 5062   1.632   2.553   4.127
  866SOL     OW 5063   0.354   3.372   5.053
  866SOL    HW1 5064   0.333   3.328   4.966
  866SOL    HW2 5065   0.451   3.398   5.056
  867SOL     OW 5066   0.573   2.732   4.753
  867SOL    HW1 5067   0.617   2.821   4.744
  867SOL    HW2 5068   0.510   2.732   4.830
  868SOL     OW 5069   1.209   2.387   3.999
  868SOL    HW1 5070   1.222   2.303   4.053
  868SOL    HW2 5071   1.180   2.461   4.059
  869SOL     OW 5072   0.307   2.075   4.955
  869SOL    HW1 5073   0.284   2.112   5.045
  869SOL    HW2 5074   0.277   1.980   4.949
  870SOL     OW 5075   0.037   3.172   5.006
  870SOL    HW1 5076   0.090   3.123   5.074
  870SOL    HW2 5077   0.059   3.270   5.011
  871SOL     OW 5078   0.732   2.496   4.788
  871SOL    HW1 5079   0.791   2.470   4.712
  871SOL    HW2 5080   0.704   2.592   4.777
  872SOL     OW 5081   0.307   1.925   4.342
  872SOL    HW1 5082   0.296   2.019   4.375
  872SOL    HW2 5083   0.302   1.862   4.419
  873SOL     OW 5084   1.622   2.229   4.098
  873SOL    HW1 5085   1.624   2.153   4.162
  873SOL    HW2 5086   1.574   2.306   4.138
  874SOL     OW 5087   1.540   2.136   3.849
  874SOL    HW1 5088   1.479   2.061   3.872
  874SOL    HW2 5089   1.562   2.188   3.932
  875SOL     OW 5090   1.303   2.700   3.766
  875SOL    HW1 5091   1.337   2.607   3.781
  875SOL    HW2 5092   1.321   2.727   3.671
  876SOL     OW 5093   1.068   3.195   4.573
  876SOL    HW1 5094   1.075   3.111   4.518
  876SOL    HW2 5095   1.130   3.264   4.537
  877SOL     OW 5096   0.319   2.672   4.673
  877SOL    HW1 5097   0.412   2.708   4.678
  877SOL    HW2 5098   0.313   2.587   4.725
  878SOL     OW 5099   0.339   2.371   4.730
  878SOL    HW1 5100   0.287   2.288   4.713
  878SOL    HW2 5101   0.416   2.376   4.666
  879SOL     OW 5102   1.160   2.069   5.201
  879SOL    HW1 5103   1.160   2.133   5.278
  879SOL    HW2 5104   1.188   2.117   5.118
  880SOL     OW 5105   0.088   3.663   4.651
  880SOL    HW1 5106   0.046   3.577   4.624
  880SOL    HW2 5107   0.182   3.666   4.617
  881SOL     OW 5108   0.504   3.430   4.634
  881SOL    HW1 5109   0.570   3.504   4.643
  881SOL    HW2 5110   0.548   3.351   4.592
  882SOL     OW 5111   0.040   2.406   4.838
  882SOL    HW1 5112   0.125   2.373   4.797
  882SOL    HW2 5113   0.053   2.421   4.936
  883SOL     OW 5114   0.815   2.434   4.049
  883SOL    HW1 5115   0.822   2.345   4.003
  883SOL    HW2 5116   0.721   2.468   4.041
  884SOL     OW 5117   0.671   2.326   4.993
  884SOL    HW1 5118   0.637   2.237   4.963
  884SOL    HW2 5119   0.697   2.380   4.913
  885SOL     OW 5120   0.930   3.540   5.189
  885SOL    HW1 5121   0.906   3.522   5.094
  885SOL    HW2 5122   0.960   3.634   5.199
  886SOL     OW 5123   1.302   2.717   4.033
  886SOL    HW1 5124   1.216   2.686   4.075
  886SOL    HW2 5125   1.298   2.703   3.934
  887SOL     OW 5126   0.083   3.120   4.746
  887SOL    HW1 5127   0.078   3.119   4.846
  887SOL    HW2 5128   0.000   3.079   4.708
  888SOL     OW 5129   1.726   1.997   4.247
  888SOL    HW1 5130   1.799   1.980   4.180
  888SOL    HW2 5131   1.695   1.910   4.285
  889SOL     OW 5132   1.388   3.435   4.201
  889SOL    HW1 5133   1.455   3.447   4.127
  889SOL    HW2 5134   1.348   3.524   4.224
  890SOL     OW 5135   1.280   2.789   4.396
  890SOL    HW1 5136   1.340   2.708   4.398
  890SOL    HW2 5137   1.320   2.858   4.336
  891SOL     OW 5138   0.672   3.478   3.878
  891SOL    HW1 5139   0.681   3.488   3.779
  891SOL    HW2 5140   0.632   3.389   3.899
  892SOL     OW 5141   1.841   2.037   4.687
  892SOL    HW1 5142   1.880   1.952   4.651
  892SOL    HW2 5143   1.743   2.039   4.668
  893SOL     OW 5144   0.263   2.188   4.444
  893SOL    HW1 5145   0.184   2.239   4.410
  893SOL    HW2 5146   0.254   2.173   4.542
  894SOL     OW 5147   1.194   3.474   3.755
  894SOL    HW1 5148   1.200   3.381   3.792
  894SOL    HW2 5149   1.135   3.474   3.675
  895SOL     OW 5150   0.916   2.772   4.015
  895SOL    HW1 5151   0.979   2.810   3.947
  895SOL    HW2 5152   0.956   2.689   4.054
  896SOL     OW 5153   1.039   2.960   4.420
  896SOL    HW1 5154   0.969   2.913   4.474
  896SOL    HW2 5155   1.098   2.892   4.377
  897SOL     OW 5156   1.014   2.098   4.695
  897SOL    HW1 5157   1.006   2.062   4.602
  897SOL    HW2 5158   1.012   2.022   4.760
  898SOL     OW 5159   0.075   2.207   3.757
  898SOL    HW1 5160  -0.017   2.179   3.728
  898SOL    HW2 5161   0.106   2.284   3.701
  899SOL     OW 5162   0.072   2.028   4.042
  899SOL    HW1 5163   0.055   2.111   3.988
  899SOL    HW2 5164   0.162   1.991   4.020
  900SOL     OW 5165   1.183   3.197   3.843
  900SOL    HW1 5166   1.084   3.186   3.845
  900SOL    HW2 5167   1.217   3.212   3.936
  901SOL     OW 5168   1.450   3.082   5.357
  901SOL    HW1 5169   1.441   3.072   5.456
  901SOL    HW2 5170   1.546   3.075   5.331
  902SOL     OW 5171   1.225   2.187   4.173
  902SOL    HW1 5172   1.290   2.113   4.162
  902SOL    HW2 5173   1.245   2.237   4.257
  903SOL     OW 5174   0.594   2.607   4.376
  903SOL    HW1 5175   0.644   2.692   4.357
  903SOL    HW2 5176   0.506   2.609   4.328
  904SOL     OW 5177   1.730   2.796   5.241
  904SOL    HW1 5178   1.768   2.887   5.256
  904SOL    HW2 5179   1.722   2.779   5.142
  905SOL     OW 5180   0.859   3.236   3.740
  905SOL    HW1 5181   0.813   3.251   3.828
  905SOL    HW2 5182   0.903   3.321   3.710
  906SOL     OW 5183   0.661   3.652   4.677
  906SOL    HW1 5184   0.615   3.740   4.664
  906SOL    HW2 5185   0.760   3.664   4.670
  907SOL     OW 5186   0.859   2.818   4.585
  907SOL    HW1 5187   0.913   2.749   4.633
  907SOL    HW2 5188   0.827   2.887   4.651
  908SOL     OW 5189   1.083   2.846   3.811
  908SOL    HW1 5190   1.060   2.899   3.729
  908SOL    HW2 5191   1.164   2.790   3.792
  909SOL     OW 5192   1.861   3.431   4.575
  909SOL    HW1 5193   1.790   3.419   4.505
  909SOL    HW2 5194   1.862   3.352   4.635
  910SOL     OW 5195   0.428   2.286   4.244
  910SOL    HW1 5196   0.458   2.214   4.182
  910SOL    HW2 5197   0.389   2.246   4.327
  911SOL     OW 5198   0.812   3.448   4.411
  911SOL    HW1 5199   0.844   3.458   4.317
  911SOL    HW2 5200   0.733   3.386   4.413
  912SOL     OW 5201   1.424   2.076   4.836
  912SOL    HW1 5202   1.476   2.011   4.891
  912SOL    HW2 5203   1.375   2.139   4.897
  913SOL     OW 5204   1.001   1.896   4.878
  913SOL    HW1 5205   0.938   1.824   4.847
  913SOL    HW2 5206   1.094   1.860   4.878
  914SOL     OW 5207   0.770   3.192   4.025
  914SOL    HW1 5208   0.724   3.105   4.042
  914SOL    HW2 5209   0.861   3.189   4.066
  915SOL     OW 5210   1.352   1.914   3.892
  915SOL    HW1 5211   1.387   1.873   3.808
  915SOL    HW2 5212   1.262   1.876   3.912
  916SOL     OW 5213   1.300   2.315   4.415
  916SOL    HW1 5214   1.241   2.395   4.419
  916SOL    HW2 5215   1.315   2.280   4.508
  917SOL     OW 5216   1.593   2.083   4.606
  917SOL    HW1 5217   1.509   2.082   4.660
  917SOL    HW2 5218   1.595   2.166   4.550
  918SOL     OW 5219   0.875   3.508   4.061
  918SOL    HW1 5220   0.798   3.473   4.007
  918SOL    HW2 5221   0.843   3.579   4.123
  919SOL     OW 5222   0.019   4.092   0.647
  919SOL    HW1 5223  -0.063   4.135   0.686
  919SOL    HW2 5224  -0.009   4.019   0.584
  920SOL     OW 5225   0.569   4.999   1.165
  920SOL    HW1 5226   0.476   4.992   1.128
  920SOL    HW2 5227   0.580   5.088   1.209
  921SOL     OW 5228   1.555   5.235   0.703
  921SOL    HW1 5229   1.498   5.219   0.784
  921SOL    HW2 5230   1.496   5.245   0.623
  922SOL     OW 5231   1.755   4.331   0.231
  922SOL    HW1 5232   1.743   4.318   0.132
  922SOL    HW2 5233   1.725   4.250   0.280
  923SOL     OW 5234   0.768   4.868   1.023
  923SOL    HW1 5235   0.690   4.885   1.083
  923SOL    HW2 5236   0.802   4.955   0.987
  924SOL     OW 5237   0.685   4.736   0.665
  924SOL    HW1 5238   0.754   4.720   0.735
  924SOL    HW2 5239   0.612   4.793   0.703
  925SOL     OW 5240   0.686   4.885   1.803
  925SOL    HW1 5241   0.746   4.964   1.817
  925SOL    HW2 5242   0.600   4.916   1.762
  926SOL     OW 5243   0.335   5.159   1.061
  926SOL    HW1 5244   0.257   5.128   1.008
  926SOL    HW2 5245   0.393   5.217   1.004
  927SOL     OW 5246   1.603   4.171   0.737
  927SOL    HW1 5247   1.529   4.217   0.687
  927SOL    HW2 5248   1.654   4.239   0.790
  928SOL     OW 5249   0.240   4.815   0.886
  928SOL    HW1 5250   0.254   4.731   0.938
  928SOL    HW2 5251   0.185   4.879   0.941
  929SOL     OW 5252   0.606   4.688   0.123
  929SOL    HW1 5253   0.613   4.772   0.069
  929SOL    HW2 5254   0.652   4.701   0.211
  930SOL     OW 5255   1.594   3.838   1.480
  930SOL    HW1 5256   1.576   3.905   1.408
  930SOL    HW2 5257   1.591   3.884   1.569
  931SOL     OW 5258   0.122   4.367   0.563
  931SOL    HW1 5259   0.077   4.279   0.580
  931SOL    HW2 5260   0.121   4.421   0.647
  932SOL     OW 5261   1.689   4.646   0.612
  932SOL    HW1 5262   1.784   4.617   0.620
  932SOL    HW2 5263   1.681   4.711   0.537
  933SOL     OW 5264   1.641   4.832   0.432
  933SOL    HW1 5265   1.727   4.834   0.380
  933SOL    HW2 5266   1.655   4.879   0.520
  934SOL     OW 5267   0.113   4.461   1.597
  934SOL    HW1 5268   0.201   4.448   1.642
  934SOL    HW2 5269   0.100   4.558   1.575
  935SOL     OW 5270   1.293   4.952   1.423
  935SOL    HW1 5271   1.330   4.879   1.365
  935SOL    HW2 5272   1.345   4.957   1.508
  936SOL     OW 5273   0.197   4.700   1.264
  936SOL    HW1 5274   0.286   4.655   1.250
  936SOL    HW2 5275   0.124   4.635   1.245
  937SOL     OW 5276   1.525   4.723   0.190
  937SOL    HW1 5277   1.462   4.647   0.203
  937SOL    HW2 5278   1.573   4.741   0.276
  938SOL     OW 5279   0.317   3.975   1.801
  938SOL    HW1 5280   0.388   4.046   1.807
  938SOL    HW2 5281   0.229   4.014   1.829
  939SOL     OW 5282   1.466   5.141   0.953
  939SOL    HW1 5283   1.407   5.147   1.033
  939SOL    HW2 5284   1.451   5.053   0.907
  940SOL     OW 5285   0.598   4.453   0.270
  940SOL    HW1 5286   0.622   4.522   0.202
  940SOL    HW2 5287   0.520   4.486   0.324
  941SOL     OW 5288   1.281   4.069   0.944
  941SOL    HW1 5289   1.195   4.019   0.931
  941SOL    HW2 5290   1.343   4.015   1.000
  942SOL     OW 5291   1.394   4.193   1.674
  942SOL    HW1 5292   1.374   4.236   1.762
  942SOL    HW2 5293   1.472   4.131   1.683
  943SOL     OW 5294   0.991   4.134   1.242
  943SOL    HW1 5295   0.914   4.168   1.296
  943SOL    HW2 5296   0.957   4.083   1.163
  944SOL     OW 5297   1.041   4.425   0.429
  944SOL    HW1 5298   1.067   4.421   0.525
  944SOL    HW2 5299   0.956   4.374   0.415
  945SOL     OW 5300   0.076   4.535   0.789
  945SOL    HW1 5301   0.175   4.523   0.798
  945SOL    HW2 5302   0.052   4.630   0.810
  946SOL     OW 5303   0.865   4.072   0.195
  946SOL    HW1 5304   0.924   4.135   0.146
  946SOL    HW2 5305   0.884   3.978   0.166
  947SOL     OW 5306   1.719   4.309   1.831
  947SOL    HW1 5307   1.693   4.398   1.795
  947SOL    HW2 5308   1.717   4.241   1.758
  948SOL     OW 5309   1.362   4.868   0.545
  948SOL    HW1 5310   1.445   4.839   0.497
  948SOL    HW2 5311   1.313   4.935   0.489
  949SOL     OW 5312   0.550   3.920   0.885
  949SOL    HW1 5313   0.545   3.915   0.985
  949SOL    HW2 5314   0.552   4.016   0.856
  950SOL     OW 5315   1.795   4.790   0.873
  950SOL    HW1 5316   1.733   4.775   0.797
  950SOL    HW2 5317   1.743   4.801   0.958
  951SOL     OW 5318   0.321   4.667   0.242
  951SOL    HW1 5319   0.403   4.706   0.200
  951SOL    HW2 5320   0.294   4.585   0.193
  952SOL     OW 5321   1.458   4.459   0.728
  952SOL    HW1 5322   1.453   4.394   0.803
  952SOL    HW2 5323   1.538   4.518   0.741
  953SOL     OW 5324   1.632   5.101   0.081
  953SOL    HW1 5325   1.600   5.195   0.071
  953SOL    HW2 5326   1.556   5.038   0.069
  954SOL     OW 5327   1.400   3.831   0.426
  954SOL    HW1 5328   1.376   3.794   0.336
  954SOL    HW2 5329   1.499   3.847   0.430
  955SOL     OW 5330   1.547   3.946   1.729
  955SOL    HW1 5331   1.542   3.983   1.821
  955SOL    HW2 5332   1.475   3.877   1.717
  956SOL     OW 5333   0.781   3.988   1.749
  956SOL    HW1 5334   0.848   3.927   1.792
  956SOL    HW2 5335   0.708   4.007   1.814
  957SOL     OW 5336   1.351   4.314   1.433
  957SOL    HW1 5337   1.379   4.271   1.518
  957SOL    HW2 5338   1.376   4.410   1.434
  958SOL     OW 5339   0.803   5.126   0.924
  958SOL    HW1 5340   0.893   5.140   0.882
  958SOL    HW2 5341   0.732   5.128   0.853
  959SOL     OW 5342   0.922   4.227   0.899
  959SOL    HW1 5343   0.897   4.218   0.803
  959SOL    HW2 5344   0.970   4.145   0.930
  960SOL     OW 5345   0.539   3.788   0.512
  960SOL    HW1 5346   0.458   3.789   0.570
  960SOL    HW2 5347   0.542   3.871   0.457
  961SOL     OW 5348   1.434   4.912   0.041
  961SOL    HW1 5349   1.466   4.836   0.098
  961SOL    HW2 5350   1.342   4.939   0.071
  962SOL     OW 5351   0.935   3.960   0.480
  962SOL    HW1 5352   0.887   4.001   0.402
  962SOL    HW2 5353   1.034   3.958   0.461
  963SOL     OW 5354   1.227   5.294   0.793
  963SOL    HW1 5355   1.248   5.368   0.728
  963SOL    HW2 5356   1.295   5.294   0.866
  964SOL     OW 5357   0.459   4.876   0.741
  964SOL    HW1 5358   0.388   4.849   0.806
  964SOL    HW2 5359   0.433   4.848   0.648
  965SOL     OW 5360   1.032   4.273   0.016
  965SOL    HW1 5361   0.991   4.355  -0.023
  965SOL    HW2 5362   1.096   4.299   0.089
  966SOL     OW 5363   0.078   4.280   1.386
  966SOL    HW1 5364   0.170   4.279   1.345
  966SOL    HW2 5365   0.072   4.354   1.453
  967SOL     OW 5366   0.561   3.946   1.147
  967SOL    HW1 5367   0.599   3.862   1.184
  967SOL    HW2 5368   0.473   3.965   1.191
  968SOL     OW 5369   0.866   4.178   0.642
  968SOL    HW1 5370   0.834   4.250   0.580
  968SOL    HW2 5371   0.890   4.097   0.589
  969SOL     OW 5372   1.017   3.763   0.753
  969SOL    HW1 5373   0.945   3.768   0.684
  969SOL    HW2 5374   0.993   3.694   0.822
  970SOL     OW 5375   1.429   4.897   0.867
  970SOL    HW1 5376   1.374   4.813   0.860
  970SOL    HW2 5377   1.455   4.926   0.775
  971SOL     OW 5378   1.466   4.314   0.992
  971SOL    HW1 5379   1.436   4.219   0.999
  971SOL    HW2 5380   1.539   4.330   1.058
  972SOL     OW 5381   1.857   4.557   0.377
  972SOL    HW1 5382   1.899   4.493   0.441
  972SOL    HW2 5383   1.819   4.506   0.299
  973SOL     OW 5384   1.664   5.004   0.657
  973SOL    HW1 5385   1.763   5.012   0.671
  973SOL    HW2 5386   1.619   5.088   0.688
  974SOL     OW 5387   1.390   4.299   0.078
  974SOL    HW1 5388   1.336   4.278   0.159
  974SOL    HW2 5389   1.481   4.258   0.087
  975SOL     OW 5390   1.754   4.947   1.588
  975SOL    HW1 5391   1.845   4.908   1.575
  975SOL    HW2 5392   1.762   5.043   1.612
  976SOL     OW 5393   1.638   4.823   1.079
  976SOL    HW1 5394   1.643   4.904   1.138
  976SOL    HW2 5395   1.552   4.825   1.028
  977SOL     OW 5396   0.915   3.813   1.402
  977SOL    HW1 5397   0.940   3.793   1.307
  977SOL    HW2 5398   0.987   3.869   1.444
  978SOL     OW 5399   0.705   4.774   0.368
  978SOL    HW1 5400   0.691   4.781   0.467
  978SOL    HW2 5401   0.789   4.723   0.350
  979SOL     OW 5402   0.410   4.537   1.251
  979SOL    HW1 5403   0.496   4.549   1.301
  979SOL    HW2 5404   0.368   4.450   1.278
  980SOL     OW 5405   1.274   4.110   1.262
  980SOL    HW1 5406   1.295   4.184   1.326
  980SOL    HW2 5407   1.185   4.127   1.219
  981SOL     OW 5408   0.367   4.824   0.501
  981SOL    HW1 5409   0.360   4.907   0.445
  981SOL    HW2 5410   0.371   4.744   0.441
  982SOL     OW 5411   0.566   4.261   0.865
  982SOL    HW1 5412   0.578   4.327   0.791
  982SOL    HW2 5413   0.612   4.295   0.948
  983SOL     OW 5414   1.582   4.363   0.472
  983SOL    HW1 5415   1.551   4.424   0.545
  983SOL    HW2 5416   1.632   4.415   0.403
  984SOL     OW 5417   0.402   4.475   1.598
  984SOL    HW1 5418   0.470   4.530   1.551
  984SOL    HW2 5419   0.442   4.387   1.625
  985SOL     OW 5420   1.587   4.503   1.670
  985SOL    HW1 5421   1.495   4.541   1.665
  985SOL    HW2 5422   1.647   4.550   1.605
  986SOL     OW 5423   1.013   3.829   1.770
  986SOL    HW1 5424   1.019   3.914   1.718
  986SOL    HW2 5425   1.045   3.753   1.713
  987SOL     OW 5426   0.504   3.774   1.740
  987SOL    HW1 5427   0.462   3.717   1.670
  987SOL    HW2 5428   0.438   3.843   1.772
  988SOL     OW 5429   1.360   4.586   1.045
  988SOL    HW1 5430   1.285   4.586   0.979
  988SOL    HW2 5431   1.397   4.494   1.054
  989SOL     OW 5432   1.209   4.249   0.275
  989SOL    HW1 5433   1.222   4.165   0.329
  989SOL    HW2 5434   1.180   4.323   0.335
  990SOL     OW 5435   0.037   5.034   1.282
  990SOL    HW1 5436   0.090   4.985   1.350
  990SOL    HW2 5437   0.059   5.132   1.287
  991SOL     OW 5438   1.728   4.659   1.854
  991SOL    HW1 5439   1.682   4.652   1.765
  991SOL    HW2 5440   1.666   4.703   1.920
  992SOL     OW 5441   0.307   3.787   0.618
  992SOL    HW1 5442   0.296   3.881   0.651
  992SOL    HW2 5443   0.302   3.724   0.695
  993SOL     OW 5444   1.622   4.091   0.374
  993SOL    HW1 5445   1.624   4.015   0.438
  993SOL    HW2 5446   1.574   4.168   0.414
  994SOL     OW 5447   1.859   5.242   1.605
  994SOL    HW1 5448   1.873   5.269   1.510
  994SOL    HW2 5449   1.942   5.264   1.658
  995SOL     OW 5450   0.350   4.622   1.804
  995SOL    HW1 5451   0.426   4.666   1.852
  995SOL    HW2 5452   0.385   4.575   1.722
  996SOL     OW 5453   1.540   3.998   0.125
  996SOL    HW1 5454   1.479   3.923   0.148
  996SOL    HW2 5455   1.562   4.050   0.208
  997SOL     OW 5456   1.303   4.562   0.042
  997SOL    HW1 5457   1.337   4.469   0.057
  997SOL    HW2 5458   1.321   4.589  -0.053
  998SOL     OW 5459   0.319   4.534   0.949
  998SOL    HW1 5460   0.412   4.570   0.954
  998SOL    HW2 5461   0.313   4.449   1.001
  999SOL     OW 5462   0.339   4.233   1.006
  999SOL    HW1 5463   0.287   4.150   0.989
  999SOL    HW2 5464   0.416   4.238   0.942
 1000SOL     OW 5465   1.138   4.104   1.678
 1000SOL    HW1 5466   1.093   4.167   1.742
 1000SOL    HW2 5467   1.231   4.135   1.661
 1001SOL     OW 5468   1.160   3.931   1.477
 1001SOL    HW1 5469   1.160   3.995   1.554
 1001SOL    HW2 5470   1.188   3.979   1.394
 1002SOL     OW 5471   0.008   5.050   0.200
 1002SOL    HW1 5472  -0.085   5.071   0.169
 1002SOL    HW2 5473   0.018   4.951   0.213
 1003SOL     OW 5474   0.040   4.268   1.114
 1003SOL    HW1 5475   0.125   4.235   1.073
 1003SOL    HW2 5476   0.053   4.283   1.212
 1004SOL     OW 5477   0.189   4.244   1.722
 1004SOL    HW1 5478   0.248   4.204   1.652
 1004SOL    HW2 5479   0.131   4.315   1.681
 1005SOL     OW 5480   1.369   4.674   1.660
 1005SOL    HW1 5481   1.408   4.763   1.680
 1005SOL    HW2 5482   1.379   4.654   1.563
 1006SOL     OW 5483   0.815   4.296   0.325
 1006SOL    HW1 5484   0.822   4.207   0.279
 1006SOL    HW2 5485   0.721   4.330   0.317
 1007SOL     OW 5486   1.657   4.328   1.206
 1007SOL    HW1 5487   1.619   4.259   1.268
 1007SOL    HW2 5488   1.739   4.292   1.162
 1008SOL     OW 5489   0.671   4.188   1.269
 1008SOL    HW1 5490   0.637   4.099   1.239
 1008SOL    HW2 5491   0.697   4.242   1.189
 1009SOL     OW 5492   0.159   4.861   1.466
 1009SOL    HW1 5493   0.181   4.800   1.542
 1009SOL    HW2 5494   0.169   4.812   1.380
 1010SOL     OW 5495   1.347   4.783   1.234
 1010SOL    HW1 5496   1.371   4.720   1.160
 1010SOL    HW2 5497   1.257   4.823   1.216
 1011SOL     OW 5498   1.302   4.579   0.309
 1011SOL    HW1 5499   1.216   4.548   0.351
 1011SOL    HW2 5500   1.298   4.565   0.210
 1012SOL     OW 5501   0.083   4.982   1.022
 1012SOL    HW1 5502   0.078   4.981   1.122
 1012SOL    HW2 5503   0.000   4.941   0.984
 1013SOL     OW 5504   0.903   3.810   0.133
 1013SOL    HW1 5505   0.954   3.811   0.047
 1013SOL    HW2 5506   0.959   3.768   0.204
 1014SOL     OW 5507   1.726   3.859   0.523
 1014SOL    HW1 5508   1.799   3.842   0.456
 1014SOL    HW2 5509   1.695   3.772   0.561
 1015SOL     OW 5510   1.280   4.651   0.672
 1015SOL    HW1 5511   1.340   4.570   0.674
 1015SOL    HW2 5512   1.320   4.720   0.612
 1016SOL     OW 5513   0.263   4.050   0.720
 1016SOL    HW1 5514   0.184   4.101   0.686
 1016SOL    HW2 5515   0.254   4.035   0.818
 1017SOL     OW 5516   0.916   4.634   0.291
 1017SOL    HW1 5517   0.979   4.672   0.223
 1017SOL    HW2 5518   0.956   4.551   0.330
 1018SOL     OW 5519   0.372   5.012   1.490
 1018SOL    HW1 5520   0.359   5.105   1.456
 1018SOL    HW2 5521   0.288   4.960   1.477
 1019SOL     OW 5522   1.614   5.016   1.289
 1019SOL    HW1 5523   1.674   5.019   1.369
 1019SOL    HW2 5524   1.539   5.080   1.302
 1020SOL     OW 5525   1.014   3.960   0.971
 1020SOL    HW1 5526   1.006   3.924   0.878
 1020SOL    HW2 5527   1.012   3.884   1.036
 1021SOL     OW 5528   1.709   4.109   1.381
 1021SOL    HW1 5529   1.782   4.178   1.385
 1021SOL    HW2 5530   1.737   4.034   1.322
 1022SOL     OW 5531   0.105   4.737   1.726
 1022SOL    HW1 5532   0.028   4.704   1.780
 1022SOL    HW2 5533   0.190   4.707   1.768
 1023SOL     OW 5534   0.672   3.927   1.489
 1023SOL    HW1 5535   0.762   3.911   1.449
 1023SOL    HW2 5536   0.680   3.932   1.588
 1024SOL     OW 5537   1.440   4.580   1.398
 1024SOL    HW1 5538   1.383   4.632   1.335
 1024SOL    HW2 5539   1.536   4.592   1.374
 1025SOL     OW 5540   0.072   3.890   0.318
 1025SOL    HW1 5541   0.055   3.973   0.264
 1025SOL    HW2 5542   0.162   3.853   0.296
 1026SOL     OW 5543   0.613   4.566   1.431
 1026SOL    HW1 5544   0.669   4.647   1.414
 1026SOL    HW2 5545   0.672   4.486   1.434
 1027SOL     OW 5546   0.716   4.289   1.708
 1027SOL    HW1 5547   0.735   4.354   1.782
 1027SOL    HW2 5548   0.776   4.209   1.717
 1028SOL     OW 5549   1.450   4.944   1.633
 1028SOL    HW1 5550   1.441   4.934   1.732
 1028SOL    HW2 5551   1.546   4.937   1.607
 1029SOL     OW 5552   1.674   4.607   1.254
 1029SOL    HW1 5553   1.647   4.518   1.217
 1029SOL    HW2 5554   1.675   4.675   1.181
 1030SOL     OW 5555   1.225   4.049   0.449
 1030SOL    HW1 5556   1.290   3.975   0.438
 1030SOL    HW2 5557   1.245   4.099   0.533
 1031SOL     OW 5558   0.594   4.469   0.652
 1031SOL    HW1 5559   0.644   4.554   0.633
 1031SOL    HW2 5560   0.506   4.471   0.604
 1032SOL     OW 5561   1.777   4.066   1.642
 1032SOL    HW1 5562   1.760   4.097   1.548
 1032SOL    HW2 5563   1.693   4.029   1.680
 1033SOL     OW 5564   1.730   4.658   1.517
 1033SOL    HW1 5565   1.768   4.749   1.532
 1033SOL    HW2 5566   1.722   4.641   1.418
 1034SOL     OW 5567   1.083   4.708   0.087
 1034SOL    HW1 5568   1.060   4.761   0.005
 1034SOL    HW2 5569   1.164   4.652   0.068
 1035SOL     OW 5570   0.079   4.964   0.653
 1035SOL    HW1 5571   0.078   4.917   0.741
 1035SOL    HW2 5572   0.161   4.936   0.602
 1036SOL     OW 5573   0.317   4.271   1.280
 1036SOL    HW1 5574   0.355   4.212   1.352
 1036SOL    HW2 5575   0.357   4.245   1.192
 1037SOL     OW 5576   1.424   3.938   1.112
 1037SOL    HW1 5577   1.476   3.873   1.167
 1037SOL    HW2 5578   1.375   4.001   1.173
 1038SOL     OW 5579   1.001   3.758   1.154
 1038SOL    HW1 5580   0.938   3.686   1.123
 1038SOL    HW2 5581   1.094   3.722   1.154
 1039SOL     OW 5582   0.770   5.054   0.301
 1039SOL    HW1 5583   0.724   4.967   0.318
 1039SOL    HW2 5584   0.861   5.051   0.342
 1040SOL     OW 5585   1.352   3.776   0.168
 1040SOL    HW1 5586   1.387   3.735   0.084
 1040SOL    HW2 5587   1.262   3.738   0.188
 1041SOL     OW 5588   1.300   4.177   0.691
 1041SOL    HW1 5589   1.241   4.257   0.695
 1041SOL    HW2 5590   1.315   4.142   0.784
 1042SOL     OW 5591   1.593   3.945   0.882
 1042SOL    HW1 5592   1.509   3.944   0.936
 1042SOL    HW2 5593   1.595   4.028   0.826
 1043SOL     OW 5594   0.039   4.801   0.300
 1043SOL    HW1 5595   0.138   4.790   0.291
 1043SOL    HW2 5596  -0.001   4.715   0.332
 1044SOL     OW 5597   0.230   4.352   1.975
 1044SOL    HW1 5598   0.137   4.350   2.012
 1044SOL    HW2 5599   0.231   4.313   1.883
 1045SOL     OW 5600   0.225   3.999   2.858
 1045SOL    HW1 5601   0.260   3.982   2.950
 1045SOL    HW2 5602   0.137   3.954   2.846
 1046SOL     OW 5603   1.555   5.235   2.565
 1046SOL    HW1 5604   1.498   5.219   2.646
 1046SOL    HW2 5605   1.496   5.245   2.485
 1047SOL     OW 5606   1.135   4.427   2.579
 1047SOL    HW1 5607   1.192   4.505   2.554
 1047SOL    HW2 5608   1.075   4.453   2.655
 1048SOL     OW 5609   1.755   4.331   2.093
 1048SOL    HW1 5610   1.743   4.318   1.994
 1048SOL    HW2 5611   1.725   4.250   2.142
 1049SOL     OW 5612   0.768   4.868   2.885
 1049SOL    HW1 5613   0.690   4.885   2.945
 1049SOL    HW2 5614   0.802   4.955   2.849
 1050SOL     OW 5615   0.850   4.522   3.685
 1050SOL    HW1 5616   0.846   4.598   3.750
 1050SOL    HW2 5617   0.872   4.558   3.594
 1051SOL     OW 5618   0.685   4.736   2.527
 1051SOL    HW1 5619   0.754   4.720   2.597
 1051SOL    HW2 5620   0.612   4.793   2.565
 1052SOL     OW 5621   0.335   5.159   2.923
 1052SOL    HW1 5622   0.257   5.128   2.870
 1052SOL    HW2 5623   0.393   5.217   2.866
 1053SOL     OW 5624   0.438   4.116   3.361
 1053SOL    HW1 5625   0.520   4.060   3.370
 1053SOL    HW2 5626   0.357   4.058   3.365
 1054SOL     OW 5627   0.240   4.815   2.748
 1054SOL    HW1 5628   0.254   4.731   2.800
 1054SOL    HW2 5629   0.185   4.879   2.803
 1055SOL     OW 5630   0.606   4.688   1.985
 1055SOL    HW1 5631   0.613   4.772   1.931
 1055SOL    HW2 5632   0.652   4.701   2.073
 1056SOL     OW 5633   1.689   4.646   2.474
 1056SOL    HW1 5634   1.784   4.617   2.482
 1056SOL    HW2 5635   1.681   4.711   2.399
 1057SOL     OW 5636   1.641   4.832   2.294
 1057SOL    HW1 5637   1.727   4.834   2.242
 1057SOL    HW2 5638   1.655   4.879   2.382
 1058SOL     OW 5639   0.113   4.461   3.459
 1058SOL    HW1 5640   0.201   4.448   3.504
 1058SOL    HW2 5641   0.100   4.558   3.437
 1059SOL     OW 5642   1.293   4.952   3.285
 1059SOL    HW1 5643   1.330   4.879   3.227
 1059SOL    HW2 5644   1.345   4.957   3.370
 1060SOL     OW 5645   0.809   3.728   2.364
 1060SOL    HW1 5646   0.849   3.819   2.355
 1060SOL    HW2 5647   0.709   3.736   2.370
 1061SOL     OW 5648   1.525   4.723   2.052
 1061SOL    HW1 5649   1.462   4.647   2.065
 1061SOL    HW2 5650   1.573   4.741   2.138
 1062SOL     OW 5651   0.317   3.975   3.663
 1062SOL    HW1 5652   0.388   4.046   3.669
 1062SOL    HW2 5653   0.229   4.014   3.691
 1063SOL     OW 5654   1.466   5.141   2.815
 1063SOL    HW1 5655   1.407   5.147   2.895
 1063SOL    HW2 5656   1.451   5.053   2.769
 1064SOL     OW 5657   0.598   4.453   2.132
 1064SOL    HW1 5658   0.622   4.522   2.064
 1064SOL    HW2 5659   0.520   4.486   2.186
 1065SOL     OW 5660   1.281   4.069   2.806
 1065SOL    HW1 5661   1.195   4.019   2.793
 1065SOL    HW2 5662   1.343   4.015   2.862
 1066SOL     OW 5663   0.807   4.329   3.327
 1066SOL    HW1 5664   0.760   4.326   3.416
 1066SOL    HW2 5665   0.756   4.274   3.261
 1067SOL     OW 5666   1.394   4.193   3.536
 1067SOL    HW1 5667   1.374   4.236   3.624
 1067SOL    HW2 5668   1.472   4.131   3.545
 1068SOL     OW 5669   0.973   4.614   3.434
 1068SOL    HW1 5670   1.019   4.530   3.405
 1068SOL    HW2 5671   0.917   4.648   3.359
 1069SOL     OW 5672   1.041   4.425   2.291
 1069SOL    HW1 5673   1.067   4.421   2.387
 1069SOL    HW2 5674   0.956   4.374   2.277
 1070SOL     OW 5675   0.865   4.072   2.057
 1070SOL    HW1 5676   0.924   4.135   2.008
 1070SOL    HW2 5677   0.884   3.978   2.028
 1071SOL     OW 5678   1.719   4.309   3.693
 1071SOL    HW1 5679   1.693   4.398   3.657
 1071SOL    HW2 5680   1.717   4.241   3.620
 1072SOL     OW 5681   1.362   4.868   2.407
 1072SOL    HW1 5682   1.445   4.839   2.359
 1072SOL    HW2 5683   1.313   4.935   2.351
 1073SOL     OW 5684   1.795   4.790   2.735
 1073SOL    HW1 5685   1.733   4.775   2.659
 1073SOL    HW2 5686   1.743   4.801   2.820
 1074SOL     OW 5687   0.321   4.667   2.104
 1074SOL    HW1 5688   0.403   4.706   2.062
 1074SOL    HW2 5689   0.294   4.585   2.055
 1075SOL     OW 5690   1.458   4.459   2.590
 1075SOL    HW1 5691   1.453   4.394   2.665
 1075SOL    HW2 5692   1.538   4.518   2.603
 1076SOL     OW 5693   0.202   4.009   3.360
 1076SOL    HW1 5694   0.122   4.069   3.347
 1076SOL    HW2 5695   0.192   3.960   3.446
 1077SOL     OW 5696   1.632   5.101   1.943
 1077SOL    HW1 5697   1.600   5.195   1.933
 1077SOL    HW2 5698   1.556   5.038   1.931
 1078SOL     OW 5699   1.351   4.314   3.295
 1078SOL    HW1 5700   1.379   4.271   3.380
 1078SOL    HW2 5701   1.376   4.410   3.296
 1079SOL     OW 5702   0.803   5.126   2.786
 1079SOL    HW1 5703   0.893   5.140   2.744
 1079SOL    HW2 5704   0.732   5.128   2.715
 1080SOL     OW 5705   1.434   4.912   1.903
 1080SOL    HW1 5706   1.466   4.836   1.960
 1080SOL    HW2 5707   1.342   4.939   1.933
 1081SOL     OW 5708   0.297   3.759   2.033
 1081SOL    HW1 5709   0.346   3.843   2.012
 1081SOL    HW2 5710   0.359   3.694   2.078
 1082SOL     OW 5711   1.076   4.407   3.326
 1082SOL    HW1 5712   0.996   4.346   3.329
 1082SOL    HW2 5713   1.157   4.354   3.302
 1083SOL     OW 5714   1.227   5.294   2.655
 1083SOL    HW1 5715   1.248   5.368   2.590
 1083SOL    HW2 5716   1.295   5.294   2.728
 1084SOL     OW 5717   0.459   4.876   2.603
 1084SOL    HW1 5718   0.388   4.849   2.668
 1084SOL    HW2 5719   0.433   4.848   2.510
 1085SOL     OW 5720   1.032   4.273   1.878
 1085SOL    HW1 5721   0.991   4.355   1.839
 1085SOL    HW2 5722   1.096   4.299   1.951
 1086SOL     OW 5723   0.078   4.280   3.248
 1086SOL    HW1 5724   0.170   4.279   3.207
 1086SOL    HW2 5725   0.072   4.354   3.315
 1087SOL     OW 5726   1.429   4.897   2.729
 1087SOL    HW1 5727   1.374   4.813   2.722
 1087SOL    HW2 5728   1.455   4.926   2.637
 1088SOL     OW 5729   1.466   4.314   2.854
 1088SOL    HW1 5730   1.436   4.219   2.861
 1088SOL    HW2 5731   1.539   4.330   2.920
 1089SOL     OW 5732   1.857   4.557   2.239
 1089SOL    HW1 5733   1.899   4.493   2.303
 1089SOL    HW2 5734   1.819   4.506   2.161
 1090SOL     OW 5735   1.664   5.004   2.519
 1090SOL    HW1 5736   1.763   5.012   2.533
 1090SOL    HW2 5737   1.619   5.088   2.550
 1091SOL     OW 5738   1.390   4.299   1.940
 1091SOL    HW1 5739   1.336   4.278   2.021
 1091SOL    HW2 5740   1.481   4.258   1.949
 1092SOL     OW 5741   1.638   4.823   2.941
 1092SOL    HW1 5742   1.643   4.904   3.000
 1092SOL    HW2 5743   1.552   4.825   2.890
 1093SOL     OW 5744   0.915   3.813   3.264
 1093SOL    HW1 5745   0.940   3.793   3.169
 1093SOL    HW2 5746   0.987   3.869   3.306
 1094SOL     OW 5747   0.980   4.840   3.581
 1094SOL    HW1 5748   0.881   4.846   3.591
 1094SOL    HW2 5749   1.003   4.760   3.525
 1095SOL     OW 5750   0.705   4.774   2.230
 1095SOL    HW1 5751   0.691   4.781   2.329
 1095SOL    HW2 5752   0.789   4.723   2.212
 1096SOL     OW 5753   1.274   4.110   3.124
 1096SOL    HW1 5754   1.295   4.184   3.188
 1096SOL    HW2 5755   1.185   4.127   3.081
 1097SOL     OW 5756   0.367   4.824   2.363
 1097SOL    HW1 5757   0.360   4.907   2.307
 1097SOL    HW2 5758   0.371   4.744   2.303
 1098SOL     OW 5759   0.566   4.261   2.727
 1098SOL    HW1 5760   0.578   4.327   2.653
 1098SOL    HW2 5761   0.612   4.295   2.810
 1099SOL     OW 5762   1.587   4.503   3.532
 1099SOL    HW1 5763   1.495   4.541   3.527
 1099SOL    HW2 5764   1.647   4.550   3.467
 1100SOL     OW 5765   1.013   3.829   3.632
 1100SOL    HW1 5766   1.019   3.914   3.580
 1100SOL    HW2 5767   1.045   3.753   3.575
 1101SOL     OW 5768   0.504   3.774   3.602
 1101SOL    HW1 5769   0.462   3.717   3.532
 1101SOL    HW2 5770   0.438   3.843   3.634
 1102SOL     OW 5771   0.573   4.594   2.891
 1102SOL    HW1 5772   0.617   4.683   2.882
 1102SOL    HW2 5773   0.510   4.594   2.968
 1103SOL     OW 5774   1.360   4.586   2.907
 1103SOL    HW1 5775   1.285   4.586   2.841
 1103SOL    HW2 5776   1.397   4.494   2.916
 1104SOL     OW 5777   1.209   4.249   2.137
 1104SOL    HW1 5778   1.222   4.165   2.191
 1104SOL    HW2 5779   1.180   4.323   2.197
 1105SOL     OW 5780   0.307   3.937   3.093
 1105SOL    HW1 5781   0.284   3.974   3.183
 1105SOL    HW2 5782   0.277   3.842   3.087
 1106SOL     OW 5783   0.037   5.034   3.144
 1106SOL    HW1 5784   0.090   4.985   3.212
 1106SOL    HW2 5785   0.059   5.132   3.149
 1107SOL     OW 5786   0.732   4.358   2.926
 1107SOL    HW1 5787   0.791   4.332   2.850
 1107SOL    HW2 5788   0.704   4.454   2.915
 1108SOL     OW 5789   1.622   4.091   2.236
 1108SOL    HW1 5790   1.624   4.015   2.300
 1108SOL    HW2 5791   1.574   4.168   2.276
 1109SOL     OW 5792   1.023   4.490   2.828
 1109SOL    HW1 5793   1.038   4.511   2.924
 1109SOL    HW2 5794   0.993   4.395   2.819
 1110SOL     OW 5795   1.540   3.998   1.987
 1110SOL    HW1 5796   1.479   3.923   2.010
 1110SOL    HW2 5797   1.562   4.050   2.070
 1111SOL     OW 5798   1.303   4.562   1.904
 1111SOL    HW1 5799   1.337   4.469   1.919
 1111SOL    HW2 5800   1.321   4.589   1.809
 1112SOL     OW 5801   0.319   4.534   2.811
 1112SOL    HW1 5802   0.412   4.570   2.816
 1112SOL    HW2 5803   0.313   4.449   2.863
 1113SOL     OW 5804   0.339   4.233   2.868
 1113SOL    HW1 5805   0.287   4.150   2.851
 1113SOL    HW2 5806   0.416   4.238   2.804
 1114SOL     OW 5807   1.160   3.931   3.339
 1114SOL    HW1 5808   1.160   3.995   3.416
 1114SOL    HW2 5809   1.188   3.979   3.256
 1115SOL     OW 5810   1.002   4.520   3.100
 1115SOL    HW1 5811   1.043   4.488   3.186
 1115SOL    HW2 5812   0.906   4.493   3.097
 1116SOL     OW 5813   0.189   4.244   3.584
 1116SOL    HW1 5814   0.248   4.204   3.514
 1116SOL    HW2 5815   0.131   4.315   3.543
 1117SOL     OW 5816   1.369   4.674   3.522
 1117SOL    HW1 5817   1.408   4.763   3.542
 1117SOL    HW2 5818   1.379   4.654   3.425
 1118SOL     OW 5819   0.815   4.296   2.187
 1118SOL    HW1 5820   0.822   4.207   2.141
 1118SOL    HW2 5821   0.721   4.330   2.179
 1119SOL     OW 5822   1.657   4.328   3.068
 1119SOL    HW1 5823   1.619   4.259   3.130
 1119SOL    HW2 5824   1.739   4.292   3.024
 1120SOL     OW 5825   0.473   4.224   2.053
 1120SOL    HW1 5826   0.534   4.304   2.057
 1120SOL    HW2 5827   0.378   4.255   2.060
 1121SOL     OW 5828   0.159   4.861   3.328
 1121SOL    HW1 5829   0.181   4.800   3.404
 1121SOL    HW2 5830   0.169   4.812   3.242
 1122SOL     OW 5831   1.347   4.783   3.096
 1122SOL    HW1 5832   1.371   4.720   3.022
 1122SOL    HW2 5833   1.257   4.823   3.078
 1123SOL     OW 5834   1.302   4.579   2.171
 1123SOL    HW1 5835   1.216   4.548   2.213
 1123SOL    HW2 5836   1.298   4.565   2.072
 1124SOL     OW 5837   0.083   4.982   2.884
 1124SOL    HW1 5838   0.078   4.981   2.984
 1124SOL    HW2 5839   0.000   4.941   2.846
 1125SOL     OW 5840   1.726   3.859   2.385
 1125SOL    HW1 5841   1.799   3.842   2.318
 1125SOL    HW2 5842   1.695   3.772   2.423
 1126SOL     OW 5843   1.280   4.651   2.534
 1126SOL    HW1 5844   1.340   4.570   2.536
 1126SOL    HW2 5845   1.320   4.720   2.474
 1127SOL     OW 5846   0.830   4.997   3.284
 1127SOL    HW1 5847   0.825   5.030   3.379
 1127SOL    HW2 5848   0.744   5.016   3.238
 1128SOL     OW 5849   0.916   4.634   2.153
 1128SOL    HW1 5850   0.979   4.672   2.085
 1128SOL    HW2 5851   0.956   4.551   2.192
 1129SOL     OW 5852   1.614   5.016   3.151
 1129SOL    HW1 5853   1.674   5.019   3.231
 1129SOL    HW2 5854   1.539   5.080   3.164
 1130SOL     OW 5855   1.039   4.822   2.558
 1130SOL    HW1 5856   0.969   4.775   2.612
 1130SOL    HW2 5857   1.098   4.754   2.515
 1131SOL     OW 5858   1.014   3.960   2.833
 1131SOL    HW1 5859   1.006   3.924   2.740
 1131SOL    HW2 5860   1.012   3.884   2.898
 1132SOL     OW 5861   1.709   4.109   3.243
 1132SOL    HW1 5862   1.782   4.178   3.247
 1132SOL    HW2 5863   1.737   4.034   3.184
 1133SOL     OW 5864   0.105   4.737   3.588
 1133SOL    HW1 5865   0.028   4.704   3.642
 1133SOL    HW2 5866   0.190   4.707   3.630
 1134SOL     OW 5867   0.672   3.927   3.351
 1134SOL    HW1 5868   0.762   3.911   3.311
 1134SOL    HW2 5869   0.680   3.932   3.450
 1135SOL     OW 5870   1.440   4.580   3.260
 1135SOL    HW1 5871   1.383   4.632   3.197
 1135SOL    HW2 5872   1.536   4.592   3.236
 1136SOL     OW 5873   0.072   3.890   2.180
 1136SOL    HW1 5874   0.055   3.973   2.126
 1136SOL    HW2 5875   0.162   3.853   2.158
 1137SOL     OW 5876   0.716   4.289   3.570
 1137SOL    HW1 5877   0.735   4.354   3.644
 1137SOL    HW2 5878   0.776   4.209   3.579
 1138SOL     OW 5879   1.674   4.607   3.116
 1138SOL    HW1 5880   1.647   4.518   3.079
 1138SOL    HW2 5881   1.675   4.675   3.043
 1139SOL     OW 5882   1.777   4.066   3.504
 1139SOL    HW1 5883   1.760   4.097   3.410
 1139SOL    HW2 5884   1.693   4.029   3.542
 1140SOL     OW 5885   0.859   4.680   2.723
 1140SOL    HW1 5886   0.913   4.611   2.771
 1140SOL    HW2 5887   0.827   4.749   2.789
 1141SOL     OW 5888   1.083   4.708   1.949
 1141SOL    HW1 5889   1.060   4.761   1.867
 1141SOL    HW2 5890   1.164   4.652   1.930
 1142SOL     OW 5891   0.079   4.964   2.515
 1142SOL    HW1 5892   0.078   4.917   2.603
 1142SOL    HW2 5893   0.161   4.936   2.464
 1143SOL     OW 5894   1.824   3.916   3.089
 1143SOL    HW1 5895   1.820   3.826   3.133
 1143SOL    HW2 5896   1.827   3.905   2.990
 1144SOL     OW 5897   0.317   4.271   3.142
 1144SOL    HW1 5898   0.355   4.212   3.214
 1144SOL    HW2 5899   0.357   4.245   3.054
 1145SOL     OW 5900   1.424   3.938   2.974
 1145SOL    HW1 5901   1.476   3.873   3.029
 1145SOL    HW2 5902   1.375   4.001   3.035
 1146SOL     OW 5903   0.770   5.054   2.163
 1146SOL    HW1 5904   0.724   4.967   2.180
 1146SOL    HW2 5905   0.861   5.051   2.204
 1147SOL     OW 5906   1.300   4.177   2.553
 1147SOL    HW1 5907   1.241   4.257   2.557
 1147SOL    HW2 5908   1.315   4.142   2.646
 1148SOL     OW 5909   0.039   4.801   2.162
 1148SOL    HW1 5910   0.138   4.790   2.153
 1148SOL    HW2 5911  -0.001   4.715   2.194
 1149SOL     OW 5912   0.225   3.999   4.720
 1149SOL    HW1 5913   0.260   3.982   4.812
 1149SOL    HW2 5914   0.137   3.954   4.708
 1150SOL     OW 5915   0.569   4.999   4.889
 1150SOL    HW1 5916   0.476   4.992   4.852
 1150SOL    HW2 5917   0.580   5.088   4.933
 1151SOL     OW 5918   1.755   4.331   3.955
 1151SOL    HW1 5919   1.743   4.318   3.856
 1151SOL    HW2 5920   1.725   4.250   4.004
 1152SOL     OW 5921   0.768   4.868   4.747
 1152SOL    HW1 5922   0.690   4.885   4.807
 1152SOL    HW2 5923   0.802   4.955   4.711
 1153SOL     OW 5924   0.685   4.736   4.389
 1153SOL    HW1 5925   0.754   4.720   4.459
 1153SOL    HW2 5926   0.612   4.793   4.427
 1154SOL     OW 5927   0.335   5.159   4.785
 1154SOL    HW1 5928   0.257   5.128   4.732
 1154SOL    HW2 5929   0.393   5.217   4.728
 1155SOL     OW 5930   1.603   4.171   4.461
 1155SOL    HW1 5931   1.529   4.217   4.411
 1155SOL    HW2 5932   1.654   4.239   4.514
 1156SOL     OW 5933   0.240   4.815   4.610
 1156SOL    HW1 5934   0.254   4.731   4.662
 1156SOL    HW2 5935   0.185   4.879   4.665
 1157SOL     OW 5936   0.606   4.688   3.847
 1157SOL    HW1 5937   0.613   4.772   3.793
 1157SOL    HW2 5938   0.652   4.701   3.935
 1158SOL     OW 5939   1.689   4.646   4.336
 1158SOL    HW1 5940   1.784   4.617   4.344
 1158SOL    HW2 5941   1.681   4.711   4.261
 1159SOL     OW 5942   1.641   4.832   4.156
 1159SOL    HW1 5943   1.727   4.834   4.104
 1159SOL    HW2 5944   1.655   4.879   4.244
 1160SOL     OW 5945   0.809   3.728   4.226
 1160SOL    HW1 5946   0.849   3.819   4.217
 1160SOL    HW2 5947   0.709   3.736   4.232
 1161SOL     OW 5948   0.197   4.700   4.988
 1161SOL    HW1 5949   0.286   4.655   4.974
 1161SOL    HW2 5950   0.124   4.635   4.969
 1162SOL     OW 5951   1.466   5.141   4.677
 1162SOL    HW1 5952   1.407   5.147   4.757
 1162SOL    HW2 5953   1.451   5.053   4.631
 1163SOL     OW 5954   0.598   4.453   3.994
 1163SOL    HW1 5955   0.622   4.522   3.926
 1163SOL    HW2 5956   0.520   4.486   4.048
 1164SOL     OW 5957   1.281   4.069   4.668
 1164SOL    HW1 5958   1.195   4.019   4.655
 1164SOL    HW2 5959   1.343   4.015   4.724
 1165SOL     OW 5960   0.991   4.134   4.966
 1165SOL    HW1 5961   0.914   4.168   5.020
 1165SOL    HW2 5962   0.957   4.083   4.887
 1166SOL     OW 5963   0.076   4.535   4.513
 1166SOL    HW1 5964   0.175   4.523   4.522
 1166SOL    HW2 5965   0.052   4.630   4.534
 1167SOL     OW 5966   1.362   4.868   4.269
 1167SOL    HW1 5967   1.445   4.839   4.221
 1167SOL    HW2 5968   1.313   4.935   4.213
 1168SOL     OW 5969   0.550   3.920   4.609
 1168SOL    HW1 5970   0.545   3.915   4.709
 1168SOL    HW2 5971   0.552   4.016   4.580
 1169SOL     OW 5972   1.795   4.790   4.597
 1169SOL    HW1 5973   1.733   4.775   4.521
 1169SOL    HW2 5974   1.743   4.801   4.682
 1170SOL     OW 5975   1.458   4.459   4.452
 1170SOL    HW1 5976   1.453   4.394   4.527
 1170SOL    HW2 5977   1.538   4.518   4.465
 1171SOL     OW 5978   1.400   3.831   4.150
 1171SOL    HW1 5979   1.376   3.794   4.060
 1171SOL    HW2 5980   1.499   3.847   4.154
 1172SOL     OW 5981   0.382   4.424   4.204
 1172SOL    HW1 5982   0.427   4.334   4.201
 1172SOL    HW2 5983   0.288   4.413   4.237
 1173SOL     OW 5984   0.803   5.126   4.648
 1173SOL    HW1 5985   0.893   5.140   4.606
 1173SOL    HW2 5986   0.732   5.128   4.577
 1174SOL     OW 5987   0.922   4.227   4.623
 1174SOL    HW1 5988   0.897   4.218   4.527
 1174SOL    HW2 5989   0.970   4.145   4.654
 1175SOL     OW 5990   0.539   3.788   4.236
 1175SOL    HW1 5991   0.458   3.789   4.294
 1175SOL    HW2 5992   0.542   3.871   4.181
 1176SOL     OW 5993   0.297   3.759   3.895
 1176SOL    HW1 5994   0.346   3.843   3.874
 1176SOL    HW2 5995   0.359   3.694   3.940
 1177SOL     OW 5996   0.935   3.960   4.204
 1177SOL    HW1 5997   0.887   4.001   4.126
 1177SOL    HW2 5998   1.034   3.958   4.185
 1178SOL     OW 5999   0.459   4.876   4.465
 1178SOL    HW1 6000   0.388   4.849   4.530
 1178SOL    HW2 6001   0.433   4.848   4.372
 1179SOL     OW 6002   1.017   3.763   4.477
 1179SOL    HW1 6003   0.945   3.768   4.408
 1179SOL    HW2 6004   0.993   3.694   4.546
 1180SOL     OW 6005   1.429   4.897   4.591
 1180SOL    HW1 6006   1.374   4.813   4.584
 1180SOL    HW2 6007   1.455   4.926   4.499
 1181SOL     OW 6008   1.466   4.314   4.716
 1181SOL    HW1 6009   1.436   4.219   4.723
 1181SOL    HW2 6010   1.539   4.330   4.782
 1182SOL     OW 6011   1.857   4.557   4.101
 1182SOL    HW1 6012   1.899   4.493   4.165
 1182SOL    HW2 6013   1.819   4.506   4.023
 1183SOL     OW 6014   1.664   5.004   4.381
 1183SOL    HW1 6015   1.763   5.012   4.395
 1183SOL    HW2 6016   1.619   5.088   4.412
 1184SOL     OW 6017   0.527   3.980   4.052
 1184SOL    HW1 6018   0.554   3.921   3.977
 1184SOL    HW2 6019   0.527   4.075   4.021
 1185SOL     OW 6020   1.638   4.823   4.803
 1185SOL    HW1 6021   1.643   4.904   4.862
 1185SOL    HW2 6022   1.552   4.825   4.752
 1186SOL     OW 6023   0.705   4.774   4.092
 1186SOL    HW1 6024   0.691   4.781   4.191
 1186SOL    HW2 6025   0.789   4.723   4.074
 1187SOL     OW 6026   0.410   4.537   4.975
 1187SOL    HW1 6027   0.496   4.549   5.025
 1187SOL    HW2 6028   0.368   4.450   5.002
 1188SOL     OW 6029   1.274   4.110   4.986
 1188SOL    HW1 6030   1.295   4.184   5.050
 1188SOL    HW2 6031   1.185   4.127   4.943
 1189SOL     OW 6032   0.367   4.824   4.225
 1189SOL    HW1 6033   0.360   4.907   4.169
 1189SOL    HW2 6034   0.371   4.744   4.165
 1190SOL     OW 6035   0.566   4.261   4.589
 1190SOL    HW1 6036   0.578   4.327   4.515
 1190SOL    HW2 6037   0.612   4.295   4.672
 1191SOL     OW 6038   1.582   4.363   4.196
 1191SOL    HW1 6039   1.551   4.424   4.269
 1191SOL    HW2 6040   1.632   4.415   4.127
 1192SOL     OW 6041   0.573   4.594   4.753
 1192SOL    HW1 6042   0.617   4.683   4.744
 1192SOL    HW2 6043   0.510   4.594   4.830
 1193SOL     OW 6044   1.360   4.586   4.769
 1193SOL    HW1 6045   1.285   4.586   4.703
 1193SOL    HW2 6046   1.397   4.494   4.778
 1194SOL     OW 6047   0.037   5.034   5.006
 1194SOL    HW1 6048   0.090   4.985   5.074
 1194SOL    HW2 6049   0.059   5.132   5.011
 1195SOL     OW 6050   0.732   4.358   4.788
 1195SOL    HW1 6051   0.791   4.332   4.712
 1195SOL    HW2 6052   0.704   4.454   4.777
 1196SOL     OW 6053   0.307   3.787   4.342
 1196SOL    HW1 6054   0.296   3.881   4.375
 1196SOL    HW2 6055   0.302   3.724   4.419
 1197SOL     OW 6056   1.622   4.091   4.098
 1197SOL    HW1 6057   1.624   4.015   4.162
 1197SOL    HW2 6058   1.574   4.168   4.138
 1198SOL     OW 6059   1.023   4.490   4.690
 1198SOL    HW1 6060   1.038   4.511   4.786
 1198SOL    HW2 6061   0.993   4.395   4.681
 1199SOL     OW 6062   0.319   4.534   4.673
 1199SOL    HW1 6063   0.412   4.570   4.678
 1199SOL    HW2 6064   0.313   4.449   4.725
 1200SOL     OW 6065   0.339   4.233   4.730
 1200SOL    HW1 6066   0.287   4.150   4.713
 1200SOL    HW2 6067   0.416   4.238   4.666
 1201SOL     OW 6068   1.160   3.931   5.201
 1201SOL    HW1 6069   1.160   3.995   5.278
 1201SOL    HW2 6070   1.188   3.979   5.118
 1202SOL     OW 6071   0.008   5.050   3.924
 1202SOL    HW1 6072  -0.085   5.071   3.893
 1202SOL    HW2 6073   0.018   4.951   3.937
 1203SOL     OW 6074   1.002   4.520   4.962
 1203SOL    HW1 6075   1.043   4.488   5.048
 1203SOL    HW2 6076   0.906   4.493   4.959
 1204SOL     OW 6077   0.040   4.268   4.838
 1204SOL    HW1 6078   0.125   4.235   4.797
 1204SOL    HW2 6079   0.053   4.283   4.936
 1205SOL     OW 6080   1.657   4.328   4.930
 1205SOL    HW1 6081   1.619   4.259   4.992
 1205SOL    HW2 6082   1.739   4.292   4.886
 1206SOL     OW 6083   0.473   4.224   3.915
 1206SOL    HW1 6084   0.534   4.304   3.919
 1206SOL    HW2 6085   0.378   4.255   3.922
 1207SOL     OW 6086   1.347   4.783   4.958
 1207SOL    HW1 6087   1.371   4.720   4.884
 1207SOL    HW2 6088   1.257   4.823   4.940
 1208SOL     OW 6089   0.830   4.997   5.146
 1208SOL    HW1 6090   0.825   5.030   5.241
 1208SOL    HW2 6091   0.744   5.016   5.100
 1209SOL     OW 6092   0.822   4.726   5.096
 1209SOL    HW1 6093   0.862   4.725   5.004
 1209SOL    HW2 6094   0.832   4.818   5.136
 1210SOL     OW 6095   0.916   4.634   4.015
 1210SOL    HW1 6096   0.979   4.672   3.947
 1210SOL    HW2 6097   0.956   4.551   4.054
 1211SOL     OW 6098   1.039   4.822   4.420
 1211SOL    HW1 6099   0.969   4.775   4.474
 1211SOL    HW2 6100   1.098   4.754   4.377
 1212SOL     OW 6101   1.014   3.960   4.695
 1212SOL    HW1 6102   1.006   3.924   4.602
 1212SOL    HW2 6103   1.012   3.884   4.760
 1213SOL     OW 6104   0.075   4.069   3.757
 1213SOL    HW1 6105  -0.017   4.041   3.728
 1213SOL    HW2 6106   0.106   4.146   3.701
 1214SOL     OW 6107   0.072   3.890   4.042
 1214SOL    HW1 6108   0.055   3.973   3.988
 1214SOL    HW2 6109   0.162   3.853   4.020
 1215SOL     OW 6110   1.450   4.944   5.357
 1215SOL    HW1 6111   1.441   4.934   5.456
 1215SOL    HW2 6112   1.546   4.937   5.331
 1216SOL     OW 6113   1.674   4.607   4.978
 1216SOL    HW1 6114   1.647   4.518   4.941
 1216SOL    HW2 6115   1.675   4.675   4.905
 1217SOL     OW 6116   0.594   4.469   4.376
 1217SOL    HW1 6117   0.644   4.554   4.357
 1217SOL    HW2 6118   0.506   4.471   4.328
 1218SOL     OW 6119   1.730   4.658   5.241
 1218SOL    HW1 6120   1.768   4.749   5.256
 1218SOL    HW2 6121   1.722   4.641   5.142
 1219SOL     OW 6122   0.859   4.680   4.585
 1219SOL    HW1 6123   0.913   4.611   4.633
 1219SOL    HW2 6124   0.827   4.749   4.651
 1220SOL     OW 6125   1.083   4.708   3.811
 1220SOL    HW1 6126   1.060   4.761   3.729
 1220SOL    HW2 6127   1.164   4.652   3.792
 1221SOL     OW 6128   0.428   4.148   4.244
 1221SOL    HW1 6129   0.458   4.076   4.182
 1221SOL    HW2 6130   0.389   4.108   4.327
 1222SOL     OW 6131   1.424   3.938   4.836
 1222SOL    HW1 6132   1.476   3.873   4.891
 1222SOL    HW2 6133   1.375   4.001   4.897
 1223SOL     OW 6134   1.001   3.758   4.878
 1223SOL    HW1 6135   0.938   3.686   4.847
 1223SOL    HW2 6136   1.094   3.722   4.878
 1224SOL     OW 6137   1.352   3.776   3.892
 1224SOL    HW1 6138   1.387   3.735   3.808
 1224SOL    HW2 6139   1.262   3.738   3.912
 1225SOL     OW 6140   1.300   4.177   4.415
 1225SOL    HW1 6141   1.241   4.257   4.419
 1225SOL    HW2 6142   1.315   4.142   4.508
 1226SOL     OW 6143   0.039   4.801   4.024
 1226SOL    HW1 6144   0.138   4.790   4.015
 1226SOL    HW2 6145  -0.001   4.715   4.056
 1227SOL     OW 6146   2.092   0.628   0.113
 1227SOL    HW1 6147   1.999   0.626   0.150
 1227SOL    HW2 6148   2.093   0.589   0.021
 1228SOL     OW 6149   2.087   0.275   0.996
 1228SOL    HW1 6150   2.122   0.258   1.088
 1228SOL    HW2 6151   1.999   0.230   0.984
 1229SOL     OW 6152   1.881   0.368   0.647
 1229SOL    HW1 6153   1.799   0.411   0.686
 1229SOL    HW2 6154   1.853   0.295   0.584
 1230SOL     OW 6155   2.431   1.275   1.165
 1230SOL    HW1 6156   2.338   1.268   1.128
 1230SOL    HW2 6157   2.442   1.364   1.209
 1231SOL     OW 6158   2.997   0.703   0.717
 1231SOL    HW1 6159   3.054   0.781   0.692
 1231SOL    HW2 6160   2.937   0.729   0.793
 1232SOL     OW 6161   3.617   0.607   0.231
 1232SOL    HW1 6162   3.605   0.594   0.132
 1232SOL    HW2 6163   3.587   0.526   0.280
 1233SOL     OW 6164   2.630   1.144   1.023
 1233SOL    HW1 6165   2.552   1.161   1.083
 1233SOL    HW2 6166   2.664   1.231   0.987
 1234SOL     OW 6167   2.547   1.012   0.665
 1234SOL    HW1 6168   2.616   0.996   0.735
 1234SOL    HW2 6169   2.474   1.069   0.703
 1235SOL     OW 6170   2.197   1.435   1.061
 1235SOL    HW1 6171   2.119   1.404   1.008
 1235SOL    HW2 6172   2.255   1.493   1.004
 1236SOL     OW 6173   3.322   1.505   1.339
 1236SOL    HW1 6174   3.346   1.599   1.365
 1236SOL    HW2 6175   3.306   1.451   1.421
 1237SOL     OW 6176   2.989   1.341   1.690
 1237SOL    HW1 6177   3.036   1.341   1.778
 1237SOL    HW2 6178   2.941   1.254   1.679
 1238SOL     OW 6179   2.092   1.434   0.538
 1238SOL    HW1 6180   2.066   1.530   0.538
 1238SOL    HW2 6181   2.021   1.380   0.583
 1239SOL     OW 6182   2.102   1.091   0.886
 1239SOL    HW1 6183   2.116   1.007   0.938
 1239SOL    HW2 6184   2.047   1.155   0.941
 1240SOL     OW 6185   2.482   1.786   1.439
 1240SOL    HW1 6186   2.390   1.769   1.474
 1240SOL    HW2 6187   2.510   1.878   1.465
 1241SOL     OW 6188   3.456   0.114   1.480
 1241SOL    HW1 6189   3.438   0.181   1.408
 1241SOL    HW2 6190   3.453   0.160   1.569
 1242SOL     OW 6191   1.984   0.643   0.563
 1242SOL    HW1 6192   1.939   0.555   0.580
 1242SOL    HW2 6193   1.983   0.697   0.647
 1243SOL     OW 6194   3.551   0.922   0.612
 1243SOL    HW1 6195   3.646   0.893   0.620
 1243SOL    HW2 6196   3.543   0.987   0.537
 1244SOL     OW 6197   3.503   1.108   0.432
 1244SOL    HW1 6198   3.589   1.110   0.380
 1244SOL    HW2 6199   3.517   1.155   0.520
 1245SOL     OW 6200   2.475   1.365   0.726
 1245SOL    HW1 6201   2.426   1.278   0.735
 1245SOL    HW2 6202   2.452   1.408   0.639
 1246SOL     OW 6203   2.059   0.976   1.264
 1246SOL    HW1 6204   2.148   0.931   1.250
 1246SOL    HW2 6205   1.986   0.911   1.245
 1247SOL     OW 6206   3.387   0.999   0.190
 1247SOL    HW1 6207   3.324   0.923   0.203
 1247SOL    HW2 6208   3.435   1.017   0.276
 1248SOL     OW 6209   3.049   1.792   1.616
 1248SOL    HW1 6210   3.073   1.852   1.540
 1248SOL    HW2 6211   3.056   1.697   1.586
 1249SOL     OW 6212   3.328   1.417   0.953
 1249SOL    HW1 6213   3.269   1.423   1.033
 1249SOL    HW2 6214   3.313   1.329   0.907
 1250SOL     OW 6215   3.529   1.714   0.572
 1250SOL    HW1 6216   3.488   1.691   0.484
 1250SOL    HW2 6217   3.511   1.640   0.637
 1251SOL     OW 6218   3.256   0.469   1.674
 1251SOL    HW1 6219   3.236   0.512   1.762
 1251SOL    HW2 6220   3.334   0.407   1.683
 1252SOL     OW 6221   2.853   0.410   1.242
 1252SOL    HW1 6222   2.776   0.444   1.296
 1252SOL    HW2 6223   2.819   0.359   1.163
 1253SOL     OW 6224   2.903   0.701   0.429
 1253SOL    HW1 6225   2.929   0.697   0.525
 1253SOL    HW2 6226   2.818   0.650   0.415
 1254SOL     OW 6227   1.938   0.811   0.789
 1254SOL    HW1 6228   2.037   0.799   0.798
 1254SOL    HW2 6229   1.914   0.906   0.810
 1255SOL     OW 6230   1.992   1.821   1.571
 1255SOL    HW1 6231   1.982   1.806   1.670
 1255SOL    HW2 6232   1.906   1.857   1.535
 1256SOL     OW 6233   3.581   0.585   1.831
 1256SOL    HW1 6234   3.555   0.674   1.795
 1256SOL    HW2 6235   3.579   0.517   1.758
 1257SOL     OW 6236   3.224   1.144   0.545
 1257SOL    HW1 6237   3.307   1.115   0.497
 1257SOL    HW2 6238   3.175   1.211   0.489
 1258SOL     OW 6239   2.870   1.456   0.477
 1258SOL    HW1 6240   2.824   1.528   0.425
 1258SOL    HW2 6241   2.866   1.476   0.575
 1259SOL     OW 6242   3.657   1.066   0.873
 1259SOL    HW1 6243   3.595   1.051   0.797
 1259SOL    HW2 6244   3.605   1.077   0.958
 1260SOL     OW 6245   3.089   1.550   1.506
 1260SOL    HW1 6246   3.095   1.473   1.570
 1260SOL    HW2 6247   3.037   1.524   1.426
 1261SOL     OW 6248   2.183   0.943   0.242
 1261SOL    HW1 6249   2.265   0.982   0.200
 1261SOL    HW2 6250   2.156   0.861   0.193
 1262SOL     OW 6251   3.320   0.735   0.728
 1262SOL    HW1 6252   3.315   0.670   0.803
 1262SOL    HW2 6253   3.400   0.794   0.741
 1263SOL     OW 6254   2.323   1.266   1.727
 1263SOL    HW1 6255   2.273   1.267   1.641
 1263SOL    HW2 6256   2.260   1.248   1.803
 1264SOL     OW 6257   2.973   1.776   0.237
 1264SOL    HW1 6258   2.913   1.714   0.287
 1264SOL    HW2 6259   3.004   1.732   0.152
 1265SOL     OW 6260   3.494   1.377   0.081
 1265SOL    HW1 6261   3.462   1.471   0.071
 1265SOL    HW2 6262   3.418   1.314   0.069
 1266SOL     OW 6263   2.326   1.743   0.323
 1266SOL    HW1 6264   2.359   1.782   0.409
 1266SOL    HW2 6265   2.402   1.736   0.258
 1267SOL     OW 6266   3.262   0.107   0.426
 1267SOL    HW1 6267   3.238   0.070   0.336
 1267SOL    HW2 6268   3.361   0.123   0.430
 1268SOL     OW 6269   2.111   1.785   1.241
 1268SOL    HW1 6270   2.168   1.720   1.291
 1268SOL    HW2 6271   2.095   1.752   1.148
 1269SOL     OW 6272   2.802   1.698   0.904
 1269SOL    HW1 6273   2.882   1.641   0.925
 1269SOL    HW2 6274   2.753   1.658   0.827
 1270SOL     OW 6275   2.244   0.700   0.480
 1270SOL    HW1 6276   2.289   0.610   0.477
 1270SOL    HW2 6277   2.150   0.689   0.513
 1271SOL     OW 6278   3.409   0.222   1.729
 1271SOL    HW1 6279   3.404   0.259   1.821
 1271SOL    HW2 6280   3.337   0.153   1.717
 1272SOL     OW 6281   2.476   0.122   0.117
 1272SOL    HW1 6282   2.574   0.100   0.124
 1272SOL    HW2 6283   2.445   0.105   0.024
 1273SOL     OW 6284   2.784   0.503   0.899
 1273SOL    HW1 6285   2.759   0.494   0.803
 1273SOL    HW2 6286   2.832   0.421   0.930
 1274SOL     OW 6287   3.296   1.188   0.041
 1274SOL    HW1 6288   3.328   1.112   0.098
 1274SOL    HW2 6289   3.204   1.215   0.071
 1275SOL     OW 6290   2.321   1.152   0.741
 1275SOL    HW1 6291   2.250   1.125   0.806
 1275SOL    HW2 6292   2.295   1.124   0.648
 1276SOL     OW 6293   3.133   1.797   0.591
 1276SOL    HW1 6294   3.177   1.861   0.527
 1276SOL    HW2 6295   3.083   1.849   0.661
 1277SOL     OW 6296   2.423   0.222   1.147
 1277SOL    HW1 6297   2.461   0.138   1.184
 1277SOL    HW2 6298   2.335   0.241   1.191
 1278SOL     OW 6299   2.879   0.039   0.753
 1278SOL    HW1 6300   2.807   0.044   0.684
 1278SOL    HW2 6301   2.855  -0.030   0.822
 1279SOL     OW 6302   3.291   1.173   0.867
 1279SOL    HW1 6303   3.236   1.089   0.860
 1279SOL    HW2 6304   3.317   1.202   0.775
 1280SOL     OW 6305   3.719   0.833   0.377
 1280SOL    HW1 6306   3.761   0.769   0.441
 1280SOL    HW2 6307   3.681   0.782   0.299
 1281SOL     OW 6308   2.350   1.385   0.174
 1281SOL    HW1 6309   2.263   1.370   0.221
 1281SOL    HW2 6310   2.333   1.411   0.079
 1282SOL     OW 6311   3.526   1.280   0.657
 1282SOL    HW1 6312   3.625   1.288   0.671
 1282SOL    HW2 6313   3.481   1.364   0.688
 1283SOL     OW 6314   3.252   0.575   0.078
 1283SOL    HW1 6315   3.198   0.554   0.159
 1283SOL    HW2 6316   3.343   0.534   0.087
 1284SOL     OW 6317   2.389   0.256   0.328
 1284SOL    HW1 6318   2.416   0.197   0.253
 1284SOL    HW2 6319   2.389   0.351   0.297
 1285SOL     OW 6320   3.616   1.223   1.588
 1285SOL    HW1 6321   3.707   1.184   1.575
 1285SOL    HW2 6322   3.624   1.319   1.612
 1286SOL     OW 6323   3.454   1.629   1.625
 1286SOL    HW1 6324   3.481   1.663   1.535
 1286SOL    HW2 6325   3.533   1.591   1.671
 1287SOL     OW 6326   3.500   1.099   1.079
 1287SOL    HW1 6327   3.505   1.180   1.138
 1287SOL    HW2 6328   3.414   1.101   1.028
 1288SOL     OW 6329   2.777   0.089   1.402
 1288SOL    HW1 6330   2.802   0.069   1.307
 1288SOL    HW2 6331   2.849   0.145   1.444
 1289SOL     OW 6332   2.272   0.813   1.251
 1289SOL    HW1 6333   2.358   0.825   1.301
 1289SOL    HW2 6334   2.230   0.726   1.278
 1290SOL     OW 6335   1.926   1.564   1.331
 1290SOL    HW1 6336   1.880   1.646   1.297
 1290SOL    HW2 6337   2.024   1.583   1.340
 1291SOL     OW 6338   2.229   1.100   0.501
 1291SOL    HW1 6339   2.222   1.183   0.445
 1291SOL    HW2 6340   2.233   1.020   0.441
 1292SOL     OW 6341   2.428   0.537   0.865
 1292SOL    HW1 6342   2.440   0.603   0.791
 1292SOL    HW2 6343   2.474   0.571   0.948
 1293SOL     OW 6344   3.114   1.348   0.388
 1293SOL    HW1 6345   3.164   1.425   0.428
 1293SOL    HW2 6346   3.019   1.350   0.420
 1294SOL     OW 6347   3.444   0.639   0.472
 1294SOL    HW1 6348   3.413   0.700   0.545
 1294SOL    HW2 6349   3.494   0.691   0.403
 1295SOL     OW 6350   2.216   1.510   1.329
 1295SOL    HW1 6351   2.195   1.466   1.242
 1295SOL    HW2 6352   2.313   1.536   1.332
 1296SOL     OW 6353   3.449   0.779   1.670
 1296SOL    HW1 6354   3.357   0.817   1.665
 1296SOL    HW2 6355   3.509   0.826   1.605
 1297SOL     OW 6356   2.435   0.870   1.029
 1297SOL    HW1 6357   2.479   0.959   1.020
 1297SOL    HW2 6358   2.372   0.870   1.106
 1298SOL     OW 6359   2.169   0.213   1.231
 1298SOL    HW1 6360   2.146   0.250   1.321
 1298SOL    HW2 6361   2.139   0.118   1.225
 1299SOL     OW 6362   1.899   1.310   1.282
 1299SOL    HW1 6363   1.952   1.261   1.350
 1299SOL    HW2 6364   1.921   1.408   1.287
 1300SOL     OW 6365   2.594   0.634   1.064
 1300SOL    HW1 6366   2.653   0.608   0.988
 1300SOL    HW2 6367   2.566   0.730   1.053
 1301SOL     OW 6368   3.590   0.935   1.854
 1301SOL    HW1 6369   3.544   0.928   1.765
 1301SOL    HW2 6370   3.528   0.979   1.920
 1302SOL     OW 6371   2.169   0.063   0.618
 1302SOL    HW1 6372   2.158   0.157   0.651
 1302SOL    HW2 6373   2.164   0.000   0.695
 1303SOL     OW 6374   3.484   0.367   0.374
 1303SOL    HW1 6375   3.486   0.291   0.438
 1303SOL    HW2 6376   3.436   0.444   0.414
 1304SOL     OW 6377   2.885   0.766   0.966
 1304SOL    HW1 6378   2.900   0.787   1.062
 1304SOL    HW2 6379   2.855   0.671   0.957
 1305SOL     OW 6380   2.842   1.573   1.700
 1305SOL    HW1 6381   2.822   1.617   1.612
 1305SOL    HW2 6382   2.881   1.482   1.684
 1306SOL     OW 6383   3.721   1.518   1.605
 1306SOL    HW1 6384   3.735   1.545   1.510
 1306SOL    HW2 6385   3.804   1.540   1.658
 1307SOL     OW 6386   2.212   0.898   1.804
 1307SOL    HW1 6387   2.288   0.942   1.852
 1307SOL    HW2 6388   2.247   0.851   1.722
 1308SOL     OW 6389   3.402   0.274   0.125
 1308SOL    HW1 6390   3.341   0.199   0.148
 1308SOL    HW2 6391   3.424   0.326   0.208
 1309SOL     OW 6392   3.165   0.838   0.042
 1309SOL    HW1 6393   3.199   0.745   0.057
 1309SOL    HW2 6394   3.183   0.865  -0.053
 1310SOL     OW 6395   2.181   0.810   0.949
 1310SOL    HW1 6396   2.274   0.846   0.954
 1310SOL    HW2 6397   2.175   0.725   1.001
 1311SOL     OW 6398   2.201   0.509   1.006
 1311SOL    HW1 6399   2.149   0.426   0.989
 1311SOL    HW2 6400   2.278   0.514   0.942
 1312SOL     OW 6401   3.000   0.380   1.678
 1312SOL    HW1 6402   2.955   0.443   1.742
 1312SOL    HW2 6403   3.093   0.411   1.661
 1313SOL     OW 6404   2.366   1.568   0.910
 1313SOL    HW1 6405   2.432   1.642   0.919
 1313SOL    HW2 6406   2.410   1.489   0.868
 1314SOL     OW 6407   1.902   0.544   1.114
 1314SOL    HW1 6408   1.987   0.511   1.073
 1314SOL    HW2 6409   1.915   0.559   1.212
 1315SOL     OW 6410   3.231   0.950   1.660
 1315SOL    HW1 6411   3.270   1.039   1.680
 1315SOL    HW2 6412   3.241   0.930   1.563
 1316SOL     OW 6413   2.533   0.464   1.269
 1316SOL    HW1 6414   2.499   0.375   1.239
 1316SOL    HW2 6415   2.559   0.518   1.189
 1317SOL     OW 6416   2.335   0.500   0.191
 1317SOL    HW1 6417   2.396   0.580   0.195
 1317SOL    HW2 6418   2.240   0.531   0.198
 1318SOL     OW 6419   2.021   1.137   1.466
 1318SOL    HW1 6420   2.043   1.076   1.542
 1318SOL    HW2 6421   2.031   1.088   1.380
 1319SOL     OW 6422   3.164   0.855   0.309
 1319SOL    HW1 6423   3.078   0.824   0.351
 1319SOL    HW2 6424   3.160   0.841   0.210
 1320SOL     OW 6425   1.945   1.258   1.022
 1320SOL    HW1 6426   1.940   1.257   1.122
 1320SOL    HW2 6427   1.862   1.217   0.984
 1321SOL     OW 6428   2.550   1.662   1.716
 1321SOL    HW1 6429   2.494   1.743   1.725
 1321SOL    HW2 6430   2.602   1.666   1.630
 1322SOL     OW 6431   2.765   0.086   0.133
 1322SOL    HW1 6432   2.816   0.087   0.047
 1322SOL    HW2 6433   2.821   0.044   0.204
 1323SOL     OW 6434   3.588   0.135   0.523
 1323SOL    HW1 6435   3.661   0.118   0.456
 1323SOL    HW2 6436   3.557   0.048   0.561
 1324SOL     OW 6437   3.250   1.573   0.477
 1324SOL    HW1 6438   3.317   1.585   0.403
 1324SOL    HW2 6439   3.210   1.662   0.500
 1325SOL     OW 6440   3.142   0.927   0.672
 1325SOL    HW1 6441   3.202   0.846   0.674
 1325SOL    HW2 6442   3.182   0.996   0.612
 1326SOL     OW 6443   2.692   1.273   1.422
 1326SOL    HW1 6444   2.687   1.306   1.517
 1326SOL    HW2 6445   2.606   1.292   1.376
 1327SOL     OW 6446   2.534   1.616   0.154
 1327SOL    HW1 6447   2.543   1.626   0.055
 1327SOL    HW2 6448   2.494   1.527   0.175
 1328SOL     OW 6449   3.512   1.720   1.394
 1328SOL    HW1 6450   3.565   1.730   1.310
 1328SOL    HW2 6451   3.485   1.810   1.428
 1329SOL     OW 6452   3.703   0.175   0.963
 1329SOL    HW1 6453   3.742   0.090   0.927
 1329SOL    HW2 6454   3.605   0.177   0.944
 1330SOL     OW 6455   2.125   0.326   0.720
 1330SOL    HW1 6456   2.046   0.377   0.686
 1330SOL    HW2 6457   2.116   0.311   0.818
 1331SOL     OW 6458   3.056   1.612   0.031
 1331SOL    HW1 6459   3.062   1.519   0.068
 1331SOL    HW2 6460   2.997   1.612  -0.049
 1332SOL     OW 6461   2.684   1.002   1.372
 1332SOL    HW1 6462   2.724   1.001   1.280
 1332SOL    HW2 6463   2.694   1.094   1.412
 1333SOL     OW 6464   3.366   1.607   0.044
 1333SOL    HW1 6465   3.274   1.644   0.051
 1333SOL    HW2 6466   3.404   1.627  -0.046
 1334SOL     OW 6467   2.234   1.288   1.490
 1334SOL    HW1 6468   2.221   1.381   1.456
 1334SOL    HW2 6469   2.150   1.236   1.477
 1335SOL     OW 6470   3.476   1.292   1.289
 1335SOL    HW1 6471   3.536   1.295   1.369
 1335SOL    HW2 6472   3.401   1.356   1.302
 1336SOL     OW 6473   2.901   1.098   0.696
 1336SOL    HW1 6474   2.831   1.051   0.750
 1336SOL    HW2 6475   2.960   1.030   0.653
 1337SOL     OW 6476   2.876   0.236   0.971
 1337SOL    HW1 6477   2.868   0.200   0.878
 1337SOL    HW2 6478   2.874   0.160   1.036
 1338SOL     OW 6479   2.452   1.487   0.491
 1338SOL    HW1 6480   2.494   1.429   0.421
 1338SOL    HW2 6481   2.408   1.566   0.447
 1339SOL     OW 6482   2.117   1.348   0.290
 1339SOL    HW1 6483   2.021   1.349   0.263
 1339SOL    HW2 6484   2.129   1.401   0.374
 1340SOL     OW 6485   2.534   0.203   1.489
 1340SOL    HW1 6486   2.624   0.187   1.449
 1340SOL    HW2 6487   2.542   0.208   1.588
 1341SOL     OW 6488   3.302   0.856   1.398
 1341SOL    HW1 6489   3.245   0.908   1.335
 1341SOL    HW2 6490   3.398   0.868   1.374
 1342SOL     OW 6491   1.934   0.166   0.318
 1342SOL    HW1 6492   1.917   0.249   0.264
 1342SOL    HW2 6493   2.024   0.129   0.296
 1343SOL     OW 6494   3.045   1.335   0.119
 1343SOL    HW1 6495   2.946   1.324   0.121
 1343SOL    HW2 6496   3.079   1.350   0.212
 1344SOL     OW 6497   2.578   0.565   1.708
 1344SOL    HW1 6498   2.597   0.630   1.782
 1344SOL    HW2 6499   2.638   0.485   1.717
 1345SOL     OW 6500   3.312   1.220   1.633
 1345SOL    HW1 6501   3.303   1.210   1.732
 1345SOL    HW2 6502   3.408   1.213   1.607
 1346SOL     OW 6503   2.252   1.741   1.560
 1346SOL    HW1 6504   2.161   1.782   1.558
 1346SOL    HW2 6505   2.245   1.647   1.592
 1347SOL     OW 6506   3.536   0.883   1.254
 1347SOL    HW1 6507   3.509   0.794   1.217
 1347SOL    HW2 6508   3.537   0.951   1.181
 1348SOL     OW 6509   3.087   0.325   0.449
 1348SOL    HW1 6510   3.152   0.251   0.438
 1348SOL    HW2 6511   3.107   0.375   0.533
 1349SOL     OW 6512   2.456   0.745   0.652
 1349SOL    HW1 6513   2.506   0.830   0.633
 1349SOL    HW2 6514   2.368   0.747   0.604
 1350SOL     OW 6515   3.639   0.342   1.642
 1350SOL    HW1 6516   3.622   0.373   1.548
 1350SOL    HW2 6517   3.555   0.305   1.680
 1351SOL     OW 6518   3.592   0.934   1.517
 1351SOL    HW1 6519   3.630   1.025   1.532
 1351SOL    HW2 6520   3.584   0.917   1.418
 1352SOL     OW 6521   2.721   1.374   0.016
 1352SOL    HW1 6522   2.675   1.389   0.104
 1352SOL    HW2 6523   2.765   1.459  -0.014
 1353SOL     OW 6524   2.523   1.790   0.953
 1353SOL    HW1 6525   2.477   1.878   0.940
 1353SOL    HW2 6526   2.622   1.802   0.946
 1354SOL     OW 6527   2.721   0.956   0.861
 1354SOL    HW1 6528   2.775   0.887   0.909
 1354SOL    HW2 6529   2.689   1.025   0.927
 1355SOL     OW 6530   3.723   1.569   0.851
 1355SOL    HW1 6531   3.652   1.557   0.781
 1355SOL    HW2 6532   3.724   1.490   0.911
 1356SOL     OW 6533   1.941   1.240   0.653
 1356SOL    HW1 6534   1.940   1.193   0.741
 1356SOL    HW2 6535   2.023   1.212   0.602
 1357SOL     OW 6536   2.534   1.391   1.624
 1357SOL    HW1 6537   2.456   1.341   1.662
 1357SOL    HW2 6538   2.531   1.486   1.655
 1358SOL     OW 6539   3.686   0.192   1.227
 1358SOL    HW1 6540   3.682   0.102   1.271
 1358SOL    HW2 6541   3.689   0.181   1.128
 1359SOL     OW 6542   2.290   0.424   0.520
 1359SOL    HW1 6543   2.320   0.352   0.458
 1359SOL    HW2 6544   2.251   0.384   0.603
 1360SOL     OW 6545   3.567   1.487   1.104
 1360SOL    HW1 6546   3.474   1.462   1.077
 1360SOL    HW2 6547   3.593   1.437   1.186
 1361SOL     OW 6548   2.179   0.547   1.280
 1361SOL    HW1 6549   2.217   0.488   1.352
 1361SOL    HW2 6550   2.219   0.521   1.192
 1362SOL     OW 6551   2.674   1.586   0.687
 1362SOL    HW1 6552   2.706   1.596   0.593
 1362SOL    HW2 6553   2.595   1.524   0.689
 1363SOL     OW 6554   2.863   0.034   1.154
 1363SOL    HW1 6555   2.800  -0.038   1.123
 1363SOL    HW2 6556   2.956  -0.002   1.154
 1364SOL     OW 6557   2.632   1.330   0.301
 1364SOL    HW1 6558   2.586   1.243   0.318
 1364SOL    HW2 6559   2.723   1.327   0.342
 1365SOL     OW 6560   2.480   1.567   1.284
 1365SOL    HW1 6561   2.475   1.649   1.341
 1365SOL    HW2 6562   2.569   1.564   1.239
 1366SOL     OW 6563   3.214   0.052   0.168
 1366SOL    HW1 6564   3.249   0.011   0.084
 1366SOL    HW2 6565   3.124   0.014   0.188
 1367SOL     OW 6566   3.162   0.453   0.691
 1367SOL    HW1 6567   3.103   0.533   0.695
 1367SOL    HW2 6568   3.177   0.418   0.784
 1368SOL     OW 6569   1.901   1.077   0.300
 1368SOL    HW1 6570   2.000   1.066   0.291
 1368SOL    HW2 6571   1.861   0.991   0.332
 1369SOL     OW 6572   2.737   1.646   0.337
 1369SOL    HW1 6573   2.660   1.611   0.283
 1369SOL    HW2 6574   2.705   1.717   0.399
 1370SOL     OW 6575   2.087   0.275   2.858
 1370SOL    HW1 6576   2.122   0.258   2.950
 1370SOL    HW2 6577   1.999   0.230   2.846
 1371SOL     OW 6578   1.881   0.368   2.509
 1371SOL    HW1 6579   1.799   0.411   2.548
 1371SOL    HW2 6580   1.853   0.295   2.446
 1372SOL     OW 6581   2.431   1.275   3.027
 1372SOL    HW1 6582   2.338   1.268   2.990
 1372SOL    HW2 6583   2.442   1.364   3.071
 1373SOL     OW 6584   3.417   1.511   2.565
 1373SOL    HW1 6585   3.360   1.495   2.646
 1373SOL    HW2 6586   3.358   1.521   2.485
 1374SOL     OW 6587   2.547   1.012   2.527
 1374SOL    HW1 6588   2.616   0.996   2.597
 1374SOL    HW2 6589   2.474   1.069   2.565
 1375SOL     OW 6590   2.548   1.161   3.665
 1375SOL    HW1 6591   2.608   1.240   3.679
 1375SOL    HW2 6592   2.462   1.192   3.624
 1376SOL     OW 6593   3.322   1.505   3.201
 1376SOL    HW1 6594   3.346   1.599   3.227
 1376SOL    HW2 6595   3.306   1.451   3.283
 1377SOL     OW 6596   2.093   1.713   2.345
 1377SOL    HW1 6597   2.127   1.790   2.399
 1377SOL    HW2 6598   2.137   1.713   2.255
 1378SOL     OW 6599   2.989   1.341   3.552
 1378SOL    HW1 6600   3.036   1.341   3.640
 1378SOL    HW2 6601   2.941   1.254   3.541
 1379SOL     OW 6602   2.092   1.434   2.400
 1379SOL    HW1 6603   2.066   1.530   2.400
 1379SOL    HW2 6604   2.021   1.380   2.445
 1380SOL     OW 6605   2.102   1.091   2.748
 1380SOL    HW1 6606   2.116   1.007   2.800
 1380SOL    HW2 6607   2.047   1.155   2.803
 1381SOL     OW 6608   2.482   1.786   3.301
 1381SOL    HW1 6609   2.390   1.769   3.336
 1381SOL    HW2 6610   2.510   1.878   3.327
 1382SOL     OW 6611   2.468   0.964   1.985
 1382SOL    HW1 6612   2.475   1.048   1.931
 1382SOL    HW2 6613   2.514   0.977   2.073
 1383SOL     OW 6614   3.456   0.114   3.342
 1383SOL    HW1 6615   3.438   0.181   3.270
 1383SOL    HW2 6616   3.453   0.160   3.431
 1384SOL     OW 6617   1.984   0.643   2.425
 1384SOL    HW1 6618   1.939   0.555   2.442
 1384SOL    HW2 6619   1.983   0.697   2.509
 1385SOL     OW 6620   1.889   1.596   1.979
 1385SOL    HW1 6621   1.870   1.500   2.000
 1385SOL    HW2 6622   1.856   1.654   2.054
 1386SOL     OW 6623   3.503   1.108   2.294
 1386SOL    HW1 6624   3.589   1.110   2.242
 1386SOL    HW2 6625   3.517   1.155   2.382
 1387SOL     OW 6626   1.975   0.737   3.459
 1387SOL    HW1 6627   2.063   0.724   3.504
 1387SOL    HW2 6628   1.962   0.834   3.437
 1388SOL     OW 6629   2.059   0.976   3.126
 1388SOL    HW1 6630   2.148   0.931   3.112
 1388SOL    HW2 6631   1.986   0.911   3.107
 1389SOL     OW 6632   3.387   0.999   2.052
 1389SOL    HW1 6633   3.324   0.923   2.065
 1389SOL    HW2 6634   3.435   1.017   2.138
 1390SOL     OW 6635   3.049   1.792   3.478
 1390SOL    HW1 6636   3.073   1.852   3.402
 1390SOL    HW2 6637   3.056   1.697   3.448
 1391SOL     OW 6638   2.179   0.251   3.663
 1391SOL    HW1 6639   2.250   0.322   3.669
 1391SOL    HW2 6640   2.091   0.290   3.691
 1392SOL     OW 6641   3.328   1.417   2.815
 1392SOL    HW1 6642   3.269   1.423   2.895
 1392SOL    HW2 6643   3.313   1.329   2.769
 1393SOL     OW 6644   2.460   0.729   2.132
 1393SOL    HW1 6645   2.484   0.798   2.064
 1393SOL    HW2 6646   2.382   0.762   2.186
 1394SOL     OW 6647   3.143   0.345   2.806
 1394SOL    HW1 6648   3.057   0.295   2.793
 1394SOL    HW2 6649   3.205   0.291   2.862
 1395SOL     OW 6650   3.256   0.469   3.536
 1395SOL    HW1 6651   3.236   0.512   3.624
 1395SOL    HW2 6652   3.334   0.407   3.545
 1396SOL     OW 6653   2.853   0.410   3.104
 1396SOL    HW1 6654   2.776   0.444   3.158
 1396SOL    HW2 6655   2.819   0.359   3.025
 1397SOL     OW 6656   2.903   0.701   2.291
 1397SOL    HW1 6657   2.929   0.697   2.387
 1397SOL    HW2 6658   2.818   0.650   2.277
 1398SOL     OW 6659   1.938   0.811   2.651
 1398SOL    HW1 6660   2.037   0.799   2.660
 1398SOL    HW2 6661   1.914   0.906   2.672
 1399SOL     OW 6662   1.992   1.821   3.433
 1399SOL    HW1 6663   1.982   1.806   3.532
 1399SOL    HW2 6664   1.906   1.857   3.397
 1400SOL     OW 6665   3.581   0.585   3.693
 1400SOL    HW1 6666   3.555   0.674   3.657
 1400SOL    HW2 6667   3.579   0.517   3.620
 1401SOL     OW 6668   3.224   1.144   2.407
 1401SOL    HW1 6669   3.307   1.115   2.359
 1401SOL    HW2 6670   3.175   1.211   2.351
 1402SOL     OW 6671   2.870   1.456   2.339
 1402SOL    HW1 6672   2.824   1.528   2.287
 1402SOL    HW2 6673   2.866   1.476   2.437
 1403SOL     OW 6674   2.213   1.801   2.715
 1403SOL    HW1 6675   2.263   1.715   2.721
 1403SOL    HW2 6676   2.278   1.878   2.712
 1404SOL     OW 6677   3.657   1.066   2.735
 1404SOL    HW1 6678   3.595   1.051   2.659
 1404SOL    HW2 6679   3.605   1.077   2.820
 1405SOL     OW 6680   3.089   1.550   3.368
 1405SOL    HW1 6681   3.095   1.473   3.432
 1405SOL    HW2 6682   3.037   1.524   3.288
 1406SOL     OW 6683   2.323   1.266   3.589
 1406SOL    HW1 6684   2.273   1.267   3.503
 1406SOL    HW2 6685   2.260   1.248   3.665
 1407SOL     OW 6686   2.973   1.776   2.099
 1407SOL    HW1 6687   2.913   1.714   2.149
 1407SOL    HW2 6688   3.004   1.732   2.014
 1408SOL     OW 6689   2.064   0.285   3.360
 1408SOL    HW1 6690   1.984   0.345   3.347
 1408SOL    HW2 6691   2.054   0.236   3.446
 1409SOL     OW 6692   3.494   1.377   1.943
 1409SOL    HW1 6693   3.462   1.471   1.933
 1409SOL    HW2 6694   3.418   1.314   1.931
 1410SOL     OW 6695   2.326   1.743   2.185
 1410SOL    HW1 6696   2.359   1.782   2.271
 1410SOL    HW2 6697   2.402   1.736   2.120
 1411SOL     OW 6698   2.111   1.785   3.103
 1411SOL    HW1 6699   2.168   1.720   3.153
 1411SOL    HW2 6700   2.095   1.752   3.010
 1412SOL     OW 6701   2.802   1.698   2.766
 1412SOL    HW1 6702   2.882   1.641   2.787
 1412SOL    HW2 6703   2.753   1.658   2.689
 1413SOL     OW 6704   2.244   0.700   2.342
 1413SOL    HW1 6705   2.289   0.610   2.339
 1413SOL    HW2 6706   2.150   0.689   2.375
 1414SOL     OW 6707   3.409   0.222   3.591
 1414SOL    HW1 6708   3.404   0.259   3.683
 1414SOL    HW2 6709   3.337   0.153   3.579
 1415SOL     OW 6710   2.750   1.514   3.057
 1415SOL    HW1 6711   2.727   1.489   2.963
 1415SOL    HW2 6712   2.811   1.445   3.096
 1416SOL     OW 6713   3.213   0.590   3.295
 1416SOL    HW1 6714   3.241   0.547   3.380
 1416SOL    HW2 6715   3.238   0.686   3.296
 1417SOL     OW 6716   2.784   0.503   2.761
 1417SOL    HW1 6717   2.759   0.494   2.665
 1417SOL    HW2 6718   2.832   0.421   2.792
 1418SOL     OW 6719   2.401   0.064   2.374
 1418SOL    HW1 6720   2.320   0.065   2.432
 1418SOL    HW2 6721   2.404   0.147   2.319
 1419SOL     OW 6722   3.296   1.188   1.903
 1419SOL    HW1 6723   3.328   1.112   1.960
 1419SOL    HW2 6724   3.204   1.215   1.933
 1420SOL     OW 6725   2.159   0.035   2.033
 1420SOL    HW1 6726   2.208   0.119   2.012
 1420SOL    HW2 6727   2.221  -0.030   2.078
 1421SOL     OW 6728   2.797   0.236   2.342
 1421SOL    HW1 6729   2.749   0.277   2.264
 1421SOL    HW2 6730   2.896   0.234   2.323
 1422SOL     OW 6731   3.089   1.570   2.655
 1422SOL    HW1 6732   3.110   1.644   2.590
 1422SOL    HW2 6733   3.157   1.570   2.728
 1423SOL     OW 6734   2.321   1.152   2.603
 1423SOL    HW1 6735   2.250   1.125   2.668
 1423SOL    HW2 6736   2.295   1.124   2.510
 1424SOL     OW 6737   2.894   0.549   1.878
 1424SOL    HW1 6738   2.853   0.631   1.839
 1424SOL    HW2 6739   2.958   0.575   1.951
 1425SOL     OW 6740   1.940   0.556   3.248
 1425SOL    HW1 6741   2.032   0.555   3.207
 1425SOL    HW2 6742   1.934   0.630   3.315
 1426SOL     OW 6743   2.423   0.222   3.009
 1426SOL    HW1 6744   2.461   0.138   3.046
 1426SOL    HW2 6745   2.335   0.241   3.053
 1427SOL     OW 6746   2.728   0.454   2.504
 1427SOL    HW1 6747   2.696   0.526   2.442
 1427SOL    HW2 6748   2.752   0.373   2.451
 1428SOL     OW 6749   3.719   0.833   2.239
 1428SOL    HW1 6750   3.761   0.769   2.303
 1428SOL    HW2 6751   3.681   0.782   2.161
 1429SOL     OW 6752   2.350   1.385   2.036
 1429SOL    HW1 6753   2.263   1.370   2.083
 1429SOL    HW2 6754   2.333   1.411   1.941
 1430SOL     OW 6755   3.526   1.280   2.519
 1430SOL    HW1 6756   3.625   1.288   2.533
 1430SOL    HW2 6757   3.481   1.364   2.550
 1431SOL     OW 6758   3.616   1.223   3.450
 1431SOL    HW1 6759   3.707   1.184   3.437
 1431SOL    HW2 6760   3.624   1.319   3.474
 1432SOL     OW 6761   3.454   1.629   3.487
 1432SOL    HW1 6762   3.481   1.663   3.397
 1432SOL    HW2 6763   3.533   1.591   3.533
 1433SOL     OW 6764   3.500   1.099   2.941
 1433SOL    HW1 6765   3.505   1.180   3.000
 1433SOL    HW2 6766   3.414   1.101   2.890
 1434SOL     OW 6767   2.842   1.116   3.581
 1434SOL    HW1 6768   2.743   1.122   3.591
 1434SOL    HW2 6769   2.865   1.036   3.525
 1435SOL     OW 6770   2.567   1.050   2.230
 1435SOL    HW1 6771   2.553   1.057   2.329
 1435SOL    HW2 6772   2.651   0.999   2.212
 1436SOL     OW 6773   2.272   0.813   3.113
 1436SOL    HW1 6774   2.358   0.825   3.163
 1436SOL    HW2 6775   2.230   0.726   3.140
 1437SOL     OW 6776   3.136   0.386   3.124
 1437SOL    HW1 6777   3.157   0.460   3.188
 1437SOL    HW2 6778   3.047   0.403   3.081
 1438SOL     OW 6779   2.229   1.100   2.363
 1438SOL    HW1 6780   2.222   1.183   2.307
 1438SOL    HW2 6781   2.233   1.020   2.303
 1439SOL     OW 6782   2.428   0.537   2.727
 1439SOL    HW1 6783   2.440   0.603   2.653
 1439SOL    HW2 6784   2.474   0.571   2.810
 1440SOL     OW 6785   3.114   1.348   2.250
 1440SOL    HW1 6786   3.164   1.425   2.290
 1440SOL    HW2 6787   3.019   1.350   2.282
 1441SOL     OW 6788   3.134   1.445   3.004
 1441SOL    HW1 6789   3.181   1.458   3.091
 1441SOL    HW2 6790   3.068   1.371   3.013
 1442SOL     OW 6791   2.264   0.751   3.460
 1442SOL    HW1 6792   2.332   0.806   3.413
 1442SOL    HW2 6793   2.304   0.663   3.487
 1443SOL     OW 6794   2.366   0.050   3.602
 1443SOL    HW1 6795   2.324  -0.007   3.532
 1443SOL    HW2 6796   2.300   0.119   3.634
 1444SOL     OW 6797   2.435   0.870   2.891
 1444SOL    HW1 6798   2.479   0.959   2.882
 1444SOL    HW2 6799   2.372   0.870   2.968
 1445SOL     OW 6800   3.071   0.525   2.137
 1445SOL    HW1 6801   3.084   0.441   2.191
 1445SOL    HW2 6802   3.042   0.599   2.197
 1446SOL     OW 6803   2.169   0.213   3.093
 1446SOL    HW1 6804   2.146   0.250   3.183
 1446SOL    HW2 6805   2.139   0.118   3.087
 1447SOL     OW 6806   2.594   0.634   2.926
 1447SOL    HW1 6807   2.653   0.608   2.850
 1447SOL    HW2 6808   2.566   0.730   2.915
 1448SOL     OW 6809   3.590   0.935   3.716
 1448SOL    HW1 6810   3.544   0.928   3.627
 1448SOL    HW2 6811   3.528   0.979   3.782
 1449SOL     OW 6812   2.169   0.063   2.480
 1449SOL    HW1 6813   2.158   0.157   2.513
 1449SOL    HW2 6814   2.164   0.000   2.557
 1450SOL     OW 6815   2.842   1.573   3.562
 1450SOL    HW1 6816   2.822   1.617   3.474
 1450SOL    HW2 6817   2.881   1.482   3.546
 1451SOL     OW 6818   3.721   1.518   3.467
 1451SOL    HW1 6819   3.735   1.545   3.372
 1451SOL    HW2 6820   3.804   1.540   3.520
 1452SOL     OW 6821   2.212   0.898   3.666
 1452SOL    HW1 6822   2.288   0.942   3.714
 1452SOL    HW2 6823   2.247   0.851   3.584
 1453SOL     OW 6824   2.930   1.333   2.711
 1453SOL    HW1 6825   2.937   1.249   2.656
 1453SOL    HW2 6826   2.992   1.402   2.675
 1454SOL     OW 6827   2.181   0.810   2.811
 1454SOL    HW1 6828   2.274   0.846   2.816
 1454SOL    HW2 6829   2.175   0.725   2.863
 1455SOL     OW 6830   2.201   0.509   2.868
 1455SOL    HW1 6831   2.149   0.426   2.851
 1455SOL    HW2 6832   2.278   0.514   2.804
 1456SOL     OW 6833   3.022   0.207   3.339
 1456SOL    HW1 6834   3.022   0.271   3.416
 1456SOL    HW2 6835   3.050   0.255   3.256
 1457SOL     OW 6836   1.902   0.544   2.976
 1457SOL    HW1 6837   1.987   0.511   2.935
 1457SOL    HW2 6838   1.915   0.559   3.074
 1458SOL     OW 6839   2.051   0.520   3.584
 1458SOL    HW1 6840   2.110   0.480   3.514
 1458SOL    HW2 6841   1.993   0.591   3.543
 1459SOL     OW 6842   2.677   0.572   2.187
 1459SOL    HW1 6843   2.684   0.483   2.141
 1459SOL    HW2 6844   2.583   0.606   2.179
 1460SOL     OW 6845   3.519   0.604   3.068
 1460SOL    HW1 6846   3.481   0.535   3.130
 1460SOL    HW2 6847   3.601   0.568   3.024
 1461SOL     OW 6848   2.114   1.564   3.606
 1461SOL    HW1 6849   2.084   1.621   3.682
 1461SOL    HW2 6850   2.107   1.467   3.632
 1462SOL     OW 6851   2.792   1.678   3.327
 1462SOL    HW1 6852   2.768   1.660   3.232
 1462SOL    HW2 6853   2.822   1.772   3.337
 1463SOL     OW 6854   2.335   0.500   2.053
 1463SOL    HW1 6855   2.396   0.580   2.057
 1463SOL    HW2 6856   2.240   0.531   2.060
 1464SOL     OW 6857   2.021   1.137   3.328
 1464SOL    HW1 6858   2.043   1.076   3.404
 1464SOL    HW2 6859   2.031   1.088   3.242
 1465SOL     OW 6860   3.164   0.855   2.171
 1465SOL    HW1 6861   3.078   0.824   2.213
 1465SOL    HW2 6862   3.160   0.841   2.072
 1466SOL     OW 6863   3.621   1.747   3.016
 1466SOL    HW1 6864   3.682   1.777   2.943
 1466SOL    HW2 6865   3.583   1.658   2.994
 1467SOL     OW 6866   3.114   1.731   2.990
 1467SOL    HW1 6867   3.198   1.736   2.936
 1467SOL    HW2 6868   3.091   1.635   3.008
 1468SOL     OW 6869   1.945   1.258   2.884
 1468SOL    HW1 6870   1.940   1.257   2.984
 1468SOL    HW2 6871   1.862   1.217   2.846
 1469SOL     OW 6872   2.550   1.662   3.578
 1469SOL    HW1 6873   2.494   1.743   3.587
 1469SOL    HW2 6874   2.602   1.666   3.492
 1470SOL     OW 6875   3.588   0.135   2.385
 1470SOL    HW1 6876   3.661   0.118   2.318
 1470SOL    HW2 6877   3.557   0.048   2.423
 1471SOL     OW 6878   3.250   1.573   2.339
 1471SOL    HW1 6879   3.317   1.585   2.265
 1471SOL    HW2 6880   3.210   1.662   2.362
 1472SOL     OW 6881   1.992   1.794   3.713
 1472SOL    HW1 6882   1.951   1.720   3.766
 1472SOL    HW2 6883   2.056   1.845   3.771
 1473SOL     OW 6884   3.142   0.927   2.534
 1473SOL    HW1 6885   3.202   0.846   2.536
 1473SOL    HW2 6886   3.182   0.996   2.474
 1474SOL     OW 6887   2.692   1.273   3.284
 1474SOL    HW1 6888   2.687   1.306   3.379
 1474SOL    HW2 6889   2.606   1.292   3.238
 1475SOL     OW 6890   2.534   1.616   2.016
 1475SOL    HW1 6891   2.543   1.626   1.917
 1475SOL    HW2 6892   2.494   1.527   2.037
 1476SOL     OW 6893   3.512   1.720   3.256
 1476SOL    HW1 6894   3.565   1.730   3.172
 1476SOL    HW2 6895   3.485   1.810   3.290
 1477SOL     OW 6896   3.703   0.175   2.825
 1477SOL    HW1 6897   3.742   0.090   2.789
 1477SOL    HW2 6898   3.605   0.177   2.806
 1478SOL     OW 6899   2.125   0.326   2.582
 1478SOL    HW1 6900   2.046   0.377   2.548
 1478SOL    HW2 6901   2.116   0.311   2.680
 1479SOL     OW 6902   3.056   1.612   1.893
 1479SOL    HW1 6903   3.062   1.519   1.930
 1479SOL    HW2 6904   2.997   1.612   1.813
 1480SOL     OW 6905   2.684   1.002   3.234
 1480SOL    HW1 6906   2.724   1.001   3.142
 1480SOL    HW2 6907   2.694   1.094   3.274
 1481SOL     OW 6908   2.778   0.910   2.153
 1481SOL    HW1 6909   2.841   0.948   2.085
 1481SOL    HW2 6910   2.818   0.827   2.192
 1482SOL     OW 6911   3.366   1.607   1.906
 1482SOL    HW1 6912   3.274   1.644   1.913
 1482SOL    HW2 6913   3.404   1.627   1.816
 1483SOL     OW 6914   2.234   1.288   3.352
 1483SOL    HW1 6915   2.221   1.381   3.318
 1483SOL    HW2 6916   2.150   1.236   3.339
 1484SOL     OW 6917   3.476   1.292   3.151
 1484SOL    HW1 6918   3.536   1.295   3.231
 1484SOL    HW2 6919   3.401   1.356   3.164
 1485SOL     OW 6920   2.901   1.098   2.558
 1485SOL    HW1 6921   2.831   1.051   2.612
 1485SOL    HW2 6922   2.960   1.030   2.515
 1486SOL     OW 6923   2.876   0.236   2.833
 1486SOL    HW1 6924   2.868   0.200   2.740
 1486SOL    HW2 6925   2.874   0.160   2.898
 1487SOL     OW 6926   2.452   1.487   2.353
 1487SOL    HW1 6927   2.494   1.429   2.283
 1487SOL    HW2 6928   2.408   1.566   2.309
 1488SOL     OW 6929   3.571   0.385   3.243
 1488SOL    HW1 6930   3.644   0.454   3.247
 1488SOL    HW2 6931   3.599   0.310   3.184
 1489SOL     OW 6932   2.117   1.348   2.152
 1489SOL    HW1 6933   2.021   1.349   2.125
 1489SOL    HW2 6934   2.129   1.401   2.236
 1490SOL     OW 6935   1.967   1.013   3.588
 1490SOL    HW1 6936   1.890   0.980   3.642
 1490SOL    HW2 6937   2.052   0.983   3.630
 1491SOL     OW 6938   2.534   0.203   3.351
 1491SOL    HW1 6939   2.624   0.187   3.311
 1491SOL    HW2 6940   2.542   0.208   3.450
 1492SOL     OW 6941   1.937   0.345   1.895
 1492SOL    HW1 6942   1.845   0.317   1.866
 1492SOL    HW2 6943   1.968   0.422   1.839
 1493SOL     OW 6944   1.934   0.166   2.180
 1493SOL    HW1 6945   1.917   0.249   2.126
 1493SOL    HW2 6946   2.024   0.129   2.158
 1494SOL     OW 6947   3.045   1.335   1.981
 1494SOL    HW1 6948   2.946   1.324   1.983
 1494SOL    HW2 6949   3.079   1.350   2.074
 1495SOL     OW 6950   3.355   1.767   2.821
 1495SOL    HW1 6951   3.388   1.831   2.752
 1495SOL    HW2 6952   3.421   1.761   2.896
 1496SOL     OW 6953   2.578   0.565   3.570
 1496SOL    HW1 6954   2.597   0.630   3.644
 1496SOL    HW2 6955   2.638   0.485   3.579
 1497SOL     OW 6956   2.252   1.741   3.422
 1497SOL    HW1 6957   2.161   1.782   3.420
 1497SOL    HW2 6958   2.245   1.647   3.454
 1498SOL     OW 6959   3.536   0.883   3.116
 1498SOL    HW1 6960   3.509   0.794   3.079
 1498SOL    HW2 6961   3.537   0.951   3.043
 1499SOL     OW 6962   2.456   0.745   2.514
 1499SOL    HW1 6963   2.506   0.830   2.495
 1499SOL    HW2 6964   2.368   0.747   2.466
 1500SOL     OW 6965   3.639   0.342   3.504
 1500SOL    HW1 6966   3.622   0.373   3.410
 1500SOL    HW2 6967   3.555   0.305   3.542
 1501SOL     OW 6968   3.592   0.934   3.379
 1501SOL    HW1 6969   3.630   1.025   3.394
 1501SOL    HW2 6970   3.584   0.917   3.280
 1502SOL     OW 6971   2.523   1.790   2.815
 1502SOL    HW1 6972   2.477   1.878   2.802
 1502SOL    HW2 6973   2.622   1.802   2.808
 1503SOL     OW 6974   2.945   0.984   1.949
 1503SOL    HW1 6975   2.922   1.037   1.867
 1503SOL    HW2 6976   3.026   0.928   1.930
 1504SOL     OW 6977   2.083   1.314   3.706
 1504SOL    HW1 6978   2.018   1.241   3.685
 1504SOL    HW2 6979   2.087   1.328   3.804
 1505SOL     OW 6980   1.941   1.240   2.515
 1505SOL    HW1 6981   1.940   1.193   2.603
 1505SOL    HW2 6982   2.023   1.212   2.464
 1506SOL     OW 6983   2.534   1.391   3.486
 1506SOL    HW1 6984   2.456   1.341   3.524
 1506SOL    HW2 6985   2.531   1.486   3.517
 1507SOL     OW 6986   3.686   0.192   3.089
 1507SOL    HW1 6987   3.682   0.102   3.133
 1507SOL    HW2 6988   3.689   0.181   2.990
 1508SOL     OW 6989   2.290   0.424   2.382
 1508SOL    HW1 6990   2.320   0.352   2.320
 1508SOL    HW2 6991   2.251   0.384   2.465
 1509SOL     OW 6992   3.567   1.487   2.966
 1509SOL    HW1 6993   3.474   1.462   2.939
 1509SOL    HW2 6994   3.593   1.437   3.048
 1510SOL     OW 6995   2.179   0.547   3.142
 1510SOL    HW1 6996   2.217   0.488   3.214
 1510SOL    HW2 6997   2.219   0.521   3.054
 1511SOL     OW 6998   2.674   1.586   2.549
 1511SOL    HW1 6999   2.706   1.596   2.455
 1511SOL    HW2 7000   2.595   1.524   2.551
 1512SOL     OW 7001   3.286   0.214   2.974
 1512SOL    HW1 7002   3.338   0.149   3.029
 1512SOL    HW2 7003   3.237   0.277   3.035
 1513SOL     OW 7004   2.863   0.034   3.016
 1513SOL    HW1 7005   2.800  -0.038   2.985
 1513SOL    HW2 7006   2.956  -0.002   3.016
 1514SOL     OW 7007   2.480   1.567   3.146
 1514SOL    HW1 7008   2.475   1.649   3.203
 1514SOL    HW2 7009   2.569   1.564   3.101
 1515SOL     OW 7010   3.214   0.052   2.030
 1515SOL    HW1 7011   3.249   0.011   1.946
 1515SOL    HW2 7012   3.124   0.014   2.050
 1516SOL     OW 7013   2.092   0.628   3.837
 1516SOL    HW1 7014   1.999   0.626   3.874
 1516SOL    HW2 7015   2.093   0.589   3.745
 1517SOL     OW 7016   1.881   0.368   4.371
 1517SOL    HW1 7017   1.799   0.411   4.410
 1517SOL    HW2 7018   1.853   0.295   4.308
 1518SOL     OW 7019   2.431   1.275   4.889
 1518SOL    HW1 7020   2.338   1.268   4.852
 1518SOL    HW2 7021   2.442   1.364   4.933
 1519SOL     OW 7022   3.417   1.511   4.427
 1519SOL    HW1 7023   3.360   1.495   4.508
 1519SOL    HW2 7024   3.358   1.521   4.347
 1520SOL     OW 7025   2.630   1.144   4.747
 1520SOL    HW1 7026   2.552   1.161   4.807
 1520SOL    HW2 7027   2.664   1.231   4.711
 1521SOL     OW 7028   2.547   1.012   4.389
 1521SOL    HW1 7029   2.616   0.996   4.459
 1521SOL    HW2 7030   2.474   1.069   4.427
 1522SOL     OW 7031   2.197   1.435   4.785
 1522SOL    HW1 7032   2.119   1.404   4.732
 1522SOL    HW2 7033   2.255   1.493   4.728
 1523SOL     OW 7034   3.465   0.447   4.461
 1523SOL    HW1 7035   3.391   0.493   4.411
 1523SOL    HW2 7036   3.516   0.515   4.514
 1524SOL     OW 7037   2.092   1.434   4.262
 1524SOL    HW1 7038   2.066   1.530   4.262
 1524SOL    HW2 7039   2.021   1.380   4.307
 1525SOL     OW 7040   2.102   1.091   4.610
 1525SOL    HW1 7041   2.116   1.007   4.662
 1525SOL    HW2 7042   2.047   1.155   4.665
 1526SOL     OW 7043   2.482   1.786   5.163
 1526SOL    HW1 7044   2.390   1.769   5.198
 1526SOL    HW2 7045   2.510   1.878   5.189
 1527SOL     OW 7046   2.468   0.964   3.847
 1527SOL    HW1 7047   2.475   1.048   3.793
 1527SOL    HW2 7048   2.514   0.977   3.935
 1528SOL     OW 7049   1.984   0.643   4.287
 1528SOL    HW1 7050   1.939   0.555   4.304
 1528SOL    HW2 7051   1.983   0.697   4.371
 1529SOL     OW 7052   3.704   1.767   4.083
 1529SOL    HW1 7053   3.758   1.738   4.163
 1529SOL    HW2 7054   3.734   1.857   4.054
 1530SOL     OW 7055   1.889   1.596   3.841
 1530SOL    HW1 7056   1.870   1.500   3.862
 1530SOL    HW2 7057   1.856   1.654   3.916
 1531SOL     OW 7058   3.551   0.922   4.336
 1531SOL    HW1 7059   3.646   0.893   4.344
 1531SOL    HW2 7060   3.543   0.987   4.261
 1532SOL     OW 7061   3.503   1.108   4.156
 1532SOL    HW1 7062   3.589   1.110   4.104
 1532SOL    HW2 7063   3.517   1.155   4.244
 1533SOL     OW 7064   2.475   1.365   4.450
 1533SOL    HW1 7065   2.426   1.278   4.459
 1533SOL    HW2 7066   2.452   1.408   4.363
 1534SOL     OW 7067   2.671   0.004   4.226
 1534SOL    HW1 7068   2.711   0.095   4.217
 1534SOL    HW2 7069   2.571   0.012   4.232
 1535SOL     OW 7070   2.059   0.976   4.988
 1535SOL    HW1 7071   2.148   0.931   4.974
 1535SOL    HW2 7072   1.986   0.911   4.969
 1536SOL     OW 7073   3.328   1.417   4.677
 1536SOL    HW1 7074   3.269   1.423   4.757
 1536SOL    HW2 7075   3.313   1.329   4.631
 1537SOL     OW 7076   3.529   1.714   4.296
 1537SOL    HW1 7077   3.488   1.691   4.208
 1537SOL    HW2 7078   3.511   1.640   4.361
 1538SOL     OW 7079   2.460   0.729   3.994
 1538SOL    HW1 7080   2.484   0.798   3.926
 1538SOL    HW2 7081   2.382   0.762   4.048
 1539SOL     OW 7082   3.143   0.345   4.668
 1539SOL    HW1 7083   3.057   0.295   4.655
 1539SOL    HW2 7084   3.205   0.291   4.724
 1540SOL     OW 7085   3.438   1.662   4.031
 1540SOL    HW1 7086   3.527   1.708   4.034
 1540SOL    HW2 7087   3.417   1.638   3.936
 1541SOL     OW 7088   2.853   0.410   4.966
 1541SOL    HW1 7089   2.776   0.444   5.020
 1541SOL    HW2 7090   2.819   0.359   4.887
 1542SOL     OW 7091   2.903   0.701   4.153
 1542SOL    HW1 7092   2.929   0.697   4.249
 1542SOL    HW2 7093   2.818   0.650   4.139
 1543SOL     OW 7094   1.938   0.811   4.513
 1543SOL    HW1 7095   2.037   0.799   4.522
 1543SOL    HW2 7096   1.914   0.906   4.534
 1544SOL     OW 7097   2.727   0.348   3.919
 1544SOL    HW1 7098   2.786   0.411   3.870
 1544SOL    HW2 7099   2.746   0.254   3.890
 1545SOL     OW 7100   3.224   1.144   4.269
 1545SOL    HW1 7101   3.307   1.115   4.221
 1545SOL    HW2 7102   3.175   1.211   4.213
 1546SOL     OW 7103   2.412   0.196   4.609
 1546SOL    HW1 7104   2.407   0.191   4.709
 1546SOL    HW2 7105   2.414   0.292   4.580
 1547SOL     OW 7106   2.213   1.801   4.577
 1547SOL    HW1 7107   2.263   1.715   4.583
 1547SOL    HW2 7108   2.278   1.878   4.574
 1548SOL     OW 7109   3.657   1.066   4.597
 1548SOL    HW1 7110   3.595   1.051   4.521
 1548SOL    HW2 7111   3.605   1.077   4.682
 1549SOL     OW 7112   2.183   0.943   3.966
 1549SOL    HW1 7113   2.265   0.982   3.924
 1549SOL    HW2 7114   2.156   0.861   3.917
 1550SOL     OW 7115   2.973   1.776   3.961
 1550SOL    HW1 7116   2.913   1.714   4.011
 1550SOL    HW2 7117   3.004   1.732   3.876
 1551SOL     OW 7118   3.494   1.377   3.805
 1551SOL    HW1 7119   3.462   1.471   3.795
 1551SOL    HW2 7120   3.418   1.314   3.793
 1552SOL     OW 7121   3.262   0.107   4.150
 1552SOL    HW1 7122   3.238   0.070   4.060
 1552SOL    HW2 7123   3.361   0.123   4.154
 1553SOL     OW 7124   2.802   1.698   4.628
 1553SOL    HW1 7125   2.882   1.641   4.649
 1553SOL    HW2 7126   2.753   1.658   4.551
 1554SOL     OW 7127   2.244   0.700   4.204
 1554SOL    HW1 7128   2.289   0.610   4.201
 1554SOL    HW2 7129   2.150   0.689   4.237
 1555SOL     OW 7130   2.476   0.122   3.841
 1555SOL    HW1 7131   2.574   0.100   3.848
 1555SOL    HW2 7132   2.445   0.105   3.748
 1556SOL     OW 7133   2.665   1.402   4.648
 1556SOL    HW1 7134   2.755   1.416   4.606
 1556SOL    HW2 7135   2.594   1.404   4.577
 1557SOL     OW 7136   2.784   0.503   4.623
 1557SOL    HW1 7137   2.759   0.494   4.527
 1557SOL    HW2 7138   2.832   0.421   4.654
 1558SOL     OW 7139   2.401   0.064   4.236
 1558SOL    HW1 7140   2.320   0.065   4.294
 1558SOL    HW2 7141   2.404   0.147   4.181
 1559SOL     OW 7142   3.296   1.188   3.765
 1559SOL    HW1 7143   3.328   1.112   3.822
 1559SOL    HW2 7144   3.204   1.215   3.795
 1560SOL     OW 7145   2.159   0.035   3.895
 1560SOL    HW1 7146   2.208   0.119   3.874
 1560SOL    HW2 7147   2.221  -0.030   3.940
 1561SOL     OW 7148   2.797   0.236   4.204
 1561SOL    HW1 7149   2.749   0.277   4.126
 1561SOL    HW2 7150   2.896   0.234   4.185
 1562SOL     OW 7151   3.089   1.570   4.517
 1562SOL    HW1 7152   3.110   1.644   4.452
 1562SOL    HW2 7153   3.157   1.570   4.590
 1563SOL     OW 7154   2.321   1.152   4.465
 1563SOL    HW1 7155   2.250   1.125   4.530
 1563SOL    HW2 7156   2.295   1.124   4.372
 1564SOL     OW 7157   3.133   1.797   4.315
 1564SOL    HW1 7158   3.177   1.861   4.251
 1564SOL    HW2 7159   3.083   1.849   4.385
 1565SOL     OW 7160   2.423   0.222   4.871
 1565SOL    HW1 7161   2.461   0.138   4.908
 1565SOL    HW2 7162   2.335   0.241   4.915
 1566SOL     OW 7163   2.728   0.454   4.366
 1566SOL    HW1 7164   2.696   0.526   4.304
 1566SOL    HW2 7165   2.752   0.373   4.313
 1567SOL     OW 7166   2.879   0.039   4.477
 1567SOL    HW1 7167   2.807   0.044   4.408
 1567SOL    HW2 7168   2.855  -0.030   4.546
 1568SOL     OW 7169   3.291   1.173   4.591
 1568SOL    HW1 7170   3.236   1.089   4.584
 1568SOL    HW2 7171   3.317   1.202   4.499
 1569SOL     OW 7172   2.350   1.385   3.898
 1569SOL    HW1 7173   2.263   1.370   3.945
 1569SOL    HW2 7174   2.333   1.411   3.803
 1570SOL     OW 7175   3.526   1.280   4.381
 1570SOL    HW1 7176   3.625   1.288   4.395
 1570SOL    HW2 7177   3.481   1.364   4.412
 1571SOL     OW 7178   2.389   0.256   4.052
 1571SOL    HW1 7179   2.416   0.197   3.977
 1571SOL    HW2 7180   2.389   0.351   4.021
 1572SOL     OW 7181   2.973   1.195   4.824
 1572SOL    HW1 7182   2.933   1.239   4.905
 1572SOL    HW2 7183   2.932   1.232   4.741
 1573SOL     OW 7184   3.500   1.099   4.803
 1573SOL    HW1 7185   3.505   1.180   4.862
 1573SOL    HW2 7186   3.414   1.101   4.752
 1574SOL     OW 7187   2.229   1.100   4.225
 1574SOL    HW1 7188   2.222   1.183   4.169
 1574SOL    HW2 7189   2.233   1.020   4.165
 1575SOL     OW 7190   2.428   0.537   4.589
 1575SOL    HW1 7191   2.440   0.603   4.515
 1575SOL    HW2 7192   2.474   0.571   4.672
 1576SOL     OW 7193   3.134   1.445   4.866
 1576SOL    HW1 7194   3.181   1.458   4.953
 1576SOL    HW2 7195   3.068   1.371   4.875
 1577SOL     OW 7196   2.216   1.510   5.053
 1577SOL    HW1 7197   2.195   1.466   4.966
 1577SOL    HW2 7198   2.313   1.536   5.056
 1578SOL     OW 7199   2.435   0.870   4.753
 1578SOL    HW1 7200   2.479   0.959   4.744
 1578SOL    HW2 7201   2.372   0.870   4.830
 1579SOL     OW 7202   3.222   0.862   4.769
 1579SOL    HW1 7203   3.147   0.862   4.703
 1579SOL    HW2 7204   3.259   0.770   4.778
 1580SOL     OW 7205   2.169   0.213   4.955
 1580SOL    HW1 7206   2.146   0.250   5.045
 1580SOL    HW2 7207   2.139   0.118   4.949
 1581SOL     OW 7208   2.594   0.634   4.788
 1581SOL    HW1 7209   2.653   0.608   4.712
 1581SOL    HW2 7210   2.566   0.730   4.777
 1582SOL     OW 7211   2.169   0.063   4.342
 1582SOL    HW1 7212   2.158   0.157   4.375
 1582SOL    HW2 7213   2.164   0.000   4.419
 1583SOL     OW 7214   3.484   0.367   4.098
 1583SOL    HW1 7215   3.486   0.291   4.162
 1583SOL    HW2 7216   3.436   0.444   4.138
 1584SOL     OW 7217   2.885   0.766   4.690
 1584SOL    HW1 7218   2.900   0.787   4.786
 1584SOL    HW2 7219   2.855   0.671   4.681
 1585SOL     OW 7220   3.402   0.274   3.849
 1585SOL    HW1 7221   3.341   0.199   3.872
 1585SOL    HW2 7222   3.424   0.326   3.932
 1586SOL     OW 7223   2.930   1.333   4.573
 1586SOL    HW1 7224   2.937   1.249   4.518
 1586SOL    HW2 7225   2.992   1.402   4.537
 1587SOL     OW 7226   2.181   0.810   4.673
 1587SOL    HW1 7227   2.274   0.846   4.678
 1587SOL    HW2 7228   2.175   0.725   4.725
 1588SOL     OW 7229   1.870   1.326   3.924
 1588SOL    HW1 7230   1.777   1.347   3.893
 1588SOL    HW2 7231   1.880   1.227   3.937
 1589SOL     OW 7232   2.677   0.572   4.049
 1589SOL    HW1 7233   2.684   0.483   4.003
 1589SOL    HW2 7234   2.583   0.606   4.041
 1590SOL     OW 7235   3.519   0.604   4.930
 1590SOL    HW1 7236   3.481   0.535   4.992
 1590SOL    HW2 7237   3.601   0.568   4.886
 1591SOL     OW 7238   2.792   1.678   5.189
 1591SOL    HW1 7239   2.768   1.660   5.094
 1591SOL    HW2 7240   2.822   1.772   5.199
 1592SOL     OW 7241   2.335   0.500   3.915
 1592SOL    HW1 7242   2.396   0.580   3.919
 1592SOL    HW2 7243   2.240   0.531   3.922
 1593SOL     OW 7244   3.209   1.059   4.958
 1593SOL    HW1 7245   3.233   0.996   4.884
 1593SOL    HW2 7246   3.119   1.099   4.940
 1594SOL     OW 7247   3.164   0.855   4.033
 1594SOL    HW1 7248   3.078   0.824   4.075
 1594SOL    HW2 7249   3.160   0.841   3.934
 1595SOL     OW 7250   3.621   1.747   4.878
 1595SOL    HW1 7251   3.682   1.777   4.805
 1595SOL    HW2 7252   3.583   1.658   4.856
 1596SOL     OW 7253   3.114   1.731   4.852
 1596SOL    HW1 7254   3.198   1.736   4.798
 1596SOL    HW2 7255   3.091   1.635   4.870
 1597SOL     OW 7256   3.588   0.135   4.247
 1597SOL    HW1 7257   3.661   0.118   4.180
 1597SOL    HW2 7258   3.557   0.048   4.285
 1598SOL     OW 7259   3.250   1.573   4.201
 1598SOL    HW1 7260   3.317   1.585   4.127
 1598SOL    HW2 7261   3.210   1.662   4.224
 1599SOL     OW 7262   3.142   0.927   4.396
 1599SOL    HW1 7263   3.202   0.846   4.398
 1599SOL    HW2 7264   3.182   0.996   4.336
 1600SOL     OW 7265   2.534   1.616   3.878
 1600SOL    HW1 7266   2.543   1.626   3.779
 1600SOL    HW2 7267   2.494   1.527   3.899
 1601SOL     OW 7268   3.703   0.175   4.687
 1601SOL    HW1 7269   3.742   0.090   4.651
 1601SOL    HW2 7270   3.605   0.177   4.668
 1602SOL     OW 7271   2.125   0.326   4.444
 1602SOL    HW1 7272   2.046   0.377   4.410
 1602SOL    HW2 7273   2.116   0.311   4.542
 1603SOL     OW 7274   3.056   1.612   3.755
 1603SOL    HW1 7275   3.062   1.519   3.792
 1603SOL    HW2 7276   2.997   1.612   3.675
 1604SOL     OW 7277   3.366   1.607   3.768
 1604SOL    HW1 7278   3.274   1.644   3.775
 1604SOL    HW2 7279   3.404   1.627   3.678
 1605SOL     OW 7280   2.901   1.098   4.420
 1605SOL    HW1 7281   2.831   1.051   4.474
 1605SOL    HW2 7282   2.960   1.030   4.377
 1606SOL     OW 7283   2.876   0.236   4.695
 1606SOL    HW1 7284   2.868   0.200   4.602
 1606SOL    HW2 7285   2.874   0.160   4.760
 1607SOL     OW 7286   3.571   0.385   5.105
 1607SOL    HW1 7287   3.644   0.454   5.109
 1607SOL    HW2 7288   3.599   0.310   5.046
 1608SOL     OW 7289   1.937   0.345   3.757
 1608SOL    HW1 7290   1.845   0.317   3.728
 1608SOL    HW2 7291   1.968   0.422   3.701
 1609SOL     OW 7292   1.934   0.166   4.042
 1609SOL    HW1 7293   1.917   0.249   3.988
 1609SOL    HW2 7294   2.024   0.129   4.020
 1610SOL     OW 7295   3.045   1.335   3.843
 1610SOL    HW1 7296   2.946   1.324   3.845
 1610SOL    HW2 7297   3.079   1.350   3.936
 1611SOL     OW 7298   3.355   1.767   4.683
 1611SOL    HW1 7299   3.388   1.831   4.614
 1611SOL    HW2 7300   3.421   1.761   4.758
 1612SOL     OW 7301   3.312   1.220   5.357
 1612SOL    HW1 7302   3.303   1.210   5.456
 1612SOL    HW2 7303   3.408   1.213   5.331
 1613SOL     OW 7304   3.536   0.883   4.978
 1613SOL    HW1 7305   3.509   0.794   4.941
 1613SOL    HW2 7306   3.537   0.951   4.905
 1614SOL     OW 7307   3.087   0.325   4.173
 1614SOL    HW1 7308   3.152   0.251   4.162
 1614SOL    HW2 7309   3.107   0.375   4.257
 1615SOL     OW 7310   2.456   0.745   4.376
 1615SOL    HW1 7311   2.506   0.830   4.357
 1615SOL    HW2 7312   2.368   0.747   4.328
 1616SOL     OW 7313   3.592   0.934   5.241
 1616SOL    HW1 7314   3.630   1.025   5.256
 1616SOL    HW2 7315   3.584   0.917   5.142
 1617SOL     OW 7316   2.721   1.374   3.740
 1617SOL    HW1 7317   2.675   1.389   3.828
 1617SOL    HW2 7318   2.765   1.459   3.710
 1618SOL     OW 7319   2.523   1.790   4.677
 1618SOL    HW1 7320   2.477   1.878   4.664
 1618SOL    HW2 7321   2.622   1.802   4.670
 1619SOL     OW 7322   2.721   0.956   4.585
 1619SOL    HW1 7323   2.775   0.887   4.633
 1619SOL    HW2 7324   2.689   1.025   4.651
 1620SOL     OW 7325   3.723   1.569   4.575
 1620SOL    HW1 7326   3.652   1.557   4.505
 1620SOL    HW2 7327   3.724   1.490   4.635
 1621SOL     OW 7328   1.941   1.240   4.377
 1621SOL    HW1 7329   1.940   1.193   4.465
 1621SOL    HW2 7330   2.023   1.212   4.326
 1622SOL     OW 7331   3.686   0.192   4.951
 1622SOL    HW1 7332   3.682   0.102   4.995
 1622SOL    HW2 7333   3.689   0.181   4.852
 1623SOL     OW 7334   2.290   0.424   4.244
 1623SOL    HW1 7335   2.320   0.352   4.182
 1623SOL    HW2 7336   2.251   0.384   4.327
 1624SOL     OW 7337   3.567   1.487   4.828
 1624SOL    HW1 7338   3.474   1.462   4.801
 1624SOL    HW2 7339   3.593   1.437   4.910
 1625SOL     OW 7340   3.286   0.214   4.836
 1625SOL    HW1 7341   3.338   0.149   4.891
 1625SOL    HW2 7342   3.237   0.277   4.897
 1626SOL     OW 7343   2.863   0.034   4.878
 1626SOL    HW1 7344   2.800  -0.038   4.847
 1626SOL    HW2 7345   2.956  -0.002   4.878
 1627SOL     OW 7346   3.214   0.052   3.892
 1627SOL    HW1 7347   3.249   0.011   3.808
 1627SOL    HW2 7348   3.124   0.014   3.912
 1628SOL     OW 7349   3.455   0.221   4.606
 1628SOL    HW1 7350   3.371   0.220   4.660
 1628SOL    HW2 7351   3.457   0.304   4.550
 1629SOL     OW 7352   1.901   1.077   4.024
 1629SOL    HW1 7353   2.000   1.066   4.015
 1629SOL    HW2 7354   1.861   0.991   4.056
 1630SOL     OW 7355   2.087   2.137   0.996
 1630SOL    HW1 7356   2.122   2.120   1.088
 1630SOL    HW2 7357   1.999   2.092   0.984
 1631SOL     OW 7358   1.881   2.230   0.647
 1631SOL    HW1 7359   1.799   2.273   0.686
 1631SOL    HW2 7360   1.853   2.157   0.584
 1632SOL     OW 7361   2.431   3.137   1.165
 1632SOL    HW1 7362   2.338   3.130   1.128
 1632SOL    HW2 7363   2.442   3.226   1.209
 1633SOL     OW 7364   3.417   3.373   0.703
 1633SOL    HW1 7365   3.360   3.357   0.784
 1633SOL    HW2 7366   3.358   3.383   0.623
 1634SOL     OW 7367   2.997   2.565   0.717
 1634SOL    HW1 7368   3.054   2.643   0.692
 1634SOL    HW2 7369   2.937   2.591   0.793
 1635SOL     OW 7370   3.617   2.469   0.231
 1635SOL    HW1 7371   3.605   2.456   0.132
 1635SOL    HW2 7372   3.587   2.388   0.280
 1636SOL     OW 7373   2.630   3.006   1.023
 1636SOL    HW1 7374   2.552   3.023   1.083
 1636SOL    HW2 7375   2.664   3.093   0.987
 1637SOL     OW 7376   2.712   2.660   1.823
 1637SOL    HW1 7377   2.708   2.736   1.888
 1637SOL    HW2 7378   2.734   2.696   1.732
 1638SOL     OW 7379   2.547   2.874   0.665
 1638SOL    HW1 7380   2.616   2.858   0.735
 1638SOL    HW2 7381   2.474   2.931   0.703
 1639SOL     OW 7382   2.548   3.023   1.803
 1639SOL    HW1 7383   2.608   3.102   1.817
 1639SOL    HW2 7384   2.462   3.054   1.762
 1640SOL     OW 7385   2.197   3.297   1.061
 1640SOL    HW1 7386   2.119   3.266   1.008
 1640SOL    HW2 7387   2.255   3.355   1.004
 1641SOL     OW 7388   3.322   3.367   1.339
 1641SOL    HW1 7389   3.346   3.461   1.365
 1641SOL    HW2 7390   3.306   3.313   1.421
 1642SOL     OW 7391   2.300   2.254   1.499
 1642SOL    HW1 7392   2.382   2.198   1.508
 1642SOL    HW2 7393   2.219   2.196   1.503
 1643SOL     OW 7394   3.465   2.309   0.737
 1643SOL    HW1 7395   3.391   2.355   0.687
 1643SOL    HW2 7396   3.516   2.377   0.790
 1644SOL     OW 7397   2.093   3.575   0.483
 1644SOL    HW1 7398   2.127   3.652   0.537
 1644SOL    HW2 7399   2.137   3.575   0.393
 1645SOL     OW 7400   2.989   3.203   1.690
 1645SOL    HW1 7401   3.036   3.203   1.778
 1645SOL    HW2 7402   2.941   3.116   1.679
 1646SOL     OW 7403   2.092   3.296   0.538
 1646SOL    HW1 7404   2.066   3.392   0.538
 1646SOL    HW2 7405   2.021   3.242   0.583
 1647SOL     OW 7406   2.102   2.953   0.886
 1647SOL    HW1 7407   2.116   2.869   0.938
 1647SOL    HW2 7408   2.047   3.017   0.941
 1648SOL     OW 7409   2.468   2.826   0.123
 1648SOL    HW1 7410   2.475   2.910   0.069
 1648SOL    HW2 7411   2.514   2.839   0.211
 1649SOL     OW 7412   3.456   1.976   1.480
 1649SOL    HW1 7413   3.438   2.043   1.408
 1649SOL    HW2 7414   3.453   2.022   1.569
 1650SOL     OW 7415   1.984   2.505   0.563
 1650SOL    HW1 7416   1.939   2.417   0.580
 1650SOL    HW2 7417   1.983   2.559   0.647
 1651SOL     OW 7418   3.704   3.629   0.359
 1651SOL    HW1 7419   3.758   3.600   0.439
 1651SOL    HW2 7420   3.734   3.719   0.330
 1652SOL     OW 7421   1.889   3.458   0.117
 1652SOL    HW1 7422   1.870   3.362   0.138
 1652SOL    HW2 7423   1.856   3.516   0.192
 1653SOL     OW 7424   1.975   2.599   1.597
 1653SOL    HW1 7425   2.063   2.586   1.642
 1653SOL    HW2 7426   1.962   2.696   1.575
 1654SOL     OW 7427   2.475   3.227   0.726
 1654SOL    HW1 7428   2.426   3.140   0.735
 1654SOL    HW2 7429   2.452   3.270   0.639
 1655SOL     OW 7430   3.155   3.090   1.423
 1655SOL    HW1 7431   3.192   3.017   1.365
 1655SOL    HW2 7432   3.207   3.095   1.508
 1656SOL     OW 7433   2.671   1.866   0.502
 1656SOL    HW1 7434   2.711   1.957   0.493
 1656SOL    HW2 7435   2.571   1.874   0.508
 1657SOL     OW 7436   2.059   2.838   1.264
 1657SOL    HW1 7437   2.148   2.793   1.250
 1657SOL    HW2 7438   1.986   2.773   1.245
 1658SOL     OW 7439   3.049   3.654   1.616
 1658SOL    HW1 7440   3.073   3.714   1.540
 1658SOL    HW2 7441   3.056   3.559   1.586
 1659SOL     OW 7442   3.328   3.279   0.953
 1659SOL    HW1 7443   3.269   3.285   1.033
 1659SOL    HW2 7444   3.313   3.191   0.907
 1660SOL     OW 7445   3.529   3.576   0.572
 1660SOL    HW1 7446   3.488   3.553   0.484
 1660SOL    HW2 7447   3.511   3.502   0.637
 1661SOL     OW 7448   2.460   2.591   0.270
 1661SOL    HW1 7449   2.484   2.660   0.202
 1661SOL    HW2 7450   2.382   2.624   0.324
 1662SOL     OW 7451   3.143   2.207   0.944
 1662SOL    HW1 7452   3.057   2.157   0.931
 1662SOL    HW2 7453   3.205   2.153   1.000
 1663SOL     OW 7454   2.669   2.467   1.465
 1663SOL    HW1 7455   2.622   2.464   1.554
 1663SOL    HW2 7456   2.618   2.412   1.399
 1664SOL     OW 7457   3.256   2.331   1.674
 1664SOL    HW1 7458   3.236   2.374   1.762
 1664SOL    HW2 7459   3.334   2.269   1.683
 1665SOL     OW 7460   2.835   2.752   1.572
 1665SOL    HW1 7461   2.881   2.668   1.543
 1665SOL    HW2 7462   2.779   2.786   1.497
 1666SOL     OW 7463   2.853   2.272   1.242
 1666SOL    HW1 7464   2.776   2.306   1.296
 1666SOL    HW2 7465   2.819   2.221   1.163
 1667SOL     OW 7466   2.903   2.563   0.429
 1667SOL    HW1 7467   2.929   2.559   0.525
 1667SOL    HW2 7468   2.818   2.512   0.415
 1668SOL     OW 7469   1.938   2.673   0.789
 1668SOL    HW1 7470   2.037   2.661   0.798
 1668SOL    HW2 7471   1.914   2.768   0.810
 1669SOL     OW 7472   1.992   3.683   1.571
 1669SOL    HW1 7473   1.982   3.668   1.670
 1669SOL    HW2 7474   1.906   3.719   1.535
 1670SOL     OW 7475   2.727   2.210   0.195
 1670SOL    HW1 7476   2.786   2.273   0.146
 1670SOL    HW2 7477   2.746   2.116   0.166
 1671SOL     OW 7478   3.581   2.447   1.831
 1671SOL    HW1 7479   3.555   2.536   1.795
 1671SOL    HW2 7480   3.579   2.379   1.758
 1672SOL     OW 7481   2.412   2.058   0.885
 1672SOL    HW1 7482   2.407   2.053   0.985
 1672SOL    HW2 7483   2.414   2.154   0.856
 1673SOL     OW 7484   2.870   3.318   0.477
 1673SOL    HW1 7485   2.824   3.390   0.425
 1673SOL    HW2 7486   2.866   3.338   0.575
 1674SOL     OW 7487   2.213   3.663   0.853
 1674SOL    HW1 7488   2.263   3.577   0.859
 1674SOL    HW2 7489   2.278   3.740   0.850
 1675SOL     OW 7490   3.089   3.412   1.506
 1675SOL    HW1 7491   3.095   3.335   1.570
 1675SOL    HW2 7492   3.037   3.386   1.426
 1676SOL     OW 7493   2.183   2.805   0.242
 1676SOL    HW1 7494   2.265   2.844   0.200
 1676SOL    HW2 7495   2.156   2.723   0.193
 1677SOL     OW 7496   3.320   2.597   0.728
 1677SOL    HW1 7497   3.315   2.532   0.803
 1677SOL    HW2 7498   3.400   2.656   0.741
 1678SOL     OW 7499   2.323   3.128   1.727
 1678SOL    HW1 7500   2.273   3.129   1.641
 1678SOL    HW2 7501   2.260   3.110   1.803
 1679SOL     OW 7502   2.973   3.638   0.237
 1679SOL    HW1 7503   2.913   3.576   0.287
 1679SOL    HW2 7504   3.004   3.594   0.152
 1680SOL     OW 7505   3.494   3.239   0.081
 1680SOL    HW1 7506   3.462   3.333   0.071
 1680SOL    HW2 7507   3.418   3.176   0.069
 1681SOL     OW 7508   2.326   3.605   0.323
 1681SOL    HW1 7509   2.359   3.644   0.409
 1681SOL    HW2 7510   2.402   3.598   0.258
 1682SOL     OW 7511   3.262   1.969   0.426
 1682SOL    HW1 7512   3.238   1.932   0.336
 1682SOL    HW2 7513   3.361   1.985   0.430
 1683SOL     OW 7514   2.111   3.647   1.241
 1683SOL    HW1 7515   2.168   3.582   1.291
 1683SOL    HW2 7516   2.095   3.614   1.148
 1684SOL     OW 7517   2.802   3.560   0.904
 1684SOL    HW1 7518   2.882   3.503   0.925
 1684SOL    HW2 7519   2.753   3.520   0.827
 1685SOL     OW 7520   2.244   2.562   0.480
 1685SOL    HW1 7521   2.289   2.472   0.477
 1685SOL    HW2 7522   2.150   2.551   0.513
 1686SOL     OW 7523   2.643   2.126   1.749
 1686SOL    HW1 7524   2.710   2.065   1.792
 1686SOL    HW2 7525   2.570   2.145   1.814
 1687SOL     OW 7526   3.213   2.452   1.433
 1687SOL    HW1 7527   3.241   2.409   1.518
 1687SOL    HW2 7528   3.238   2.548   1.434
 1688SOL     OW 7529   2.665   3.264   0.924
 1688SOL    HW1 7530   2.755   3.278   0.882
 1688SOL    HW2 7531   2.594   3.266   0.853
 1689SOL     OW 7532   2.784   2.365   0.899
 1689SOL    HW1 7533   2.759   2.356   0.803
 1689SOL    HW2 7534   2.832   2.283   0.930
 1690SOL     OW 7535   2.401   1.926   0.512
 1690SOL    HW1 7536   2.320   1.927   0.570
 1690SOL    HW2 7537   2.404   2.009   0.457
 1691SOL     OW 7538   2.797   2.098   0.480
 1691SOL    HW1 7539   2.749   2.139   0.402
 1691SOL    HW2 7540   2.896   2.096   0.461
 1692SOL     OW 7541   2.938   2.545   1.464
 1692SOL    HW1 7542   2.858   2.484   1.467
 1692SOL    HW2 7543   3.019   2.492   1.440
 1693SOL     OW 7544   2.321   3.014   0.741
 1693SOL    HW1 7545   2.250   2.987   0.806
 1693SOL    HW2 7546   2.295   2.986   0.648
 1694SOL     OW 7547   2.894   2.411   0.016
 1694SOL    HW1 7548   2.853   2.493  -0.023
 1694SOL    HW2 7549   2.958   2.437   0.089
 1695SOL     OW 7550   1.940   2.418   1.386
 1695SOL    HW1 7551   2.032   2.417   1.345
 1695SOL    HW2 7552   1.934   2.492   1.453
 1696SOL     OW 7553   2.423   2.084   1.147
 1696SOL    HW1 7554   2.461   2.000   1.184
 1696SOL    HW2 7555   2.335   2.103   1.191
 1697SOL     OW 7556   2.728   2.316   0.642
 1697SOL    HW1 7557   2.696   2.388   0.580
 1697SOL    HW2 7558   2.752   2.235   0.589
 1698SOL     OW 7559   2.879   1.901   0.753
 1698SOL    HW1 7560   2.807   1.906   0.684
 1698SOL    HW2 7561   2.855   1.832   0.822
 1699SOL     OW 7562   3.291   3.035   0.867
 1699SOL    HW1 7563   3.236   2.951   0.860
 1699SOL    HW2 7564   3.317   3.064   0.775
 1700SOL     OW 7565   3.328   2.452   0.992
 1700SOL    HW1 7566   3.298   2.357   0.999
 1700SOL    HW2 7567   3.401   2.468   1.058
 1701SOL     OW 7568   3.719   2.695   0.377
 1701SOL    HW1 7569   3.761   2.631   0.441
 1701SOL    HW2 7570   3.681   2.644   0.299
 1702SOL     OW 7571   2.350   3.247   0.174
 1702SOL    HW1 7572   2.263   3.232   0.221
 1702SOL    HW2 7573   2.333   3.273   0.079
 1703SOL     OW 7574   3.252   2.437   0.078
 1703SOL    HW1 7575   3.198   2.416   0.159
 1703SOL    HW2 7576   3.343   2.396   0.087
 1704SOL     OW 7577   2.389   2.118   0.328
 1704SOL    HW1 7578   2.416   2.059   0.253
 1704SOL    HW2 7579   2.389   2.213   0.297
 1705SOL     OW 7580   3.616   3.085   1.588
 1705SOL    HW1 7581   3.707   3.046   1.575
 1705SOL    HW2 7582   3.624   3.181   1.612
 1706SOL     OW 7583   2.926   3.209   1.340
 1706SOL    HW1 7584   2.846   3.186   1.395
 1706SOL    HW2 7585   3.009   3.183   1.389
 1707SOL     OW 7586   3.454   3.491   1.625
 1707SOL    HW1 7587   3.481   3.525   1.535
 1707SOL    HW2 7588   3.533   3.453   1.671
 1708SOL     OW 7589   2.973   3.057   1.100
 1708SOL    HW1 7590   2.933   3.101   1.181
 1708SOL    HW2 7591   2.932   3.094   1.017
 1709SOL     OW 7592   3.500   2.961   1.079
 1709SOL    HW1 7593   3.505   3.042   1.138
 1709SOL    HW2 7594   3.414   2.963   1.028
 1710SOL     OW 7595   2.842   2.978   1.719
 1710SOL    HW1 7596   2.743   2.984   1.729
 1710SOL    HW2 7597   2.865   2.898   1.663
 1711SOL     OW 7598   2.567   2.912   0.368
 1711SOL    HW1 7599   2.553   2.919   0.467
 1711SOL    HW2 7600   2.651   2.861   0.350
 1712SOL     OW 7601   2.272   2.675   1.251
 1712SOL    HW1 7602   2.358   2.687   1.301
 1712SOL    HW2 7603   2.230   2.588   1.278
 1713SOL     OW 7604   3.136   2.248   1.262
 1713SOL    HW1 7605   3.157   2.322   1.326
 1713SOL    HW2 7606   3.047   2.265   1.219
 1714SOL     OW 7607   1.926   3.426   1.331
 1714SOL    HW1 7608   1.880   3.508   1.297
 1714SOL    HW2 7609   2.024   3.445   1.340
 1715SOL     OW 7610   2.229   2.962   0.501
 1715SOL    HW1 7611   2.222   3.045   0.445
 1715SOL    HW2 7612   2.233   2.882   0.441
 1716SOL     OW 7613   2.428   2.399   0.865
 1716SOL    HW1 7614   2.440   2.465   0.791
 1716SOL    HW2 7615   2.474   2.433   0.948
 1717SOL     OW 7616   3.114   3.210   0.388
 1717SOL    HW1 7617   3.164   3.287   0.428
 1717SOL    HW2 7618   3.019   3.212   0.420
 1718SOL     OW 7619   3.134   3.307   1.142
 1718SOL    HW1 7620   3.181   3.320   1.229
 1718SOL    HW2 7621   3.068   3.233   1.151
 1719SOL     OW 7622   2.216   3.372   1.329
 1719SOL    HW1 7623   2.195   3.328   1.242
 1719SOL    HW2 7624   2.313   3.398   1.332
 1720SOL     OW 7625   2.264   2.613   1.598
 1720SOL    HW1 7626   2.332   2.668   1.551
 1720SOL    HW2 7627   2.304   2.525   1.625
 1721SOL     OW 7628   3.449   2.641   1.670
 1721SOL    HW1 7629   3.357   2.679   1.665
 1721SOL    HW2 7630   3.509   2.688   1.605
 1722SOL     OW 7631   2.875   1.967   1.770
 1722SOL    HW1 7632   2.881   2.052   1.718
 1722SOL    HW2 7633   2.907   1.891   1.713
 1723SOL     OW 7634   2.435   2.732   1.029
 1723SOL    HW1 7635   2.479   2.821   1.020
 1723SOL    HW2 7636   2.372   2.732   1.106
 1724SOL     OW 7637   3.222   2.724   1.045
 1724SOL    HW1 7638   3.147   2.724   0.979
 1724SOL    HW2 7639   3.259   2.632   1.054
 1725SOL     OW 7640   3.071   2.387   0.275
 1725SOL    HW1 7641   3.084   2.303   0.329
 1725SOL    HW2 7642   3.042   2.461   0.335
 1726SOL     OW 7643   1.899   3.172   1.282
 1726SOL    HW1 7644   1.952   3.123   1.350
 1726SOL    HW2 7645   1.921   3.270   1.287
 1727SOL     OW 7646   2.594   2.496   1.064
 1727SOL    HW1 7647   2.653   2.470   0.988
 1727SOL    HW2 7648   2.566   2.592   1.053
 1728SOL     OW 7649   3.590   2.797   1.854
 1728SOL    HW1 7650   3.544   2.790   1.765
 1728SOL    HW2 7651   3.528   2.841   1.920
 1729SOL     OW 7652   3.484   2.229   0.374
 1729SOL    HW1 7653   3.486   2.153   0.438
 1729SOL    HW2 7654   3.436   2.306   0.414
 1730SOL     OW 7655   2.885   2.628   0.966
 1730SOL    HW1 7656   2.900   2.649   1.062
 1730SOL    HW2 7657   2.855   2.533   0.957
 1731SOL     OW 7658   2.842   3.435   1.700
 1731SOL    HW1 7659   2.822   3.479   1.612
 1731SOL    HW2 7660   2.881   3.344   1.684
 1732SOL     OW 7661   2.212   2.760   1.804
 1732SOL    HW1 7662   2.288   2.804   1.852
 1732SOL    HW2 7663   2.247   2.713   1.722
 1733SOL     OW 7664   3.402   2.136   0.125
 1733SOL    HW1 7665   3.341   2.061   0.148
 1733SOL    HW2 7666   3.424   2.188   0.208
 1734SOL     OW 7667   3.165   2.700   0.042
 1734SOL    HW1 7668   3.199   2.607   0.057
 1734SOL    HW2 7669   3.183   2.727  -0.053
 1735SOL     OW 7670   2.930   3.195   0.849
 1735SOL    HW1 7671   2.937   3.111   0.794
 1735SOL    HW2 7672   2.992   3.264   0.813
 1736SOL     OW 7673   2.181   2.672   0.949
 1736SOL    HW1 7674   2.274   2.708   0.954
 1736SOL    HW2 7675   2.175   2.587   1.001
 1737SOL     OW 7676   2.201   2.371   1.006
 1737SOL    HW1 7677   2.149   2.288   0.989
 1737SOL    HW2 7678   2.278   2.376   0.942
 1738SOL     OW 7679   3.000   2.242   1.678
 1738SOL    HW1 7680   2.955   2.305   1.742
 1738SOL    HW2 7681   3.093   2.273   1.661
 1739SOL     OW 7682   1.950   3.663   0.927
 1739SOL    HW1 7683   1.908   3.577   0.900
 1739SOL    HW2 7684   2.044   3.666   0.893
 1740SOL     OW 7685   2.366   3.430   0.910
 1740SOL    HW1 7686   2.432   3.504   0.919
 1740SOL    HW2 7687   2.410   3.351   0.868
 1741SOL     OW 7688   2.864   2.658   1.238
 1741SOL    HW1 7689   2.905   2.626   1.324
 1741SOL    HW2 7690   2.768   2.631   1.235
 1742SOL     OW 7691   1.902   2.406   1.114
 1742SOL    HW1 7692   1.987   2.373   1.073
 1742SOL    HW2 7693   1.915   2.421   1.212
 1743SOL     OW 7694   2.051   2.382   1.722
 1743SOL    HW1 7695   2.110   2.342   1.652
 1743SOL    HW2 7696   1.993   2.453   1.681
 1744SOL     OW 7697   3.231   2.812   1.660
 1744SOL    HW1 7698   3.270   2.901   1.680
 1744SOL    HW2 7699   3.241   2.792   1.563
 1745SOL     OW 7700   2.677   2.434   0.325
 1745SOL    HW1 7701   2.684   2.345   0.279
 1745SOL    HW2 7702   2.583   2.468   0.317
 1746SOL     OW 7703   3.519   2.466   1.206
 1746SOL    HW1 7704   3.481   2.397   1.268
 1746SOL    HW2 7705   3.601   2.430   1.162
 1747SOL     OW 7706   2.114   3.426   1.744
 1747SOL    HW1 7707   2.084   3.483   1.820
 1747SOL    HW2 7708   2.107   3.329   1.770
 1748SOL     OW 7709   2.533   2.326   1.269
 1748SOL    HW1 7710   2.499   2.237   1.239
 1748SOL    HW2 7711   2.559   2.380   1.189
 1749SOL     OW 7712   2.335   2.362   0.191
 1749SOL    HW1 7713   2.396   2.442   0.195
 1749SOL    HW2 7714   2.240   2.393   0.198
 1750SOL     OW 7715   2.021   2.999   1.466
 1750SOL    HW1 7716   2.043   2.938   1.542
 1750SOL    HW2 7717   2.031   2.950   1.380
 1751SOL     OW 7718   3.209   2.921   1.234
 1751SOL    HW1 7719   3.233   2.858   1.160
 1751SOL    HW2 7720   3.119   2.961   1.216
 1752SOL     OW 7721   3.164   2.717   0.309
 1752SOL    HW1 7722   3.078   2.686   0.351
 1752SOL    HW2 7723   3.160   2.703   0.210
 1753SOL     OW 7724   3.621   3.609   1.154
 1753SOL    HW1 7725   3.682   3.639   1.081
 1753SOL    HW2 7726   3.583   3.520   1.132
 1754SOL     OW 7727   1.945   3.120   1.022
 1754SOL    HW1 7728   1.940   3.119   1.122
 1754SOL    HW2 7729   1.862   3.079   0.984
 1755SOL     OW 7730   2.550   3.524   1.716
 1755SOL    HW1 7731   2.494   3.605   1.725
 1755SOL    HW2 7732   2.602   3.528   1.630
 1756SOL     OW 7733   2.765   1.948   0.133
 1756SOL    HW1 7734   2.816   1.949   0.047
 1756SOL    HW2 7735   2.821   1.906   0.204
 1757SOL     OW 7736   3.588   1.997   0.523
 1757SOL    HW1 7737   3.661   1.980   0.456
 1757SOL    HW2 7738   3.557   1.910   0.561
 1758SOL     OW 7739   1.992   3.656   1.851
 1758SOL    HW1 7740   1.951   3.582   1.904
 1758SOL    HW2 7741   2.056   3.707   1.909
 1759SOL     OW 7742   3.142   2.789   0.672
 1759SOL    HW1 7743   3.202   2.708   0.674
 1759SOL    HW2 7744   3.182   2.858   0.612
 1760SOL     OW 7745   2.692   3.135   1.422
 1760SOL    HW1 7746   2.687   3.168   1.517
 1760SOL    HW2 7747   2.606   3.154   1.376
 1761SOL     OW 7748   2.534   3.478   0.154
 1761SOL    HW1 7749   2.543   3.488   0.055
 1761SOL    HW2 7750   2.494   3.389   0.175
 1762SOL     OW 7751   3.512   3.582   1.394
 1762SOL    HW1 7752   3.565   3.592   1.310
 1762SOL    HW2 7753   3.485   3.672   1.428
 1763SOL     OW 7754   3.703   2.037   0.963
 1763SOL    HW1 7755   3.742   1.952   0.927
 1763SOL    HW2 7756   3.605   2.039   0.944
 1764SOL     OW 7757   2.125   2.188   0.720
 1764SOL    HW1 7758   2.046   2.239   0.686
 1764SOL    HW2 7759   2.116   2.173   0.818
 1765SOL     OW 7760   2.684   2.864   1.372
 1765SOL    HW1 7761   2.724   2.863   1.280
 1765SOL    HW2 7762   2.694   2.956   1.412
 1766SOL     OW 7763   2.778   2.772   0.291
 1766SOL    HW1 7764   2.841   2.810   0.223
 1766SOL    HW2 7765   2.818   2.689   0.330
 1767SOL     OW 7766   2.234   3.150   1.490
 1767SOL    HW1 7767   2.221   3.243   1.456
 1767SOL    HW2 7768   2.150   3.098   1.477
 1768SOL     OW 7769   3.476   3.154   1.289
 1768SOL    HW1 7770   3.536   3.157   1.369
 1768SOL    HW2 7771   3.401   3.218   1.302
 1769SOL     OW 7772   2.901   2.960   0.696
 1769SOL    HW1 7773   2.831   2.913   0.750
 1769SOL    HW2 7774   2.960   2.892   0.653
 1770SOL     OW 7775   2.876   2.098   0.971
 1770SOL    HW1 7776   2.868   2.062   0.878
 1770SOL    HW2 7777   2.874   2.022   1.036
 1771SOL     OW 7778   2.452   3.349   0.491
 1771SOL    HW1 7779   2.494   3.291   0.421
 1771SOL    HW2 7780   2.408   3.428   0.447
 1772SOL     OW 7781   3.571   2.247   1.381
 1772SOL    HW1 7782   3.644   2.316   1.385
 1772SOL    HW2 7783   3.599   2.172   1.322
 1773SOL     OW 7784   2.117   3.210   0.290
 1773SOL    HW1 7785   2.021   3.211   0.263
 1773SOL    HW2 7786   2.129   3.263   0.374
 1774SOL     OW 7787   1.967   2.875   1.726
 1774SOL    HW1 7788   1.890   2.842   1.780
 1774SOL    HW2 7789   2.052   2.845   1.768
 1775SOL     OW 7790   2.534   2.065   1.489
 1775SOL    HW1 7791   2.624   2.049   1.449
 1775SOL    HW2 7792   2.542   2.070   1.588
 1776SOL     OW 7793   3.302   2.718   1.398
 1776SOL    HW1 7794   3.245   2.770   1.335
 1776SOL    HW2 7795   3.398   2.730   1.374
 1777SOL     OW 7796   2.475   2.704   1.431
 1777SOL    HW1 7797   2.531   2.785   1.414
 1777SOL    HW2 7798   2.534   2.624   1.434
 1778SOL     OW 7799   3.355   3.629   0.959
 1778SOL    HW1 7800   3.388   3.693   0.890
 1778SOL    HW2 7801   3.421   3.623   1.034
 1779SOL     OW 7802   2.578   2.427   1.708
 1779SOL    HW1 7803   2.597   2.492   1.782
 1779SOL    HW2 7804   2.638   2.347   1.717
 1780SOL     OW 7805   3.312   3.082   1.633
 1780SOL    HW1 7806   3.303   3.072   1.732
 1780SOL    HW2 7807   3.408   3.075   1.607
 1781SOL     OW 7808   2.252   3.603   1.560
 1781SOL    HW1 7809   2.161   3.644   1.558
 1781SOL    HW2 7810   2.245   3.509   1.592
 1782SOL     OW 7811   3.536   2.745   1.254
 1782SOL    HW1 7812   3.509   2.656   1.217
 1782SOL    HW2 7813   3.537   2.813   1.181
 1783SOL     OW 7814   3.087   2.187   0.449
 1783SOL    HW1 7815   3.152   2.113   0.438
 1783SOL    HW2 7816   3.107   2.237   0.533
 1784SOL     OW 7817   2.456   2.607   0.652
 1784SOL    HW1 7818   2.506   2.692   0.633
 1784SOL    HW2 7819   2.368   2.609   0.604
 1785SOL     OW 7820   3.639   2.204   1.642
 1785SOL    HW1 7821   3.622   2.235   1.548
 1785SOL    HW2 7822   3.555   2.167   1.680
 1786SOL     OW 7823   3.592   2.796   1.517
 1786SOL    HW1 7824   3.630   2.887   1.532
 1786SOL    HW2 7825   3.584   2.779   1.418
 1787SOL     OW 7826   2.721   3.236   0.016
 1787SOL    HW1 7827   2.675   3.251   0.104
 1787SOL    HW2 7828   2.765   3.321  -0.014
 1788SOL     OW 7829   2.523   3.652   0.953
 1788SOL    HW1 7830   2.477   3.740   0.940
 1788SOL    HW2 7831   2.622   3.664   0.946
 1789SOL     OW 7832   2.721   2.818   0.861
 1789SOL    HW1 7833   2.775   2.749   0.909
 1789SOL    HW2 7834   2.689   2.887   0.927
 1790SOL     OW 7835   2.083   3.176   1.844
 1790SOL    HW1 7836   2.018   3.103   1.823
 1790SOL    HW2 7837   2.087   3.190   1.942
 1791SOL     OW 7838   1.941   3.102   0.653
 1791SOL    HW1 7839   1.940   3.055   0.741
 1791SOL    HW2 7840   2.023   3.074   0.602
 1792SOL     OW 7841   2.534   3.253   1.624
 1792SOL    HW1 7842   2.456   3.203   1.662
 1792SOL    HW2 7843   2.531   3.348   1.655
 1793SOL     OW 7844   3.686   2.054   1.227
 1793SOL    HW1 7845   3.682   1.964   1.271
 1793SOL    HW2 7846   3.689   2.043   1.128
 1794SOL     OW 7847   2.290   2.286   0.520
 1794SOL    HW1 7848   2.320   2.214   0.458
 1794SOL    HW2 7849   2.251   2.246   0.603
 1795SOL     OW 7850   3.567   3.349   1.104
 1795SOL    HW1 7851   3.474   3.324   1.077
 1795SOL    HW2 7852   3.593   3.299   1.186
 1796SOL     OW 7853   2.179   2.409   1.280
 1796SOL    HW1 7854   2.217   2.350   1.352
 1796SOL    HW2 7855   2.219   2.383   1.192
 1797SOL     OW 7856   2.674   3.448   0.687
 1797SOL    HW1 7857   2.706   3.458   0.593
 1797SOL    HW2 7858   2.595   3.386   0.689
 1798SOL     OW 7859   2.632   3.192   0.301
 1798SOL    HW1 7860   2.586   3.105   0.318
 1798SOL    HW2 7861   2.723   3.189   0.342
 1799SOL     OW 7862   2.480   3.429   1.284
 1799SOL    HW1 7863   2.475   3.511   1.341
 1799SOL    HW2 7864   2.569   3.426   1.239
 1800SOL     OW 7865   3.214   1.914   0.168
 1800SOL    HW1 7866   3.249   1.873   0.084
 1800SOL    HW2 7867   3.124   1.876   0.188
 1801SOL     OW 7868   3.162   2.315   0.691
 1801SOL    HW1 7869   3.103   2.395   0.695
 1801SOL    HW2 7870   3.177   2.280   0.784
 1802SOL     OW 7871   3.455   2.083   0.882
 1802SOL    HW1 7872   3.371   2.082   0.936
 1802SOL    HW2 7873   3.457   2.166   0.826
 1803SOL     OW 7874   1.901   2.939   0.300
 1803SOL    HW1 7875   2.000   2.928   0.291
 1803SOL    HW2 7876   1.861   2.853   0.332
 1804SOL     OW 7877   2.737   3.508   0.337
 1804SOL    HW1 7878   2.660   3.473   0.283
 1804SOL    HW2 7879   2.705   3.579   0.399
 1805SOL     OW 7880   2.087   2.137   2.858
 1805SOL    HW1 7881   2.122   2.120   2.950
 1805SOL    HW2 7882   1.999   2.092   2.846
 1806SOL     OW 7883   2.431   3.137   3.027
 1806SOL    HW1 7884   2.338   3.130   2.990
 1806SOL    HW2 7885   2.442   3.226   3.071
 1807SOL     OW 7886   3.417   3.373   2.565
 1807SOL    HW1 7887   3.360   3.357   2.646
 1807SOL    HW2 7888   3.358   3.383   2.485
 1808SOL     OW 7889   2.630   3.006   2.885
 1808SOL    HW1 7890   2.552   3.023   2.945
 1808SOL    HW2 7891   2.664   3.093   2.849
 1809SOL     OW 7892   2.712   2.660   3.685
 1809SOL    HW1 7893   2.708   2.736   3.750
 1809SOL    HW2 7894   2.734   2.696   3.594
 1810SOL     OW 7895   2.197   3.297   2.923
 1810SOL    HW1 7896   2.119   3.266   2.870
 1810SOL    HW2 7897   2.255   3.355   2.866
 1811SOL     OW 7898   3.322   3.367   3.201
 1811SOL    HW1 7899   3.346   3.461   3.227
 1811SOL    HW2 7900   3.306   3.313   3.283
 1812SOL     OW 7901   2.300   2.254   3.361
 1812SOL    HW1 7902   2.382   2.198   3.370
 1812SOL    HW2 7903   2.219   2.196   3.365
 1813SOL     OW 7904   3.465   2.309   2.599
 1813SOL    HW1 7905   3.391   2.355   2.549
 1813SOL    HW2 7906   3.516   2.377   2.652
 1814SOL     OW 7907   2.092   3.296   2.400
 1814SOL    HW1 7908   2.066   3.392   2.400
 1814SOL    HW2 7909   2.021   3.242   2.445
 1815SOL     OW 7910   2.102   2.953   2.748
 1815SOL    HW1 7911   2.116   2.869   2.800
 1815SOL    HW2 7912   2.047   3.017   2.803
 1816SOL     OW 7913   2.468   2.826   1.985
 1816SOL    HW1 7914   2.475   2.910   1.931
 1816SOL    HW2 7915   2.514   2.839   2.073
 1817SOL     OW 7916   3.456   1.976   3.342
 1817SOL    HW1 7917   3.438   2.043   3.270
 1817SOL    HW2 7918   3.453   2.022   3.431
 1818SOL     OW 7919   3.704   3.629   2.221
 1818SOL    HW1 7920   3.758   3.600   2.301
 1818SOL    HW2 7921   3.734   3.719   2.192
 1819SOL     OW 7922   3.551   2.784   2.474
 1819SOL    HW1 7923   3.646   2.755   2.482
 1819SOL    HW2 7924   3.543   2.849   2.399
 1820SOL     OW 7925   3.503   2.970   2.294
 1820SOL    HW1 7926   3.589   2.972   2.242
 1820SOL    HW2 7927   3.517   3.017   2.382
 1821SOL     OW 7928   1.975   2.599   3.459
 1821SOL    HW1 7929   2.063   2.586   3.504
 1821SOL    HW2 7930   1.962   2.696   3.437
 1822SOL     OW 7931   2.475   3.227   2.588
 1822SOL    HW1 7932   2.426   3.140   2.597
 1822SOL    HW2 7933   2.452   3.270   2.501
 1823SOL     OW 7934   3.155   3.090   3.285
 1823SOL    HW1 7935   3.192   3.017   3.227
 1823SOL    HW2 7936   3.207   3.095   3.370
 1824SOL     OW 7937   2.059   2.838   3.126
 1824SOL    HW1 7938   2.148   2.793   3.112
 1824SOL    HW2 7939   1.986   2.773   3.107
 1825SOL     OW 7940   3.387   2.861   2.052
 1825SOL    HW1 7941   3.324   2.785   2.065
 1825SOL    HW2 7942   3.435   2.879   2.138
 1826SOL     OW 7943   3.049   3.654   3.478
 1826SOL    HW1 7944   3.073   3.714   3.402
 1826SOL    HW2 7945   3.056   3.559   3.448
 1827SOL     OW 7946   2.179   2.113   3.663
 1827SOL    HW1 7947   2.250   2.184   3.669
 1827SOL    HW2 7948   2.091   2.152   3.691
 1828SOL     OW 7949   3.328   3.279   2.815
 1828SOL    HW1 7950   3.269   3.285   2.895
 1828SOL    HW2 7951   3.313   3.191   2.769
 1829SOL     OW 7952   3.529   3.576   2.434
 1829SOL    HW1 7953   3.488   3.553   2.346
 1829SOL    HW2 7954   3.511   3.502   2.499
 1830SOL     OW 7955   2.460   2.591   2.132
 1830SOL    HW1 7956   2.484   2.660   2.064
 1830SOL    HW2 7957   2.382   2.624   2.186
 1831SOL     OW 7958   3.143   2.207   2.806
 1831SOL    HW1 7959   3.057   2.157   2.793
 1831SOL    HW2 7960   3.205   2.153   2.862
 1832SOL     OW 7961   3.438   3.524   2.169
 1832SOL    HW1 7962   3.527   3.570   2.172
 1832SOL    HW2 7963   3.417   3.500   2.074
 1833SOL     OW 7964   2.903   2.563   2.291
 1833SOL    HW1 7965   2.929   2.559   2.387
 1833SOL    HW2 7966   2.818   2.512   2.277
 1834SOL     OW 7967   1.938   2.673   2.651
 1834SOL    HW1 7968   2.037   2.661   2.660
 1834SOL    HW2 7969   1.914   2.768   2.672
 1835SOL     OW 7970   2.727   2.210   2.057
 1835SOL    HW1 7971   2.786   2.273   2.008
 1835SOL    HW2 7972   2.746   2.116   2.028
 1836SOL     OW 7973   3.224   3.006   2.407
 1836SOL    HW1 7974   3.307   2.977   2.359
 1836SOL    HW2 7975   3.175   3.073   2.351
 1837SOL     OW 7976   2.412   2.058   2.747
 1837SOL    HW1 7977   2.407   2.053   2.847
 1837SOL    HW2 7978   2.414   2.154   2.718
 1838SOL     OW 7979   2.870   3.318   2.339
 1838SOL    HW1 7980   2.824   3.390   2.287
 1838SOL    HW2 7981   2.866   3.338   2.437
 1839SOL     OW 7982   2.213   3.663   2.715
 1839SOL    HW1 7983   2.263   3.577   2.721
 1839SOL    HW2 7984   2.278   3.740   2.712
 1840SOL     OW 7985   3.657   2.928   2.735
 1840SOL    HW1 7986   3.595   2.913   2.659
 1840SOL    HW2 7987   3.605   2.939   2.820
 1841SOL     OW 7988   3.089   3.412   3.368
 1841SOL    HW1 7989   3.095   3.335   3.432
 1841SOL    HW2 7990   3.037   3.386   3.288
 1842SOL     OW 7991   2.183   2.805   2.104
 1842SOL    HW1 7992   2.265   2.844   2.062
 1842SOL    HW2 7993   2.156   2.723   2.055
 1843SOL     OW 7994   3.320   2.597   2.590
 1843SOL    HW1 7995   3.315   2.532   2.665
 1843SOL    HW2 7996   3.400   2.656   2.603
 1844SOL     OW 7997   2.973   3.638   2.099
 1844SOL    HW1 7998   2.913   3.576   2.149
 1844SOL    HW2 7999   3.004   3.594   2.014
 1845SOL     OW 8000   2.064   2.147   3.360
 1845SOL    HW1 8001   1.984   2.207   3.347
 1845SOL    HW2 8002   2.054   2.098   3.446
 1846SOL     OW 8003   3.494   3.239   1.943
 1846SOL    HW1 8004   3.462   3.333   1.933
 1846SOL    HW2 8005   3.418   3.176   1.931
 1847SOL     OW 8006   2.326   3.605   2.185
 1847SOL    HW1 8007   2.359   3.644   2.271
 1847SOL    HW2 8008   2.402   3.598   2.120
 1848SOL     OW 8009   2.111   3.647   3.103
 1848SOL    HW1 8010   2.168   3.582   3.153
 1848SOL    HW2 8011   2.095   3.614   3.010
 1849SOL     OW 8012   2.802   3.560   2.766
 1849SOL    HW1 8013   2.882   3.503   2.787
 1849SOL    HW2 8014   2.753   3.520   2.689
 1850SOL     OW 8015   2.476   1.984   1.979
 1850SOL    HW1 8016   2.574   1.962   1.986
 1850SOL    HW2 8017   2.445   1.967   1.886
 1851SOL     OW 8018   2.750   3.376   3.057
 1851SOL    HW1 8019   2.727   3.351   2.963
 1851SOL    HW2 8020   2.811   3.307   3.096
 1852SOL     OW 8021   2.665   3.264   2.786
 1852SOL    HW1 8022   2.755   3.278   2.744
 1852SOL    HW2 8023   2.594   3.266   2.715
 1853SOL     OW 8024   2.401   1.926   2.374
 1853SOL    HW1 8025   2.320   1.927   2.432
 1853SOL    HW2 8026   2.404   2.009   2.319
 1854SOL     OW 8027   3.296   3.050   1.903
 1854SOL    HW1 8028   3.328   2.974   1.960
 1854SOL    HW2 8029   3.204   3.077   1.933
 1855SOL     OW 8030   2.797   2.098   2.342
 1855SOL    HW1 8031   2.749   2.139   2.264
 1855SOL    HW2 8032   2.896   2.096   2.323
 1856SOL     OW 8033   2.938   2.545   3.326
 1856SOL    HW1 8034   2.858   2.484   3.329
 1856SOL    HW2 8035   3.019   2.492   3.302
 1857SOL     OW 8036   3.089   3.432   2.655
 1857SOL    HW1 8037   3.110   3.506   2.590
 1857SOL    HW2 8038   3.157   3.432   2.728
 1858SOL     OW 8039   2.321   3.014   2.603
 1858SOL    HW1 8040   2.250   2.987   2.668
 1858SOL    HW2 8041   2.295   2.986   2.510
 1859SOL     OW 8042   3.133   3.659   2.453
 1859SOL    HW1 8043   3.177   3.723   2.389
 1859SOL    HW2 8044   3.083   3.711   2.523
 1860SOL     OW 8045   2.894   2.411   1.878
 1860SOL    HW1 8046   2.853   2.493   1.839
 1860SOL    HW2 8047   2.958   2.437   1.951
 1861SOL     OW 8048   1.940   2.418   3.248
 1861SOL    HW1 8049   2.032   2.417   3.207
 1861SOL    HW2 8050   1.934   2.492   3.315
 1862SOL     OW 8051   2.423   2.084   3.009
 1862SOL    HW1 8052   2.461   2.000   3.046
 1862SOL    HW2 8053   2.335   2.103   3.053
 1863SOL     OW 8054   2.879   1.901   2.615
 1863SOL    HW1 8055   2.807   1.906   2.546
 1863SOL    HW2 8056   2.855   1.832   2.684
 1864SOL     OW 8057   3.291   3.035   2.729
 1864SOL    HW1 8058   3.236   2.951   2.722
 1864SOL    HW2 8059   3.317   3.064   2.637
 1865SOL     OW 8060   3.328   2.452   2.854
 1865SOL    HW1 8061   3.298   2.357   2.861
 1865SOL    HW2 8062   3.401   2.468   2.920
 1866SOL     OW 8063   3.719   2.695   2.239
 1866SOL    HW1 8064   3.761   2.631   2.303
 1866SOL    HW2 8065   3.681   2.644   2.161
 1867SOL     OW 8066   2.350   3.247   2.036
 1867SOL    HW1 8067   2.263   3.232   2.083
 1867SOL    HW2 8068   2.333   3.273   1.941
 1868SOL     OW 8069   3.526   3.142   2.519
 1868SOL    HW1 8070   3.625   3.150   2.533
 1868SOL    HW2 8071   3.481   3.226   2.550
 1869SOL     OW 8072   2.389   2.118   2.190
 1869SOL    HW1 8073   2.416   2.059   2.115
 1869SOL    HW2 8074   2.389   2.213   2.159
 1870SOL     OW 8075   3.616   3.085   3.450
 1870SOL    HW1 8076   3.707   3.046   3.437
 1870SOL    HW2 8077   3.624   3.181   3.474
 1871SOL     OW 8078   2.926   3.209   3.202
 1871SOL    HW1 8079   2.846   3.186   3.257
 1871SOL    HW2 8080   3.009   3.183   3.251
 1872SOL     OW 8081   3.454   3.491   3.487
 1872SOL    HW1 8082   3.481   3.525   3.397
 1872SOL    HW2 8083   3.533   3.453   3.533
 1873SOL     OW 8084   2.973   3.057   2.962
 1873SOL    HW1 8085   2.933   3.101   3.043
 1873SOL    HW2 8086   2.932   3.094   2.879
 1874SOL     OW 8087   3.500   2.961   2.941
 1874SOL    HW1 8088   3.505   3.042   3.000
 1874SOL    HW2 8089   3.414   2.963   2.890
 1875SOL     OW 8090   2.777   1.951   3.264
 1875SOL    HW1 8091   2.802   1.931   3.169
 1875SOL    HW2 8092   2.849   2.007   3.306
 1876SOL     OW 8093   2.272   2.675   3.113
 1876SOL    HW1 8094   2.358   2.687   3.163
 1876SOL    HW2 8095   2.230   2.588   3.140
 1877SOL     OW 8096   2.229   2.962   2.363
 1877SOL    HW1 8097   2.222   3.045   2.307
 1877SOL    HW2 8098   2.233   2.882   2.303
 1878SOL     OW 8099   3.114   3.210   2.250
 1878SOL    HW1 8100   3.164   3.287   2.290
 1878SOL    HW2 8101   3.019   3.212   2.282
 1879SOL     OW 8102   3.134   3.307   3.004
 1879SOL    HW1 8103   3.181   3.320   3.091
 1879SOL    HW2 8104   3.068   3.233   3.013
 1880SOL     OW 8105   3.444   2.501   2.334
 1880SOL    HW1 8106   3.413   2.562   2.407
 1880SOL    HW2 8107   3.494   2.553   2.265
 1881SOL     OW 8108   3.449   2.641   3.532
 1881SOL    HW1 8109   3.357   2.679   3.527
 1881SOL    HW2 8110   3.509   2.688   3.467
 1882SOL     OW 8111   2.366   1.912   3.602
 1882SOL    HW1 8112   2.324   1.855   3.532
 1882SOL    HW2 8113   2.300   1.981   3.634
 1883SOL     OW 8114   2.435   2.732   2.891
 1883SOL    HW1 8115   2.479   2.821   2.882
 1883SOL    HW2 8116   2.372   2.732   2.968
 1884SOL     OW 8117   3.222   2.724   2.907
 1884SOL    HW1 8118   3.147   2.724   2.841
 1884SOL    HW2 8119   3.259   2.632   2.916
 1885SOL     OW 8120   2.169   2.075   3.093
 1885SOL    HW1 8121   2.146   2.112   3.183
 1885SOL    HW2 8122   2.139   1.980   3.087
 1886SOL     OW 8123   1.899   3.172   3.144
 1886SOL    HW1 8124   1.952   3.123   3.212
 1886SOL    HW2 8125   1.921   3.270   3.149
 1887SOL     OW 8126   3.590   2.797   3.716
 1887SOL    HW1 8127   3.544   2.790   3.627
 1887SOL    HW2 8128   3.528   2.841   3.782
 1888SOL     OW 8129   2.169   1.925   2.480
 1888SOL    HW1 8130   2.158   2.019   2.513
 1888SOL    HW2 8131   2.164   1.862   2.557
 1889SOL     OW 8132   2.885   2.628   2.828
 1889SOL    HW1 8133   2.900   2.649   2.924
 1889SOL    HW2 8134   2.855   2.533   2.819
 1890SOL     OW 8135   3.721   3.380   3.467
 1890SOL    HW1 8136   3.735   3.407   3.372
 1890SOL    HW2 8137   3.804   3.402   3.520
 1891SOL     OW 8138   2.212   2.760   3.666
 1891SOL    HW1 8139   2.288   2.804   3.714
 1891SOL    HW2 8140   2.247   2.713   3.584
 1892SOL     OW 8141   3.165   2.700   1.904
 1892SOL    HW1 8142   3.199   2.607   1.919
 1892SOL    HW2 8143   3.183   2.727   1.809
 1893SOL     OW 8144   2.930   3.195   2.711
 1893SOL    HW1 8145   2.937   3.111   2.656
 1893SOL    HW2 8146   2.992   3.264   2.675
 1894SOL     OW 8147   2.181   2.672   2.811
 1894SOL    HW1 8148   2.274   2.708   2.816
 1894SOL    HW2 8149   2.175   2.587   2.863
 1895SOL     OW 8150   2.201   2.371   2.868
 1895SOL    HW1 8151   2.149   2.288   2.851
 1895SOL    HW2 8152   2.278   2.376   2.804
 1896SOL     OW 8153   2.366   3.430   2.772
 1896SOL    HW1 8154   2.432   3.504   2.781
 1896SOL    HW2 8155   2.410   3.351   2.730
 1897SOL     OW 8156   1.902   2.406   2.976
 1897SOL    HW1 8157   1.987   2.373   2.935
 1897SOL    HW2 8158   1.915   2.421   3.074
 1898SOL     OW 8159   2.051   2.382   3.584
 1898SOL    HW1 8160   2.110   2.342   3.514
 1898SOL    HW2 8161   1.993   2.453   3.543
 1899SOL     OW 8162   3.231   2.812   3.522
 1899SOL    HW1 8163   3.270   2.901   3.542
 1899SOL    HW2 8164   3.241   2.792   3.425
 1900SOL     OW 8165   2.677   2.434   2.187
 1900SOL    HW1 8166   2.684   2.345   2.141
 1900SOL    HW2 8167   2.583   2.468   2.179
 1901SOL     OW 8168   2.114   3.426   3.606
 1901SOL    HW1 8169   2.084   3.483   3.682
 1901SOL    HW2 8170   2.107   3.329   3.632
 1902SOL     OW 8171   2.021   2.999   3.328
 1902SOL    HW1 8172   2.043   2.938   3.404
 1902SOL    HW2 8173   2.031   2.950   3.242
 1903SOL     OW 8174   3.209   2.921   3.096
 1903SOL    HW1 8175   3.233   2.858   3.022
 1903SOL    HW2 8176   3.119   2.961   3.078
 1904SOL     OW 8177   3.164   2.717   2.171
 1904SOL    HW1 8178   3.078   2.686   2.213
 1904SOL    HW2 8179   3.160   2.703   2.072
 1905SOL     OW 8180   3.621   3.609   3.016
 1905SOL    HW1 8181   3.682   3.639   2.943
 1905SOL    HW2 8182   3.583   3.520   2.994
 1906SOL     OW 8183   3.114   3.593   2.990
 1906SOL    HW1 8184   3.198   3.598   2.936
 1906SOL    HW2 8185   3.091   3.497   3.008
 1907SOL     OW 8186   1.945   3.120   2.884
 1907SOL    HW1 8187   1.940   3.119   2.984
 1907SOL    HW2 8188   1.862   3.079   2.846
 1908SOL     OW 8189   3.250   3.435   2.339
 1908SOL    HW1 8190   3.317   3.447   2.265
 1908SOL    HW2 8191   3.210   3.524   2.362
 1909SOL     OW 8192   3.142   2.789   2.534
 1909SOL    HW1 8193   3.202   2.708   2.536
 1909SOL    HW2 8194   3.182   2.858   2.474
 1910SOL     OW 8195   2.534   3.478   2.016
 1910SOL    HW1 8196   2.543   3.488   1.917
 1910SOL    HW2 8197   2.494   3.389   2.037
 1911SOL     OW 8198   3.512   3.582   3.256
 1911SOL    HW1 8199   3.565   3.592   3.172
 1911SOL    HW2 8200   3.485   3.672   3.290
 1912SOL     OW 8201   3.056   3.474   1.893
 1912SOL    HW1 8202   3.062   3.381   1.930
 1912SOL    HW2 8203   2.997   3.474   1.813
 1913SOL     OW 8204   2.778   2.772   2.153
 1913SOL    HW1 8205   2.841   2.810   2.085
 1913SOL    HW2 8206   2.818   2.689   2.192
 1914SOL     OW 8207   3.366   3.469   1.906
 1914SOL    HW1 8208   3.274   3.506   1.913
 1914SOL    HW2 8209   3.404   3.489   1.816
 1915SOL     OW 8210   2.234   3.150   3.352
 1915SOL    HW1 8211   2.221   3.243   3.318
 1915SOL    HW2 8212   2.150   3.098   3.339
 1916SOL     OW 8213   3.476   3.154   3.151
 1916SOL    HW1 8214   3.536   3.157   3.231
 1916SOL    HW2 8215   3.401   3.218   3.164
 1917SOL     OW 8216   2.901   2.960   2.558
 1917SOL    HW1 8217   2.831   2.913   2.612
 1917SOL    HW2 8218   2.960   2.892   2.515
 1918SOL     OW 8219   2.876   2.098   2.833
 1918SOL    HW1 8220   2.868   2.062   2.740
 1918SOL    HW2 8221   2.874   2.022   2.898
 1919SOL     OW 8222   2.452   3.349   2.353
 1919SOL    HW1 8223   2.494   3.291   2.283
 1919SOL    HW2 8224   2.408   3.428   2.309
 1920SOL     OW 8225   2.117   3.210   2.152
 1920SOL    HW1 8226   2.021   3.211   2.125
 1920SOL    HW2 8227   2.129   3.263   2.236
 1921SOL     OW 8228   1.967   2.875   3.588
 1921SOL    HW1 8229   1.890   2.842   3.642
 1921SOL    HW2 8230   2.052   2.845   3.630
 1922SOL     OW 8231   2.534   2.065   3.351
 1922SOL    HW1 8232   2.624   2.049   3.311
 1922SOL    HW2 8233   2.542   2.070   3.450
 1923SOL     OW 8234   1.937   2.207   1.895
 1923SOL    HW1 8235   1.845   2.179   1.866
 1923SOL    HW2 8236   1.968   2.284   1.839
 1924SOL     OW 8237   3.302   2.718   3.260
 1924SOL    HW1 8238   3.245   2.770   3.197
 1924SOL    HW2 8239   3.398   2.730   3.236
 1925SOL     OW 8240   3.045   3.197   1.981
 1925SOL    HW1 8241   2.946   3.186   1.983
 1925SOL    HW2 8242   3.079   3.212   2.074
 1926SOL     OW 8243   3.355   3.629   2.821
 1926SOL    HW1 8244   3.388   3.693   2.752
 1926SOL    HW2 8245   3.421   3.623   2.896
 1927SOL     OW 8246   2.578   2.427   3.570
 1927SOL    HW1 8247   2.597   2.492   3.644
 1927SOL    HW2 8248   2.638   2.347   3.579
 1928SOL     OW 8249   3.312   3.082   3.495
 1928SOL    HW1 8250   3.303   3.072   3.594
 1928SOL    HW2 8251   3.408   3.075   3.469
 1929SOL     OW 8252   3.536   2.745   3.116
 1929SOL    HW1 8253   3.509   2.656   3.079
 1929SOL    HW2 8254   3.537   2.813   3.043
 1930SOL     OW 8255   3.592   2.796   3.379
 1930SOL    HW1 8256   3.630   2.887   3.394
 1930SOL    HW2 8257   3.584   2.779   3.280
 1931SOL     OW 8258   2.721   3.236   1.878
 1931SOL    HW1 8259   2.675   3.251   1.966
 1931SOL    HW2 8260   2.765   3.321   1.848
 1932SOL     OW 8261   2.523   3.652   2.815
 1932SOL    HW1 8262   2.477   3.740   2.802
 1932SOL    HW2 8263   2.622   3.664   2.808
 1933SOL     OW 8264   2.945   2.846   1.949
 1933SOL    HW1 8265   2.922   2.899   1.867
 1933SOL    HW2 8266   3.026   2.790   1.930
 1934SOL     OW 8267   3.723   3.431   2.713
 1934SOL    HW1 8268   3.652   3.419   2.643
 1934SOL    HW2 8269   3.724   3.352   2.773
 1935SOL     OW 8270   3.567   3.349   2.966
 1935SOL    HW1 8271   3.474   3.324   2.939
 1935SOL    HW2 8272   3.593   3.299   3.048
 1936SOL     OW 8273   2.179   2.409   3.142
 1936SOL    HW1 8274   2.217   2.350   3.214
 1936SOL    HW2 8275   2.219   2.383   3.054
 1937SOL     OW 8276   2.674   3.448   2.549
 1937SOL    HW1 8277   2.706   3.458   2.455
 1937SOL    HW2 8278   2.595   3.386   2.551
 1938SOL     OW 8279   3.286   2.076   2.974
 1938SOL    HW1 8280   3.338   2.011   3.029
 1938SOL    HW2 8281   3.237   2.139   3.035
 1939SOL     OW 8282   2.863   1.896   3.016
 1939SOL    HW1 8283   2.800   1.824   2.985
 1939SOL    HW2 8284   2.956   1.860   3.016
 1940SOL     OW 8285   2.632   3.192   2.163
 1940SOL    HW1 8286   2.586   3.105   2.180
 1940SOL    HW2 8287   2.723   3.189   2.204
 1941SOL     OW 8288   2.480   3.429   3.146
 1941SOL    HW1 8289   2.475   3.511   3.203
 1941SOL    HW2 8290   2.569   3.426   3.101
 1942SOL     OW 8291   3.455   2.083   2.744
 1942SOL    HW1 8292   3.371   2.082   2.798
 1942SOL    HW2 8293   3.457   2.166   2.688
 1943SOL     OW 8294   1.901   2.939   2.162
 1943SOL    HW1 8295   2.000   2.928   2.153
 1943SOL    HW2 8296   1.861   2.853   2.194
 1944SOL     OW 8297   2.737   3.508   2.199
 1944SOL    HW1 8298   2.660   3.473   2.145
 1944SOL    HW2 8299   2.705   3.579   2.261
 1945SOL     OW 8300   2.092   2.490   3.837
 1945SOL    HW1 8301   1.999   2.488   3.874
 1945SOL    HW2 8302   2.093   2.451   3.745
 1946SOL     OW 8303   2.087   2.137   4.720
 1946SOL    HW1 8304   2.122   2.120   4.812
 1946SOL    HW2 8305   1.999   2.092   4.708
 1947SOL     OW 8306   1.881   2.230   4.371
 1947SOL    HW1 8307   1.799   2.273   4.410
 1947SOL    HW2 8308   1.853   2.157   4.308
 1948SOL     OW 8309   3.417   3.373   4.427
 1948SOL    HW1 8310   3.360   3.357   4.508
 1948SOL    HW2 8311   3.358   3.383   4.347
 1949SOL     OW 8312   3.617   2.469   3.955
 1949SOL    HW1 8313   3.605   2.456   3.856
 1949SOL    HW2 8314   3.587   2.388   4.004
 1950SOL     OW 8315   2.197   3.297   4.785
 1950SOL    HW1 8316   2.119   3.266   4.732
 1950SOL    HW2 8317   2.255   3.355   4.728
 1951SOL     OW 8318   3.465   2.309   4.461
 1951SOL    HW1 8319   3.391   2.355   4.411
 1951SOL    HW2 8320   3.516   2.377   4.514
 1952SOL     OW 8321   2.093   3.575   4.207
 1952SOL    HW1 8322   2.127   3.652   4.261
 1952SOL    HW2 8323   2.137   3.575   4.117
 1953SOL     OW 8324   2.092   3.296   4.262
 1953SOL    HW1 8325   2.066   3.392   4.262
 1953SOL    HW2 8326   2.021   3.242   4.307
 1954SOL     OW 8327   2.102   2.953   4.610
 1954SOL    HW1 8328   2.116   2.869   4.662
 1954SOL    HW2 8329   2.047   3.017   4.665
 1955SOL     OW 8330   2.482   3.648   5.163
 1955SOL    HW1 8331   2.390   3.631   5.198
 1955SOL    HW2 8332   2.510   3.740   5.189
 1956SOL     OW 8333   2.468   2.826   3.847
 1956SOL    HW1 8334   2.475   2.910   3.793
 1956SOL    HW2 8335   2.514   2.839   3.935
 1957SOL     OW 8336   1.984   2.505   4.287
 1957SOL    HW1 8337   1.939   2.417   4.304
 1957SOL    HW2 8338   1.983   2.559   4.371
 1958SOL     OW 8339   3.704   3.629   4.083
 1958SOL    HW1 8340   3.758   3.600   4.163
 1958SOL    HW2 8341   3.734   3.719   4.054
 1959SOL     OW 8342   1.889   3.458   3.841
 1959SOL    HW1 8343   1.870   3.362   3.862
 1959SOL    HW2 8344   1.856   3.516   3.916
 1960SOL     OW 8345   3.387   2.861   3.914
 1960SOL    HW1 8346   3.324   2.785   3.927
 1960SOL    HW2 8347   3.435   2.879   4.000
 1961SOL     OW 8348   3.328   3.279   4.677
 1961SOL    HW1 8349   3.269   3.285   4.757
 1961SOL    HW2 8350   3.313   3.191   4.631
 1962SOL     OW 8351   3.529   3.576   4.296
 1962SOL    HW1 8352   3.488   3.553   4.208
 1962SOL    HW2 8353   3.511   3.502   4.361
 1963SOL     OW 8354   2.460   2.591   3.994
 1963SOL    HW1 8355   2.484   2.660   3.926
 1963SOL    HW2 8356   2.382   2.624   4.048
 1964SOL     OW 8357   3.143   2.207   4.668
 1964SOL    HW1 8358   3.057   2.157   4.655
 1964SOL    HW2 8359   3.205   2.153   4.724
 1965SOL     OW 8360   3.438   3.524   4.031
 1965SOL    HW1 8361   3.527   3.570   4.034
 1965SOL    HW2 8362   3.417   3.500   3.936
 1966SOL     OW 8363   2.853   2.272   4.966
 1966SOL    HW1 8364   2.776   2.306   5.020
 1966SOL    HW2 8365   2.819   2.221   4.887
 1967SOL     OW 8366   2.903   2.563   4.153
 1967SOL    HW1 8367   2.929   2.559   4.249
 1967SOL    HW2 8368   2.818   2.512   4.139
 1968SOL     OW 8369   1.938   2.673   4.513
 1968SOL    HW1 8370   2.037   2.661   4.522
 1968SOL    HW2 8371   1.914   2.768   4.534
 1969SOL     OW 8372   2.727   2.210   3.919
 1969SOL    HW1 8373   2.786   2.273   3.870
 1969SOL    HW2 8374   2.746   2.116   3.890
 1970SOL     OW 8375   2.412   2.058   4.609
 1970SOL    HW1 8376   2.407   2.053   4.709
 1970SOL    HW2 8377   2.414   2.154   4.580
 1971SOL     OW 8378   2.870   3.318   4.201
 1971SOL    HW1 8379   2.824   3.390   4.149
 1971SOL    HW2 8380   2.866   3.338   4.299
 1972SOL     OW 8381   2.213   3.663   4.577
 1972SOL    HW1 8382   2.263   3.577   4.583
 1972SOL    HW2 8383   2.278   3.740   4.574
 1973SOL     OW 8384   3.657   2.928   4.597
 1973SOL    HW1 8385   3.595   2.913   4.521
 1973SOL    HW2 8386   3.605   2.939   4.682
 1974SOL     OW 8387   2.183   2.805   3.966
 1974SOL    HW1 8388   2.265   2.844   3.924
 1974SOL    HW2 8389   2.156   2.723   3.917
 1975SOL     OW 8390   2.973   3.638   3.961
 1975SOL    HW1 8391   2.913   3.576   4.011
 1975SOL    HW2 8392   3.004   3.594   3.876
 1976SOL     OW 8393   3.494   3.239   3.805
 1976SOL    HW1 8394   3.462   3.333   3.795
 1976SOL    HW2 8395   3.418   3.176   3.793
 1977SOL     OW 8396   3.262   1.969   4.150
 1977SOL    HW1 8397   3.238   1.932   4.060
 1977SOL    HW2 8398   3.361   1.985   4.154
 1978SOL     OW 8399   2.802   3.560   4.628
 1978SOL    HW1 8400   2.882   3.503   4.649
 1978SOL    HW2 8401   2.753   3.520   4.551
 1979SOL     OW 8402   2.244   2.562   4.204
 1979SOL    HW1 8403   2.289   2.472   4.201
 1979SOL    HW2 8404   2.150   2.551   4.237
 1980SOL     OW 8405   2.476   1.984   3.841
 1980SOL    HW1 8406   2.574   1.962   3.848
 1980SOL    HW2 8407   2.445   1.967   3.748
 1981SOL     OW 8408   2.784   2.365   4.623
 1981SOL    HW1 8409   2.759   2.356   4.527
 1981SOL    HW2 8410   2.832   2.283   4.654
 1982SOL     OW 8411   3.296   3.050   3.765
 1982SOL    HW1 8412   3.328   2.974   3.822
 1982SOL    HW2 8413   3.204   3.077   3.795
 1983SOL     OW 8414   2.159   1.897   3.895
 1983SOL    HW1 8415   2.208   1.981   3.874
 1983SOL    HW2 8416   2.221   1.832   3.940
 1984SOL     OW 8417   2.797   2.098   4.204
 1984SOL    HW1 8418   2.749   2.139   4.126
 1984SOL    HW2 8419   2.896   2.096   4.185
 1985SOL     OW 8420   3.133   3.659   4.315
 1985SOL    HW1 8421   3.177   3.723   4.251
 1985SOL    HW2 8422   3.083   3.711   4.385
 1986SOL     OW 8423   2.894   2.411   3.740
 1986SOL    HW1 8424   2.853   2.493   3.701
 1986SOL    HW2 8425   2.958   2.437   3.813
 1987SOL     OW 8426   2.423   2.084   4.871
 1987SOL    HW1 8427   2.461   2.000   4.908
 1987SOL    HW2 8428   2.335   2.103   4.915
 1988SOL     OW 8429   2.728   2.316   4.366
 1988SOL    HW1 8430   2.696   2.388   4.304
 1988SOL    HW2 8431   2.752   2.235   4.313
 1989SOL     OW 8432   2.879   1.901   4.477
 1989SOL    HW1 8433   2.807   1.906   4.408
 1989SOL    HW2 8434   2.855   1.832   4.546
 1990SOL     OW 8435   3.291   3.035   4.591
 1990SOL    HW1 8436   3.236   2.951   4.584
 1990SOL    HW2 8437   3.317   3.064   4.499
 1991SOL     OW 8438   3.328   2.452   4.716
 1991SOL    HW1 8439   3.298   2.357   4.723
 1991SOL    HW2 8440   3.401   2.468   4.782
 1992SOL     OW 8441   3.526   3.142   4.381
 1992SOL    HW1 8442   3.625   3.150   4.395
 1992SOL    HW2 8443   3.481   3.226   4.412
 1993SOL     OW 8444   2.567   2.912   4.092
 1993SOL    HW1 8445   2.553   2.919   4.191
 1993SOL    HW2 8446   2.651   2.861   4.074
 1994SOL     OW 8447   3.136   2.248   4.986
 1994SOL    HW1 8448   3.157   2.322   5.050
 1994SOL    HW2 8449   3.047   2.265   4.943
 1995SOL     OW 8450   2.229   2.962   4.225
 1995SOL    HW1 8451   2.222   3.045   4.169
 1995SOL    HW2 8452   2.233   2.882   4.165
 1996SOL     OW 8453   2.428   2.399   4.589
 1996SOL    HW1 8454   2.440   2.465   4.515
 1996SOL    HW2 8455   2.474   2.433   4.672
 1997SOL     OW 8456   3.114   3.210   4.112
 1997SOL    HW1 8457   3.164   3.287   4.152
 1997SOL    HW2 8458   3.019   3.212   4.144
 1998SOL     OW 8459   3.222   2.724   4.769
 1998SOL    HW1 8460   3.147   2.724   4.703
 1998SOL    HW2 8461   3.259   2.632   4.778
 1999SOL     OW 8462   3.071   2.387   3.999
 1999SOL    HW1 8463   3.084   2.303   4.053
 1999SOL    HW2 8464   3.042   2.461   4.059
 2000SOL     OW 8465   2.169   2.075   4.955
 2000SOL    HW1 8466   2.146   2.112   5.045
 2000SOL    HW2 8467   2.139   1.980   4.949
 2001SOL     OW 8468   1.899   3.172   5.006
 2001SOL    HW1 8469   1.952   3.123   5.074
 2001SOL    HW2 8470   1.921   3.270   5.011
 2002SOL     OW 8471   2.594   2.496   4.788
 2002SOL    HW1 8472   2.653   2.470   4.712
 2002SOL    HW2 8473   2.566   2.592   4.777
 2003SOL     OW 8474   2.169   1.925   4.342
 2003SOL    HW1 8475   2.158   2.019   4.375
 2003SOL    HW2 8476   2.164   1.862   4.419
 2004SOL     OW 8477   3.484   2.229   4.098
 2004SOL    HW1 8478   3.486   2.153   4.162
 2004SOL    HW2 8479   3.436   2.306   4.138
 2005SOL     OW 8480   3.402   2.136   3.849
 2005SOL    HW1 8481   3.341   2.061   3.872
 2005SOL    HW2 8482   3.424   2.188   3.932
 2006SOL     OW 8483   3.165   2.700   3.766
 2006SOL    HW1 8484   3.199   2.607   3.781
 2006SOL    HW2 8485   3.183   2.727   3.671
 2007SOL     OW 8486   2.201   2.371   4.730
 2007SOL    HW1 8487   2.149   2.288   4.713
 2007SOL    HW2 8488   2.278   2.376   4.666
 2008SOL     OW 8489   3.022   2.069   5.201
 2008SOL    HW1 8490   3.022   2.133   5.278
 2008SOL    HW2 8491   3.050   2.117   5.118
 2009SOL     OW 8492   1.870   3.188   3.924
 2009SOL    HW1 8493   1.777   3.209   3.893
 2009SOL    HW2 8494   1.880   3.089   3.937
 2010SOL     OW 8495   2.366   3.430   4.634
 2010SOL    HW1 8496   2.432   3.504   4.643
 2010SOL    HW2 8497   2.410   3.351   4.592
 2011SOL     OW 8498   2.864   2.658   4.962
 2011SOL    HW1 8499   2.905   2.626   5.048
 2011SOL    HW2 8500   2.768   2.631   4.959
 2012SOL     OW 8501   2.677   2.434   4.049
 2012SOL    HW1 8502   2.684   2.345   4.003
 2012SOL    HW2 8503   2.583   2.468   4.041
 2013SOL     OW 8504   3.519   2.466   4.930
 2013SOL    HW1 8505   3.481   2.397   4.992
 2013SOL    HW2 8506   3.601   2.430   4.886
 2014SOL     OW 8507   2.533   2.326   4.993
 2014SOL    HW1 8508   2.499   2.237   4.963
 2014SOL    HW2 8509   2.559   2.380   4.913
 2015SOL     OW 8510   2.792   3.540   5.189
 2015SOL    HW1 8511   2.768   3.522   5.094
 2015SOL    HW2 8512   2.822   3.634   5.199
 2016SOL     OW 8513   2.335   2.362   3.915
 2016SOL    HW1 8514   2.396   2.442   3.919
 2016SOL    HW2 8515   2.240   2.393   3.922
 2017SOL     OW 8516   3.164   2.717   4.033
 2017SOL    HW1 8517   3.078   2.686   4.075
 2017SOL    HW2 8518   3.160   2.703   3.934
 2018SOL     OW 8519   3.621   3.609   4.878
 2018SOL    HW1 8520   3.682   3.639   4.805
 2018SOL    HW2 8521   3.583   3.520   4.856
 2019SOL     OW 8522   3.588   1.997   4.247
 2019SOL    HW1 8523   3.661   1.980   4.180
 2019SOL    HW2 8524   3.557   1.910   4.285
 2020SOL     OW 8525   3.250   3.435   4.201
 2020SOL    HW1 8526   3.317   3.447   4.127
 2020SOL    HW2 8527   3.210   3.524   4.224
 2021SOL     OW 8528   3.142   2.789   4.396
 2021SOL    HW1 8529   3.202   2.708   4.398
 2021SOL    HW2 8530   3.182   2.858   4.336
 2022SOL     OW 8531   3.512   3.582   5.118
 2022SOL    HW1 8532   3.565   3.592   5.034
 2022SOL    HW2 8533   3.485   3.672   5.152
 2023SOL     OW 8534   3.703   2.037   4.687
 2023SOL    HW1 8535   3.742   1.952   4.651
 2023SOL    HW2 8536   3.605   2.039   4.668
 2024SOL     OW 8537   2.125   2.188   4.444
 2024SOL    HW1 8538   2.046   2.239   4.410
 2024SOL    HW2 8539   2.116   2.173   4.542
 2025SOL     OW 8540   3.056   3.474   3.755
 2025SOL    HW1 8541   3.062   3.381   3.792
 2025SOL    HW2 8542   2.997   3.474   3.675
 2026SOL     OW 8543   2.778   2.772   4.015
 2026SOL    HW1 8544   2.841   2.810   3.947
 2026SOL    HW2 8545   2.818   2.689   4.054
 2027SOL     OW 8546   3.366   3.469   3.768
 2027SOL    HW1 8547   3.274   3.506   3.775
 2027SOL    HW2 8548   3.404   3.489   3.678
 2028SOL     OW 8549   2.876   2.098   4.695
 2028SOL    HW1 8550   2.868   2.062   4.602
 2028SOL    HW2 8551   2.874   2.022   4.760
 2029SOL     OW 8552   2.452   3.349   4.215
 2029SOL    HW1 8553   2.494   3.291   4.145
 2029SOL    HW2 8554   2.408   3.428   4.171
 2030SOL     OW 8555   3.571   2.247   5.105
 2030SOL    HW1 8556   3.644   2.316   5.109
 2030SOL    HW2 8557   3.599   2.172   5.046
 2031SOL     OW 8558   2.117   3.210   4.014
 2031SOL    HW1 8559   2.021   3.211   3.987
 2031SOL    HW2 8560   2.129   3.263   4.098
 2032SOL     OW 8561   1.937   2.207   3.757
 2032SOL    HW1 8562   1.845   2.179   3.728
 2032SOL    HW2 8563   1.968   2.284   3.701
 2033SOL     OW 8564   1.934   2.028   4.042
 2033SOL    HW1 8565   1.917   2.111   3.988
 2033SOL    HW2 8566   2.024   1.991   4.020
 2034SOL     OW 8567   3.045   3.197   3.843
 2034SOL    HW1 8568   2.946   3.186   3.845
 2034SOL    HW2 8569   3.079   3.212   3.936
 2035SOL     OW 8570   3.355   3.629   4.683
 2035SOL    HW1 8571   3.388   3.693   4.614
 2035SOL    HW2 8572   3.421   3.623   4.758
 2036SOL     OW 8573   3.536   2.745   4.978
 2036SOL    HW1 8574   3.509   2.656   4.941
 2036SOL    HW2 8575   3.537   2.813   4.905
 2037SOL     OW 8576   3.087   2.187   4.173
 2037SOL    HW1 8577   3.152   2.113   4.162
 2037SOL    HW2 8578   3.107   2.237   4.257
 2038SOL     OW 8579   2.456   2.607   4.376
 2038SOL    HW1 8580   2.506   2.692   4.357
 2038SOL    HW2 8581   2.368   2.609   4.328
 2039SOL     OW 8582   3.592   2.796   5.241
 2039SOL    HW1 8583   3.630   2.887   5.256
 2039SOL    HW2 8584   3.584   2.779   5.142
 2040SOL     OW 8585   2.721   3.236   3.740
 2040SOL    HW1 8586   2.675   3.251   3.828
 2040SOL    HW2 8587   2.765   3.321   3.710
 2041SOL     OW 8588   2.523   3.652   4.677
 2041SOL    HW1 8589   2.477   3.740   4.664
 2041SOL    HW2 8590   2.622   3.664   4.670
 2042SOL     OW 8591   2.945   2.846   3.811
 2042SOL    HW1 8592   2.922   2.899   3.729
 2042SOL    HW2 8593   3.026   2.790   3.792
 2043SOL     OW 8594   3.723   3.431   4.575
 2043SOL    HW1 8595   3.652   3.419   4.505
 2043SOL    HW2 8596   3.724   3.352   4.635
 2044SOL     OW 8597   1.941   3.102   4.377
 2044SOL    HW1 8598   1.940   3.055   4.465
 2044SOL    HW2 8599   2.023   3.074   4.326
 2045SOL     OW 8600   3.686   2.054   4.951
 2045SOL    HW1 8601   3.682   1.964   4.995
 2045SOL    HW2 8602   3.689   2.043   4.852
 2046SOL     OW 8603   2.290   2.286   4.244
 2046SOL    HW1 8604   2.320   2.214   4.182
 2046SOL    HW2 8605   2.251   2.246   4.327
 2047SOL     OW 8606   3.567   3.349   4.828
 2047SOL    HW1 8607   3.474   3.324   4.801
 2047SOL    HW2 8608   3.593   3.299   4.910
 2048SOL     OW 8609   3.286   2.076   4.836
 2048SOL    HW1 8610   3.338   2.011   4.891
 2048SOL    HW2 8611   3.237   2.139   4.897
 2049SOL     OW 8612   2.863   1.896   4.878
 2049SOL    HW1 8613   2.800   1.824   4.847
 2049SOL    HW2 8614   2.956   1.860   4.878
 2050SOL     OW 8615   2.632   3.192   4.025
 2050SOL    HW1 8616   2.586   3.105   4.042
 2050SOL    HW2 8617   2.723   3.189   4.066
 2051SOL     OW 8618   3.214   1.914   3.892
 2051SOL    HW1 8619   3.249   1.873   3.808
 2051SOL    HW2 8620   3.124   1.876   3.912
 2052SOL     OW 8621   3.162   2.315   4.415
 2052SOL    HW1 8622   3.103   2.395   4.419
 2052SOL    HW2 8623   3.177   2.280   4.508
 2053SOL     OW 8624   3.455   2.083   4.606
 2053SOL    HW1 8625   3.371   2.082   4.660
 2053SOL    HW2 8626   3.457   2.166   4.550
 2054SOL     OW 8627   1.901   2.939   4.024
 2054SOL    HW1 8628   2.000   2.928   4.015
 2054SOL    HW2 8629   1.861   2.853   4.056
 2055SOL     OW 8630   2.737   3.508   4.061
 2055SOL    HW1 8631   2.660   3.473   4.007
 2055SOL    HW2 8632   2.705   3.579   4.123
 2056SOL     OW 8633   2.092   4.352   0.113
 2056SOL    HW1 8634   1.999   4.350   0.150
 2056SOL    HW2 8635   2.093   4.313   0.021
 2057SOL     OW 8636   2.997   4.427   0.717
 2057SOL    HW1 8637   3.054   4.505   0.692
 2057SOL    HW2 8638   2.937   4.453   0.793
 2058SOL     OW 8639   3.617   4.331   0.231
 2058SOL    HW1 8640   3.605   4.318   0.132
 2058SOL    HW2 8641   3.587   4.250   0.280
 2059SOL     OW 8642   2.630   4.868   1.023
 2059SOL    HW1 8643   2.552   4.885   1.083
 2059SOL    HW2 8644   2.664   4.955   0.987
 2060SOL     OW 8645   2.712   4.522   1.823
 2060SOL    HW1 8646   2.708   4.598   1.888
 2060SOL    HW2 8647   2.734   4.558   1.732
 2061SOL     OW 8648   2.548   4.885   1.803
 2061SOL    HW1 8649   2.608   4.964   1.817
 2061SOL    HW2 8650   2.462   4.916   1.762
 2062SOL     OW 8651   2.300   4.116   1.499
 2062SOL    HW1 8652   2.382   4.060   1.508
 2062SOL    HW2 8653   2.219   4.058   1.503
 2063SOL     OW 8654   3.465   4.171   0.737
 2063SOL    HW1 8655   3.391   4.217   0.687
 2063SOL    HW2 8656   3.516   4.239   0.790
 2064SOL     OW 8657   2.102   4.815   0.886
 2064SOL    HW1 8658   2.116   4.731   0.938
 2064SOL    HW2 8659   2.047   4.879   0.941
 2065SOL     OW 8660   3.456   3.838   1.480
 2065SOL    HW1 8661   3.438   3.905   1.408
 2065SOL    HW2 8662   3.453   3.884   1.569
 2066SOL     OW 8663   1.984   4.367   0.563
 2066SOL    HW1 8664   1.939   4.279   0.580
 2066SOL    HW2 8665   1.983   4.421   0.647
 2067SOL     OW 8666   3.551   4.646   0.612
 2067SOL    HW1 8667   3.646   4.617   0.620
 2067SOL    HW2 8668   3.543   4.711   0.537
 2068SOL     OW 8669   3.503   4.832   0.432
 2068SOL    HW1 8670   3.589   4.834   0.380
 2068SOL    HW2 8671   3.517   4.879   0.520
 2069SOL     OW 8672   1.975   4.461   1.597
 2069SOL    HW1 8673   2.063   4.448   1.642
 2069SOL    HW2 8674   1.962   4.558   1.575
 2070SOL     OW 8675   2.671   3.728   0.502
 2070SOL    HW1 8676   2.711   3.819   0.493
 2070SOL    HW2 8677   2.571   3.736   0.508
 2071SOL     OW 8678   2.059   4.700   1.264
 2071SOL    HW1 8679   2.148   4.655   1.250
 2071SOL    HW2 8680   1.986   4.635   1.245
 2072SOL     OW 8681   3.387   4.723   0.190
 2072SOL    HW1 8682   3.324   4.647   0.203
 2072SOL    HW2 8683   3.435   4.741   0.276
 2073SOL     OW 8684   2.179   3.975   1.801
 2073SOL    HW1 8685   2.250   4.046   1.807
 2073SOL    HW2 8686   2.091   4.014   1.829
 2074SOL     OW 8687   2.460   4.453   0.270
 2074SOL    HW1 8688   2.484   4.522   0.202
 2074SOL    HW2 8689   2.382   4.486   0.324
 2075SOL     OW 8690   2.669   4.329   1.465
 2075SOL    HW1 8691   2.622   4.326   1.554
 2075SOL    HW2 8692   2.618   4.274   1.399
 2076SOL     OW 8693   3.256   4.193   1.674
 2076SOL    HW1 8694   3.236   4.236   1.762
 2076SOL    HW2 8695   3.334   4.131   1.683
 2077SOL     OW 8696   2.835   4.614   1.572
 2077SOL    HW1 8697   2.881   4.530   1.543
 2077SOL    HW2 8698   2.779   4.648   1.497
 2078SOL     OW 8699   2.903   4.425   0.429
 2078SOL    HW1 8700   2.929   4.421   0.525
 2078SOL    HW2 8701   2.818   4.374   0.415
 2079SOL     OW 8702   1.938   4.535   0.789
 2079SOL    HW1 8703   2.037   4.523   0.798
 2079SOL    HW2 8704   1.914   4.630   0.810
 2080SOL     OW 8705   2.727   4.072   0.195
 2080SOL    HW1 8706   2.786   4.135   0.146
 2080SOL    HW2 8707   2.746   3.978   0.166
 2081SOL     OW 8708   3.581   4.309   1.831
 2081SOL    HW1 8709   3.555   4.398   1.795
 2081SOL    HW2 8710   3.579   4.241   1.758
 2082SOL     OW 8711   3.224   4.868   0.545
 2082SOL    HW1 8712   3.307   4.839   0.497
 2082SOL    HW2 8713   3.175   4.935   0.489
 2083SOL     OW 8714   3.657   4.790   0.873
 2083SOL    HW1 8715   3.595   4.775   0.797
 2083SOL    HW2 8716   3.605   4.801   0.958
 2084SOL     OW 8717   2.183   4.667   0.242
 2084SOL    HW1 8718   2.265   4.706   0.200
 2084SOL    HW2 8719   2.156   4.585   0.193
 2085SOL     OW 8720   3.320   4.459   0.728
 2085SOL    HW1 8721   3.315   4.394   0.803
 2085SOL    HW2 8722   3.400   4.518   0.741
 2086SOL     OW 8723   2.064   4.009   1.498
 2086SOL    HW1 8724   1.984   4.069   1.485
 2086SOL    HW2 8725   2.054   3.960   1.584
 2087SOL     OW 8726   3.494   5.101   0.081
 2087SOL    HW1 8727   3.462   5.195   0.071
 2087SOL    HW2 8728   3.418   5.038   0.069
 2088SOL     OW 8729   3.262   3.831   0.426
 2088SOL    HW1 8730   3.238   3.794   0.336
 2088SOL    HW2 8731   3.361   3.847   0.430
 2089SOL     OW 8732   2.244   4.424   0.480
 2089SOL    HW1 8733   2.289   4.334   0.477
 2089SOL    HW2 8734   2.150   4.413   0.513
 2090SOL     OW 8735   3.409   3.946   1.729
 2090SOL    HW1 8736   3.404   3.983   1.821
 2090SOL    HW2 8737   3.337   3.877   1.717
 2091SOL     OW 8738   2.643   3.988   1.749
 2091SOL    HW1 8739   2.710   3.927   1.792
 2091SOL    HW2 8740   2.570   4.007   1.814
 2092SOL     OW 8741   2.401   3.788   0.512
 2092SOL    HW1 8742   2.320   3.789   0.570
 2092SOL    HW2 8743   2.404   3.871   0.457
 2093SOL     OW 8744   3.296   4.912   0.041
 2093SOL    HW1 8745   3.328   4.836   0.098
 2093SOL    HW2 8746   3.204   4.939   0.071
 2094SOL     OW 8747   2.159   3.759   0.171
 2094SOL    HW1 8748   2.208   3.843   0.150
 2094SOL    HW2 8749   2.221   3.694   0.216
 2095SOL     OW 8750   2.797   3.960   0.480
 2095SOL    HW1 8751   2.749   4.001   0.402
 2095SOL    HW2 8752   2.896   3.958   0.461
 2096SOL     OW 8753   2.938   4.407   1.464
 2096SOL    HW1 8754   2.858   4.346   1.467
 2096SOL    HW2 8755   3.019   4.354   1.440
 2097SOL     OW 8756   2.321   4.876   0.741
 2097SOL    HW1 8757   2.250   4.849   0.806
 2097SOL    HW2 8758   2.295   4.848   0.648
 2098SOL     OW 8759   2.894   4.273   0.016
 2098SOL    HW1 8760   2.853   4.355  -0.023
 2098SOL    HW2 8761   2.958   4.299   0.089
 2099SOL     OW 8762   1.940   4.280   1.386
 2099SOL    HW1 8763   2.032   4.279   1.345
 2099SOL    HW2 8764   1.934   4.354   1.453
 2100SOL     OW 8765   2.728   4.178   0.642
 2100SOL    HW1 8766   2.696   4.250   0.580
 2100SOL    HW2 8767   2.752   4.097   0.589
 2101SOL     OW 8768   3.291   4.897   0.867
 2101SOL    HW1 8769   3.236   4.813   0.860
 2101SOL    HW2 8770   3.317   4.926   0.775
 2102SOL     OW 8771   3.328   4.314   0.992
 2102SOL    HW1 8772   3.298   4.219   0.999
 2102SOL    HW2 8773   3.401   4.330   1.058
 2103SOL     OW 8774   3.719   4.557   0.377
 2103SOL    HW1 8775   3.761   4.493   0.441
 2103SOL    HW2 8776   3.681   4.506   0.299
 2104SOL     OW 8777   3.526   5.004   0.657
 2104SOL    HW1 8778   3.625   5.012   0.671
 2104SOL    HW2 8779   3.481   5.088   0.688
 2105SOL     OW 8780   3.252   4.299   0.078
 2105SOL    HW1 8781   3.198   4.278   0.159
 2105SOL    HW2 8782   3.343   4.258   0.087
 2106SOL     OW 8783   2.389   3.980   0.328
 2106SOL    HW1 8784   2.416   3.921   0.253
 2106SOL    HW2 8785   2.389   4.075   0.297
 2107SOL     OW 8786   3.616   4.947   1.588
 2107SOL    HW1 8787   3.707   4.908   1.575
 2107SOL    HW2 8788   3.624   5.043   1.612
 2108SOL     OW 8789   2.842   4.840   1.719
 2108SOL    HW1 8790   2.743   4.846   1.729
 2108SOL    HW2 8791   2.865   4.760   1.663
 2109SOL     OW 8792   2.272   4.537   1.251
 2109SOL    HW1 8793   2.358   4.549   1.301
 2109SOL    HW2 8794   2.230   4.450   1.278
 2110SOL     OW 8795   3.136   4.110   1.262
 2110SOL    HW1 8796   3.157   4.184   1.326
 2110SOL    HW2 8797   3.047   4.127   1.219
 2111SOL     OW 8798   2.229   4.824   0.501
 2111SOL    HW1 8799   2.222   4.907   0.445
 2111SOL    HW2 8800   2.233   4.744   0.441
 2112SOL     OW 8801   2.428   4.261   0.865
 2112SOL    HW1 8802   2.440   4.327   0.791
 2112SOL    HW2 8803   2.474   4.295   0.948
 2113SOL     OW 8804   3.444   4.363   0.472
 2113SOL    HW1 8805   3.413   4.424   0.545
 2113SOL    HW2 8806   3.494   4.415   0.403
 2114SOL     OW 8807   2.264   4.475   1.598
 2114SOL    HW1 8808   2.332   4.530   1.551
 2114SOL    HW2 8809   2.304   4.387   1.625
 2115SOL     OW 8810   2.875   3.829   1.770
 2115SOL    HW1 8811   2.881   3.914   1.718
 2115SOL    HW2 8812   2.907   3.753   1.713
 2116SOL     OW 8813   2.366   3.774   1.740
 2116SOL    HW1 8814   2.324   3.717   1.670
 2116SOL    HW2 8815   2.300   3.843   1.772
 2117SOL     OW 8816   2.435   4.594   1.029
 2117SOL    HW1 8817   2.479   4.683   1.020
 2117SOL    HW2 8818   2.372   4.594   1.106
 2118SOL     OW 8819   3.222   4.586   1.045
 2118SOL    HW1 8820   3.147   4.586   0.979
 2118SOL    HW2 8821   3.259   4.494   1.054
 2119SOL     OW 8822   3.071   4.249   0.275
 2119SOL    HW1 8823   3.084   4.165   0.329
 2119SOL    HW2 8824   3.042   4.323   0.335
 2120SOL     OW 8825   2.594   4.358   1.064
 2120SOL    HW1 8826   2.653   4.332   0.988
 2120SOL    HW2 8827   2.566   4.454   1.053
 2121SOL     OW 8828   2.169   3.787   0.618
 2121SOL    HW1 8829   2.158   3.881   0.651
 2121SOL    HW2 8830   2.164   3.724   0.695
 2122SOL     OW 8831   3.484   4.091   0.374
 2122SOL    HW1 8832   3.486   4.015   0.438
 2122SOL    HW2 8833   3.436   4.168   0.414
 2123SOL     OW 8834   2.885   4.490   0.966
 2123SOL    HW1 8835   2.900   4.511   1.062
 2123SOL    HW2 8836   2.855   4.395   0.957
 2124SOL     OW 8837   3.721   5.242   1.605
 2124SOL    HW1 8838   3.735   5.269   1.510
 2124SOL    HW2 8839   3.804   5.264   1.658
 2125SOL     OW 8840   2.212   4.622   1.804
 2125SOL    HW1 8841   2.288   4.666   1.852
 2125SOL    HW2 8842   2.247   4.575   1.722
 2126SOL     OW 8843   3.402   3.998   0.125
 2126SOL    HW1 8844   3.341   3.923   0.148
 2126SOL    HW2 8845   3.424   4.050   0.208
 2127SOL     OW 8846   3.165   4.562   0.042
 2127SOL    HW1 8847   3.199   4.469   0.057
 2127SOL    HW2 8848   3.183   4.589  -0.053
 2128SOL     OW 8849   2.181   4.534   0.949
 2128SOL    HW1 8850   2.274   4.570   0.954
 2128SOL    HW2 8851   2.175   4.449   1.001
 2129SOL     OW 8852   2.201   4.233   1.006
 2129SOL    HW1 8853   2.149   4.150   0.989
 2129SOL    HW2 8854   2.278   4.238   0.942
 2130SOL     OW 8855   3.000   4.104   1.678
 2130SOL    HW1 8856   2.955   4.167   1.742
 2130SOL    HW2 8857   3.093   4.135   1.661
 2131SOL     OW 8858   3.022   3.931   1.477
 2131SOL    HW1 8859   3.022   3.995   1.554
 2131SOL    HW2 8860   3.050   3.979   1.394
 2132SOL     OW 8861   2.864   4.520   1.238
 2132SOL    HW1 8862   2.905   4.488   1.324
 2132SOL    HW2 8863   2.768   4.493   1.235
 2133SOL     OW 8864   2.051   4.244   1.722
 2133SOL    HW1 8865   2.110   4.204   1.652
 2133SOL    HW2 8866   1.993   4.315   1.681
 2134SOL     OW 8867   2.677   4.296   0.325
 2134SOL    HW1 8868   2.684   4.207   0.279
 2134SOL    HW2 8869   2.583   4.330   0.317
 2135SOL     OW 8870   3.519   4.328   1.206
 2135SOL    HW1 8871   3.481   4.259   1.268
 2135SOL    HW2 8872   3.601   4.292   1.162
 2136SOL     OW 8873   2.533   4.188   1.269
 2136SOL    HW1 8874   2.499   4.099   1.239
 2136SOL    HW2 8875   2.559   4.242   1.189
 2137SOL     OW 8876   2.335   4.224   0.191
 2137SOL    HW1 8877   2.396   4.304   0.195
 2137SOL    HW2 8878   2.240   4.255   0.198
 2138SOL     OW 8879   2.021   4.861   1.466
 2138SOL    HW1 8880   2.043   4.800   1.542
 2138SOL    HW2 8881   2.031   4.812   1.380
 2139SOL     OW 8882   3.209   4.783   1.234
 2139SOL    HW1 8883   3.233   4.720   1.160
 2139SOL    HW2 8884   3.119   4.823   1.216
 2140SOL     OW 8885   3.164   4.579   0.309
 2140SOL    HW1 8886   3.078   4.548   0.351
 2140SOL    HW2 8887   3.160   4.565   0.210
 2141SOL     OW 8888   1.945   4.982   1.022
 2141SOL    HW1 8889   1.940   4.981   1.122
 2141SOL    HW2 8890   1.862   4.941   0.984
 2142SOL     OW 8891   2.765   3.810   0.133
 2142SOL    HW1 8892   2.816   3.811   0.047
 2142SOL    HW2 8893   2.821   3.768   0.204
 2143SOL     OW 8894   3.588   3.859   0.523
 2143SOL    HW1 8895   3.661   3.842   0.456
 2143SOL    HW2 8896   3.557   3.772   0.561
 2144SOL     OW 8897   3.142   4.651   0.672
 2144SOL    HW1 8898   3.202   4.570   0.674
 2144SOL    HW2 8899   3.182   4.720   0.612
 2145SOL     OW 8900   2.692   4.997   1.422
 2145SOL    HW1 8901   2.687   5.030   1.517
 2145SOL    HW2 8902   2.606   5.016   1.376
 2146SOL     OW 8903   2.684   4.726   1.372
 2146SOL    HW1 8904   2.724   4.725   1.280
 2146SOL    HW2 8905   2.694   4.818   1.412
 2147SOL     OW 8906   2.778   4.634   0.291
 2147SOL    HW1 8907   2.841   4.672   0.223
 2147SOL    HW2 8908   2.818   4.551   0.330
 2148SOL     OW 8909   2.901   4.822   0.696
 2148SOL    HW1 8910   2.831   4.775   0.750
 2148SOL    HW2 8911   2.960   4.754   0.653
 2149SOL     OW 8912   3.571   4.109   1.381
 2149SOL    HW1 8913   3.644   4.178   1.385
 2149SOL    HW2 8914   3.599   4.034   1.322
 2150SOL     OW 8915   1.967   4.737   1.726
 2150SOL    HW1 8916   1.890   4.704   1.780
 2150SOL    HW2 8917   2.052   4.707   1.768
 2151SOL     OW 8918   2.534   3.927   1.489
 2151SOL    HW1 8919   2.624   3.911   1.449
 2151SOL    HW2 8920   2.542   3.932   1.588
 2152SOL     OW 8921   3.302   4.580   1.398
 2152SOL    HW1 8922   3.245   4.632   1.335
 2152SOL    HW2 8923   3.398   4.592   1.374
 2153SOL     OW 8924   1.934   3.890   0.318
 2153SOL    HW1 8925   1.917   3.973   0.264
 2153SOL    HW2 8926   2.024   3.853   0.296
 2154SOL     OW 8927   2.475   4.566   1.431
 2154SOL    HW1 8928   2.531   4.647   1.414
 2154SOL    HW2 8929   2.534   4.486   1.434
 2155SOL     OW 8930   2.578   4.289   1.708
 2155SOL    HW1 8931   2.597   4.354   1.782
 2155SOL    HW2 8932   2.638   4.209   1.717
 2156SOL     OW 8933   3.312   4.944   1.633
 2156SOL    HW1 8934   3.303   4.934   1.732
 2156SOL    HW2 8935   3.408   4.937   1.607
 2157SOL     OW 8936   3.087   4.049   0.449
 2157SOL    HW1 8937   3.152   3.975   0.438
 2157SOL    HW2 8938   3.107   4.099   0.533
 2158SOL     OW 8939   2.456   4.469   0.652
 2158SOL    HW1 8940   2.506   4.554   0.633
 2158SOL    HW2 8941   2.368   4.471   0.604
 2159SOL     OW 8942   3.639   4.066   1.642
 2159SOL    HW1 8943   3.622   4.097   1.548
 2159SOL    HW2 8944   3.555   4.029   1.680
 2160SOL     OW 8945   2.721   4.680   0.861
 2160SOL    HW1 8946   2.775   4.611   0.909
 2160SOL    HW2 8947   2.689   4.749   0.927
 2161SOL     OW 8948   2.945   4.708   0.087
 2161SOL    HW1 8949   2.922   4.761   0.005
 2161SOL    HW2 8950   3.026   4.652   0.068
 2162SOL     OW 8951   1.941   4.964   0.653
 2162SOL    HW1 8952   1.940   4.917   0.741
 2162SOL    HW2 8953   2.023   4.936   0.602
 2163SOL     OW 8954   2.290   4.148   0.520
 2163SOL    HW1 8955   2.320   4.076   0.458
 2163SOL    HW2 8956   2.251   4.108   0.603
 2164SOL     OW 8957   2.179   4.271   1.280
 2164SOL    HW1 8958   2.217   4.212   1.352
 2164SOL    HW2 8959   2.219   4.245   1.192
 2165SOL     OW 8960   3.286   3.938   1.112
 2165SOL    HW1 8961   3.338   3.873   1.167
 2165SOL    HW2 8962   3.237   4.001   1.173
 2166SOL     OW 8963   3.214   3.776   0.168
 2166SOL    HW1 8964   3.249   3.735   0.084
 2166SOL    HW2 8965   3.124   3.738   0.188
 2167SOL     OW 8966   3.162   4.177   0.691
 2167SOL    HW1 8967   3.103   4.257   0.695
 2167SOL    HW2 8968   3.177   4.142   0.784
 2168SOL     OW 8969   3.455   3.945   0.882
 2168SOL    HW1 8970   3.371   3.944   0.936
 2168SOL    HW2 8971   3.457   4.028   0.826
 2169SOL     OW 8972   1.901   4.801   0.300
 2169SOL    HW1 8973   2.000   4.790   0.291
 2169SOL    HW2 8974   1.861   4.715   0.332
 2170SOL     OW 8975   2.092   4.352   1.975
 2170SOL    HW1 8976   1.999   4.350   2.012
 2170SOL    HW2 8977   2.093   4.313   1.883
 2171SOL     OW 8978   2.431   4.999   3.027
 2171SOL    HW1 8979   2.338   4.992   2.990
 2171SOL    HW2 8980   2.442   5.088   3.071
 2172SOL     OW 8981   3.617   4.331   2.093
 2172SOL    HW1 8982   3.605   4.318   1.994
 2172SOL    HW2 8983   3.587   4.250   2.142
 2173SOL     OW 8984   2.630   4.868   2.885
 2173SOL    HW1 8985   2.552   4.885   2.945
 2173SOL    HW2 8986   2.664   4.955   2.849
 2174SOL     OW 8987   2.548   4.885   3.665
 2174SOL    HW1 8988   2.608   4.964   3.679
 2174SOL    HW2 8989   2.462   4.916   3.624
 2175SOL     OW 8990   2.197   5.159   2.923
 2175SOL    HW1 8991   2.119   5.128   2.870
 2175SOL    HW2 8992   2.255   5.217   2.866
 2176SOL     OW 8993   3.465   4.171   2.599
 2176SOL    HW1 8994   3.391   4.217   2.549
 2176SOL    HW2 8995   3.516   4.239   2.652
 2177SOL     OW 8996   2.102   4.815   2.748
 2177SOL    HW1 8997   2.116   4.731   2.800
 2177SOL    HW2 8998   2.047   4.879   2.803
 2178SOL     OW 8999   3.456   3.838   3.342
 2178SOL    HW1 9000   3.438   3.905   3.270
 2178SOL    HW2 9001   3.453   3.884   3.431
 2179SOL     OW 9002   3.551   4.646   2.474
 2179SOL    HW1 9003   3.646   4.617   2.482
 2179SOL    HW2 9004   3.543   4.711   2.399
 2180SOL     OW 9005   3.503   4.832   2.294
 2180SOL    HW1 9006   3.589   4.834   2.242
 2180SOL    HW2 9007   3.517   4.879   2.382
 2181SOL     OW 9008   1.975   4.461   3.459
 2181SOL    HW1 9009   2.063   4.448   3.504
 2181SOL    HW2 9010   1.962   4.558   3.437
 2182SOL     OW 9011   3.155   4.952   3.285
 2182SOL    HW1 9012   3.192   4.879   3.227
 2182SOL    HW2 9013   3.207   4.957   3.370
 2183SOL     OW 9014   2.671   3.728   2.364
 2183SOL    HW1 9015   2.711   3.819   2.355
 2183SOL    HW2 9016   2.571   3.736   2.370
 2184SOL     OW 9017   2.059   4.700   3.126
 2184SOL    HW1 9018   2.148   4.655   3.112
 2184SOL    HW2 9019   1.986   4.635   3.107
 2185SOL     OW 9020   3.328   5.141   2.815
 2185SOL    HW1 9021   3.269   5.147   2.895
 2185SOL    HW2 9022   3.313   5.053   2.769
 2186SOL     OW 9023   2.460   4.453   2.132
 2186SOL    HW1 9024   2.484   4.522   2.064
 2186SOL    HW2 9025   2.382   4.486   2.186
 2187SOL     OW 9026   3.143   4.069   2.806
 2187SOL    HW1 9027   3.057   4.019   2.793
 2187SOL    HW2 9028   3.205   4.015   2.862
 2188SOL     OW 9029   2.669   4.329   3.327
 2188SOL    HW1 9030   2.622   4.326   3.416
 2188SOL    HW2 9031   2.618   4.274   3.261
 2189SOL     OW 9032   2.903   4.425   2.291
 2189SOL    HW1 9033   2.929   4.421   2.387
 2189SOL    HW2 9034   2.818   4.374   2.277
 2190SOL     OW 9035   1.938   4.535   2.651
 2190SOL    HW1 9036   2.037   4.523   2.660
 2190SOL    HW2 9037   1.914   4.630   2.672
 2191SOL     OW 9038   2.727   4.072   2.057
 2191SOL    HW1 9039   2.786   4.135   2.008
 2191SOL    HW2 9040   2.746   3.978   2.028
 2192SOL     OW 9041   3.581   4.309   3.693
 2192SOL    HW1 9042   3.555   4.398   3.657
 2192SOL    HW2 9043   3.579   4.241   3.620
 2193SOL     OW 9044   3.657   4.790   2.735
 2193SOL    HW1 9045   3.595   4.775   2.659
 2193SOL    HW2 9046   3.605   4.801   2.820
 2194SOL     OW 9047   2.183   4.667   2.104
 2194SOL    HW1 9048   2.265   4.706   2.062
 2194SOL    HW2 9049   2.156   4.585   2.055
 2195SOL     OW 9050   3.320   4.459   2.590
 2195SOL    HW1 9051   3.315   4.394   2.665
 2195SOL    HW2 9052   3.400   4.518   2.603
 2196SOL     OW 9053   2.064   4.009   3.360
 2196SOL    HW1 9054   1.984   4.069   3.347
 2196SOL    HW2 9055   2.054   3.960   3.446
 2197SOL     OW 9056   3.494   5.101   1.943
 2197SOL    HW1 9057   3.462   5.195   1.933
 2197SOL    HW2 9058   3.418   5.038   1.931
 2198SOL     OW 9059   3.262   3.831   2.288
 2198SOL    HW1 9060   3.238   3.794   2.198
 2198SOL    HW2 9061   3.361   3.847   2.292
 2199SOL     OW 9062   2.244   4.424   2.342
 2199SOL    HW1 9063   2.289   4.334   2.339
 2199SOL    HW2 9064   2.150   4.413   2.375
 2200SOL     OW 9065   2.476   3.846   1.979
 2200SOL    HW1 9066   2.574   3.824   1.986
 2200SOL    HW2 9067   2.445   3.829   1.886
 2201SOL     OW 9068   2.401   3.788   2.374
 2201SOL    HW1 9069   2.320   3.789   2.432
 2201SOL    HW2 9070   2.404   3.871   2.319
 2202SOL     OW 9071   3.296   4.912   1.903
 2202SOL    HW1 9072   3.328   4.836   1.960
 2202SOL    HW2 9073   3.204   4.939   1.933
 2203SOL     OW 9074   2.159   3.759   2.033
 2203SOL    HW1 9075   2.208   3.843   2.012
 2203SOL    HW2 9076   2.221   3.694   2.078
 2204SOL     OW 9077   2.797   3.960   2.342
 2204SOL    HW1 9078   2.749   4.001   2.264
 2204SOL    HW2 9079   2.896   3.958   2.323
 2205SOL     OW 9080   3.089   5.294   2.655
 2205SOL    HW1 9081   3.110   5.368   2.590
 2205SOL    HW2 9082   3.157   5.294   2.728
 2206SOL     OW 9083   2.894   4.273   1.878
 2206SOL    HW1 9084   2.853   4.355   1.839
 2206SOL    HW2 9085   2.958   4.299   1.951
 2207SOL     OW 9086   1.940   4.280   3.248
 2207SOL    HW1 9087   2.032   4.279   3.207
 2207SOL    HW2 9088   1.934   4.354   3.315
 2208SOL     OW 9089   2.423   3.946   3.009
 2208SOL    HW1 9090   2.461   3.862   3.046
 2208SOL    HW2 9091   2.335   3.965   3.053
 2209SOL     OW 9092   2.728   4.178   2.504
 2209SOL    HW1 9093   2.696   4.250   2.442
 2209SOL    HW2 9094   2.752   4.097   2.451
 2210SOL     OW 9095   2.879   3.763   2.615
 2210SOL    HW1 9096   2.807   3.768   2.546
 2210SOL    HW2 9097   2.855   3.694   2.684
 2211SOL     OW 9098   3.291   4.897   2.729
 2211SOL    HW1 9099   3.236   4.813   2.722
 2211SOL    HW2 9100   3.317   4.926   2.637
 2212SOL     OW 9101   3.328   4.314   2.854
 2212SOL    HW1 9102   3.298   4.219   2.861
 2212SOL    HW2 9103   3.401   4.330   2.920
 2213SOL     OW 9104   3.719   4.557   2.239
 2213SOL    HW1 9105   3.761   4.493   2.303
 2213SOL    HW2 9106   3.681   4.506   2.161
 2214SOL     OW 9107   3.252   4.299   1.940
 2214SOL    HW1 9108   3.198   4.278   2.021
 2214SOL    HW2 9109   3.343   4.258   1.949
 2215SOL     OW 9110   2.389   3.980   2.190
 2215SOL    HW1 9111   2.416   3.921   2.115
 2215SOL    HW2 9112   2.389   4.075   2.159
 2216SOL     OW 9113   3.616   4.947   3.450
 2216SOL    HW1 9114   3.707   4.908   3.437
 2216SOL    HW2 9115   3.624   5.043   3.474
 2217SOL     OW 9116   2.777   3.813   3.264
 2217SOL    HW1 9117   2.802   3.793   3.169
 2217SOL    HW2 9118   2.849   3.869   3.306
 2218SOL     OW 9119   2.272   4.537   3.113
 2218SOL    HW1 9120   2.358   4.549   3.163
 2218SOL    HW2 9121   2.230   4.450   3.140
 2219SOL     OW 9122   2.229   4.824   2.363
 2219SOL    HW1 9123   2.222   4.907   2.307
 2219SOL    HW2 9124   2.233   4.744   2.303
 2220SOL     OW 9125   3.444   4.363   2.334
 2220SOL    HW1 9126   3.413   4.424   2.407
 2220SOL    HW2 9127   3.494   4.415   2.265
 2221SOL     OW 9128   2.264   4.475   3.460
 2221SOL    HW1 9129   2.332   4.530   3.413
 2221SOL    HW2 9130   2.304   4.387   3.487
 2222SOL     OW 9131   3.449   4.503   3.532
 2222SOL    HW1 9132   3.357   4.541   3.527
 2222SOL    HW2 9133   3.509   4.550   3.467
 2223SOL     OW 9134   2.875   3.829   3.632
 2223SOL    HW1 9135   2.881   3.914   3.580
 2223SOL    HW2 9136   2.907   3.753   3.575
 2224SOL     OW 9137   2.435   4.594   2.891
 2224SOL    HW1 9138   2.479   4.683   2.882
 2224SOL    HW2 9139   2.372   4.594   2.968
 2225SOL     OW 9140   3.071   4.249   2.137
 2225SOL    HW1 9141   3.084   4.165   2.191
 2225SOL    HW2 9142   3.042   4.323   2.197
 2226SOL     OW 9143   2.169   3.937   3.093
 2226SOL    HW1 9144   2.146   3.974   3.183
 2226SOL    HW2 9145   2.139   3.842   3.087
 2227SOL     OW 9146   3.590   4.659   3.716
 2227SOL    HW1 9147   3.544   4.652   3.627
 2227SOL    HW2 9148   3.528   4.703   3.782
 2228SOL     OW 9149   3.484   4.091   2.236
 2228SOL    HW1 9150   3.486   4.015   2.300
 2228SOL    HW2 9151   3.436   4.168   2.276
 2229SOL     OW 9152   3.721   5.242   3.467
 2229SOL    HW1 9153   3.735   5.269   3.372
 2229SOL    HW2 9154   3.804   5.264   3.520
 2230SOL     OW 9155   2.212   4.622   3.666
 2230SOL    HW1 9156   2.288   4.666   3.714
 2230SOL    HW2 9157   2.247   4.575   3.584
 2231SOL     OW 9158   3.402   3.998   1.987
 2231SOL    HW1 9159   3.341   3.923   2.010
 2231SOL    HW2 9160   3.424   4.050   2.070
 2232SOL     OW 9161   2.181   4.534   2.811
 2232SOL    HW1 9162   2.274   4.570   2.816
 2232SOL    HW2 9163   2.175   4.449   2.863
 2233SOL     OW 9164   3.000   4.104   3.540
 2233SOL    HW1 9165   2.955   4.167   3.604
 2233SOL    HW2 9166   3.093   4.135   3.523
 2234SOL     OW 9167   1.870   5.050   2.062
 2234SOL    HW1 9168   1.777   5.071   2.031
 2234SOL    HW2 9169   1.880   4.951   2.075
 2235SOL     OW 9170   1.902   4.268   2.976
 2235SOL    HW1 9171   1.987   4.235   2.935
 2235SOL    HW2 9172   1.915   4.283   3.074
 2236SOL     OW 9173   2.051   4.244   3.584
 2236SOL    HW1 9174   2.110   4.204   3.514
 2236SOL    HW2 9175   1.993   4.315   3.543
 2237SOL     OW 9176   2.677   4.296   2.187
 2237SOL    HW1 9177   2.684   4.207   2.141
 2237SOL    HW2 9178   2.583   4.330   2.179
 2238SOL     OW 9179   3.519   4.328   3.068
 2238SOL    HW1 9180   3.481   4.259   3.130
 2238SOL    HW2 9181   3.601   4.292   3.024
 2239SOL     OW 9182   2.533   4.188   3.131
 2239SOL    HW1 9183   2.499   4.099   3.101
 2239SOL    HW2 9184   2.559   4.242   3.051
 2240SOL     OW 9185   2.335   4.224   2.053
 2240SOL    HW1 9186   2.396   4.304   2.057
 2240SOL    HW2 9187   2.240   4.255   2.060
 2241SOL     OW 9188   3.164   4.579   2.171
 2241SOL    HW1 9189   3.078   4.548   2.213
 2241SOL    HW2 9190   3.160   4.565   2.072
 2242SOL     OW 9191   1.945   4.982   2.884
 2242SOL    HW1 9192   1.940   4.981   2.984
 2242SOL    HW2 9193   1.862   4.941   2.846
 2243SOL     OW 9194   3.588   3.859   2.385
 2243SOL    HW1 9195   3.661   3.842   2.318
 2243SOL    HW2 9196   3.557   3.772   2.423
 2244SOL     OW 9197   3.142   4.651   2.534
 2244SOL    HW1 9198   3.202   4.570   2.536
 2244SOL    HW2 9199   3.182   4.720   2.474
 2245SOL     OW 9200   3.703   3.899   2.825
 2245SOL    HW1 9201   3.742   3.814   2.789
 2245SOL    HW2 9202   3.605   3.901   2.806
 2246SOL     OW 9203   3.056   5.336   1.893
 2246SOL    HW1 9204   3.062   5.243   1.930
 2246SOL    HW2 9205   2.997   5.336   1.813
 2247SOL     OW 9206   2.684   4.726   3.234
 2247SOL    HW1 9207   2.724   4.725   3.142
 2247SOL    HW2 9208   2.694   4.818   3.274
 2248SOL     OW 9209   2.234   5.012   3.352
 2248SOL    HW1 9210   2.221   5.105   3.318
 2248SOL    HW2 9211   2.150   4.960   3.339
 2249SOL     OW 9212   3.476   5.016   3.151
 2249SOL    HW1 9213   3.536   5.019   3.231
 2249SOL    HW2 9214   3.401   5.080   3.164
 2250SOL     OW 9215   2.901   4.822   2.558
 2250SOL    HW1 9216   2.831   4.775   2.612
 2250SOL    HW2 9217   2.960   4.754   2.515
 2251SOL     OW 9218   2.876   3.960   2.833
 2251SOL    HW1 9219   2.868   3.924   2.740
 2251SOL    HW2 9220   2.874   3.884   2.898
 2252SOL     OW 9221   1.937   4.069   1.895
 2252SOL    HW1 9222   1.845   4.041   1.866
 2252SOL    HW2 9223   1.968   4.146   1.839
 2253SOL     OW 9224   3.302   4.580   3.260
 2253SOL    HW1 9225   3.245   4.632   3.197
 2253SOL    HW2 9226   3.398   4.592   3.236
 2254SOL     OW 9227   1.934   3.890   2.180
 2254SOL    HW1 9228   1.917   3.973   2.126
 2254SOL    HW2 9229   2.024   3.853   2.158
 2255SOL     OW 9230   2.475   4.566   3.293
 2255SOL    HW1 9231   2.531   4.647   3.276
 2255SOL    HW2 9232   2.534   4.486   3.296
 2256SOL     OW 9233   2.578   4.289   3.570
 2256SOL    HW1 9234   2.597   4.354   3.644
 2256SOL    HW2 9235   2.638   4.209   3.579
 2257SOL     OW 9236   3.312   4.944   3.495
 2257SOL    HW1 9237   3.303   4.934   3.594
 2257SOL    HW2 9238   3.408   4.937   3.469
 2258SOL     OW 9239   3.087   4.049   2.311
 2258SOL    HW1 9240   3.152   3.975   2.300
 2258SOL    HW2 9241   3.107   4.099   2.395
 2259SOL     OW 9242   3.592   4.658   3.379
 2259SOL    HW1 9243   3.630   4.749   3.394
 2259SOL    HW2 9244   3.584   4.641   3.280
 2260SOL     OW 9245   2.721   4.680   2.723
 2260SOL    HW1 9246   2.775   4.611   2.771
 2260SOL    HW2 9247   2.689   4.749   2.789
 2261SOL     OW 9248   1.941   4.964   2.515
 2261SOL    HW1 9249   1.940   4.917   2.603
 2261SOL    HW2 9250   2.023   4.936   2.464
 2262SOL     OW 9251   3.686   3.916   3.089
 2262SOL    HW1 9252   3.682   3.826   3.133
 2262SOL    HW2 9253   3.689   3.905   2.990
 2263SOL     OW 9254   2.290   4.148   2.382
 2263SOL    HW1 9255   2.320   4.076   2.320
 2263SOL    HW2 9256   2.251   4.108   2.465
 2264SOL     OW 9257   2.179   4.271   3.142
 2264SOL    HW1 9258   2.217   4.212   3.214
 2264SOL    HW2 9259   2.219   4.245   3.054
 2265SOL     OW 9260   3.286   3.938   2.974
 2265SOL    HW1 9261   3.338   3.873   3.029
 2265SOL    HW2 9262   3.237   4.001   3.035
 2266SOL     OW 9263   2.863   3.758   3.016
 2266SOL    HW1 9264   2.800   3.686   2.985
 2266SOL    HW2 9265   2.956   3.722   3.016
 2267SOL     OW 9266   2.632   5.054   2.163
 2267SOL    HW1 9267   2.586   4.967   2.180
 2267SOL    HW2 9268   2.723   5.051   2.204
 2268SOL     OW 9269   3.214   3.776   2.030
 2268SOL    HW1 9270   3.249   3.735   1.946
 2268SOL    HW2 9271   3.124   3.738   2.050
 2269SOL     OW 9272   3.162   4.177   2.553
 2269SOL    HW1 9273   3.103   4.257   2.557
 2269SOL    HW2 9274   3.177   4.142   2.646
 2270SOL     OW 9275   3.455   3.945   2.744
 2270SOL    HW1 9276   3.371   3.944   2.798
 2270SOL    HW2 9277   3.457   4.028   2.688
 2271SOL     OW 9278   1.901   4.801   2.162
 2271SOL    HW1 9279   2.000   4.790   2.153
 2271SOL    HW2 9280   1.861   4.715   2.194
 2272SOL     OW 9281   2.092   4.352   3.837
 2272SOL    HW1 9282   1.999   4.350   3.874
 2272SOL    HW2 9283   2.093   4.313   3.745
 2273SOL     OW 9284   2.087   3.999   4.720
 2273SOL    HW1 9285   2.122   3.982   4.812
 2273SOL    HW2 9286   1.999   3.954   4.708
 2274SOL     OW 9287   1.881   4.092   4.371
 2274SOL    HW1 9288   1.799   4.135   4.410
 2274SOL    HW2 9289   1.853   4.019   4.308
 2275SOL     OW 9290   2.431   4.999   4.889
 2275SOL    HW1 9291   2.338   4.992   4.852
 2275SOL    HW2 9292   2.442   5.088   4.933
 2276SOL     OW 9293   3.417   5.235   4.427
 2276SOL    HW1 9294   3.360   5.219   4.508
 2276SOL    HW2 9295   3.358   5.245   4.347
 2277SOL     OW 9296   2.997   4.427   4.441
 2277SOL    HW1 9297   3.054   4.505   4.416
 2277SOL    HW2 9298   2.937   4.453   4.517
 2278SOL     OW 9299   3.617   4.331   3.955
 2278SOL    HW1 9300   3.605   4.318   3.856
 2278SOL    HW2 9301   3.587   4.250   4.004
 2279SOL     OW 9302   2.630   4.868   4.747
 2279SOL    HW1 9303   2.552   4.885   4.807
 2279SOL    HW2 9304   2.664   4.955   4.711
 2280SOL     OW 9305   2.547   4.736   4.389
 2280SOL    HW1 9306   2.616   4.720   4.459
 2280SOL    HW2 9307   2.474   4.793   4.427
 2281SOL     OW 9308   2.197   5.159   4.785
 2281SOL    HW1 9309   2.119   5.128   4.732
 2281SOL    HW2 9310   2.255   5.217   4.728
 2282SOL     OW 9311   3.465   4.171   4.461
 2282SOL    HW1 9312   3.391   4.217   4.411
 2282SOL    HW2 9313   3.516   4.239   4.514
 2283SOL     OW 9314   2.102   4.815   4.610
 2283SOL    HW1 9315   2.116   4.731   4.662
 2283SOL    HW2 9316   2.047   4.879   4.665
 2284SOL     OW 9317   1.984   4.367   4.287
 2284SOL    HW1 9318   1.939   4.279   4.304
 2284SOL    HW2 9319   1.983   4.421   4.371
 2285SOL     OW 9320   2.059   4.700   4.988
 2285SOL    HW1 9321   2.148   4.655   4.974
 2285SOL    HW2 9322   1.986   4.635   4.969
 2286SOL     OW 9323   3.328   5.141   4.677
 2286SOL    HW1 9324   3.269   5.147   4.757
 2286SOL    HW2 9325   3.313   5.053   4.631
 2287SOL     OW 9326   2.460   4.453   3.994
 2287SOL    HW1 9327   2.484   4.522   3.926
 2287SOL    HW2 9328   2.382   4.486   4.048
 2288SOL     OW 9329   3.143   4.069   4.668
 2288SOL    HW1 9330   3.057   4.019   4.655
 2288SOL    HW2 9331   3.205   4.015   4.724
 2289SOL     OW 9332   2.853   4.134   4.966
 2289SOL    HW1 9333   2.776   4.168   5.020
 2289SOL    HW2 9334   2.819   4.083   4.887
 2290SOL     OW 9335   2.903   4.425   4.153
 2290SOL    HW1 9336   2.929   4.421   4.249
 2290SOL    HW2 9337   2.818   4.374   4.139
 2291SOL     OW 9338   1.938   4.535   4.513
 2291SOL    HW1 9339   2.037   4.523   4.522
 2291SOL    HW2 9340   1.914   4.630   4.534
 2292SOL     OW 9341   2.727   4.072   3.919
 2292SOL    HW1 9342   2.786   4.135   3.870
 2292SOL    HW2 9343   2.746   3.978   3.890
 2293SOL     OW 9344   3.224   4.868   4.269
 2293SOL    HW1 9345   3.307   4.839   4.221
 2293SOL    HW2 9346   3.175   4.935   4.213
 2294SOL     OW 9347   3.657   4.790   4.597
 2294SOL    HW1 9348   3.595   4.775   4.521
 2294SOL    HW2 9349   3.605   4.801   4.682
 2295SOL     OW 9350   2.183   4.667   3.966
 2295SOL    HW1 9351   2.265   4.706   3.924
 2295SOL    HW2 9352   2.156   4.585   3.917
 2296SOL     OW 9353   3.320   4.459   4.452
 2296SOL    HW1 9354   3.315   4.394   4.527
 2296SOL    HW2 9355   3.400   4.518   4.465
 2297SOL     OW 9356   3.494   5.101   3.805
 2297SOL    HW1 9357   3.462   5.195   3.795
 2297SOL    HW2 9358   3.418   5.038   3.793
 2298SOL     OW 9359   3.262   3.831   4.150
 2298SOL    HW1 9360   3.238   3.794   4.060
 2298SOL    HW2 9361   3.361   3.847   4.154
 2299SOL     OW 9362   2.244   4.424   4.204
 2299SOL    HW1 9363   2.289   4.334   4.201
 2299SOL    HW2 9364   2.150   4.413   4.237
 2300SOL     OW 9365   2.665   5.126   4.648
 2300SOL    HW1 9366   2.755   5.140   4.606
 2300SOL    HW2 9367   2.594   5.128   4.577
 2301SOL     OW 9368   2.784   4.227   4.623
 2301SOL    HW1 9369   2.759   4.218   4.527
 2301SOL    HW2 9370   2.832   4.145   4.654
 2302SOL     OW 9371   3.296   4.912   3.765
 2302SOL    HW1 9372   3.328   4.836   3.822
 2302SOL    HW2 9373   3.204   4.939   3.795
 2303SOL     OW 9374   3.089   5.294   4.517
 2303SOL    HW1 9375   3.110   5.368   4.452
 2303SOL    HW2 9376   3.157   5.294   4.590
 2304SOL     OW 9377   2.321   4.876   4.465
 2304SOL    HW1 9378   2.250   4.849   4.530
 2304SOL    HW2 9379   2.295   4.848   4.372
 2305SOL     OW 9380   2.423   3.946   4.871
 2305SOL    HW1 9381   2.461   3.862   4.908
 2305SOL    HW2 9382   2.335   3.965   4.915
 2306SOL     OW 9383   3.291   4.897   4.591
 2306SOL    HW1 9384   3.236   4.813   4.584
 2306SOL    HW2 9385   3.317   4.926   4.499
 2307SOL     OW 9386   3.328   4.314   4.716
 2307SOL    HW1 9387   3.298   4.219   4.723
 2307SOL    HW2 9388   3.401   4.330   4.782
 2308SOL     OW 9389   3.719   4.557   4.101
 2308SOL    HW1 9390   3.761   4.493   4.165
 2308SOL    HW2 9391   3.681   4.506   4.023
 2309SOL     OW 9392   3.526   5.004   4.381
 2309SOL    HW1 9393   3.625   5.012   4.395
 2309SOL    HW2 9394   3.481   5.088   4.412
 2310SOL     OW 9395   3.500   4.823   4.803
 2310SOL    HW1 9396   3.505   4.904   4.862
 2310SOL    HW2 9397   3.414   4.825   4.752
 2311SOL     OW 9398   2.567   4.774   4.092
 2311SOL    HW1 9399   2.553   4.781   4.191
 2311SOL    HW2 9400   2.651   4.723   4.074
 2312SOL     OW 9401   2.272   4.537   4.975
 2312SOL    HW1 9402   2.358   4.549   5.025
 2312SOL    HW2 9403   2.230   4.450   5.002
 2313SOL     OW 9404   3.136   4.110   4.986
 2313SOL    HW1 9405   3.157   4.184   5.050
 2313SOL    HW2 9406   3.047   4.127   4.943
 2314SOL     OW 9407   2.229   4.824   4.225
 2314SOL    HW1 9408   2.222   4.907   4.169
 2314SOL    HW2 9409   2.233   4.744   4.165
 2315SOL     OW 9410   3.444   4.363   4.196
 2315SOL    HW1 9411   3.413   4.424   4.269
 2315SOL    HW2 9412   3.494   4.415   4.127
 2316SOL     OW 9413   2.435   4.594   4.753
 2316SOL    HW1 9414   2.479   4.683   4.744
 2316SOL    HW2 9415   2.372   4.594   4.830
 2317SOL     OW 9416   3.222   4.586   4.769
 2317SOL    HW1 9417   3.147   4.586   4.703
 2317SOL    HW2 9418   3.259   4.494   4.778
 2318SOL     OW 9419   3.071   4.249   3.999
 2318SOL    HW1 9420   3.084   4.165   4.053
 2318SOL    HW2 9421   3.042   4.323   4.059
 2319SOL     OW 9422   2.169   3.937   4.955
 2319SOL    HW1 9423   2.146   3.974   5.045
 2319SOL    HW2 9424   2.139   3.842   4.949
 2320SOL     OW 9425   2.594   4.358   4.788
 2320SOL    HW1 9426   2.653   4.332   4.712
 2320SOL    HW2 9427   2.566   4.454   4.777
 2321SOL     OW 9428   2.169   3.787   4.342
 2321SOL    HW1 9429   2.158   3.881   4.375
 2321SOL    HW2 9430   2.164   3.724   4.419
 2322SOL     OW 9431   3.484   4.091   4.098
 2322SOL    HW1 9432   3.486   4.015   4.162
 2322SOL    HW2 9433   3.436   4.168   4.138
 2323SOL     OW 9434   2.885   4.490   4.690
 2323SOL    HW1 9435   2.900   4.511   4.786
 2323SOL    HW2 9436   2.855   4.395   4.681
 2324SOL     OW 9437   3.402   3.998   3.849
 2324SOL    HW1 9438   3.341   3.923   3.872
 2324SOL    HW2 9439   3.424   4.050   3.932
 2325SOL     OW 9440   3.165   4.562   3.766
 2325SOL    HW1 9441   3.199   4.469   3.781
 2325SOL    HW2 9442   3.183   4.589   3.671
 2326SOL     OW 9443   2.181   4.534   4.673
 2326SOL    HW1 9444   2.274   4.570   4.678
 2326SOL    HW2 9445   2.175   4.449   4.725
 2327SOL     OW 9446   3.022   3.931   5.201
 2327SOL    HW1 9447   3.022   3.995   5.278
 2327SOL    HW2 9448   3.050   3.979   5.118
 2328SOL     OW 9449   1.870   5.050   3.924
 2328SOL    HW1 9450   1.777   5.071   3.893
 2328SOL    HW2 9451   1.880   4.951   3.937
 2329SOL     OW 9452   2.864   4.520   4.962
 2329SOL    HW1 9453   2.905   4.488   5.048
 2329SOL    HW2 9454   2.768   4.493   4.959
 2330SOL     OW 9455   1.902   4.268   4.838
 2330SOL    HW1 9456   1.987   4.235   4.797
 2330SOL    HW2 9457   1.915   4.283   4.936
 2331SOL     OW 9458   2.677   4.296   4.049
 2331SOL    HW1 9459   2.684   4.207   4.003
 2331SOL    HW2 9460   2.583   4.330   4.041
 2332SOL     OW 9461   3.519   4.328   4.930
 2332SOL    HW1 9462   3.481   4.259   4.992
 2332SOL    HW2 9463   3.601   4.292   4.886
 2333SOL     OW 9464   2.533   4.188   4.993
 2333SOL    HW1 9465   2.499   4.099   4.963
 2333SOL    HW2 9466   2.559   4.242   4.913
 2334SOL     OW 9467   2.335   4.224   3.915
 2334SOL    HW1 9468   2.396   4.304   3.919
 2334SOL    HW2 9469   2.240   4.255   3.922
 2335SOL     OW 9470   3.209   4.783   4.958
 2335SOL    HW1 9471   3.233   4.720   4.884
 2335SOL    HW2 9472   3.119   4.823   4.940
 2336SOL     OW 9473   3.164   4.579   4.033
 2336SOL    HW1 9474   3.078   4.548   4.075
 2336SOL    HW2 9475   3.160   4.565   3.934
 2337SOL     OW 9476   1.945   4.982   4.746
 2337SOL    HW1 9477   1.940   4.981   4.846
 2337SOL    HW2 9478   1.862   4.941   4.708
 2338SOL     OW 9479   3.588   3.859   4.247
 2338SOL    HW1 9480   3.661   3.842   4.180
 2338SOL    HW2 9481   3.557   3.772   4.285
 2339SOL     OW 9482   3.142   4.651   4.396
 2339SOL    HW1 9483   3.202   4.570   4.398
 2339SOL    HW2 9484   3.182   4.720   4.336
 2340SOL     OW 9485   2.692   4.997   5.146
 2340SOL    HW1 9486   2.687   5.030   5.241
 2340SOL    HW2 9487   2.606   5.016   5.100
 2341SOL     OW 9488   3.703   3.899   4.687
 2341SOL    HW1 9489   3.742   3.814   4.651
 2341SOL    HW2 9490   3.605   3.901   4.668
 2342SOL     OW 9491   2.125   4.050   4.444
 2342SOL    HW1 9492   2.046   4.101   4.410
 2342SOL    HW2 9493   2.116   4.035   4.542
 2343SOL     OW 9494   3.056   5.336   3.755
 2343SOL    HW1 9495   3.062   5.243   3.792
 2343SOL    HW2 9496   2.997   5.336   3.675
 2344SOL     OW 9497   2.684   4.726   5.096
 2344SOL    HW1 9498   2.724   4.725   5.004
 2344SOL    HW2 9499   2.694   4.818   5.136
 2345SOL     OW 9500   2.901   4.822   4.420
 2345SOL    HW1 9501   2.831   4.775   4.474
 2345SOL    HW2 9502   2.960   4.754   4.377
 2346SOL     OW 9503   3.571   4.109   5.105
 2346SOL    HW1 9504   3.644   4.178   5.109
 2346SOL    HW2 9505   3.599   4.034   5.046
 2347SOL     OW 9506   1.937   4.069   3.757
 2347SOL    HW1 9507   1.845   4.041   3.728
 2347SOL    HW2 9508   1.968   4.146   3.701
 2348SOL     OW 9509   1.934   3.890   4.042
 2348SOL    HW1 9510   1.917   3.973   3.988
 2348SOL    HW2 9511   2.024   3.853   4.020
 2349SOL     OW 9512   3.312   4.944   5.357
 2349SOL    HW1 9513   3.303   4.934   5.456
 2349SOL    HW2 9514   3.408   4.937   5.331
 2350SOL     OW 9515   3.536   4.607   4.978
 2350SOL    HW1 9516   3.509   4.518   4.941
 2350SOL    HW2 9517   3.537   4.675   4.905
 2351SOL     OW 9518   3.087   4.049   4.173
 2351SOL    HW1 9519   3.152   3.975   4.162
 2351SOL    HW2 9520   3.107   4.099   4.257
 2352SOL     OW 9521   2.456   4.469   4.376
 2352SOL    HW1 9522   2.506   4.554   4.357
 2352SOL    HW2 9523   2.368   4.471   4.328
 2353SOL     OW 9524   3.592   4.658   5.241
 2353SOL    HW1 9525   3.630   4.749   5.256
 2353SOL    HW2 9526   3.584   4.641   5.142
 2354SOL     OW 9527   2.721   4.680   4.585
 2354SOL    HW1 9528   2.775   4.611   4.633
 2354SOL    HW2 9529   2.689   4.749   4.651
 2355SOL     OW 9530   1.941   4.964   4.377
 2355SOL    HW1 9531   1.940   4.917   4.465
 2355SOL    HW2 9532   2.023   4.936   4.326
 2356SOL     OW 9533   3.686   3.916   4.951
 2356SOL    HW1 9534   3.682   3.826   4.995
 2356SOL    HW2 9535   3.689   3.905   4.852
 2357SOL     OW 9536   2.290   4.148   4.244
 2357SOL    HW1 9537   2.320   4.076   4.182
 2357SOL    HW2 9538   2.251   4.108   4.327
 2358SOL     OW 9539   3.286   3.938   4.836
 2358SOL    HW1 9540   3.338   3.873   4.891
 2358SOL    HW2 9541   3.237   4.001   4.897
 2359SOL     OW 9542   2.863   3.758   4.878
 2359SOL    HW1 9543   2.800   3.686   4.847
 2359SOL    HW2 9544   2.956   3.722   4.878
 2360SOL     OW 9545   2.632   5.054   4.025
 2360SOL    HW1 9546   2.586   4.967   4.042
 2360SOL    HW2 9547   2.723   5.051   4.066
 2361SOL     OW 9548   3.162   4.177   4.415
 2361SOL    HW1 9549   3.103   4.257   4.419
 2361SOL    HW2 9550   3.177   4.142   4.508
 2362SOL     OW 9551   3.455   3.945   4.606
 2362SOL    HW1 9552   3.371   3.944   4.660
 2362SOL    HW2 9553   3.457   4.028   4.550
 2363SOL     OW 9554   1.901   4.801   4.024
 2363SOL    HW1 9555   2.000   4.790   4.015
 2363SOL    HW2 9556   1.861   4.715   4.056
 2364SOL     OW 9557   3.954   0.628   0.113
 2364SOL    HW1 9558   3.861   0.626   0.150
 2364SOL    HW2 9559   3.955   0.589   0.021
 2365SOL     OW 9560   3.949   0.275   0.996
 2365SOL    HW1 9561   3.984   0.258   1.088
 2365SOL    HW2 9562   3.861   0.230   0.984
 2366SOL     OW 9563   3.743   0.368   0.647
 2366SOL    HW1 9564   3.661   0.411   0.686
 2366SOL    HW2 9565   3.715   0.295   0.584
 2367SOL     OW 9566   4.293   1.275   1.165
 2367SOL    HW1 9567   4.200   1.268   1.128
 2367SOL    HW2 9568   4.304   1.364   1.209
 2368SOL     OW 9569   4.859   0.703   0.717
 2368SOL    HW1 9570   4.916   0.781   0.692
 2368SOL    HW2 9571   4.799   0.729   0.793
 2369SOL     OW 9572   4.410   1.161   1.803
 2369SOL    HW1 9573   4.470   1.240   1.817
 2369SOL    HW2 9574   4.324   1.192   1.762
 2370SOL     OW 9575   4.059   1.435   1.061
 2370SOL    HW1 9576   3.981   1.404   1.008
 2370SOL    HW2 9577   4.117   1.493   1.004
 2371SOL     OW 9578   4.162   0.392   1.499
 2371SOL    HW1 9579   4.244   0.336   1.508
 2371SOL    HW2 9580   4.081   0.334   1.503
 2372SOL     OW 9581   3.955   1.713   0.483
 2372SOL    HW1 9582   3.989   1.790   0.537
 2372SOL    HW2 9583   3.999   1.713   0.393
 2373SOL     OW 9584   4.851   1.341   1.690
 2373SOL    HW1 9585   4.898   1.341   1.778
 2373SOL    HW2 9586   4.803   1.254   1.679
 2374SOL     OW 9587   3.954   1.434   0.538
 2374SOL    HW1 9588   3.928   1.530   0.538
 2374SOL    HW2 9589   3.883   1.380   0.583
 2375SOL     OW 9590   3.964   1.091   0.886
 2375SOL    HW1 9591   3.978   1.007   0.938
 2375SOL    HW2 9592   3.909   1.155   0.941
 2376SOL     OW 9593   4.344   1.786   1.439
 2376SOL    HW1 9594   4.252   1.769   1.474
 2376SOL    HW2 9595   4.372   1.878   1.465
 2377SOL     OW 9596   4.330   0.964   0.123
 2377SOL    HW1 9597   4.337   1.048   0.069
 2377SOL    HW2 9598   4.376   0.977   0.211
 2378SOL     OW 9599   3.846   0.643   0.563
 2378SOL    HW1 9600   3.801   0.555   0.580
 2378SOL    HW2 9601   3.845   0.697   0.647
 2379SOL     OW 9602   3.837   0.737   1.597
 2379SOL    HW1 9603   3.925   0.724   1.642
 2379SOL    HW2 9604   3.824   0.834   1.575
 2380SOL     OW 9605   4.337   1.365   0.726
 2380SOL    HW1 9606   4.288   1.278   0.735
 2380SOL    HW2 9607   4.314   1.408   0.639
 2381SOL     OW 9608   5.017   1.228   1.423
 2381SOL    HW1 9609   5.054   1.155   1.365
 2381SOL    HW2 9610   5.069   1.233   1.508
 2382SOL     OW 9611   4.533   0.004   0.502
 2382SOL    HW1 9612   4.573   0.095   0.493
 2382SOL    HW2 9613   4.433   0.012   0.508
 2383SOL     OW 9614   3.921   0.976   1.264
 2383SOL    HW1 9615   4.010   0.931   1.250
 2383SOL    HW2 9616   3.848   0.911   1.245
 2384SOL     OW 9617   4.911   1.792   1.616
 2384SOL    HW1 9618   4.935   1.852   1.540
 2384SOL    HW2 9619   4.918   1.697   1.586
 2385SOL     OW 9620   4.041   0.251   1.801
 2385SOL    HW1 9621   4.112   0.322   1.807
 2385SOL    HW2 9622   3.953   0.290   1.829
 2386SOL     OW 9623   4.322   0.729   0.270
 2386SOL    HW1 9624   4.346   0.798   0.202
 2386SOL    HW2 9625   4.244   0.762   0.324
 2387SOL     OW 9626   5.005   0.345   0.944
 2387SOL    HW1 9627   4.919   0.295   0.931
 2387SOL    HW2 9628   5.067   0.291   1.000
 2388SOL     OW 9629   4.715   0.410   1.242
 2388SOL    HW1 9630   4.638   0.444   1.296
 2388SOL    HW2 9631   4.681   0.359   1.163
 2389SOL     OW 9632   4.765   0.701   0.429
 2389SOL    HW1 9633   4.791   0.697   0.525
 2389SOL    HW2 9634   4.680   0.650   0.415
 2390SOL     OW 9635   3.800   0.811   0.789
 2390SOL    HW1 9636   3.899   0.799   0.798
 2390SOL    HW2 9637   3.776   0.906   0.810
 2391SOL     OW 9638   3.854   1.821   1.571
 2391SOL    HW1 9639   3.844   1.806   1.670
 2391SOL    HW2 9640   3.768   1.857   1.535
 2392SOL     OW 9641   4.589   0.348   0.195
 2392SOL    HW1 9642   4.648   0.411   0.146
 2392SOL    HW2 9643   4.608   0.254   0.166
 2393SOL     OW 9644   4.274   0.196   0.885
 2393SOL    HW1 9645   4.269   0.191   0.985
 2393SOL    HW2 9646   4.276   0.292   0.856
 2394SOL     OW 9647   4.732   1.456   0.477
 2394SOL    HW1 9648   4.686   1.528   0.425
 2394SOL    HW2 9649   4.728   1.476   0.575
 2395SOL     OW 9650   4.075   1.801   0.853
 2395SOL    HW1 9651   4.125   1.715   0.859
 2395SOL    HW2 9652   4.140   1.878   0.850
 2396SOL     OW 9653   4.951   1.550   1.506
 2396SOL    HW1 9654   4.957   1.473   1.570
 2396SOL    HW2 9655   4.899   1.524   1.426
 2397SOL     OW 9656   4.045   0.943   0.242
 2397SOL    HW1 9657   4.127   0.982   0.200
 2397SOL    HW2 9658   4.018   0.861   0.193
 2398SOL     OW 9659   4.185   1.266   1.727
 2398SOL    HW1 9660   4.135   1.267   1.641
 2398SOL    HW2 9661   4.122   1.248   1.803
 2399SOL     OW 9662   4.835   1.776   0.237
 2399SOL    HW1 9663   4.775   1.714   0.287
 2399SOL    HW2 9664   4.866   1.732   0.152
 2400SOL     OW 9665   3.926   0.285   1.498
 2400SOL    HW1 9666   3.846   0.345   1.485
 2400SOL    HW2 9667   3.916   0.236   1.584
 2401SOL     OW 9668   5.356   1.377   0.081
 2401SOL    HW1 9669   5.324   1.471   0.071
 2401SOL    HW2 9670   5.280   1.314   0.069
 2402SOL     OW 9671   3.973   1.785   1.241
 2402SOL    HW1 9672   4.030   1.720   1.291
 2402SOL    HW2 9673   3.957   1.752   1.148
 2403SOL     OW 9674   4.664   1.698   0.904
 2403SOL    HW1 9675   4.744   1.641   0.925
 2403SOL    HW2 9676   4.615   1.658   0.827
 2404SOL     OW 9677   4.106   0.700   0.480
 2404SOL    HW1 9678   4.151   0.610   0.477
 2404SOL    HW2 9679   4.012   0.689   0.513
 2405SOL     OW 9680   4.612   1.514   1.195
 2405SOL    HW1 9681   4.589   1.489   1.101
 2405SOL    HW2 9682   4.673   1.445   1.234
 2406SOL     OW 9683   4.527   1.402   0.924
 2406SOL    HW1 9684   4.617   1.416   0.882
 2406SOL    HW2 9685   4.456   1.404   0.853
 2407SOL     OW 9686   4.263   0.064   0.512
 2407SOL    HW1 9687   4.182   0.065   0.570
 2407SOL    HW2 9688   4.266   0.147   0.457
 2408SOL     OW 9689   4.800   0.683   1.464
 2408SOL    HW1 9690   4.720   0.622   1.467
 2408SOL    HW2 9691   4.881   0.630   1.440
 2409SOL     OW 9692   4.951   1.570   0.793
 2409SOL    HW1 9693   4.972   1.644   0.728
 2409SOL    HW2 9694   5.019   1.570   0.866
 2410SOL     OW 9695   4.183   1.152   0.741
 2410SOL    HW1 9696   4.112   1.125   0.806
 2410SOL    HW2 9697   4.157   1.124   0.648
 2411SOL     OW 9698   4.756   0.549   0.016
 2411SOL    HW1 9699   4.715   0.631  -0.023
 2411SOL    HW2 9700   4.820   0.575   0.089
 2412SOL     OW 9701   3.802   0.556   1.386
 2412SOL    HW1 9702   3.894   0.555   1.345
 2412SOL    HW2 9703   3.796   0.630   1.453
 2413SOL     OW 9704   4.285   0.222   1.147
 2413SOL    HW1 9705   4.323   0.138   1.184
 2413SOL    HW2 9706   4.197   0.241   1.191
 2414SOL     OW 9707   4.741   0.039   0.753
 2414SOL    HW1 9708   4.669   0.044   0.684
 2414SOL    HW2 9709   4.717  -0.030   0.822
 2415SOL     OW 9710   4.212   1.385   0.174
 2415SOL    HW1 9711   4.125   1.370   0.221
 2415SOL    HW2 9712   4.195   1.411   0.079
 2416SOL     OW 9713   4.251   0.256   0.328
 2416SOL    HW1 9714   4.278   0.197   0.253
 2416SOL    HW2 9715   4.251   0.351   0.297
 2417SOL     OW 9716   4.788   1.347   1.340
 2417SOL    HW1 9717   4.708   1.324   1.395
 2417SOL    HW2 9718   4.871   1.321   1.389
 2418SOL     OW 9719   4.134   0.813   1.251
 2418SOL    HW1 9720   4.220   0.825   1.301
 2418SOL    HW2 9721   4.092   0.726   1.278
 2419SOL     OW 9722   4.998   0.386   1.262
 2419SOL    HW1 9723   5.019   0.460   1.326
 2419SOL    HW2 9724   4.909   0.403   1.219
 2420SOL     OW 9725   3.788   1.564   1.331
 2420SOL    HW1 9726   3.742   1.646   1.297
 2420SOL    HW2 9727   3.886   1.583   1.340
 2421SOL     OW 9728   4.091   1.100   0.501
 2421SOL    HW1 9729   4.084   1.183   0.445
 2421SOL    HW2 9730   4.095   1.020   0.441
 2422SOL     OW 9731   4.976   1.348   0.388
 2422SOL    HW1 9732   5.026   1.425   0.428
 2422SOL    HW2 9733   4.881   1.350   0.420
 2423SOL     OW 9734   4.078   1.510   1.329
 2423SOL    HW1 9735   4.057   1.466   1.242
 2423SOL    HW2 9736   4.175   1.536   1.332
 2424SOL     OW 9737   4.126   0.751   1.598
 2424SOL    HW1 9738   4.194   0.806   1.551
 2424SOL    HW2 9739   4.166   0.663   1.625
 2425SOL     OW 9740   4.228   0.050   1.740
 2425SOL    HW1 9741   4.186  -0.007   1.670
 2425SOL    HW2 9742   4.162   0.119   1.772
 2426SOL     OW 9743   4.933   0.525   0.275
 2426SOL    HW1 9744   4.946   0.441   0.329
 2426SOL    HW2 9745   4.904   0.599   0.335
 2427SOL     OW 9746   4.031   0.213   1.231
 2427SOL    HW1 9747   4.008   0.250   1.321
 2427SOL    HW2 9748   4.001   0.118   1.225
 2428SOL     OW 9749   3.761   1.310   1.282
 2428SOL    HW1 9750   3.814   1.261   1.350
 2428SOL    HW2 9751   3.783   1.408   1.287
 2429SOL     OW 9752   4.031   0.063   0.618
 2429SOL    HW1 9753   4.020   0.157   0.651
 2429SOL    HW2 9754   4.026   0.000   0.695
 2430SOL     OW 9755   4.704   1.573   1.700
 2430SOL    HW1 9756   4.684   1.617   1.612
 2430SOL    HW2 9757   4.743   1.482   1.684
 2431SOL     OW 9758   5.027   0.838   0.042
 2431SOL    HW1 9759   5.061   0.745   0.057
 2431SOL    HW2 9760   5.045   0.865  -0.053
 2432SOL     OW 9761   4.792   1.333   0.849
 2432SOL    HW1 9762   4.799   1.249   0.794
 2432SOL    HW2 9763   4.854   1.402   0.813
 2433SOL     OW 9764   4.063   0.509   1.006
 2433SOL    HW1 9765   4.011   0.426   0.989
 2433SOL    HW2 9766   4.140   0.514   0.942
 2434SOL     OW 9767   3.812   1.801   0.927
 2434SOL    HW1 9768   3.770   1.715   0.900
 2434SOL    HW2 9769   3.906   1.804   0.893
 2435SOL     OW 9770   4.228   1.568   0.910
 2435SOL    HW1 9771   4.294   1.642   0.919
 2435SOL    HW2 9772   4.272   1.489   0.868
 2436SOL     OW 9773   4.726   0.796   1.238
 2436SOL    HW1 9774   4.767   0.764   1.324
 2436SOL    HW2 9775   4.630   0.769   1.235
 2437SOL     OW 9776   3.764   0.544   1.114
 2437SOL    HW1 9777   3.849   0.511   1.073
 2437SOL    HW2 9778   3.777   0.559   1.212
 2438SOL     OW 9779   3.913   0.520   1.722
 2438SOL    HW1 9780   3.972   0.480   1.652
 2438SOL    HW2 9781   3.855   0.591   1.681
 2439SOL     OW 9782   3.976   1.564   1.744
 2439SOL    HW1 9783   3.946   1.621   1.820
 2439SOL    HW2 9784   3.969   1.467   1.770
 2440SOL     OW 9785   4.654   1.678   1.465
 2440SOL    HW1 9786   4.630   1.660   1.370
 2440SOL    HW2 9787   4.684   1.772   1.475
 2441SOL     OW 9788   4.197   0.500   0.191
 2441SOL    HW1 9789   4.258   0.580   0.195
 2441SOL    HW2 9790   4.102   0.531   0.198
 2442SOL     OW 9791   3.883   1.137   1.466
 2442SOL    HW1 9792   3.905   1.076   1.542
 2442SOL    HW2 9793   3.893   1.088   1.380
 2443SOL     OW 9794   4.976   1.731   1.128
 2443SOL    HW1 9795   5.060   1.736   1.074
 2443SOL    HW2 9796   4.953   1.635   1.146
 2444SOL     OW 9797   3.807   1.258   1.022
 2444SOL    HW1 9798   3.802   1.257   1.122
 2444SOL    HW2 9799   3.724   1.217   0.984
 2445SOL     OW 9800   4.412   1.662   1.716
 2445SOL    HW1 9801   4.356   1.743   1.725
 2445SOL    HW2 9802   4.464   1.666   1.630
 2446SOL     OW 9803   5.112   1.573   0.477
 2446SOL    HW1 9804   5.179   1.585   0.403
 2446SOL    HW2 9805   5.072   1.662   0.500
 2447SOL     OW 9806   4.554   1.273   1.422
 2447SOL    HW1 9807   4.549   1.306   1.517
 2447SOL    HW2 9808   4.468   1.292   1.376
 2448SOL     OW 9809   3.987   0.326   0.720
 2448SOL    HW1 9810   3.908   0.377   0.686
 2448SOL    HW2 9811   3.978   0.311   0.818
 2449SOL     OW 9812   4.918   1.612   0.031
 2449SOL    HW1 9813   4.924   1.519   0.068
 2449SOL    HW2 9814   4.859   1.612  -0.049
 2450SOL     OW 9815   4.546   1.002   1.372
 2450SOL    HW1 9816   4.586   1.001   1.280
 2450SOL    HW2 9817   4.556   1.094   1.412
 2451SOL     OW 9818   4.640   0.910   0.291
 2451SOL    HW1 9819   4.703   0.948   0.223
 2451SOL    HW2 9820   4.680   0.827   0.330
 2452SOL     OW 9821   4.096   1.288   1.490
 2452SOL    HW1 9822   4.083   1.381   1.456
 2452SOL    HW2 9823   4.012   1.236   1.477
 2453SOL     OW 9824   4.763   1.098   0.696
 2453SOL    HW1 9825   4.693   1.051   0.750
 2453SOL    HW2 9826   4.822   1.030   0.653
 2454SOL     OW 9827   4.738   0.236   0.971
 2454SOL    HW1 9828   4.730   0.200   0.878
 2454SOL    HW2 9829   4.736   0.160   1.036
 2455SOL     OW 9830   4.314   1.487   0.491
 2455SOL    HW1 9831   4.356   1.429   0.421
 2455SOL    HW2 9832   4.270   1.566   0.447
 2456SOL     OW 9833   3.979   1.348   0.290
 2456SOL    HW1 9834   3.883   1.349   0.263
 2456SOL    HW2 9835   3.991   1.401   0.374
 2457SOL     OW 9836   3.829   1.013   1.726
 2457SOL    HW1 9837   3.752   0.980   1.780
 2457SOL    HW2 9838   3.914   0.983   1.768
 2458SOL     OW 9839   4.396   0.203   1.489
 2458SOL    HW1 9840   4.486   0.187   1.449
 2458SOL    HW2 9841   4.404   0.208   1.588
 2459SOL     OW 9842   5.164   0.856   1.398
 2459SOL    HW1 9843   5.107   0.908   1.335
 2459SOL    HW2 9844   5.260   0.868   1.374
 2460SOL     OW 9845   3.796   0.166   0.318
 2460SOL    HW1 9846   3.779   0.249   0.264
 2460SOL    HW2 9847   3.886   0.129   0.296
 2461SOL     OW 9848   4.337   0.842   1.431
 2461SOL    HW1 9849   4.393   0.923   1.414
 2461SOL    HW2 9850   4.396   0.762   1.434
 2462SOL     OW 9851   4.114   1.741   1.560
 2462SOL    HW1 9852   4.023   1.782   1.558
 2462SOL    HW2 9853   4.107   1.647   1.592
 2463SOL     OW 9854   4.583   1.374   0.016
 2463SOL    HW1 9855   4.537   1.389   0.104
 2463SOL    HW2 9856   4.627   1.459  -0.014
 2464SOL     OW 9857   4.385   1.790   0.953
 2464SOL    HW1 9858   4.339   1.878   0.940
 2464SOL    HW2 9859   4.484   1.802   0.946
 2465SOL     OW 9860   4.807   0.984   0.087
 2465SOL    HW1 9861   4.784   1.037   0.005
 2465SOL    HW2 9862   4.888   0.928   0.068
 2466SOL     OW 9863   3.945   1.314   1.844
 2466SOL    HW1 9864   3.880   1.241   1.823
 2466SOL    HW2 9865   3.949   1.328   1.942
 2467SOL     OW 9866   3.803   1.240   0.653
 2467SOL    HW1 9867   3.802   1.193   0.741
 2467SOL    HW2 9868   3.885   1.212   0.602
 2468SOL     OW 9869   4.396   1.391   1.624
 2468SOL    HW1 9870   4.318   1.341   1.662
 2468SOL    HW2 9871   4.393   1.486   1.655
 2469SOL     OW 9872   4.152   0.424   0.520
 2469SOL    HW1 9873   4.182   0.352   0.458
 2469SOL    HW2 9874   4.113   0.384   0.603
 2470SOL     OW 9875   4.041   0.547   1.280
 2470SOL    HW1 9876   4.079   0.488   1.352
 2470SOL    HW2 9877   4.081   0.521   1.192
 2471SOL     OW 9878   4.536   1.586   0.687
 2471SOL    HW1 9879   4.568   1.596   0.593
 2471SOL    HW2 9880   4.457   1.524   0.689
 2472SOL     OW 9881   4.725   0.034   1.154
 2472SOL    HW1 9882   4.662  -0.038   1.123
 2472SOL    HW2 9883   4.818  -0.002   1.154
 2473SOL     OW 9884   4.494   1.330   0.301
 2473SOL    HW1 9885   4.448   1.243   0.318
 2473SOL    HW2 9886   4.585   1.327   0.342
 2474SOL     OW 9887   4.342   1.567   1.284
 2474SOL    HW1 9888   4.337   1.649   1.341
 2474SOL    HW2 9889   4.431   1.564   1.239
 2475SOL     OW 9890   3.763   1.077   0.300
 2475SOL    HW1 9891   3.862   1.066   0.291
 2475SOL    HW2 9892   3.723   0.991   0.332
 2476SOL     OW 9893   4.599   1.646   0.337
 2476SOL    HW1 9894   4.522   1.611   0.283
 2476SOL    HW2 9895   4.567   1.717   0.399
 2477SOL     OW 9896   3.954   0.628   1.975
 2477SOL    HW1 9897   3.861   0.626   2.012
 2477SOL    HW2 9898   3.955   0.589   1.883
 2478SOL     OW 9899   3.743   0.368   2.509
 2478SOL    HW1 9900   3.661   0.411   2.548
 2478SOL    HW2 9901   3.715   0.295   2.446
 2479SOL     OW 9902   4.293   1.275   3.027
 2479SOL    HW1 9903   4.200   1.268   2.990
 2479SOL    HW2 9904   4.304   1.364   3.071
 2480SOL     OW 9905   4.492   1.144   2.885
 2480SOL    HW1 9906   4.414   1.161   2.945
 2480SOL    HW2 9907   4.526   1.231   2.849
 2481SOL     OW 9908   4.574   0.798   3.685
 2481SOL    HW1 9909   4.570   0.874   3.750
 2481SOL    HW2 9910   4.596   0.834   3.594
 2482SOL     OW 9911   4.410   1.161   3.665
 2482SOL    HW1 9912   4.470   1.240   3.679
 2482SOL    HW2 9913   4.324   1.192   3.624
 2483SOL     OW 9914   4.059   1.435   2.923
 2483SOL    HW1 9915   3.981   1.404   2.870
 2483SOL    HW2 9916   4.117   1.493   2.866
 2484SOL     OW 9917   4.851   1.341   3.552
 2484SOL    HW1 9918   4.898   1.341   3.640
 2484SOL    HW2 9919   4.803   1.254   3.541
 2485SOL     OW 9920   3.964   1.091   2.748
 2485SOL    HW1 9921   3.978   1.007   2.800
 2485SOL    HW2 9922   3.909   1.155   2.803
 2486SOL     OW 9923   4.330   0.964   1.985
 2486SOL    HW1 9924   4.337   1.048   1.931
 2486SOL    HW2 9925   4.376   0.977   2.073
 2487SOL     OW 9926   3.846   0.643   2.425
 2487SOL    HW1 9927   3.801   0.555   2.442
 2487SOL    HW2 9928   3.845   0.697   2.509
 2488SOL     OW 9929   3.751   1.596   1.979
 2488SOL    HW1 9930   3.732   1.500   2.000
 2488SOL    HW2 9931   3.718   1.654   2.054
 2489SOL     OW 9932   3.837   0.737   3.459
 2489SOL    HW1 9933   3.925   0.724   3.504
 2489SOL    HW2 9934   3.824   0.834   3.437
 2490SOL     OW 9935   4.337   1.365   2.588
 2490SOL    HW1 9936   4.288   1.278   2.597
 2490SOL    HW2 9937   4.314   1.408   2.501
 2491SOL     OW 9938   5.017   1.228   3.285
 2491SOL    HW1 9939   5.054   1.155   3.227
 2491SOL    HW2 9940   5.069   1.233   3.370
 2492SOL     OW 9941   3.921   0.976   3.126
 2492SOL    HW1 9942   4.010   0.931   3.112
 2492SOL    HW2 9943   3.848   0.911   3.107
 2493SOL     OW 9944   4.041   0.251   3.663
 2493SOL    HW1 9945   4.112   0.322   3.669
 2493SOL    HW2 9946   3.953   0.290   3.691
 2494SOL     OW 9947   5.005   0.345   2.806
 2494SOL    HW1 9948   4.919   0.295   2.793
 2494SOL    HW2 9949   5.067   0.291   2.862
 2495SOL     OW 9950   4.531   0.605   3.327
 2495SOL    HW1 9951   4.484   0.602   3.416
 2495SOL    HW2 9952   4.480   0.550   3.261
 2496SOL     OW 9953   4.697   0.890   3.434
 2496SOL    HW1 9954   4.743   0.806   3.405
 2496SOL    HW2 9955   4.641   0.924   3.359
 2497SOL     OW 9956   4.715   0.410   3.104
 2497SOL    HW1 9957   4.638   0.444   3.158
 2497SOL    HW2 9958   4.681   0.359   3.025
 2498SOL     OW 9959   4.765   0.701   2.291
 2498SOL    HW1 9960   4.791   0.697   2.387
 2498SOL    HW2 9961   4.680   0.650   2.277
 2499SOL     OW 9962   3.800   0.811   2.651
 2499SOL    HW1 9963   3.899   0.799   2.660
 2499SOL    HW2 9964   3.776   0.906   2.672
 2500SOL     OW 9965   3.854   1.821   3.433
 2500SOL    HW1 9966   3.844   1.806   3.532
 2500SOL    HW2 9967   3.768   1.857   3.397
 2501SOL     OW 9968   4.589   0.348   2.057
 2501SOL    HW1 9969   4.648   0.411   2.008
 2501SOL    HW2 9970   4.608   0.254   2.028
 2502SOL     OW 9971   4.274   0.196   2.747
 2502SOL    HW1 9972   4.269   0.191   2.847
 2502SOL    HW2 9973   4.276   0.292   2.718
 2503SOL     OW 9974   4.075   1.801   2.715
 2503SOL    HW1 9975   4.125   1.715   2.721
 2503SOL    HW2 9976   4.140   1.878   2.712
 2504SOL     OW 9977   4.951   1.550   3.368
 2504SOL    HW1 9978   4.957   1.473   3.432
 2504SOL    HW2 9979   4.899   1.524   3.288
 2505SOL     OW 9980   4.045   0.943   2.104
 2505SOL    HW1 9981   4.127   0.982   2.062
 2505SOL    HW2 9982   4.018   0.861   2.055
 2506SOL     OW 9983   4.185   1.266   3.589
 2506SOL    HW1 9984   4.135   1.267   3.503
 2506SOL    HW2 9985   4.122   1.248   3.665
 2507SOL     OW 9986   4.835   1.776   2.099
 2507SOL    HW1 9987   4.775   1.714   2.149
 2507SOL    HW2 9988   4.866   1.732   2.014
 2508SOL     OW 9989   3.926   0.285   3.360
 2508SOL    HW1 9990   3.846   0.345   3.347
 2508SOL    HW2 9991   3.916   0.236   3.446
 2509SOL     OW 9992   4.188   1.743   2.185
 2509SOL    HW1 9993   4.221   1.782   2.271
 2509SOL    HW2 9994   4.264   1.736   2.120
 2510SOL     OW 9995   3.973   1.785   3.103
 2510SOL    HW1 9996   4.030   1.720   3.153
 2510SOL    HW2 9997   3.957   1.752   3.010
 2511SOL     OW 9998   4.338   0.122   1.979
 2511SOL    HW1 9999   4.436   0.100   1.986
 2511SOL    HW210000   4.307   0.105   1.886
 2512SOL     OW10001   4.612   1.514   3.057
 2512SOL    HW110002   4.589   1.489   2.963
 2512SOL    HW210003   4.673   1.445   3.096
 2513SOL     OW10004   4.646   0.503   2.761
 2513SOL    HW110005   4.621   0.494   2.665
 2513SOL    HW210006   4.694   0.421   2.792
 2514SOL     OW10007   4.263   0.064   2.374
 2514SOL    HW110008   4.182   0.065   2.432
 2514SOL    HW210009   4.266   0.147   2.319
 2515SOL     OW10010   4.021   0.035   2.033
 2515SOL    HW110011   4.070   0.119   2.012
 2515SOL    HW210012   4.083  -0.030   2.078
 2516SOL     OW10013   4.659   0.236   2.342
 2516SOL    HW110014   4.611   0.277   2.264
 2516SOL    HW210015   4.758   0.234   2.323
 2517SOL     OW10016   4.800   0.683   3.326
 2517SOL    HW110017   4.720   0.622   3.329
 2517SOL    HW210018   4.881   0.630   3.302
 2518SOL     OW10019   4.995   1.797   2.453
 2518SOL    HW110020   5.039   1.861   2.389
 2518SOL    HW210021   4.945   1.849   2.523
 2519SOL     OW10022   3.802   0.556   3.248
 2519SOL    HW110023   3.894   0.555   3.207
 2519SOL    HW210024   3.796   0.630   3.315
 2520SOL     OW10025   4.590   0.454   2.504
 2520SOL    HW110026   4.558   0.526   2.442
 2520SOL    HW210027   4.614   0.373   2.451
 2521SOL     OW10028   4.212   1.385   2.036
 2521SOL    HW110029   4.125   1.370   2.083
 2521SOL    HW210030   4.195   1.411   1.941
 2522SOL     OW10031   5.388   1.280   2.519
 2522SOL    HW110032   5.487   1.288   2.533
 2522SOL    HW210033   5.343   1.364   2.550
 2523SOL     OW10034   4.251   0.256   2.190
 2523SOL    HW110035   4.278   0.197   2.115
 2523SOL    HW210036   4.251   0.351   2.159
 2524SOL     OW10037   4.788   1.347   3.202
 2524SOL    HW110038   4.708   1.324   3.257
 2524SOL    HW210039   4.871   1.321   3.251
 2525SOL     OW10040   4.639   0.089   3.264
 2525SOL    HW110041   4.664   0.069   3.169
 2525SOL    HW210042   4.711   0.145   3.306
 2526SOL     OW10043   4.704   1.116   3.581
 2526SOL    HW110044   4.605   1.122   3.591
 2526SOL    HW210045   4.727   1.036   3.525
 2527SOL     OW10046   4.998   0.386   3.124
 2527SOL    HW110047   5.019   0.460   3.188
 2527SOL    HW210048   4.909   0.403   3.081
 2528SOL     OW10049   3.788   1.564   3.193
 2528SOL    HW110050   3.742   1.646   3.159
 2528SOL    HW210051   3.886   1.583   3.202
 2529SOL     OW10052   4.091   1.100   2.363
 2529SOL    HW110053   4.084   1.183   2.307
 2529SOL    HW210054   4.095   1.020   2.303
 2530SOL     OW10055   4.976   1.348   2.250
 2530SOL    HW110056   5.026   1.425   2.290
 2530SOL    HW210057   4.881   1.350   2.282
 2531SOL     OW10058   4.078   1.510   3.191
 2531SOL    HW110059   4.057   1.466   3.104
 2531SOL    HW210060   4.175   1.536   3.194
 2532SOL     OW10061   4.737   0.105   3.632
 2532SOL    HW110062   4.743   0.190   3.580
 2532SOL    HW210063   4.769   0.029   3.575
 2533SOL     OW10064   5.084   0.862   2.907
 2533SOL    HW110065   5.009   0.862   2.841
 2533SOL    HW210066   5.121   0.770   2.916
 2534SOL     OW10067   3.761   1.310   3.144
 2534SOL    HW110068   3.814   1.261   3.212
 2534SOL    HW210069   3.783   1.408   3.149
 2535SOL     OW10070   4.031   0.063   2.480
 2535SOL    HW110071   4.020   0.157   2.513
 2535SOL    HW210072   4.026   0.000   2.557
 2536SOL     OW10073   4.704   1.573   3.562
 2536SOL    HW110074   4.684   1.617   3.474
 2536SOL    HW210075   4.743   1.482   3.546
 2537SOL     OW10076   4.074   0.898   3.666
 2537SOL    HW110077   4.150   0.942   3.714
 2537SOL    HW210078   4.109   0.851   3.584
 2538SOL     OW10079   5.027   0.838   1.904
 2538SOL    HW110080   5.061   0.745   1.919
 2538SOL    HW210081   5.045   0.865   1.809
 2539SOL     OW10082   4.063   0.509   2.868
 2539SOL    HW110083   4.011   0.426   2.851
 2539SOL    HW210084   4.140   0.514   2.804
 2540SOL     OW10085   4.862   0.380   3.540
 2540SOL    HW110086   4.817   0.443   3.604
 2540SOL    HW210087   4.955   0.411   3.523
 2541SOL     OW10088   4.884   0.207   3.339
 2541SOL    HW110089   4.884   0.271   3.416
 2541SOL    HW210090   4.912   0.255   3.256
 2542SOL     OW10091   3.732   1.326   2.062
 2542SOL    HW110092   3.639   1.347   2.031
 2542SOL    HW210093   3.742   1.227   2.075
 2543SOL     OW10094   4.726   0.796   3.100
 2543SOL    HW110095   4.767   0.764   3.186
 2543SOL    HW210096   4.630   0.769   3.097
 2544SOL     OW10097   3.764   0.544   2.976
 2544SOL    HW110098   3.849   0.511   2.935
 2544SOL    HW210099   3.777   0.559   3.074
 2545SOL     OW10100   3.913   0.520   3.584
 2545SOL    HW110101   3.972   0.480   3.514
 2545SOL    HW210102   3.855   0.591   3.543
 2546SOL     OW10103   4.539   0.572   2.187
 2546SOL    HW110104   4.546   0.483   2.141
 2546SOL    HW210105   4.445   0.606   2.179
 2547SOL     OW10106   3.976   1.564   3.606
 2547SOL    HW110107   3.946   1.621   3.682
 2547SOL    HW210108   3.969   1.467   3.632
 2548SOL     OW10109   4.395   0.464   3.131
 2548SOL    HW110110   4.361   0.375   3.101
 2548SOL    HW210111   4.421   0.518   3.051
 2549SOL     OW10112   3.883   1.137   3.328
 2549SOL    HW110113   3.905   1.076   3.404
 2549SOL    HW210114   3.893   1.088   3.242
 2550SOL     OW10115   5.071   1.059   3.096
 2550SOL    HW110116   5.095   0.996   3.022
 2550SOL    HW210117   4.981   1.099   3.078
 2551SOL     OW10118   3.807   1.258   2.884
 2551SOL    HW110119   3.802   1.257   2.984
 2551SOL    HW210120   3.724   1.217   2.846
 2552SOL     OW10121   5.112   1.573   2.339
 2552SOL    HW110122   5.179   1.585   2.265
 2552SOL    HW210123   5.072   1.662   2.362
 2553SOL     OW10124   3.854   1.794   3.713
 2553SOL    HW110125   3.813   1.720   3.766
 2553SOL    HW210126   3.918   1.845   3.771
 2554SOL     OW10127   5.004   0.927   2.534
 2554SOL    HW110128   5.064   0.846   2.536
 2554SOL    HW210129   5.044   0.996   2.474
 2555SOL     OW10130   4.554   1.273   3.284
 2555SOL    HW110131   4.549   1.306   3.379
 2555SOL    HW210132   4.468   1.292   3.238
 2556SOL     OW10133   4.396   1.616   2.016
 2556SOL    HW110134   4.405   1.626   1.917
 2556SOL    HW210135   4.356   1.527   2.037
 2557SOL     OW10136   3.987   0.326   2.582
 2557SOL    HW110137   3.908   0.377   2.548
 2557SOL    HW210138   3.978   0.311   2.680
 2558SOL     OW10139   4.918   1.612   1.893
 2558SOL    HW110140   4.924   1.519   1.930
 2558SOL    HW210141   4.859   1.612   1.813
 2559SOL     OW10142   4.546   1.002   3.234
 2559SOL    HW110143   4.586   1.001   3.142
 2559SOL    HW210144   4.556   1.094   3.274
 2560SOL     OW10145   4.096   1.288   3.352
 2560SOL    HW110146   4.083   1.381   3.318
 2560SOL    HW210147   4.012   1.236   3.339
 2561SOL     OW10148   4.738   0.236   2.833
 2561SOL    HW110149   4.730   0.200   2.740
 2561SOL    HW210150   4.736   0.160   2.898
 2562SOL     OW10151   4.314   1.487   2.353
 2562SOL    HW110152   4.356   1.429   2.283
 2562SOL    HW210153   4.270   1.566   2.309
 2563SOL     OW10154   3.979   1.348   2.152
 2563SOL    HW110155   3.883   1.349   2.125
 2563SOL    HW210156   3.991   1.401   2.236
 2564SOL     OW10157   3.829   1.013   3.588
 2564SOL    HW110158   3.752   0.980   3.642
 2564SOL    HW210159   3.914   0.983   3.630
 2565SOL     OW10160   3.799   0.345   1.895
 2565SOL    HW110161   3.707   0.317   1.866
 2565SOL    HW210162   3.830   0.422   1.839
 2566SOL     OW10163   5.164   0.856   3.260
 2566SOL    HW110164   5.107   0.908   3.197
 2566SOL    HW210165   5.260   0.868   3.236
 2567SOL     OW10166   4.337   0.842   3.293
 2567SOL    HW110167   4.393   0.923   3.276
 2567SOL    HW210168   4.396   0.762   3.296
 2568SOL     OW10169   4.440   0.565   3.570
 2568SOL    HW110170   4.459   0.630   3.644
 2568SOL    HW210171   4.500   0.485   3.579
 2569SOL     OW10172   4.114   1.741   3.422
 2569SOL    HW110173   4.023   1.782   3.420
 2569SOL    HW210174   4.107   1.647   3.454
 2570SOL     OW10175   4.583   1.374   1.878
 2570SOL    HW110176   4.537   1.389   1.966
 2570SOL    HW210177   4.627   1.459   1.848
 2571SOL     OW10178   4.807   0.984   1.949
 2571SOL    HW110179   4.784   1.037   1.867
 2571SOL    HW210180   4.888   0.928   1.930
 2572SOL     OW10181   3.945   1.314   3.706
 2572SOL    HW110182   3.880   1.241   3.685
 2572SOL    HW210183   3.949   1.328   3.804
 2573SOL     OW10184   3.803   1.240   2.515
 2573SOL    HW110185   3.802   1.193   2.603
 2573SOL    HW210186   3.885   1.212   2.464
 2574SOL     OW10187   4.725   0.034   3.016
 2574SOL    HW110188   4.662  -0.038   2.985
 2574SOL    HW210189   4.818  -0.002   3.016
 2575SOL     OW10190   4.494   1.330   2.163
 2575SOL    HW110191   4.448   1.243   2.180
 2575SOL    HW210192   4.585   1.327   2.204
 2576SOL     OW10193   4.342   1.567   3.146
 2576SOL    HW110194   4.337   1.649   3.203
 2576SOL    HW210195   4.431   1.564   3.101
 2577SOL     OW10196   3.763   1.077   2.162
 2577SOL    HW110197   3.862   1.066   2.153
 2577SOL    HW210198   3.723   0.991   2.194
 2578SOL     OW10199   4.599   1.646   2.199
 2578SOL    HW110200   4.522   1.611   2.145
 2578SOL    HW210201   4.567   1.717   2.261
 2579SOL     OW10202   3.954   0.628   3.837
 2579SOL    HW110203   3.861   0.626   3.874
 2579SOL    HW210204   3.955   0.589   3.745
 2580SOL     OW10205   3.949   0.275   4.720
 2580SOL    HW110206   3.984   0.258   4.812
 2580SOL    HW210207   3.861   0.230   4.708
 2581SOL     OW10208   3.743   0.368   4.371
 2581SOL    HW110209   3.661   0.411   4.410
 2581SOL    HW210210   3.715   0.295   4.308
 2582SOL     OW10211   4.293   1.275   4.889
 2582SOL    HW110212   4.200   1.268   4.852
 2582SOL    HW210213   4.304   1.364   4.933
 2583SOL     OW10214   4.492   1.144   4.747
 2583SOL    HW110215   4.414   1.161   4.807
 2583SOL    HW210216   4.526   1.231   4.711
 2584SOL     OW10217   4.409   1.012   4.389
 2584SOL    HW110218   4.478   0.996   4.459
 2584SOL    HW210219   4.336   1.069   4.427
 2585SOL     OW10220   4.059   1.435   4.785
 2585SOL    HW110221   3.981   1.404   4.732
 2585SOL    HW210222   4.117   1.493   4.728
 2586SOL     OW10223   3.955   1.713   4.207
 2586SOL    HW110224   3.989   1.790   4.261
 2586SOL    HW210225   3.999   1.713   4.117
 2587SOL     OW10226   3.954   1.434   4.262
 2587SOL    HW110227   3.928   1.530   4.262
 2587SOL    HW210228   3.883   1.380   4.307
 2588SOL     OW10229   3.964   1.091   4.610
 2588SOL    HW110230   3.978   1.007   4.662
 2588SOL    HW210231   3.909   1.155   4.665
 2589SOL     OW10232   4.330   0.964   3.847
 2589SOL    HW110233   4.337   1.048   3.793
 2589SOL    HW210234   4.376   0.977   3.935
 2590SOL     OW10235   3.846   0.643   4.287
 2590SOL    HW110236   3.801   0.555   4.304
 2590SOL    HW210237   3.845   0.697   4.371
 2591SOL     OW10238   3.751   1.596   3.841
 2591SOL    HW110239   3.732   1.500   3.862
 2591SOL    HW210240   3.718   1.654   3.916
 2592SOL     OW10241   4.337   1.365   4.450
 2592SOL    HW110242   4.288   1.278   4.459
 2592SOL    HW210243   4.314   1.408   4.363
 2593SOL     OW10244   3.921   0.976   4.988
 2593SOL    HW110245   4.010   0.931   4.974
 2593SOL    HW210246   3.848   0.911   4.969
 2594SOL     OW10247   4.322   0.729   3.994
 2594SOL    HW110248   4.346   0.798   3.926
 2594SOL    HW210249   4.244   0.762   4.048
 2595SOL     OW10250   4.715   0.410   4.966
 2595SOL    HW110251   4.638   0.444   5.020
 2595SOL    HW210252   4.681   0.359   4.887
 2596SOL     OW10253   4.765   0.701   4.153
 2596SOL    HW110254   4.791   0.697   4.249
 2596SOL    HW210255   4.680   0.650   4.139
 2597SOL     OW10256   3.800   0.811   4.513
 2597SOL    HW110257   3.899   0.799   4.522
 2597SOL    HW210258   3.776   0.906   4.534
 2598SOL     OW10259   4.274   0.196   4.609
 2598SOL    HW110260   4.269   0.191   4.709
 2598SOL    HW210261   4.276   0.292   4.580
 2599SOL     OW10262   4.732   1.456   4.201
 2599SOL    HW110263   4.686   1.528   4.149
 2599SOL    HW210264   4.728   1.476   4.299
 2600SOL     OW10265   4.075   1.801   4.577
 2600SOL    HW110266   4.125   1.715   4.583
 2600SOL    HW210267   4.140   1.878   4.574
 2601SOL     OW10268   4.045   0.943   3.966
 2601SOL    HW110269   4.127   0.982   3.924
 2601SOL    HW210270   4.018   0.861   3.917
 2602SOL     OW10271   4.188   1.743   4.047
 2602SOL    HW110272   4.221   1.782   4.133
 2602SOL    HW210273   4.264   1.736   3.982
 2603SOL     OW10274   4.664   1.698   4.628
 2603SOL    HW110275   4.744   1.641   4.649
 2603SOL    HW210276   4.615   1.658   4.551
 2604SOL     OW10277   4.106   0.700   4.204
 2604SOL    HW110278   4.151   0.610   4.201
 2604SOL    HW210279   4.012   0.689   4.237
 2605SOL     OW10280   4.527   1.402   4.648
 2605SOL    HW110281   4.617   1.416   4.606
 2605SOL    HW210282   4.456   1.404   4.577
 2606SOL     OW10283   4.646   0.503   4.623
 2606SOL    HW110284   4.621   0.494   4.527
 2606SOL    HW210285   4.694   0.421   4.654
 2607SOL     OW10286   4.183   1.152   4.465
 2607SOL    HW110287   4.112   1.125   4.530
 2607SOL    HW210288   4.157   1.124   4.372
 2608SOL     OW10289   4.995   1.797   4.315
 2608SOL    HW110290   5.039   1.861   4.251
 2608SOL    HW210291   4.945   1.849   4.385
 2609SOL     OW10292   4.756   0.549   3.740
 2609SOL    HW110293   4.715   0.631   3.701
 2609SOL    HW210294   4.820   0.575   3.813
 2610SOL     OW10295   4.285   0.222   4.871
 2610SOL    HW110296   4.323   0.138   4.908
 2610SOL    HW210297   4.197   0.241   4.915
 2611SOL     OW10298   4.590   0.454   4.366
 2611SOL    HW110299   4.558   0.526   4.304
 2611SOL    HW210300   4.614   0.373   4.313
 2612SOL     OW10301   4.741   0.039   4.477
 2612SOL    HW110302   4.669   0.044   4.408
 2612SOL    HW210303   4.717  -0.030   4.546
 2613SOL     OW10304   5.316   1.629   5.349
 2613SOL    HW110305   5.343   1.663   5.259
 2613SOL    HW210306   5.395   1.591   5.395
 2614SOL     OW10307   4.429   1.050   4.092
 2614SOL    HW110308   4.415   1.057   4.191
 2614SOL    HW210309   4.513   0.999   4.074
 2615SOL     OW10310   4.134   0.813   4.975
 2615SOL    HW110311   4.220   0.825   5.025
 2615SOL    HW210312   4.092   0.726   5.002
 2616SOL     OW10313   4.091   1.100   4.225
 2616SOL    HW110314   4.084   1.183   4.169
 2616SOL    HW210315   4.095   1.020   4.165
 2617SOL     OW10316   4.290   0.537   4.589
 2617SOL    HW110317   4.302   0.603   4.515
 2617SOL    HW210318   4.336   0.571   4.672
 2618SOL     OW10319   4.976   1.348   4.112
 2618SOL    HW110320   5.026   1.425   4.152
 2618SOL    HW210321   4.881   1.350   4.144
 2619SOL     OW10322   4.078   1.510   5.053
 2619SOL    HW110323   4.057   1.466   4.966
 2619SOL    HW210324   4.175   1.536   5.056
 2620SOL     OW10325   4.297   0.870   4.753
 2620SOL    HW110326   4.341   0.959   4.744
 2620SOL    HW210327   4.234   0.870   4.830
 2621SOL     OW10328   5.084   0.862   4.769
 2621SOL    HW110329   5.009   0.862   4.703
 2621SOL    HW210330   5.121   0.770   4.778
 2622SOL     OW10331   4.933   0.525   3.999
 2622SOL    HW110332   4.946   0.441   4.053
 2622SOL    HW210333   4.904   0.599   4.059
 2623SOL     OW10334   4.031   0.213   4.955
 2623SOL    HW110335   4.008   0.250   5.045
 2623SOL    HW210336   4.001   0.118   4.949
 2624SOL     OW10337   3.761   1.310   5.006
 2624SOL    HW110338   3.814   1.261   5.074
 2624SOL    HW210339   3.783   1.408   5.011
 2625SOL     OW10340   4.456   0.634   4.788
 2625SOL    HW110341   4.515   0.608   4.712
 2625SOL    HW210342   4.428   0.730   4.777
 2626SOL     OW10343   4.031   0.063   4.342
 2626SOL    HW110344   4.020   0.157   4.375
 2626SOL    HW210345   4.026   0.000   4.419
 2627SOL     OW10346   4.747   0.766   4.690
 2627SOL    HW110347   4.762   0.787   4.786
 2627SOL    HW210348   4.717   0.671   4.681
 2628SOL     OW10349   5.027   0.838   3.766
 2628SOL    HW110350   5.061   0.745   3.781
 2628SOL    HW210351   5.045   0.865   3.671
 2629SOL     OW10352   4.043   0.810   4.673
 2629SOL    HW110353   4.136   0.846   4.678
 2629SOL    HW210354   4.037   0.725   4.725
 2630SOL     OW10355   4.063   0.509   4.730
 2630SOL    HW110356   4.011   0.426   4.713
 2630SOL    HW210357   4.140   0.514   4.666
 2631SOL     OW10358   4.884   0.207   5.201
 2631SOL    HW110359   4.884   0.271   5.278
 2631SOL    HW210360   4.912   0.255   5.118
 2632SOL     OW10361   3.732   1.326   3.924
 2632SOL    HW110362   3.639   1.347   3.893
 2632SOL    HW210363   3.742   1.227   3.937
 2633SOL     OW10364   3.812   1.801   4.651
 2633SOL    HW110365   3.770   1.715   4.624
 2633SOL    HW210366   3.906   1.804   4.617
 2634SOL     OW10367   4.228   1.568   4.634
 2634SOL    HW110368   4.294   1.642   4.643
 2634SOL    HW210369   4.272   1.489   4.592
 2635SOL     OW10370   4.726   0.796   4.962
 2635SOL    HW110371   4.767   0.764   5.048
 2635SOL    HW210372   4.630   0.769   4.959
 2636SOL     OW10373   3.764   0.544   4.838
 2636SOL    HW110374   3.849   0.511   4.797
 2636SOL    HW210375   3.777   0.559   4.936
 2637SOL     OW10376   4.395   0.464   4.993
 2637SOL    HW110377   4.361   0.375   4.963
 2637SOL    HW210378   4.421   0.518   4.913
 2638SOL     OW10379   4.654   1.678   5.189
 2638SOL    HW110380   4.630   1.660   5.094
 2638SOL    HW210381   4.684   1.772   5.199
 2639SOL     OW10382   5.071   1.059   4.958
 2639SOL    HW110383   5.095   0.996   4.884
 2639SOL    HW210384   4.981   1.099   4.940
 2640SOL     OW10385   4.976   1.731   4.852
 2640SOL    HW110386   5.060   1.736   4.798
 2640SOL    HW210387   4.953   1.635   4.870
 2641SOL     OW10388   3.807   1.258   4.746
 2641SOL    HW110389   3.802   1.257   4.846
 2641SOL    HW210390   3.724   1.217   4.708
 2642SOL     OW10391   5.112   1.573   4.201
 2642SOL    HW110392   5.179   1.585   4.127
 2642SOL    HW210393   5.072   1.662   4.224
 2643SOL     OW10394   3.987   0.326   4.444
 2643SOL    HW110395   3.908   0.377   4.410
 2643SOL    HW210396   3.978   0.311   4.542
 2644SOL     OW10397   4.918   1.612   3.755
 2644SOL    HW110398   4.924   1.519   3.792
 2644SOL    HW210399   4.859   1.612   3.675
 2645SOL     OW10400   4.546   1.002   5.096
 2645SOL    HW110401   4.586   1.001   5.004
 2645SOL    HW210402   4.556   1.094   5.136
 2646SOL     OW10403   4.640   0.910   4.015
 2646SOL    HW110404   4.703   0.948   3.947
 2646SOL    HW210405   4.680   0.827   4.054
 2647SOL     OW10406   4.314   1.487   4.215
 2647SOL    HW110407   4.356   1.429   4.145
 2647SOL    HW210408   4.270   1.566   4.171
 2648SOL     OW10409   3.979   1.348   4.014
 2648SOL    HW110410   3.883   1.349   3.987
 2648SOL    HW210411   3.991   1.401   4.098
 2649SOL     OW10412   3.799   0.345   3.757
 2649SOL    HW110413   3.707   0.317   3.728
 2649SOL    HW210414   3.830   0.422   3.701
 2650SOL     OW10415   3.796   0.166   4.042
 2650SOL    HW110416   3.779   0.249   3.988
 2650SOL    HW210417   3.886   0.129   4.020
 2651SOL     OW10418   4.318   0.745   4.376
 2651SOL    HW110419   4.368   0.830   4.357
 2651SOL    HW210420   4.230   0.747   4.328
 2652SOL     OW10421   4.583   1.374   3.740
 2652SOL    HW110422   4.537   1.389   3.828
 2652SOL    HW210423   4.627   1.459   3.710
 2653SOL     OW10424   4.385   1.790   4.677
 2653SOL    HW110425   4.339   1.878   4.664
 2653SOL    HW210426   4.484   1.802   4.670
 2654SOL     OW10427   4.583   0.956   4.585
 2654SOL    HW110428   4.637   0.887   4.633
 2654SOL    HW210429   4.551   1.025   4.651
 2655SOL     OW10430   4.807   0.984   3.811
 2655SOL    HW110431   4.784   1.037   3.729
 2655SOL    HW210432   4.888   0.928   3.792
 2656SOL     OW10433   3.803   1.240   4.377
 2656SOL    HW110434   3.802   1.193   4.465
 2656SOL    HW210435   3.885   1.212   4.326
 2657SOL     OW10436   4.152   0.424   4.244
 2657SOL    HW110437   4.182   0.352   4.182
 2657SOL    HW210438   4.113   0.384   4.327
 2658SOL     OW10439   4.536   1.586   4.411
 2658SOL    HW110440   4.568   1.596   4.317
 2658SOL    HW210441   4.457   1.524   4.413
 2659SOL     OW10442   4.494   1.330   4.025
 2659SOL    HW110443   4.448   1.243   4.042
 2659SOL    HW210444   4.585   1.327   4.066
 2660SOL     OW10445   3.954   2.490   0.113
 2660SOL    HW110446   3.861   2.488   0.150
 2660SOL    HW210447   3.955   2.451   0.021
 2661SOL     OW10448   3.949   2.137   0.996
 2661SOL    HW110449   3.984   2.120   1.088
 2661SOL    HW210450   3.861   2.092   0.984
 2662SOL     OW10451   3.743   2.230   0.647
 2662SOL    HW110452   3.661   2.273   0.686
 2662SOL    HW210453   3.715   2.157   0.584
 2663SOL     OW10454   4.574   2.660   1.823
 2663SOL    HW110455   4.570   2.736   1.888
 2663SOL    HW210456   4.596   2.696   1.732
 2664SOL     OW10457   4.410   3.023   1.803
 2664SOL    HW110458   4.470   3.102   1.817
 2664SOL    HW210459   4.324   3.054   1.762
 2665SOL     OW10460   4.162   2.254   1.499
 2665SOL    HW110461   4.244   2.198   1.508
 2665SOL    HW210462   4.081   2.196   1.503
 2666SOL     OW10463   3.955   3.575   0.483
 2666SOL    HW110464   3.989   3.652   0.537
 2666SOL    HW210465   3.999   3.575   0.393
 2667SOL     OW10466   4.851   3.203   1.690
 2667SOL    HW110467   4.898   3.203   1.778
 2667SOL    HW210468   4.803   3.116   1.679
 2668SOL     OW10469   4.344   3.648   1.439
 2668SOL    HW110470   4.252   3.631   1.474
 2668SOL    HW210471   4.372   3.740   1.465
 2669SOL     OW10472   4.330   2.826   0.123
 2669SOL    HW110473   4.337   2.910   0.069
 2669SOL    HW210474   4.376   2.839   0.211
 2670SOL     OW10475   3.846   2.505   0.563
 2670SOL    HW110476   3.801   2.417   0.580
 2670SOL    HW210477   3.845   2.559   0.647
 2671SOL     OW10478   3.751   3.458   0.117
 2671SOL    HW110479   3.732   3.362   0.138
 2671SOL    HW210480   3.718   3.516   0.192
 2672SOL     OW10481   3.837   2.599   1.597
 2672SOL    HW110482   3.925   2.586   1.642
 2672SOL    HW210483   3.824   2.696   1.575
 2673SOL     OW10484   4.337   3.227   0.726
 2673SOL    HW110485   4.288   3.140   0.735
 2673SOL    HW210486   4.314   3.270   0.639
 2674SOL     OW10487   5.017   3.090   1.423
 2674SOL    HW110488   5.054   3.017   1.365
 2674SOL    HW210489   5.069   3.095   1.508
 2675SOL     OW10490   4.533   1.866   0.502
 2675SOL    HW110491   4.573   1.957   0.493
 2675SOL    HW210492   4.433   1.874   0.508
 2676SOL     OW10493   4.911   3.654   1.616
 2676SOL    HW110494   4.935   3.714   1.540
 2676SOL    HW210495   4.918   3.559   1.586
 2677SOL     OW10496   4.041   2.113   1.801
 2677SOL    HW110497   4.112   2.184   1.807
 2677SOL    HW210498   3.953   2.152   1.829
 2678SOL     OW10499   4.322   2.591   0.270
 2678SOL    HW110500   4.346   2.660   0.202
 2678SOL    HW210501   4.244   2.624   0.324
 2679SOL     OW10502   4.531   2.467   1.465
 2679SOL    HW110503   4.484   2.464   1.554
 2679SOL    HW210504   4.480   2.412   1.399
 2680SOL     OW10505   4.697   2.752   1.572
 2680SOL    HW110506   4.743   2.668   1.543
 2680SOL    HW210507   4.641   2.786   1.497
 2681SOL     OW10508   4.715   2.272   1.242
 2681SOL    HW110509   4.638   2.306   1.296
 2681SOL    HW210510   4.681   2.221   1.163
 2682SOL     OW10511   3.854   3.683   1.571
 2682SOL    HW110512   3.844   3.668   1.670
 2682SOL    HW210513   3.768   3.719   1.535
 2683SOL     OW10514   4.589   2.210   0.195
 2683SOL    HW110515   4.648   2.273   0.146
 2683SOL    HW210516   4.608   2.116   0.166
 2684SOL     OW10517   4.274   2.058   0.885
 2684SOL    HW110518   4.269   2.053   0.985
 2684SOL    HW210519   4.276   2.154   0.856
 2685SOL     OW10520   4.732   3.318   0.477
 2685SOL    HW110521   4.686   3.390   0.425
 2685SOL    HW210522   4.728   3.338   0.575
 2686SOL     OW10523   4.951   3.412   1.506
 2686SOL    HW110524   4.957   3.335   1.570
 2686SOL    HW210525   4.899   3.386   1.426
 2687SOL     OW10526   4.045   2.805   0.242
 2687SOL    HW110527   4.127   2.844   0.200
 2687SOL    HW210528   4.018   2.723   0.193
 2688SOL     OW10529   4.185   3.128   1.727
 2688SOL    HW110530   4.135   3.129   1.641
 2688SOL    HW210531   4.122   3.110   1.803
 2689SOL     OW10532   4.835   3.638   0.237
 2689SOL    HW110533   4.775   3.576   0.287
 2689SOL    HW210534   4.866   3.594   0.152
 2690SOL     OW10535   3.926   2.147   1.498
 2690SOL    HW110536   3.846   2.207   1.485
 2690SOL    HW210537   3.916   2.098   1.584
 2691SOL     OW10538   4.188   3.605   0.323
 2691SOL    HW110539   4.221   3.644   0.409
 2691SOL    HW210540   4.264   3.598   0.258
 2692SOL     OW10541   3.973   3.647   1.241
 2692SOL    HW110542   4.030   3.582   1.291
 2692SOL    HW210543   3.957   3.614   1.148
 2693SOL     OW10544   4.664   3.560   0.904
 2693SOL    HW110545   4.744   3.503   0.925
 2693SOL    HW210546   4.615   3.520   0.827
 2694SOL     OW10547   4.106   2.562   0.480
 2694SOL    HW110548   4.151   2.472   0.477
 2694SOL    HW210549   4.012   2.551   0.513
 2695SOL     OW10550   4.505   2.126   1.749
 2695SOL    HW110551   4.572   2.065   1.792
 2695SOL    HW210552   4.432   2.145   1.814
 2696SOL     OW10553   4.612   3.376   1.195
 2696SOL    HW110554   4.589   3.351   1.101
 2696SOL    HW210555   4.673   3.307   1.234
 2697SOL     OW10556   4.527   3.264   0.924
 2697SOL    HW110557   4.617   3.278   0.882
 2697SOL    HW210558   4.456   3.266   0.853
 2698SOL     OW10559   4.646   2.365   0.899
 2698SOL    HW110560   4.621   2.356   0.803
 2698SOL    HW210561   4.694   2.283   0.930
 2699SOL     OW10562   4.800   2.545   1.464
 2699SOL    HW110563   4.720   2.484   1.467
 2699SOL    HW210564   4.881   2.492   1.440
 2700SOL     OW10565   4.951   3.432   0.793
 2700SOL    HW110566   4.972   3.506   0.728
 2700SOL    HW210567   5.019   3.432   0.866
 2701SOL     OW10568   4.995   3.659   0.591
 2701SOL    HW110569   5.039   3.723   0.527
 2701SOL    HW210570   4.945   3.711   0.661
 2702SOL     OW10571   3.802   2.418   1.386
 2702SOL    HW110572   3.894   2.417   1.345
 2702SOL    HW210573   3.796   2.492   1.453
 2703SOL     OW10574   4.285   2.084   1.147
 2703SOL    HW110575   4.323   2.000   1.184
 2703SOL    HW210576   4.197   2.103   1.191
 2704SOL     OW10577   4.590   2.316   0.642
 2704SOL    HW110578   4.558   2.388   0.580
 2704SOL    HW210579   4.614   2.235   0.589
 2705SOL     OW10580   4.741   1.901   0.753
 2705SOL    HW110581   4.669   1.906   0.684
 2705SOL    HW210582   4.717   1.832   0.822
 2706SOL     OW10583   4.212   3.247   0.174
 2706SOL    HW110584   4.125   3.232   0.221
 2706SOL    HW210585   4.195   3.273   0.079
 2707SOL     OW10586   5.388   3.142   0.657
 2707SOL    HW110587   5.487   3.150   0.671
 2707SOL    HW210588   5.343   3.226   0.688
 2708SOL     OW10589   4.788   3.209   1.340
 2708SOL    HW110590   4.708   3.186   1.395
 2708SOL    HW210591   4.871   3.183   1.389
 2709SOL     OW10592   4.835   3.057   1.100
 2709SOL    HW110593   4.795   3.101   1.181
 2709SOL    HW210594   4.794   3.094   1.017
 2710SOL     OW10595   4.639   1.951   1.402
 2710SOL    HW110596   4.664   1.931   1.307
 2710SOL    HW210597   4.711   2.007   1.444
 2711SOL     OW10598   4.704   2.978   1.719
 2711SOL    HW110599   4.605   2.984   1.729
 2711SOL    HW210600   4.727   2.898   1.663
 2712SOL     OW10601   4.134   2.675   1.251
 2712SOL    HW110602   4.220   2.687   1.301
 2712SOL    HW210603   4.092   2.588   1.278
 2713SOL     OW10604   4.091   2.962   0.501
 2713SOL    HW110605   4.084   3.045   0.445
 2713SOL    HW210606   4.095   2.882   0.441
 2714SOL     OW10607   4.290   2.399   0.865
 2714SOL    HW110608   4.302   2.465   0.791
 2714SOL    HW210609   4.336   2.433   0.948
 2715SOL     OW10610   4.976   3.210   0.388
 2715SOL    HW110611   5.026   3.287   0.428
 2715SOL    HW210612   4.881   3.212   0.420
 2716SOL     OW10613   4.078   3.372   1.329
 2716SOL    HW110614   4.057   3.328   1.242
 2716SOL    HW210615   4.175   3.398   1.332
 2717SOL     OW10616   4.126   2.613   1.598
 2717SOL    HW110617   4.194   2.668   1.551
 2717SOL    HW210618   4.166   2.525   1.625
 2718SOL     OW10619   4.737   1.967   1.770
 2718SOL    HW110620   4.743   2.052   1.718
 2718SOL    HW210621   4.769   1.891   1.713
 2719SOL     OW10622   4.228   1.912   1.740
 2719SOL    HW110623   4.186   1.855   1.670
 2719SOL    HW210624   4.162   1.981   1.772
 2720SOL     OW10625   5.084   2.724   1.045
 2720SOL    HW110626   5.009   2.724   0.979
 2720SOL    HW210627   5.121   2.632   1.054
 2721SOL     OW10628   4.031   2.075   1.231
 2721SOL    HW110629   4.008   2.112   1.321
 2721SOL    HW210630   4.001   1.980   1.225
 2722SOL     OW10631   4.031   1.925   0.618
 2722SOL    HW110632   4.020   2.019   0.651
 2722SOL    HW210633   4.026   1.862   0.695
 2723SOL     OW10634   5.346   2.229   0.374
 2723SOL    HW110635   5.348   2.153   0.438
 2723SOL    HW210636   5.298   2.306   0.414
 2724SOL     OW10637   4.704   3.435   1.700
 2724SOL    HW110638   4.684   3.479   1.612
 2724SOL    HW210639   4.743   3.344   1.684
 2725SOL     OW10640   4.074   2.760   1.804
 2725SOL    HW110641   4.150   2.804   1.852
 2725SOL    HW210642   4.109   2.713   1.722
 2726SOL     OW10643   5.027   2.700   0.042
 2726SOL    HW110644   5.061   2.607   0.057
 2726SOL    HW210645   5.045   2.727  -0.053
 2727SOL     OW10646   4.792   3.195   0.849
 2727SOL    HW110647   4.799   3.111   0.794
 2727SOL    HW210648   4.854   3.264   0.813
 2728SOL     OW10649   4.063   2.371   1.006
 2728SOL    HW110650   4.011   2.288   0.989
 2728SOL    HW210651   4.140   2.376   0.942
 2729SOL     OW10652   4.862   2.242   1.678
 2729SOL    HW110653   4.817   2.305   1.742
 2729SOL    HW210654   4.955   2.273   1.661
 2730SOL     OW10655   4.884   2.069   1.477
 2730SOL    HW110656   4.884   2.133   1.554
 2730SOL    HW210657   4.912   2.117   1.394
 2731SOL     OW10658   4.228   3.430   0.910
 2731SOL    HW110659   4.294   3.504   0.919
 2731SOL    HW210660   4.272   3.351   0.868
 2732SOL     OW10661   3.764   2.406   1.114
 2732SOL    HW110662   3.849   2.373   1.073
 2732SOL    HW210663   3.777   2.421   1.212
 2733SOL     OW10664   3.913   2.382   1.722
 2733SOL    HW110665   3.972   2.342   1.652
 2733SOL    HW210666   3.855   2.453   1.681
 2734SOL     OW10667   4.539   2.434   0.325
 2734SOL    HW110668   4.546   2.345   0.279
 2734SOL    HW210669   4.445   2.468   0.317
 2735SOL     OW10670   4.395   2.326   1.269
 2735SOL    HW110671   4.361   2.237   1.239
 2735SOL    HW210672   4.421   2.380   1.189
 2736SOL     OW10673   4.654   3.540   1.465
 2736SOL    HW110674   4.630   3.522   1.370
 2736SOL    HW210675   4.684   3.634   1.475
 2737SOL     OW10676   4.197   2.362   0.191
 2737SOL    HW110677   4.258   2.442   0.195
 2737SOL    HW210678   4.102   2.393   0.198
 2738SOL     OW10679   4.976   3.593   1.128
 2738SOL    HW110680   5.060   3.598   1.074
 2738SOL    HW210681   4.953   3.497   1.146
 2739SOL     OW10682   4.412   3.524   1.716
 2739SOL    HW110683   4.356   3.605   1.725
 2739SOL    HW210684   4.464   3.528   1.630
 2740SOL     OW10685   4.627   1.948   0.133
 2740SOL    HW110686   4.678   1.949   0.047
 2740SOL    HW210687   4.683   1.906   0.204
 2741SOL     OW10688   5.112   3.435   0.477
 2741SOL    HW110689   5.179   3.447   0.403
 2741SOL    HW210690   5.072   3.524   0.500
 2742SOL     OW10691   3.854   3.656   1.851
 2742SOL    HW110692   3.813   3.582   1.904
 2742SOL    HW210693   3.918   3.707   1.909
 2743SOL     OW10694   4.554   3.135   1.422
 2743SOL    HW110695   4.549   3.168   1.517
 2743SOL    HW210696   4.468   3.154   1.376
 2744SOL     OW10697   4.396   3.478   0.154
 2744SOL    HW110698   4.405   3.488   0.055
 2744SOL    HW210699   4.356   3.389   0.175
 2745SOL     OW10700   3.987   2.188   0.720
 2745SOL    HW110701   3.908   2.239   0.686
 2745SOL    HW210702   3.978   2.173   0.818
 2746SOL     OW10703   4.918   3.474   0.031
 2746SOL    HW110704   4.924   3.381   0.068
 2746SOL    HW210705   4.859   3.474  -0.049
 2747SOL     OW10706   4.763   2.960   0.696
 2747SOL    HW110707   4.693   2.913   0.750
 2747SOL    HW210708   4.822   2.892   0.653
 2748SOL     OW10709   4.738   2.098   0.971
 2748SOL    HW110710   4.730   2.062   0.878
 2748SOL    HW210711   4.736   2.022   1.036
 2749SOL     OW10712   4.314   3.349   0.491
 2749SOL    HW110713   4.356   3.291   0.421
 2749SOL    HW210714   4.270   3.428   0.447
 2750SOL     OW10715   3.979   3.210   0.290
 2750SOL    HW110716   3.883   3.211   0.263
 2750SOL    HW210717   3.991   3.263   0.374
 2751SOL     OW10718   3.829   2.875   1.726
 2751SOL    HW110719   3.752   2.842   1.780
 2751SOL    HW210720   3.914   2.845   1.768
 2752SOL     OW10721   4.396   2.065   1.489
 2752SOL    HW110722   4.486   2.049   1.449
 2752SOL    HW210723   4.404   2.070   1.588
 2753SOL     OW10724   4.337   2.704   1.431
 2753SOL    HW110725   4.393   2.785   1.414
 2753SOL    HW210726   4.396   2.624   1.434
 2754SOL     OW10727   4.440   2.427   1.708
 2754SOL    HW110728   4.459   2.492   1.782
 2754SOL    HW210729   4.500   2.347   1.717
 2755SOL     OW10730   4.114   3.603   1.560
 2755SOL    HW110731   4.023   3.644   1.558
 2755SOL    HW210732   4.107   3.509   1.592
 2756SOL     OW10733   4.396   3.253   1.624
 2756SOL    HW110734   4.318   3.203   1.662
 2756SOL    HW210735   4.393   3.348   1.655
 2757SOL     OW10736   4.041   2.409   1.280
 2757SOL    HW110737   4.079   2.350   1.352
 2757SOL    HW210738   4.081   2.383   1.192
 2758SOL     OW10739   4.536   3.448   0.687
 2758SOL    HW110740   4.568   3.458   0.593
 2758SOL    HW210741   4.457   3.386   0.689
 2759SOL     OW10742   4.725   1.896   1.154
 2759SOL    HW110743   4.662   1.824   1.123
 2759SOL    HW210744   4.818   1.860   1.154
 2760SOL     OW10745   4.342   3.429   1.284
 2760SOL    HW110746   4.337   3.511   1.341
 2760SOL    HW210747   4.431   3.426   1.239
 2761SOL     OW10748   3.763   2.939   0.300
 2761SOL    HW110749   3.862   2.928   0.291
 2761SOL    HW210750   3.723   2.853   0.332
 2762SOL     OW10751   4.599   3.508   0.337
 2762SOL    HW110752   4.522   3.473   0.283
 2762SOL    HW210753   4.567   3.579   0.399
 2763SOL     OW10754   3.954   2.490   1.975
 2763SOL    HW110755   3.861   2.488   2.012
 2763SOL    HW210756   3.955   2.451   1.883
 2764SOL     OW10757   3.949   2.137   2.858
 2764SOL    HW110758   3.984   2.120   2.950
 2764SOL    HW210759   3.861   2.092   2.846
 2765SOL     OW10760   4.293   3.137   3.027
 2765SOL    HW110761   4.200   3.130   2.990
 2765SOL    HW210762   4.304   3.226   3.071
 2766SOL     OW10763   4.492   3.006   2.885
 2766SOL    HW110764   4.414   3.023   2.945
 2766SOL    HW210765   4.526   3.093   2.849
 2767SOL     OW10766   4.574   2.660   3.685
 2767SOL    HW110767   4.570   2.736   3.750
 2767SOL    HW210768   4.596   2.696   3.594
 2768SOL     OW10769   4.409   2.874   2.527
 2768SOL    HW110770   4.478   2.858   2.597
 2768SOL    HW210771   4.336   2.931   2.565
 2769SOL     OW10772   4.059   3.297   2.923
 2769SOL    HW110773   3.981   3.266   2.870
 2769SOL    HW210774   4.117   3.355   2.866
 2770SOL     OW10775   3.955   3.575   2.345
 2770SOL    HW110776   3.989   3.652   2.399
 2770SOL    HW210777   3.999   3.575   2.255
 2771SOL     OW10778   4.851   3.203   3.552
 2771SOL    HW110779   4.898   3.203   3.640
 2771SOL    HW210780   4.803   3.116   3.541
 2772SOL     OW10781   3.954   3.296   2.400
 2772SOL    HW110782   3.928   3.392   2.400
 2772SOL    HW210783   3.883   3.242   2.445
 2773SOL     OW10784   3.964   2.953   2.748
 2773SOL    HW110785   3.978   2.869   2.800
 2773SOL    HW210786   3.909   3.017   2.803
 2774SOL     OW10787   4.344   3.648   3.301
 2774SOL    HW110788   4.252   3.631   3.336
 2774SOL    HW210789   4.372   3.740   3.327
 2775SOL     OW10790   4.330   2.826   1.985
 2775SOL    HW110791   4.337   2.910   1.931
 2775SOL    HW210792   4.376   2.839   2.073
 2776SOL     OW10793   3.846   2.505   2.425
 2776SOL    HW110794   3.801   2.417   2.442
 2776SOL    HW210795   3.845   2.559   2.509
 2777SOL     OW10796   3.751   3.458   1.979
 2777SOL    HW110797   3.732   3.362   2.000
 2777SOL    HW210798   3.718   3.516   2.054
 2778SOL     OW10799   4.337   3.227   2.588
 2778SOL    HW110800   4.288   3.140   2.597
 2778SOL    HW210801   4.314   3.270   2.501
 2779SOL     OW10802   5.017   3.090   3.285
 2779SOL    HW110803   5.054   3.017   3.227
 2779SOL    HW210804   5.069   3.095   3.370
 2780SOL     OW10805   4.533   1.866   2.364
 2780SOL    HW110806   4.573   1.957   2.355
 2780SOL    HW210807   4.433   1.874   2.370
 2781SOL     OW10808   3.921   2.838   3.126
 2781SOL    HW110809   4.010   2.793   3.112
 2781SOL    HW210810   3.848   2.773   3.107
 2782SOL     OW10811   4.911   3.654   3.478
 2782SOL    HW110812   4.935   3.714   3.402
 2782SOL    HW210813   4.918   3.559   3.448
 2783SOL     OW10814   4.041   2.113   3.663
 2783SOL    HW110815   4.112   2.184   3.669
 2783SOL    HW210816   3.953   2.152   3.691
 2784SOL     OW10817   4.322   2.591   2.132
 2784SOL    HW110818   4.346   2.660   2.064
 2784SOL    HW210819   4.244   2.624   2.186
 2785SOL     OW10820   4.697   2.752   3.434
 2785SOL    HW110821   4.743   2.668   3.405
 2785SOL    HW210822   4.641   2.786   3.359
 2786SOL     OW10823   4.715   2.272   3.104
 2786SOL    HW110824   4.638   2.306   3.158
 2786SOL    HW210825   4.681   2.221   3.025
 2787SOL     OW10826   4.765   2.563   2.291
 2787SOL    HW110827   4.791   2.559   2.387
 2787SOL    HW210828   4.680   2.512   2.277
 2788SOL     OW10829   3.800   2.673   2.651
 2788SOL    HW110830   3.899   2.661   2.660
 2788SOL    HW210831   3.776   2.768   2.672
 2789SOL     OW10832   3.854   3.683   3.433
 2789SOL    HW110833   3.844   3.668   3.532
 2789SOL    HW210834   3.768   3.719   3.397
 2790SOL     OW10835   4.589   2.210   2.057
 2790SOL    HW110836   4.648   2.273   2.008
 2790SOL    HW210837   4.608   2.116   2.028
 2791SOL     OW10838   4.274   2.058   2.747
 2791SOL    HW110839   4.269   2.053   2.847
 2791SOL    HW210840   4.276   2.154   2.718
 2792SOL     OW10841   4.732   3.318   2.339
 2792SOL    HW110842   4.686   3.390   2.287
 2792SOL    HW210843   4.728   3.338   2.437
 2793SOL     OW10844   4.075   3.663   2.715
 2793SOL    HW110845   4.125   3.577   2.721
 2793SOL    HW210846   4.140   3.740   2.712
 2794SOL     OW10847   4.951   3.412   3.368
 2794SOL    HW110848   4.957   3.335   3.432
 2794SOL    HW210849   4.899   3.386   3.288
 2795SOL     OW10850   4.045   2.805   2.104
 2795SOL    HW110851   4.127   2.844   2.062
 2795SOL    HW210852   4.018   2.723   2.055
 2796SOL     OW10853   4.835   3.638   2.099
 2796SOL    HW110854   4.775   3.576   2.149
 2796SOL    HW210855   4.866   3.594   2.014
 2797SOL     OW10856   3.926   2.147   3.360
 2797SOL    HW110857   3.846   2.207   3.347
 2797SOL    HW210858   3.916   2.098   3.446
 2798SOL     OW10859   4.188   3.605   2.185
 2798SOL    HW110860   4.221   3.644   2.271
 2798SOL    HW210861   4.264   3.598   2.120
 2799SOL     OW10862   3.973   3.647   3.103
 2799SOL    HW110863   4.030   3.582   3.153
 2799SOL    HW210864   3.957   3.614   3.010
 2800SOL     OW10865   4.664   3.560   2.766
 2800SOL    HW110866   4.744   3.503   2.787
 2800SOL    HW210867   4.615   3.520   2.689
 2801SOL     OW10868   4.106   2.562   2.342
 2801SOL    HW110869   4.151   2.472   2.339
 2801SOL    HW210870   4.012   2.551   2.375
 2802SOL     OW10871   4.338   1.984   1.979
 2802SOL    HW110872   4.436   1.962   1.986
 2802SOL    HW210873   4.307   1.967   1.886
 2803SOL     OW10874   4.505   2.126   3.611
 2803SOL    HW110875   4.572   2.065   3.654
 2803SOL    HW210876   4.432   2.145   3.676
 2804SOL     OW10877   4.612   3.376   3.057
 2804SOL    HW110878   4.589   3.351   2.963
 2804SOL    HW210879   4.673   3.307   3.096
 2805SOL     OW10880   4.527   3.264   2.786
 2805SOL    HW110881   4.617   3.278   2.744
 2805SOL    HW210882   4.456   3.266   2.715
 2806SOL     OW10883   4.646   2.365   2.761
 2806SOL    HW110884   4.621   2.356   2.665
 2806SOL    HW210885   4.694   2.283   2.792
 2807SOL     OW10886   4.263   1.926   2.374
 2807SOL    HW110887   4.182   1.927   2.432
 2807SOL    HW210888   4.266   2.009   2.319
 2808SOL     OW10889   4.659   2.098   2.342
 2808SOL    HW110890   4.611   2.139   2.264
 2808SOL    HW210891   4.758   2.096   2.323
 2809SOL     OW10892   4.800   2.545   3.326
 2809SOL    HW110893   4.720   2.484   3.329
 2809SOL    HW210894   4.881   2.492   3.302
 2810SOL     OW10895   4.951   3.432   2.655
 2810SOL    HW110896   4.972   3.506   2.590
 2810SOL    HW210897   5.019   3.432   2.728
 2811SOL     OW10898   4.183   3.014   2.603
 2811SOL    HW110899   4.112   2.987   2.668
 2811SOL    HW210900   4.157   2.986   2.510
 2812SOL     OW10901   4.995   3.659   2.453
 2812SOL    HW110902   5.039   3.723   2.389
 2812SOL    HW210903   4.945   3.711   2.523
 2813SOL     OW10904   4.756   2.411   1.878
 2813SOL    HW110905   4.715   2.493   1.839
 2813SOL    HW210906   4.820   2.437   1.951
 2814SOL     OW10907   4.590   2.316   2.504
 2814SOL    HW110908   4.558   2.388   2.442
 2814SOL    HW210909   4.614   2.235   2.451
 2815SOL     OW10910   4.212   3.247   2.036
 2815SOL    HW110911   4.125   3.232   2.083
 2815SOL    HW210912   4.195   3.273   1.941
 2816SOL     OW10913   5.388   3.142   2.519
 2816SOL    HW110914   5.487   3.150   2.533
 2816SOL    HW210915   5.343   3.226   2.550
 2817SOL     OW10916   4.251   2.118   2.190
 2817SOL    HW110917   4.278   2.059   2.115
 2817SOL    HW210918   4.251   2.213   2.159
 2818SOL     OW10919   4.788   3.209   3.202
 2818SOL    HW110920   4.708   3.186   3.257
 2818SOL    HW210921   4.871   3.183   3.251
 2819SOL     OW10922   4.835   3.057   2.962
 2819SOL    HW110923   4.795   3.101   3.043
 2819SOL    HW210924   4.794   3.094   2.879
 2820SOL     OW10925   4.429   2.912   2.230
 2820SOL    HW110926   4.415   2.919   2.329
 2820SOL    HW210927   4.513   2.861   2.212
 2821SOL     OW10928   4.134   2.675   3.113
 2821SOL    HW110929   4.220   2.687   3.163
 2821SOL    HW210930   4.092   2.588   3.140
 2822SOL     OW10931   4.998   2.248   3.124
 2822SOL    HW110932   5.019   2.322   3.188
 2822SOL    HW210933   4.909   2.265   3.081
 2823SOL     OW10934   3.788   3.426   3.193
 2823SOL    HW110935   3.742   3.508   3.159
 2823SOL    HW210936   3.886   3.445   3.202
 2824SOL     OW10937   4.091   2.962   2.363
 2824SOL    HW110938   4.084   3.045   2.307
 2824SOL    HW210939   4.095   2.882   2.303
 2825SOL     OW10940   4.290   2.399   2.727
 2825SOL    HW110941   4.302   2.465   2.653
 2825SOL    HW210942   4.336   2.433   2.810
 2826SOL     OW10943   4.976   3.210   2.250
 2826SOL    HW110944   5.026   3.287   2.290
 2826SOL    HW210945   4.881   3.212   2.282
 2827SOL     OW10946   4.078   3.372   3.191
 2827SOL    HW110947   4.057   3.328   3.104
 2827SOL    HW210948   4.175   3.398   3.194
 2828SOL     OW10949   4.297   2.732   2.891
 2828SOL    HW110950   4.341   2.821   2.882
 2828SOL    HW210951   4.234   2.732   2.968
 2829SOL     OW10952   4.933   2.387   2.137
 2829SOL    HW110953   4.946   2.303   2.191
 2829SOL    HW210954   4.904   2.461   2.197
 2830SOL     OW10955   4.031   2.075   3.093
 2830SOL    HW110956   4.008   2.112   3.183
 2830SOL    HW210957   4.001   1.980   3.087
 2831SOL     OW10958   3.761   3.172   3.144
 2831SOL    HW110959   3.814   3.123   3.212
 2831SOL    HW210960   3.783   3.270   3.149
 2832SOL     OW10961   4.456   2.496   2.926
 2832SOL    HW110962   4.515   2.470   2.850
 2832SOL    HW210963   4.428   2.592   2.915
 2833SOL     OW10964   4.031   1.925   2.480
 2833SOL    HW110965   4.020   2.019   2.513
 2833SOL    HW210966   4.026   1.862   2.557
 2834SOL     OW10967   5.346   2.229   2.236
 2834SOL    HW110968   5.348   2.153   2.300
 2834SOL    HW210969   5.298   2.306   2.276
 2835SOL     OW10970   4.747   2.628   2.828
 2835SOL    HW110971   4.762   2.649   2.924
 2835SOL    HW210972   4.717   2.533   2.819
 2836SOL     OW10973   4.704   3.435   3.562
 2836SOL    HW110974   4.684   3.479   3.474
 2836SOL    HW210975   4.743   3.344   3.546
 2837SOL     OW10976   5.027   2.700   1.904
 2837SOL    HW110977   5.061   2.607   1.919
 2837SOL    HW210978   5.045   2.727   1.809
 2838SOL     OW10979   4.792   3.195   2.711
 2838SOL    HW110980   4.799   3.111   2.656
 2838SOL    HW210981   4.854   3.264   2.675
 2839SOL     OW10982   4.043   2.672   2.811
 2839SOL    HW110983   4.136   2.708   2.816
 2839SOL    HW210984   4.037   2.587   2.863
 2840SOL     OW10985   4.063   2.371   2.868
 2840SOL    HW110986   4.011   2.288   2.851
 2840SOL    HW210987   4.140   2.376   2.804
 2841SOL     OW10988   4.862   2.242   3.540
 2841SOL    HW110989   4.817   2.305   3.604
 2841SOL    HW210990   4.955   2.273   3.523
 2842SOL     OW10991   3.732   3.188   2.062
 2842SOL    HW110992   3.639   3.209   2.031
 2842SOL    HW210993   3.742   3.089   2.075
 2843SOL     OW10994   3.812   3.663   2.789
 2843SOL    HW110995   3.770   3.577   2.762
 2843SOL    HW210996   3.906   3.666   2.755
 2844SOL     OW10997   4.228   3.430   2.772
 2844SOL    HW110998   4.294   3.504   2.781
 2844SOL    HW210999   4.272   3.351   2.730
 2845SOL     OW11000   4.726   2.658   3.100
 2845SOL    HW111001   4.767   2.626   3.186
 2845SOL    HW211002   4.630   2.631   3.097
 2846SOL     OW11003   3.764   2.406   2.976
 2846SOL    HW111004   3.849   2.373   2.935
 2846SOL    HW211005   3.777   2.421   3.074
 2847SOL     OW11006   3.913   2.382   3.584
 2847SOL    HW111007   3.972   2.342   3.514
 2847SOL    HW211008   3.855   2.453   3.543
 2848SOL     OW11009   4.539   2.434   2.187
 2848SOL    HW111010   4.546   2.345   2.141
 2848SOL    HW211011   4.445   2.468   2.179
 2849SOL     OW11012   3.976   3.426   3.606
 2849SOL    HW111013   3.946   3.483   3.682
 2849SOL    HW211014   3.969   3.329   3.632
 2850SOL     OW11015   4.654   3.540   3.327
 2850SOL    HW111016   4.630   3.522   3.232
 2850SOL    HW211017   4.684   3.634   3.337
 2851SOL     OW11018   4.197   2.362   2.053
 2851SOL    HW111019   4.258   2.442   2.057
 2851SOL    HW211020   4.102   2.393   2.060
 2852SOL     OW11021   5.071   2.921   3.096
 2852SOL    HW111022   5.095   2.858   3.022
 2852SOL    HW211023   4.981   2.961   3.078
 2853SOL     OW11024   4.976   3.593   2.990
 2853SOL    HW111025   5.060   3.598   2.936
 2853SOL    HW211026   4.953   3.497   3.008
 2854SOL     OW11027   3.807   3.120   2.884
 2854SOL    HW111028   3.802   3.119   2.984
 2854SOL    HW211029   3.724   3.079   2.846
 2855SOL     OW11030   4.412   3.524   3.578
 2855SOL    HW111031   4.356   3.605   3.587
 2855SOL    HW211032   4.464   3.528   3.492
 2856SOL     OW11033   5.112   3.435   2.339
 2856SOL    HW111034   5.179   3.447   2.265
 2856SOL    HW211035   5.072   3.524   2.362
 2857SOL     OW11036   4.396   3.478   2.016
 2857SOL    HW111037   4.405   3.488   1.917
 2857SOL    HW211038   4.356   3.389   2.037
 2858SOL     OW11039   3.987   2.188   2.582
 2858SOL    HW111040   3.908   2.239   2.548
 2858SOL    HW211041   3.978   2.173   2.680
 2859SOL     OW11042   4.918   3.474   1.893
 2859SOL    HW111043   4.924   3.381   1.930
 2859SOL    HW211044   4.859   3.474   1.813
 2860SOL     OW11045   4.546   2.864   3.234
 2860SOL    HW111046   4.586   2.863   3.142
 2860SOL    HW211047   4.556   2.956   3.274
 2861SOL     OW11048   4.640   2.772   2.153
 2861SOL    HW111049   4.703   2.810   2.085
 2861SOL    HW211050   4.680   2.689   2.192
 2862SOL     OW11051   4.738   2.098   2.833
 2862SOL    HW111052   4.730   2.062   2.740
 2862SOL    HW211053   4.736   2.022   2.898
 2863SOL     OW11054   4.314   3.349   2.353
 2863SOL    HW111055   4.356   3.291   2.283
 2863SOL    HW211056   4.270   3.428   2.309
 2864SOL     OW11057   3.979   3.210   2.152
 2864SOL    HW111058   3.883   3.211   2.125
 2864SOL    HW211059   3.991   3.263   2.236
 2865SOL     OW11060   4.396   2.065   3.351
 2865SOL    HW111061   4.486   2.049   3.311
 2865SOL    HW211062   4.404   2.070   3.450
 2866SOL     OW11063   3.799   2.207   1.895
 2866SOL    HW111064   3.707   2.179   1.866
 2866SOL    HW211065   3.830   2.284   1.839
 2867SOL     OW11066   5.164   2.718   3.260
 2867SOL    HW111067   5.107   2.770   3.197
 2867SOL    HW211068   5.260   2.730   3.236
 2868SOL     OW11069   4.440   2.427   3.570
 2868SOL    HW111070   4.459   2.492   3.644
 2868SOL    HW211071   4.500   2.347   3.579
 2869SOL     OW11072   4.114   3.603   3.422
 2869SOL    HW111073   4.023   3.644   3.420
 2869SOL    HW211074   4.107   3.509   3.454
 2870SOL     OW11075   4.949   2.187   2.311
 2870SOL    HW111076   5.014   2.113   2.300
 2870SOL    HW211077   4.969   2.237   2.395
 2871SOL     OW11078   4.318   2.607   2.514
 2871SOL    HW111079   4.368   2.692   2.495
 2871SOL    HW211080   4.230   2.609   2.466
 2872SOL     OW11081   4.583   3.236   1.878
 2872SOL    HW111082   4.537   3.251   1.966
 2872SOL    HW211083   4.627   3.321   1.848
 2873SOL     OW11084   4.385   3.652   2.815
 2873SOL    HW111085   4.339   3.740   2.802
 2873SOL    HW211086   4.484   3.664   2.808
 2874SOL     OW11087   4.583   2.818   2.723
 2874SOL    HW111088   4.637   2.749   2.771
 2874SOL    HW211089   4.551   2.887   2.789
 2875SOL     OW11090   4.807   2.846   1.949
 2875SOL    HW111091   4.784   2.899   1.867
 2875SOL    HW211092   4.888   2.790   1.930
 2876SOL     OW11093   3.803   3.102   2.515
 2876SOL    HW111094   3.802   3.055   2.603
 2876SOL    HW211095   3.885   3.074   2.464
 2877SOL     OW11096   4.152   2.286   2.382
 2877SOL    HW111097   4.182   2.214   2.320
 2877SOL    HW211098   4.113   2.246   2.465
 2878SOL     OW11099   4.536   3.448   2.549
 2878SOL    HW111100   4.568   3.458   2.455
 2878SOL    HW211101   4.457   3.386   2.551
 2879SOL     OW11102   4.494   3.192   2.163
 2879SOL    HW111103   4.448   3.105   2.180
 2879SOL    HW211104   4.585   3.189   2.204
 2880SOL     OW11105   4.342   3.429   3.146
 2880SOL    HW111106   4.337   3.511   3.203
 2880SOL    HW211107   4.431   3.426   3.101
 2881SOL     OW11108   5.076   1.914   2.030
 2881SOL    HW111109   5.111   1.873   1.946
 2881SOL    HW211110   4.986   1.876   2.050
 2882SOL     OW11111   3.763   2.939   2.162
 2882SOL    HW111112   3.862   2.928   2.153
 2882SOL    HW211113   3.723   2.853   2.194
 2883SOL     OW11114   4.599   3.508   2.199
 2883SOL    HW111115   4.522   3.473   2.145
 2883SOL    HW211116   4.567   3.579   2.261
 2884SOL     OW11117   3.954   2.490   3.837
 2884SOL    HW111118   3.861   2.488   3.874
 2884SOL    HW211119   3.955   2.451   3.745
 2885SOL     OW11120   3.949   2.137   4.720
 2885SOL    HW111121   3.984   2.120   4.812
 2885SOL    HW211122   3.861   2.092   4.708
 2886SOL     OW11123   3.743   2.230   4.371
 2886SOL    HW111124   3.661   2.273   4.410
 2886SOL    HW211125   3.715   2.157   4.308
 2887SOL     OW11126   4.293   3.137   4.889
 2887SOL    HW111127   4.200   3.130   4.852
 2887SOL    HW211128   4.304   3.226   4.933
 2888SOL     OW11129   4.859   2.565   4.441
 2888SOL    HW111130   4.916   2.643   4.416
 2888SOL    HW211131   4.799   2.591   4.517
 2889SOL     OW11132   4.492   3.006   4.747
 2889SOL    HW111133   4.414   3.023   4.807
 2889SOL    HW211134   4.526   3.093   4.711
 2890SOL     OW11135   4.409   2.874   4.389
 2890SOL    HW111136   4.478   2.858   4.459
 2890SOL    HW211137   4.336   2.931   4.427
 2891SOL     OW11138   4.059   3.297   4.785
 2891SOL    HW111139   3.981   3.266   4.732
 2891SOL    HW211140   4.117   3.355   4.728
 2892SOL     OW11141   3.954   3.296   4.262
 2892SOL    HW111142   3.928   3.392   4.262
 2892SOL    HW211143   3.883   3.242   4.307
 2893SOL     OW11144   3.964   2.953   4.610
 2893SOL    HW111145   3.978   2.869   4.662
 2893SOL    HW211146   3.909   3.017   4.665
 2894SOL     OW11147   4.344   3.648   5.163
 2894SOL    HW111148   4.252   3.631   5.198
 2894SOL    HW211149   4.372   3.740   5.189
 2895SOL     OW11150   3.751   3.458   3.841
 2895SOL    HW111151   3.732   3.362   3.862
 2895SOL    HW211152   3.718   3.516   3.916
 2896SOL     OW11153   4.337   3.227   4.450
 2896SOL    HW111154   4.288   3.140   4.459
 2896SOL    HW211155   4.314   3.270   4.363
 2897SOL     OW11156   4.533   1.866   4.226
 2897SOL    HW111157   4.573   1.957   4.217
 2897SOL    HW211158   4.433   1.874   4.232
 2898SOL     OW11159   3.921   2.838   4.988
 2898SOL    HW111160   4.010   2.793   4.974
 2898SOL    HW211161   3.848   2.773   4.969
 2899SOL     OW11162   5.005   2.207   4.668
 2899SOL    HW111163   4.919   2.157   4.655
 2899SOL    HW211164   5.067   2.153   4.724
 2900SOL     OW11165   4.715   2.272   4.966
 2900SOL    HW111166   4.638   2.306   5.020
 2900SOL    HW211167   4.681   2.221   4.887
 2901SOL     OW11168   4.765   2.563   4.153
 2901SOL    HW111169   4.791   2.559   4.249
 2901SOL    HW211170   4.680   2.512   4.139
 2902SOL     OW11171   3.800   2.673   4.513
 2902SOL    HW111172   3.899   2.661   4.522
 2902SOL    HW211173   3.776   2.768   4.534
 2903SOL     OW11174   4.589   2.210   3.919
 2903SOL    HW111175   4.648   2.273   3.870
 2903SOL    HW211176   4.608   2.116   3.890
 2904SOL     OW11177   4.274   2.058   4.609
 2904SOL    HW111178   4.269   2.053   4.709
 2904SOL    HW211179   4.276   2.154   4.580
 2905SOL     OW11180   4.732   3.318   4.201
 2905SOL    HW111181   4.686   3.390   4.149
 2905SOL    HW211182   4.728   3.338   4.299
 2906SOL     OW11183   4.835   3.638   3.961
 2906SOL    HW111184   4.775   3.576   4.011
 2906SOL    HW211185   4.866   3.594   3.876
 2907SOL     OW11186   4.188   3.605   4.047
 2907SOL    HW111187   4.221   3.644   4.133
 2907SOL    HW211188   4.264   3.598   3.982
 2908SOL     OW11189   3.973   3.647   4.965
 2908SOL    HW111190   4.030   3.582   5.015
 2908SOL    HW211191   3.957   3.614   4.872
 2909SOL     OW11192   4.664   3.560   4.628
 2909SOL    HW111193   4.744   3.503   4.649
 2909SOL    HW211194   4.615   3.520   4.551
 2910SOL     OW11195   4.338   1.984   3.841
 2910SOL    HW111196   4.436   1.962   3.848
 2910SOL    HW211197   4.307   1.967   3.748
 2911SOL     OW11198   4.527   3.264   4.648
 2911SOL    HW111199   4.617   3.278   4.606
 2911SOL    HW211200   4.456   3.266   4.577
 2912SOL     OW11201   4.646   2.365   4.623
 2912SOL    HW111202   4.621   2.356   4.527
 2912SOL    HW211203   4.694   2.283   4.654
 2913SOL     OW11204   4.263   1.926   4.236
 2913SOL    HW111205   4.182   1.927   4.294
 2913SOL    HW211206   4.266   2.009   4.181
 2914SOL     OW11207   4.021   1.897   3.895
 2914SOL    HW111208   4.070   1.981   3.874
 2914SOL    HW211209   4.083   1.832   3.940
 2915SOL     OW11210   4.659   2.098   4.204
 2915SOL    HW111211   4.611   2.139   4.126
 2915SOL    HW211212   4.758   2.096   4.185
 2916SOL     OW11213   4.951   3.432   4.517
 2916SOL    HW111214   4.972   3.506   4.452
 2916SOL    HW211215   5.019   3.432   4.590
 2917SOL     OW11216   4.183   3.014   4.465
 2917SOL    HW111217   4.112   2.987   4.530
 2917SOL    HW211218   4.157   2.986   4.372
 2918SOL     OW11219   4.756   2.411   3.740
 2918SOL    HW111220   4.715   2.493   3.701
 2918SOL    HW211221   4.820   2.437   3.813
 2919SOL     OW11222   4.285   2.084   4.871
 2919SOL    HW111223   4.323   2.000   4.908
 2919SOL    HW211224   4.197   2.103   4.915
 2920SOL     OW11225   4.590   2.316   4.366
 2920SOL    HW111226   4.558   2.388   4.304
 2920SOL    HW211227   4.614   2.235   4.313
 2921SOL     OW11228   4.741   1.901   4.477
 2921SOL    HW111229   4.669   1.906   4.408
 2921SOL    HW211230   4.717   1.832   4.546
 2922SOL     OW11231   4.212   3.247   3.898
 2922SOL    HW111232   4.125   3.232   3.945
 2922SOL    HW211233   4.195   3.273   3.803
 2923SOL     OW11234   5.388   3.142   4.381
 2923SOL    HW111235   5.487   3.150   4.395
 2923SOL    HW211236   5.343   3.226   4.412
 2924SOL     OW11237   4.251   2.118   4.052
 2924SOL    HW111238   4.278   2.059   3.977
 2924SOL    HW211239   4.251   2.213   4.021
 2925SOL     OW11240   5.316   3.491   5.349
 2925SOL    HW111241   5.343   3.525   5.259
 2925SOL    HW211242   5.395   3.453   5.395
 2926SOL     OW11243   4.429   2.912   4.092
 2926SOL    HW111244   4.415   2.919   4.191
 2926SOL    HW211245   4.513   2.861   4.074
 2927SOL     OW11246   4.134   2.675   4.975
 2927SOL    HW111247   4.220   2.687   5.025
 2927SOL    HW211248   4.092   2.588   5.002
 2928SOL     OW11249   4.290   2.399   4.589
 2928SOL    HW111250   4.302   2.465   4.515
 2928SOL    HW211251   4.336   2.433   4.672
 2929SOL     OW11252   4.976   3.210   4.112
 2929SOL    HW111253   5.026   3.287   4.152
 2929SOL    HW211254   4.881   3.212   4.144
 2930SOL     OW11255   4.078   3.372   5.053
 2930SOL    HW111256   4.057   3.328   4.966
 2930SOL    HW211257   4.175   3.398   5.056
 2931SOL     OW11258   4.297   2.732   4.753
 2931SOL    HW111259   4.341   2.821   4.744
 2931SOL    HW211260   4.234   2.732   4.830
 2932SOL     OW11261   5.084   2.724   4.769
 2932SOL    HW111262   5.009   2.724   4.703
 2932SOL    HW211263   5.121   2.632   4.778
 2933SOL     OW11264   4.933   2.387   3.999
 2933SOL    HW111265   4.946   2.303   4.053
 2933SOL    HW211266   4.904   2.461   4.059
 2934SOL     OW11267   4.031   2.075   4.955
 2934SOL    HW111268   4.008   2.112   5.045
 2934SOL    HW211269   4.001   1.980   4.949
 2935SOL     OW11270   3.761   3.172   5.006
 2935SOL    HW111271   3.814   3.123   5.074
 2935SOL    HW211272   3.783   3.270   5.011
 2936SOL     OW11273   4.456   2.496   4.788
 2936SOL    HW111274   4.515   2.470   4.712
 2936SOL    HW211275   4.428   2.592   4.777
 2937SOL     OW11276   4.031   1.925   4.342
 2937SOL    HW111277   4.020   2.019   4.375
 2937SOL    HW211278   4.026   1.862   4.419
 2938SOL     OW11279   5.346   2.229   4.098
 2938SOL    HW111280   5.348   2.153   4.162
 2938SOL    HW211281   5.298   2.306   4.138
 2939SOL     OW11282   4.747   2.628   4.690
 2939SOL    HW111283   4.762   2.649   4.786
 2939SOL    HW211284   4.717   2.533   4.681
 2940SOL     OW11285   5.027   2.700   3.766
 2940SOL    HW111286   5.061   2.607   3.781
 2940SOL    HW211287   5.045   2.727   3.671
 2941SOL     OW11288   4.792   3.195   4.573
 2941SOL    HW111289   4.799   3.111   4.518
 2941SOL    HW211290   4.854   3.264   4.537
 2942SOL     OW11291   4.043   2.672   4.673
 2942SOL    HW111292   4.136   2.708   4.678
 2942SOL    HW211293   4.037   2.587   4.725
 2943SOL     OW11294   4.063   2.371   4.730
 2943SOL    HW111295   4.011   2.288   4.713
 2943SOL    HW211296   4.140   2.376   4.666
 2944SOL     OW11297   4.884   2.069   5.201
 2944SOL    HW111298   4.884   2.133   5.278
 2944SOL    HW211299   4.912   2.117   5.118
 2945SOL     OW11300   3.812   3.663   4.651
 2945SOL    HW111301   3.770   3.577   4.624
 2945SOL    HW211302   3.906   3.666   4.617
 2946SOL     OW11303   4.228   3.430   4.634
 2946SOL    HW111304   4.294   3.504   4.643
 2946SOL    HW211305   4.272   3.351   4.592
 2947SOL     OW11306   3.764   2.406   4.838
 2947SOL    HW111307   3.849   2.373   4.797
 2947SOL    HW211308   3.777   2.421   4.936
 2948SOL     OW11309   4.395   2.326   4.993
 2948SOL    HW111310   4.361   2.237   4.963
 2948SOL    HW211311   4.421   2.380   4.913
 2949SOL     OW11312   4.976   3.593   4.852
 2949SOL    HW111313   5.060   3.598   4.798
 2949SOL    HW211314   4.953   3.497   4.870
 2950SOL     OW11315   3.807   3.120   4.746
 2950SOL    HW111316   3.802   3.119   4.846
 2950SOL    HW211317   3.724   3.079   4.708
 2951SOL     OW11318   5.112   3.435   4.201
 2951SOL    HW111319   5.179   3.447   4.127
 2951SOL    HW211320   5.072   3.524   4.224
 2952SOL     OW11321   5.004   2.789   4.396
 2952SOL    HW111322   5.064   2.708   4.398
 2952SOL    HW211323   5.044   2.858   4.336
 2953SOL     OW11324   4.396   3.478   3.878
 2953SOL    HW111325   4.405   3.488   3.779
 2953SOL    HW211326   4.356   3.389   3.899
 2954SOL     OW11327   3.987   2.188   4.444
 2954SOL    HW111328   3.908   2.239   4.410
 2954SOL    HW211329   3.978   2.173   4.542
 2955SOL     OW11330   4.918   3.474   3.755
 2955SOL    HW111331   4.924   3.381   3.792
 2955SOL    HW211332   4.859   3.474   3.675
 2956SOL     OW11333   4.640   2.772   4.015
 2956SOL    HW111334   4.703   2.810   3.947
 2956SOL    HW211335   4.680   2.689   4.054
 2957SOL     OW11336   4.763   2.960   4.420
 2957SOL    HW111337   4.693   2.913   4.474
 2957SOL    HW211338   4.822   2.892   4.377
 2958SOL     OW11339   4.738   2.098   4.695
 2958SOL    HW111340   4.730   2.062   4.602
 2958SOL    HW211341   4.736   2.022   4.760
 2959SOL     OW11342   4.314   3.349   4.215
 2959SOL    HW111343   4.356   3.291   4.145
 2959SOL    HW211344   4.270   3.428   4.171
 2960SOL     OW11345   3.799   2.207   3.757
 2960SOL    HW111346   3.707   2.179   3.728
 2960SOL    HW211347   3.830   2.284   3.701
 2961SOL     OW11348   3.796   2.028   4.042
 2961SOL    HW111349   3.779   2.111   3.988
 2961SOL    HW211350   3.886   1.991   4.020
 2962SOL     OW11351   4.949   2.187   4.173
 2962SOL    HW111352   5.014   2.113   4.162
 2962SOL    HW211353   4.969   2.237   4.257
 2963SOL     OW11354   4.318   2.607   4.376
 2963SOL    HW111355   4.368   2.692   4.357
 2963SOL    HW211356   4.230   2.609   4.328
 2964SOL     OW11357   4.385   3.652   4.677
 2964SOL    HW111358   4.339   3.740   4.664
 2964SOL    HW211359   4.484   3.664   4.670
 2965SOL     OW11360   4.583   2.818   4.585
 2965SOL    HW111361   4.637   2.749   4.633
 2965SOL    HW211362   4.551   2.887   4.651
 2966SOL     OW11363   4.807   2.846   3.811
 2966SOL    HW111364   4.784   2.899   3.729
 2966SOL    HW211365   4.888   2.790   3.792
 2967SOL     OW11366   3.803   3.102   4.377
 2967SOL    HW111367   3.802   3.055   4.465
 2967SOL    HW211368   3.885   3.074   4.326
 2968SOL     OW11369   4.152   2.286   4.244
 2968SOL    HW111370   4.182   2.214   4.182
 2968SOL    HW211371   4.113   2.246   4.327
 2969SOL     OW11372   4.536   3.448   4.411
 2969SOL    HW111373   4.568   3.458   4.317
 2969SOL    HW211374   4.457   3.386   4.413
 2970SOL     OW11375   4.725   1.896   4.878
 2970SOL    HW111376   4.662   1.824   4.847
 2970SOL    HW211377   4.818   1.860   4.878
 2971SOL     OW11378   4.494   3.192   4.025
 2971SOL    HW111379   4.448   3.105   4.042
 2971SOL    HW211380   4.585   3.189   4.066
 2972SOL     OW11381   4.599   3.508   4.061
 2972SOL    HW111382   4.522   3.473   4.007
 2972SOL    HW211383   4.567   3.579   4.123
 2973SOL     OW11384   3.954   4.352   0.113
 2973SOL    HW111385   3.861   4.350   0.150
 2973SOL    HW211386   3.955   4.313   0.021
 2974SOL     OW11387   3.743   4.092   0.647
 2974SOL    HW111388   3.661   4.135   0.686
 2974SOL    HW211389   3.715   4.019   0.584
 2975SOL     OW11390   4.293   4.999   1.165
 2975SOL    HW111391   4.200   4.992   1.128
 2975SOL    HW211392   4.304   5.088   1.209
 2976SOL     OW11393   4.859   4.427   0.717
 2976SOL    HW111394   4.916   4.505   0.692
 2976SOL    HW211395   4.799   4.453   0.793
 2977SOL     OW11396   4.492   4.868   1.023
 2977SOL    HW111397   4.414   4.885   1.083
 2977SOL    HW211398   4.526   4.955   0.987
 2978SOL     OW11399   4.574   4.522   1.823
 2978SOL    HW111400   4.570   4.598   1.888
 2978SOL    HW211401   4.596   4.558   1.732
 2979SOL     OW11402   4.409   4.736   0.665
 2979SOL    HW111403   4.478   4.720   0.735
 2979SOL    HW211404   4.336   4.793   0.703
 2980SOL     OW11405   4.059   5.159   1.061
 2980SOL    HW111406   3.981   5.128   1.008
 2980SOL    HW211407   4.117   5.217   1.004
 2981SOL     OW11408   4.162   4.116   1.499
 2981SOL    HW111409   4.244   4.060   1.508
 2981SOL    HW211410   4.081   4.058   1.503
 2982SOL     OW11411   3.964   4.815   0.886
 2982SOL    HW111412   3.978   4.731   0.938
 2982SOL    HW211413   3.909   4.879   0.941
 2983SOL     OW11414   4.330   4.688   0.123
 2983SOL    HW111415   4.337   4.772   0.069
 2983SOL    HW211416   4.376   4.701   0.211
 2984SOL     OW11417   3.846   4.367   0.563
 2984SOL    HW111418   3.801   4.279   0.580
 2984SOL    HW211419   3.845   4.421   0.647
 2985SOL     OW11420   5.017   4.952   1.423
 2985SOL    HW111421   5.054   4.879   1.365
 2985SOL    HW211422   5.069   4.957   1.508
 2986SOL     OW11423   4.533   3.728   0.502
 2986SOL    HW111424   4.573   3.819   0.493
 2986SOL    HW211425   4.433   3.736   0.508
 2987SOL     OW11426   3.921   4.700   1.264
 2987SOL    HW111427   4.010   4.655   1.250
 2987SOL    HW211428   3.848   4.635   1.245
 2988SOL     OW11429   4.041   3.975   1.801
 2988SOL    HW111430   4.112   4.046   1.807
 2988SOL    HW211431   3.953   4.014   1.829
 2989SOL     OW11432   4.322   4.453   0.270
 2989SOL    HW111433   4.346   4.522   0.202
 2989SOL    HW211434   4.244   4.486   0.324
 2990SOL     OW11435   4.531   4.329   1.465
 2990SOL    HW111436   4.484   4.326   1.554
 2990SOL    HW211437   4.480   4.274   1.399
 2991SOL     OW11438   4.697   4.614   1.572
 2991SOL    HW111439   4.743   4.530   1.543
 2991SOL    HW211440   4.641   4.648   1.497
 2992SOL     OW11441   4.715   4.134   1.242
 2992SOL    HW111442   4.638   4.168   1.296
 2992SOL    HW211443   4.681   4.083   1.163
 2993SOL     OW11444   4.765   4.425   0.429
 2993SOL    HW111445   4.791   4.421   0.525
 2993SOL    HW211446   4.680   4.374   0.415
 2994SOL     OW11447   3.800   4.535   0.789
 2994SOL    HW111448   3.899   4.523   0.798
 2994SOL    HW211449   3.776   4.630   0.810
 2995SOL     OW11450   4.589   4.072   0.195
 2995SOL    HW111451   4.648   4.135   0.146
 2995SOL    HW211452   4.608   3.978   0.166
 2996SOL     OW11453   4.045   4.667   0.242
 2996SOL    HW111454   4.127   4.706   0.200
 2996SOL    HW211455   4.018   4.585   0.193
 2997SOL     OW11456   3.926   4.009   1.498
 2997SOL    HW111457   3.846   4.069   1.485
 2997SOL    HW211458   3.916   3.960   1.584
 2998SOL     OW11459   4.106   4.424   0.480
 2998SOL    HW111460   4.151   4.334   0.477
 2998SOL    HW211461   4.012   4.413   0.513
 2999SOL     OW11462   4.505   3.988   1.749
 2999SOL    HW111463   4.572   3.927   1.792
 2999SOL    HW211464   4.432   4.007   1.814
 3000SOL     OW11465   4.527   5.126   0.924
 3000SOL    HW111466   4.617   5.140   0.882
 3000SOL    HW211467   4.456   5.128   0.853
 3001SOL     OW11468   4.646   4.227   0.899
 3001SOL    HW111469   4.621   4.218   0.803
 3001SOL    HW211470   4.694   4.145   0.930
 3002SOL     OW11471   4.263   3.788   0.512
 3002SOL    HW111472   4.182   3.789   0.570
 3002SOL    HW211473   4.266   3.871   0.457
 3003SOL     OW11474   4.021   3.759   0.171
 3003SOL    HW111475   4.070   3.843   0.150
 3003SOL    HW211476   4.083   3.694   0.216
 3004SOL     OW11477   4.659   3.960   0.480
 3004SOL    HW111478   4.611   4.001   0.402
 3004SOL    HW211479   4.758   3.958   0.461
 3005SOL     OW11480   4.800   4.407   1.464
 3005SOL    HW111481   4.720   4.346   1.467
 3005SOL    HW211482   4.881   4.354   1.440
 3006SOL     OW11483   4.951   5.294   0.793
 3006SOL    HW111484   4.972   5.368   0.728
 3006SOL    HW211485   5.019   5.294   0.866
 3007SOL     OW11486   4.183   4.876   0.741
 3007SOL    HW111487   4.112   4.849   0.806
 3007SOL    HW211488   4.157   4.848   0.648
 3008SOL     OW11489   4.756   4.273   0.016
 3008SOL    HW111490   4.715   4.355  -0.023
 3008SOL    HW211491   4.820   4.299   0.089
 3009SOL     OW11492   3.802   4.280   1.386
 3009SOL    HW111493   3.894   4.279   1.345
 3009SOL    HW211494   3.796   4.354   1.453
 3010SOL     OW11495   4.590   4.178   0.642
 3010SOL    HW111496   4.558   4.250   0.580
 3010SOL    HW211497   4.614   4.097   0.589
 3011SOL     OW11498   4.251   3.980   0.328
 3011SOL    HW111499   4.278   3.921   0.253
 3011SOL    HW211500   4.251   4.075   0.297
 3012SOL     OW11501   4.639   3.813   1.402
 3012SOL    HW111502   4.664   3.793   1.307
 3012SOL    HW211503   4.711   3.869   1.444
 3013SOL     OW11504   4.429   4.774   0.368
 3013SOL    HW111505   4.415   4.781   0.467
 3013SOL    HW211506   4.513   4.723   0.350
 3014SOL     OW11507   4.134   4.537   1.251
 3014SOL    HW111508   4.220   4.549   1.301
 3014SOL    HW211509   4.092   4.450   1.278
 3015SOL     OW11510   4.091   4.824   0.501
 3015SOL    HW111511   4.084   4.907   0.445
 3015SOL    HW211512   4.095   4.744   0.441
 3016SOL     OW11513   4.976   5.072   0.388
 3016SOL    HW111514   5.026   5.149   0.428
 3016SOL    HW211515   4.881   5.074   0.420
 3017SOL     OW11516   4.126   4.475   1.598
 3017SOL    HW111517   4.194   4.530   1.551
 3017SOL    HW211518   4.166   4.387   1.625
 3018SOL     OW11519   4.228   3.774   1.740
 3018SOL    HW111520   4.186   3.717   1.670
 3018SOL    HW211521   4.162   3.843   1.772
 3019SOL     OW11522   4.297   4.594   1.029
 3019SOL    HW111523   4.341   4.683   1.020
 3019SOL    HW211524   4.234   4.594   1.106
 3020SOL     OW11525   5.084   4.586   1.045
 3020SOL    HW111526   5.009   4.586   0.979
 3020SOL    HW211527   5.121   4.494   1.054
 3021SOL     OW11528   4.933   4.249   0.275
 3021SOL    HW111529   4.946   4.165   0.329
 3021SOL    HW211530   4.904   4.323   0.335
 3022SOL     OW11531   4.456   4.358   1.064
 3022SOL    HW111532   4.515   4.332   0.988
 3022SOL    HW211533   4.428   4.454   1.053
 3023SOL     OW11534   5.346   4.091   0.374
 3023SOL    HW111535   5.348   4.015   0.438
 3023SOL    HW211536   5.298   4.168   0.414
 3024SOL     OW11537   4.747   4.490   0.966
 3024SOL    HW111538   4.762   4.511   1.062
 3024SOL    HW211539   4.717   4.395   0.957
 3025SOL     OW11540   4.074   4.622   1.804
 3025SOL    HW111541   4.150   4.666   1.852
 3025SOL    HW211542   4.109   4.575   1.722
 3026SOL     OW11543   5.027   4.562   0.042
 3026SOL    HW111544   5.061   4.469   0.057
 3026SOL    HW211545   5.045   4.589  -0.053
 3027SOL     OW11546   4.043   4.534   0.949
 3027SOL    HW111547   4.136   4.570   0.954
 3027SOL    HW211548   4.037   4.449   1.001
 3028SOL     OW11549   4.063   4.233   1.006
 3028SOL    HW111550   4.011   4.150   0.989
 3028SOL    HW211551   4.140   4.238   0.942
 3029SOL     OW11552   4.726   4.520   1.238
 3029SOL    HW111553   4.767   4.488   1.324
 3029SOL    HW211554   4.630   4.493   1.235
 3030SOL     OW11555   3.764   4.268   1.114
 3030SOL    HW111556   3.849   4.235   1.073
 3030SOL    HW211557   3.777   4.283   1.212
 3031SOL     OW11558   4.539   4.296   0.325
 3031SOL    HW111559   4.546   4.207   0.279
 3031SOL    HW211560   4.445   4.330   0.317
 3032SOL     OW11561   4.197   4.224   0.191
 3032SOL    HW111562   4.258   4.304   0.195
 3032SOL    HW211563   4.102   4.255   0.198
 3033SOL     OW11564   3.883   4.861   1.466
 3033SOL    HW111565   3.905   4.800   1.542
 3033SOL    HW211566   3.893   4.812   1.380
 3034SOL     OW11567   5.071   4.783   1.234
 3034SOL    HW111568   5.095   4.720   1.160
 3034SOL    HW211569   4.981   4.823   1.216
 3035SOL     OW11570   3.807   4.982   1.022
 3035SOL    HW111571   3.802   4.981   1.122
 3035SOL    HW211572   3.724   4.941   0.984
 3036SOL     OW11573   4.627   3.810   0.133
 3036SOL    HW111574   4.678   3.811   0.047
 3036SOL    HW211575   4.683   3.768   0.204
 3037SOL     OW11576   5.004   4.651   0.672
 3037SOL    HW111577   5.064   4.570   0.674
 3037SOL    HW211578   5.044   4.720   0.612
 3038SOL     OW11579   3.987   4.050   0.720
 3038SOL    HW111580   3.908   4.101   0.686
 3038SOL    HW211581   3.978   4.035   0.818
 3039SOL     OW11582   4.546   4.726   1.372
 3039SOL    HW111583   4.586   4.725   1.280
 3039SOL    HW211584   4.556   4.818   1.412
 3040SOL     OW11585   4.640   4.634   0.291
 3040SOL    HW111586   4.703   4.672   0.223
 3040SOL    HW211587   4.680   4.551   0.330
 3041SOL     OW11588   4.096   5.012   1.490
 3041SOL    HW111589   4.083   5.105   1.456
 3041SOL    HW211590   4.012   4.960   1.477
 3042SOL     OW11591   4.763   4.822   0.696
 3042SOL    HW111592   4.693   4.775   0.750
 3042SOL    HW211593   4.822   4.754   0.653
 3043SOL     OW11594   4.738   3.960   0.971
 3043SOL    HW111595   4.730   3.924   0.878
 3043SOL    HW211596   4.736   3.884   1.036
 3044SOL     OW11597   3.829   4.737   1.726
 3044SOL    HW111598   3.752   4.704   1.780
 3044SOL    HW211599   3.914   4.707   1.768
 3045SOL     OW11600   4.396   3.927   1.489
 3045SOL    HW111601   4.486   3.911   1.449
 3045SOL    HW211602   4.404   3.932   1.588
 3046SOL     OW11603   5.164   4.580   1.398
 3046SOL    HW111604   5.107   4.632   1.335
 3046SOL    HW211605   5.260   4.592   1.374
 3047SOL     OW11606   3.796   3.890   0.318
 3047SOL    HW111607   3.779   3.973   0.264
 3047SOL    HW211608   3.886   3.853   0.296
 3048SOL     OW11609   4.337   4.566   1.431
 3048SOL    HW111610   4.393   4.647   1.414
 3048SOL    HW211611   4.396   4.486   1.434
 3049SOL     OW11612   4.440   4.289   1.708
 3049SOL    HW111613   4.459   4.354   1.782
 3049SOL    HW211614   4.500   4.209   1.717
 3050SOL     OW11615   5.174   4.944   1.633
 3050SOL    HW111616   5.165   4.934   1.732
 3050SOL    HW211617   5.270   4.937   1.607
 3051SOL     OW11618   4.949   4.049   0.449
 3051SOL    HW111619   5.014   3.975   0.438
 3051SOL    HW211620   4.969   4.099   0.533
 3052SOL     OW11621   4.318   4.469   0.652
 3052SOL    HW111622   4.368   4.554   0.633
 3052SOL    HW211623   4.230   4.471   0.604
 3053SOL     OW11624   4.583   4.680   0.861
 3053SOL    HW111625   4.637   4.611   0.909
 3053SOL    HW211626   4.551   4.749   0.927
 3054SOL     OW11627   3.803   4.964   0.653
 3054SOL    HW111628   3.802   4.917   0.741
 3054SOL    HW211629   3.885   4.936   0.602
 3055SOL     OW11630   4.152   4.148   0.520
 3055SOL    HW111631   4.182   4.076   0.458
 3055SOL    HW211632   4.113   4.108   0.603
 3056SOL     OW11633   4.041   4.271   1.280
 3056SOL    HW111634   4.079   4.212   1.352
 3056SOL    HW211635   4.081   4.245   1.192
 3057SOL     OW11636   4.725   3.758   1.154
 3057SOL    HW111637   4.662   3.686   1.123
 3057SOL    HW211638   4.818   3.722   1.154
 3058SOL     OW11639   3.763   4.801   0.300
 3058SOL    HW111640   3.862   4.790   0.291
 3058SOL    HW211641   3.723   4.715   0.332
 3059SOL     OW11642   3.949   3.999   2.858
 3059SOL    HW111643   3.984   3.982   2.950
 3059SOL    HW211644   3.861   3.954   2.846
 3060SOL     OW11645   3.743   4.092   2.509
 3060SOL    HW111646   3.661   4.135   2.548
 3060SOL    HW211647   3.715   4.019   2.446
 3061SOL     OW11648   4.492   4.868   2.885
 3061SOL    HW111649   4.414   4.885   2.945
 3061SOL    HW211650   4.526   4.955   2.849
 3062SOL     OW11651   4.409   4.736   2.527
 3062SOL    HW111652   4.478   4.720   2.597
 3062SOL    HW211653   4.336   4.793   2.565
 3063SOL     OW11654   4.410   4.885   3.665
 3063SOL    HW111655   4.470   4.964   3.679
 3063SOL    HW211656   4.324   4.916   3.624
 3064SOL     OW11657   4.162   4.116   3.361
 3064SOL    HW111658   4.244   4.060   3.370
 3064SOL    HW211659   4.081   4.058   3.365
 3065SOL     OW11660   3.964   4.815   2.748
 3065SOL    HW111661   3.978   4.731   2.800
 3065SOL    HW211662   3.909   4.879   2.803
 3066SOL     OW11663   4.330   4.688   1.985
 3066SOL    HW111664   4.337   4.772   1.931
 3066SOL    HW211665   4.376   4.701   2.073
 3067SOL     OW11666   3.846   4.367   2.425
 3067SOL    HW111667   3.801   4.279   2.442
 3067SOL    HW211668   3.845   4.421   2.509
 3068SOL     OW11669   3.837   4.461   3.459
 3068SOL    HW111670   3.925   4.448   3.504
 3068SOL    HW211671   3.824   4.558   3.437
 3069SOL     OW11672   5.017   4.952   3.285
 3069SOL    HW111673   5.054   4.879   3.227
 3069SOL    HW211674   5.069   4.957   3.370
 3070SOL     OW11675   4.533   3.728   2.364
 3070SOL    HW111676   4.573   3.819   2.355
 3070SOL    HW211677   4.433   3.736   2.370
 3071SOL     OW11678   4.041   3.975   3.663
 3071SOL    HW111679   4.112   4.046   3.669
 3071SOL    HW211680   3.953   4.014   3.691
 3072SOL     OW11681   4.322   4.453   2.132
 3072SOL    HW111682   4.346   4.522   2.064
 3072SOL    HW211683   4.244   4.486   2.186
 3073SOL     OW11684   5.005   4.069   2.806
 3073SOL    HW111685   4.919   4.019   2.793
 3073SOL    HW211686   5.067   4.015   2.862
 3074SOL     OW11687   4.531   4.329   3.327
 3074SOL    HW111688   4.484   4.326   3.416
 3074SOL    HW211689   4.480   4.274   3.261
 3075SOL     OW11690   4.715   4.134   3.104
 3075SOL    HW111691   4.638   4.168   3.158
 3075SOL    HW211692   4.681   4.083   3.025
 3076SOL     OW11693   4.765   4.425   2.291
 3076SOL    HW111694   4.791   4.421   2.387
 3076SOL    HW211695   4.680   4.374   2.277
 3077SOL     OW11696   3.800   4.535   2.651
 3077SOL    HW111697   3.899   4.523   2.660
 3077SOL    HW211698   3.776   4.630   2.672
 3078SOL     OW11699   4.589   4.072   2.057
 3078SOL    HW111700   4.648   4.135   2.008
 3078SOL    HW211701   4.608   3.978   2.028
 3079SOL     OW11702   4.274   3.920   2.747
 3079SOL    HW111703   4.269   3.915   2.847
 3079SOL    HW211704   4.276   4.016   2.718
 3080SOL     OW11705   4.045   4.667   2.104
 3080SOL    HW111706   4.127   4.706   2.062
 3080SOL    HW211707   4.018   4.585   2.055
 3081SOL     OW11708   4.106   4.424   2.342
 3081SOL    HW111709   4.151   4.334   2.339
 3081SOL    HW211710   4.012   4.413   2.375
 3082SOL     OW11711   4.338   3.846   1.979
 3082SOL    HW111712   4.436   3.824   1.986
 3082SOL    HW211713   4.307   3.829   1.886
 3083SOL     OW11714   4.505   3.988   3.611
 3083SOL    HW111715   4.572   3.927   3.654
 3083SOL    HW211716   4.432   4.007   3.676
 3084SOL     OW11717   4.527   5.126   2.786
 3084SOL    HW111718   4.617   5.140   2.744
 3084SOL    HW211719   4.456   5.128   2.715
 3085SOL     OW11720   4.646   4.227   2.761
 3085SOL    HW111721   4.621   4.218   2.665
 3085SOL    HW211722   4.694   4.145   2.792
 3086SOL     OW11723   4.263   3.788   2.374
 3086SOL    HW111724   4.182   3.789   2.432
 3086SOL    HW211725   4.266   3.871   2.319
 3087SOL     OW11726   5.158   4.912   1.903
 3087SOL    HW111727   5.190   4.836   1.960
 3087SOL    HW211728   5.066   4.939   1.933
 3088SOL     OW11729   4.021   3.759   2.033
 3088SOL    HW111730   4.070   3.843   2.012
 3088SOL    HW211731   4.083   3.694   2.078
 3089SOL     OW11732   4.659   3.960   2.342
 3089SOL    HW111733   4.611   4.001   2.264
 3089SOL    HW211734   4.758   3.958   2.323
 3090SOL     OW11735   4.951   5.294   2.655
 3090SOL    HW111736   4.972   5.368   2.590
 3090SOL    HW211737   5.019   5.294   2.728
 3091SOL     OW11738   4.183   4.876   2.603
 3091SOL    HW111739   4.112   4.849   2.668
 3091SOL    HW211740   4.157   4.848   2.510
 3092SOL     OW11741   4.756   4.273   1.878
 3092SOL    HW111742   4.715   4.355   1.839
 3092SOL    HW211743   4.820   4.299   1.951
 3093SOL     OW11744   4.590   4.178   2.504
 3093SOL    HW111745   4.558   4.250   2.442
 3093SOL    HW211746   4.614   4.097   2.451
 3094SOL     OW11747   4.741   3.763   2.615
 3094SOL    HW111748   4.669   3.768   2.546
 3094SOL    HW211749   4.717   3.694   2.684
 3095SOL     OW11750   4.251   3.980   2.190
 3095SOL    HW111751   4.278   3.921   2.115
 3095SOL    HW211752   4.251   4.075   2.159
 3096SOL     OW11753   4.639   3.813   3.264
 3096SOL    HW111754   4.664   3.793   3.169
 3096SOL    HW211755   4.711   3.869   3.306
 3097SOL     OW11756   4.429   4.774   2.230
 3097SOL    HW111757   4.415   4.781   2.329
 3097SOL    HW211758   4.513   4.723   2.212
 3098SOL     OW11759   4.998   4.110   3.124
 3098SOL    HW111760   5.019   4.184   3.188
 3098SOL    HW211761   4.909   4.127   3.081
 3099SOL     OW11762   4.091   4.824   2.363
 3099SOL    HW111763   4.084   4.907   2.307
 3099SOL    HW211764   4.095   4.744   2.303
 3100SOL     OW11765   4.290   4.261   2.727
 3100SOL    HW111766   4.302   4.327   2.653
 3100SOL    HW211767   4.336   4.295   2.810
 3101SOL     OW11768   4.126   4.475   3.460
 3101SOL    HW111769   4.194   4.530   3.413
 3101SOL    HW211770   4.166   4.387   3.487
 3102SOL     OW11771   4.737   3.829   3.632
 3102SOL    HW111772   4.743   3.914   3.580
 3102SOL    HW211773   4.769   3.753   3.575
 3103SOL     OW11774   4.297   4.594   2.891
 3103SOL    HW111775   4.341   4.683   2.882
 3103SOL    HW211776   4.234   4.594   2.968
 3104SOL     OW11777   5.084   4.586   2.907
 3104SOL    HW111778   5.009   4.586   2.841
 3104SOL    HW211779   5.121   4.494   2.916
 3105SOL     OW11780   4.933   4.249   2.137
 3105SOL    HW111781   4.946   4.165   2.191
 3105SOL    HW211782   4.904   4.323   2.197
 3106SOL     OW11783   4.456   4.358   2.926
 3106SOL    HW111784   4.515   4.332   2.850
 3106SOL    HW211785   4.428   4.454   2.915
 3107SOL     OW11786   4.031   3.787   2.480
 3107SOL    HW111787   4.020   3.881   2.513
 3107SOL    HW211788   4.026   3.724   2.557
 3108SOL     OW11789   5.346   4.091   2.236
 3108SOL    HW111790   5.348   4.015   2.300
 3108SOL    HW211791   5.298   4.168   2.276
 3109SOL     OW11792   4.747   4.490   2.828
 3109SOL    HW111793   4.762   4.511   2.924
 3109SOL    HW211794   4.717   4.395   2.819
 3110SOL     OW11795   4.074   4.622   3.666
 3110SOL    HW111796   4.150   4.666   3.714
 3110SOL    HW211797   4.109   4.575   3.584
 3111SOL     OW11798   5.027   4.562   1.904
 3111SOL    HW111799   5.061   4.469   1.919
 3111SOL    HW211800   5.045   4.589   1.809
 3112SOL     OW11801   4.862   4.104   3.540
 3112SOL    HW111802   4.817   4.167   3.604
 3112SOL    HW211803   4.955   4.135   3.523
 3113SOL     OW11804   4.884   3.931   3.339
 3113SOL    HW111805   4.884   3.995   3.416
 3113SOL    HW211806   4.912   3.979   3.256
 3114SOL     OW11807   3.732   5.050   2.062
 3114SOL    HW111808   3.639   5.071   2.031
 3114SOL    HW211809   3.742   4.951   2.075
 3115SOL     OW11810   3.913   4.244   3.584
 3115SOL    HW111811   3.972   4.204   3.514
 3115SOL    HW211812   3.855   4.315   3.543
 3116SOL     OW11813   4.539   4.296   2.187
 3116SOL    HW111814   4.546   4.207   2.141
 3116SOL    HW211815   4.445   4.330   2.179
 3117SOL     OW11816   4.395   4.188   3.131
 3117SOL    HW111817   4.361   4.099   3.101
 3117SOL    HW211818   4.421   4.242   3.051
 3118SOL     OW11819   4.197   4.224   2.053
 3118SOL    HW111820   4.258   4.304   2.057
 3118SOL    HW211821   4.102   4.255   2.060
 3119SOL     OW11822   3.883   4.861   3.328
 3119SOL    HW111823   3.905   4.800   3.404
 3119SOL    HW211824   3.893   4.812   3.242
 3120SOL     OW11825   3.807   4.982   2.884
 3120SOL    HW111826   3.802   4.981   2.984
 3120SOL    HW211827   3.724   4.941   2.846
 3121SOL     OW11828   4.554   4.997   3.284
 3121SOL    HW111829   4.549   5.030   3.379
 3121SOL    HW211830   4.468   5.016   3.238
 3122SOL     OW11831   3.987   4.050   2.582
 3122SOL    HW111832   3.908   4.101   2.548
 3122SOL    HW211833   3.978   4.035   2.680
 3123SOL     OW11834   4.546   4.726   3.234
 3123SOL    HW111835   4.586   4.725   3.142
 3123SOL    HW211836   4.556   4.818   3.274
 3124SOL     OW11837   4.640   4.634   2.153
 3124SOL    HW111838   4.703   4.672   2.085
 3124SOL    HW211839   4.680   4.551   2.192
 3125SOL     OW11840   4.738   3.960   2.833
 3125SOL    HW111841   4.730   3.924   2.740
 3125SOL    HW211842   4.736   3.884   2.898
 3126SOL     OW11843   3.829   4.737   3.588
 3126SOL    HW111844   3.752   4.704   3.642
 3126SOL    HW211845   3.914   4.707   3.630
 3127SOL     OW11846   4.396   3.927   3.351
 3127SOL    HW111847   4.486   3.911   3.311
 3127SOL    HW211848   4.404   3.932   3.450
 3128SOL     OW11849   3.796   3.890   2.180
 3128SOL    HW111850   3.779   3.973   2.126
 3128SOL    HW211851   3.886   3.853   2.158
 3129SOL     OW11852   4.440   4.289   3.570
 3129SOL    HW111853   4.459   4.354   3.644
 3129SOL    HW211854   4.500   4.209   3.579
 3130SOL     OW11855   5.174   4.944   3.495
 3130SOL    HW111856   5.165   4.934   3.594
 3130SOL    HW211857   5.270   4.937   3.469
 3131SOL     OW11858   4.318   4.469   2.514
 3131SOL    HW111859   4.368   4.554   2.495
 3131SOL    HW211860   4.230   4.471   2.466
 3132SOL     OW11861   4.583   4.680   2.723
 3132SOL    HW111862   4.637   4.611   2.771
 3132SOL    HW211863   4.551   4.749   2.789
 3133SOL     OW11864   4.807   4.708   1.949
 3133SOL    HW111865   4.784   4.761   1.867
 3133SOL    HW211866   4.888   4.652   1.930
 3134SOL     OW11867   3.803   4.964   2.515
 3134SOL    HW111868   3.802   4.917   2.603
 3134SOL    HW211869   3.885   4.936   2.464
 3135SOL     OW11870   4.152   4.148   2.382
 3135SOL    HW111871   4.182   4.076   2.320
 3135SOL    HW211872   4.113   4.108   2.465
 3136SOL     OW11873   4.725   3.758   3.016
 3136SOL    HW111874   4.662   3.686   2.985
 3136SOL    HW211875   4.818   3.722   3.016
 3137SOL     OW11876   4.494   5.054   2.163
 3137SOL    HW111877   4.448   4.967   2.180
 3137SOL    HW211878   4.585   5.051   2.204
 3138SOL     OW11879   3.763   4.801   2.162
 3138SOL    HW111880   3.862   4.790   2.153
 3138SOL    HW211881   3.723   4.715   2.194
 3139SOL     OW11882   3.954   4.352   3.837
 3139SOL    HW111883   3.861   4.350   3.874
 3139SOL    HW211884   3.955   4.313   3.745
 3140SOL     OW11885   3.949   3.999   4.720
 3140SOL    HW111886   3.984   3.982   4.812
 3140SOL    HW211887   3.861   3.954   4.708
 3141SOL     OW11888   3.743   4.092   4.371
 3141SOL    HW111889   3.661   4.135   4.410
 3141SOL    HW211890   3.715   4.019   4.308
 3142SOL     OW11891   4.293   4.999   4.889
 3142SOL    HW111892   4.200   4.992   4.852
 3142SOL    HW211893   4.304   5.088   4.933
 3143SOL     OW11894   4.859   4.427   4.441
 3143SOL    HW111895   4.916   4.505   4.416
 3143SOL    HW211896   4.799   4.453   4.517
 3144SOL     OW11897   4.059   5.159   4.785
 3144SOL    HW111898   3.981   5.128   4.732
 3144SOL    HW211899   4.117   5.217   4.728
 3145SOL     OW11900   4.330   4.688   3.847
 3145SOL    HW111901   4.337   4.772   3.793
 3145SOL    HW211902   4.376   4.701   3.935
 3146SOL     OW11903   3.846   4.367   4.287
 3146SOL    HW111904   3.801   4.279   4.304
 3146SOL    HW211905   3.845   4.421   4.371
 3147SOL     OW11906   4.533   3.728   4.226
 3147SOL    HW111907   4.573   3.819   4.217
 3147SOL    HW211908   4.433   3.736   4.232
 3148SOL     OW11909   4.589   4.072   3.919
 3148SOL    HW111910   4.648   4.135   3.870
 3148SOL    HW211911   4.608   3.978   3.890
 3149SOL     OW11912   4.274   3.920   4.609
 3149SOL    HW111913   4.269   3.915   4.709
 3149SOL    HW211914   4.276   4.016   4.580
 3150SOL     OW11915   4.338   3.846   3.841
 3150SOL    HW111916   4.436   3.824   3.848
 3150SOL    HW211917   4.307   3.829   3.748
 3151SOL     OW11918   4.527   5.126   4.648
 3151SOL    HW111919   4.617   5.140   4.606
 3151SOL    HW211920   4.456   5.128   4.577
 3152SOL     OW11921   4.646   4.227   4.623
 3152SOL    HW111922   4.621   4.218   4.527
 3152SOL    HW211923   4.694   4.145   4.654
 3153SOL     OW11924   5.158   4.912   3.765
 3153SOL    HW111925   5.190   4.836   3.822
 3153SOL    HW211926   5.066   4.939   3.795
 3154SOL     OW11927   4.183   4.876   4.465
 3154SOL    HW111928   4.112   4.849   4.530
 3154SOL    HW211929   4.157   4.848   4.372
 3155SOL     OW11930   4.285   3.946   4.871
 3155SOL    HW111931   4.323   3.862   4.908
 3155SOL    HW211932   4.197   3.965   4.915
 3156SOL     OW11933   4.590   4.178   4.366
 3156SOL    HW111934   4.558   4.250   4.304
 3156SOL    HW211935   4.614   4.097   4.313
 3157SOL     OW11936   4.134   4.537   4.975
 3157SOL    HW111937   4.220   4.549   5.025
 3157SOL    HW211938   4.092   4.450   5.002
 3158SOL     OW11939   4.290   4.261   4.589
 3158SOL    HW111940   4.302   4.327   4.515
 3158SOL    HW211941   4.336   4.295   4.672
 3159SOL     OW11942   5.084   4.586   4.769
 3159SOL    HW111943   5.009   4.586   4.703
 3159SOL    HW211944   5.121   4.494   4.778
 3160SOL     OW11945   4.933   4.249   3.999
 3160SOL    HW111946   4.946   4.165   4.053
 3160SOL    HW211947   4.904   4.323   4.059
 3161SOL     OW11948   4.031   3.937   4.955
 3161SOL    HW111949   4.008   3.974   5.045
 3161SOL    HW211950   4.001   3.842   4.949
 3162SOL     OW11951   4.456   4.358   4.788
 3162SOL    HW111952   4.515   4.332   4.712
 3162SOL    HW211953   4.428   4.454   4.777
 3163SOL     OW11954   5.346   4.091   4.098
 3163SOL    HW111955   5.348   4.015   4.162
 3163SOL    HW211956   5.298   4.168   4.138
 3164SOL     OW11957   4.747   4.490   4.690
 3164SOL    HW111958   4.762   4.511   4.786
 3164SOL    HW211959   4.717   4.395   4.681
 3165SOL     OW11960   5.027   4.562   3.766
 3165SOL    HW111961   5.061   4.469   3.781
 3165SOL    HW211962   5.045   4.589   3.671
 3166SOL     OW11963   4.063   4.233   4.730
 3166SOL    HW111964   4.011   4.150   4.713
 3166SOL    HW211965   4.140   4.238   4.666
 3167SOL     OW11966   4.884   3.931   5.201
 3167SOL    HW111967   4.884   3.995   5.278
 3167SOL    HW211968   4.912   3.979   5.118
 3168SOL     OW11969   3.732   5.050   3.924
 3168SOL    HW111970   3.639   5.071   3.893
 3168SOL    HW211971   3.742   4.951   3.937
 3169SOL     OW11972   4.726   4.520   4.962
 3169SOL    HW111973   4.767   4.488   5.048
 3169SOL    HW211974   4.630   4.493   4.959
 3170SOL     OW11975   3.764   4.268   4.838
 3170SOL    HW111976   3.849   4.235   4.797
 3170SOL    HW211977   3.777   4.283   4.936
 3171SOL     OW11978   4.539   4.296   4.049
 3171SOL    HW111979   4.546   4.207   4.003
 3171SOL    HW211980   4.445   4.330   4.041
 3172SOL     OW11981   4.395   4.188   4.993
 3172SOL    HW111982   4.361   4.099   4.963
 3172SOL    HW211983   4.421   4.242   4.913
 3173SOL     OW11984   4.197   4.224   3.915
 3173SOL    HW111985   4.258   4.304   3.919
 3173SOL    HW211986   4.102   4.255   3.922
 3174SOL     OW11987   3.807   4.982   4.746
 3174SOL    HW111988   3.802   4.981   4.846
 3174SOL    HW211989   3.724   4.941   4.708
 3175SOL     OW11990   5.004   4.651   4.396
 3175SOL    HW111991   5.064   4.570   4.398
 3175SOL    HW211992   5.044   4.720   4.336
 3176SOL     OW11993   4.918   5.336   3.755
 3176SOL    HW111994   4.924   5.243   3.792
 3176SOL    HW211995   4.859   5.336   3.675
 3177SOL     OW11996   3.799   4.069   3.757
 3177SOL    HW111997   3.707   4.041   3.728
 3177SOL    HW211998   3.830   4.146   3.701
 3178SOL     OW11999   4.583   4.680   4.585
 3178SOL    HW112000   4.637   4.611   4.633
 3178SOL    HW212001   4.551   4.749   4.651
 3179SOL     OW12002   3.803   4.964   4.377
 3179SOL    HW112003   3.802   4.917   4.465
 3179SOL    HW212004   3.885   4.936   4.326
 3180SOL     OW12005   4.725   3.758   4.878
 3180SOL    HW112006   4.662   3.686   4.847
 3180SOL    HW212007   4.818   3.722   4.878
   5.08970   5.08970   5.08970
