UNITED ATOM STRUCTURE FOR MOLECULE UNK
12104
    0X2IT   H18    1   3.092   2.352   2.583
    0X2IT    N4    2   3.026   2.419   2.548
    0X2IT   H17    3   3.059   2.484   2.478
    0X2IT   C14    4   2.895   2.380   2.546
    0X2IT    O5    5   2.849   2.285   2.607
    0X2IT    O4    6   2.822   2.466   2.469
    0X2IT   C13    7   2.680   2.441   2.463
    0X2IT   C10    8   2.607   2.502   2.584
    0X2IT    C9    9   2.457   2.484   2.578
    0X2IT    C4   10   2.394   2.607   2.582
    0X2IT    C5   11   2.245   2.625   2.577
    0X2IT    O1   12   2.197   2.739   2.585
    0X2IT    C6   13   2.166   2.505   2.564
    0X2IT   C12   14   2.015   2.516   2.558
    0X2IT    C7   15   2.229   2.382   2.561
    0X2IT    C8   16   2.381   2.365   2.567
    0X2IT    O2   17   2.427   2.250   2.559
    0X2IT    N3   18   2.164   2.265   2.551
    0X2IT   H15   19   2.064   2.258   2.544
    0X2IT   H16   20   2.221   2.180   2.548
    0X2IT    N2   21   2.482   2.709   2.599
    0X2IT    C3   22   2.473   2.846   2.546
    0X2IT    C2   23   2.599   2.856   2.461
    0X2IT    H2   24   2.639   2.954   2.435
    0X2IT    N1   25   2.611   2.744   2.365
    0X2IT   H14   26   2.674   2.771   2.289
    0X2IT    C1   27   2.688   2.741   2.491
    0X2IT    H1   28   2.796   2.748   2.490
    0X2IT   C11   29   2.622   2.658   2.600
    0X2IT    O3   30   2.691   2.695   2.718
    0X2IT   C15   31   2.628   2.664   2.843
    1X2IT   H18   32   2.539   4.948   2.485
    1X2IT    N4   33   2.603   4.893   2.430
    1X2IT   H17   34   2.564   4.820   2.373
    1X2IT   C14   35   2.717   4.957   2.389
    1X2IT    O5   36   2.760   5.061   2.434
    1X2IT    O4   37   2.779   4.883   2.292
    1X2IT   C13   38   2.905   4.934   2.243
    1X2IT   C10   39   3.021   4.894   2.336
    1X2IT    C9   40   3.156   4.940   2.284
    1X2IT    C4   41   3.240   4.831   2.267
    1X2IT    C5   42   3.381   4.842   2.217
    1X2IT    O1   43   3.450   4.740   2.208
    1X2IT    C6   44   3.427   4.974   2.182
    1X2IT   C12   45   3.568   4.992   2.130
    1X2IT    C7   46   3.343   5.083   2.200
    1X2IT    C8   47   3.200   5.070   2.253
    1X2IT    O2   48   3.132   5.174   2.261
    1X2IT    N3   49   3.378   5.209   2.173
    1X2IT   H15   50   3.468   5.235   2.136
    1X2IT   H16   51   3.307   5.282   2.188
    1X2IT    N2   52   3.183   4.715   2.309
    1X2IT    C3   53   3.202   4.580   2.253
    1X2IT    C2   54   3.061   4.543   2.211
    1X2IT    H2   55   3.035   4.438   2.197
    1X2IT    N1   56   2.999   4.646   2.125
    1X2IT   H14   57   2.922   4.604   2.071
    1X2IT    C1   58   2.964   4.640   2.268
    1X2IT    H1   59   2.865   4.612   2.300
    1X2IT   C11   60   3.043   4.739   2.353
    1X2IT    O3   61   3.021   4.695   2.486
    1X2IT   C15   62   3.111   4.743   2.586
    2X2IT   H18   63   0.682   4.548   2.076
    2X2IT    N4   64   0.705   4.590   2.164
    2X2IT   H17   65   0.661   4.550   2.246
    2X2IT   C14   66   0.829   4.646   2.176
    2X2IT    O5   67   0.902   4.674   2.082
    2X2IT    O4   68   0.857   4.670   2.307
    2X2IT   C13   69   0.983   4.735   2.334
    2X2IT   C10   70   0.972   4.888   2.318
    2X2IT    C9   71   1.100   4.960   2.352
    2X2IT    C4   72   1.077   5.052   2.453
    2X2IT    C5   73   1.184   5.140   2.511
    2X2IT    O1   74   1.154   5.222   2.599
    2X2IT    C6   75   1.317   5.124   2.458
    2X2IT   C12   76   1.430   5.210   2.513
    2X2IT    C7   77   1.340   5.033   2.357
    2X2IT    C8   78   1.230   4.944   2.298
    2X2IT    O2   79   1.262   4.863   2.209
    2X2IT    N3   80   1.459   5.012   2.300
    2X2IT   H15   81   1.543   5.061   2.328
    2X2IT   H16   82   1.465   4.941   2.226
    2X2IT    N2   83   0.946   5.058   2.488
    2X2IT    C3   84   0.890   5.085   2.621
    2X2IT    C2   85   0.809   4.959   2.648
    2X2IT    H2   86   0.729   4.960   2.722
    2X2IT    N1   87   0.890   4.836   2.629
    2X2IT   H14   88   0.846   4.759   2.680
    2X2IT    C1   89   0.798   4.880   2.523
    2X2IT    H1   90   0.711   4.821   2.497
    2X2IT   C11   91   0.867   4.958   2.412
    2X2IT    O3   92   0.760   5.018   2.341
    2X2IT   C15   93   0.793   5.128   2.255
    3X2IT   H18   94   4.038   3.453   3.340
    3X2IT    N4   95   4.105   3.522   3.371
    3X2IT   H17   96   4.197   3.520   3.329
    3X2IT   C14   97   4.053   3.642   3.412
    3X2IT    O5   98   3.937   3.663   3.440
    3X2IT    O4   99   4.153   3.735   3.421
    3X2IT   C13  100   4.115   3.865   3.470
    3X2IT   C10  101   4.110   3.868   3.624
    3X2IT    C9  102   4.077   4.005   3.679
    3X2IT    C4  103   4.177   4.048   3.763
    3X2IT    C5  104   4.176   4.180   3.834
    3X2IT    O1  105   4.269   4.209   3.911
    3X2IT    C6  106   4.064   4.266   3.808
    3X2IT   C12  107   4.056   4.402   3.877
    3X2IT    C7  108   3.962   4.223   3.725
    3X2IT    C8  109   3.964   4.087   3.654
    3X2IT    O2  110   3.870   4.060   3.578
    3X2IT    N3  111   3.853   4.295   3.696
    3X2IT   H15  112   3.836   4.387   3.733
    3X2IT   H16  113   3.785   4.253   3.632
    3X2IT    N2  114   4.274   3.954   3.780
    3X2IT    C3  115   4.418   3.974   3.802
    3X2IT    C2  116   4.479   3.901   3.683
    3X2IT    H2  117   4.583   3.870   3.686
    3X2IT    N1  118   4.419   3.945   3.554
    3X2IT   H14  119   4.484   3.922   3.478
    3X2IT    C1  120   4.374   3.819   3.617
    3X2IT    H1  121   4.395   3.723   3.570
    3X2IT   C11  122   4.246   3.834   3.696
    3X2IT    O3  123   4.239   3.715   3.773
    3X2IT   C15  124   4.150   3.716   3.886
    4X2IT   H18  125   0.752   1.492   3.982
    4X2IT    N4  126   0.823   1.563   3.982
    4X2IT   H17  127   0.918   1.534   4.000
    4X2IT   C14  128   0.801   1.670   3.899
    4X2IT    O5  129   0.694   1.699   3.849
    4X2IT    O4  130   0.916   1.742   3.885
    4X2IT   C13  131   0.906   1.862   3.805
    4X2IT   C10  132   0.853   1.981   3.888
    4X2IT    C9  133   0.848   2.110   3.810
    4X2IT    C4  134   0.925   2.207   3.873
    4X2IT    C5  135   0.942   2.347   3.821
    4X2IT    O1  136   1.009   2.428   3.886
    4X2IT    C6  137   0.875   2.378   3.697
    4X2IT   C12  138   0.889   2.517   3.639
    4X2IT    C7  139   0.798   2.282   3.635
    4X2IT    C8  140   0.781   2.139   3.689
    4X2IT    O2  141   0.712   2.060   3.623
    4X2IT    N3  142   0.731   2.302   3.521
    4X2IT   H15  143   0.733   2.389   3.470
    4X2IT   H16  144   0.678   2.223   3.483
    4X2IT    N2  145   0.976   2.163   3.991
    4X2IT    C3  146   1.105   2.199   4.052
    4X2IT    C2  147   1.175   2.064   4.062
    4X2IT    H2  148   1.257   2.051   4.132
    4X2IT    N1  149   1.176   1.992   3.932
    4X2IT   H14  150   1.251   1.922   3.933
    4X2IT    C1  151   1.077   1.955   4.035
    4X2IT    H1  152   1.081   1.859   4.084
    4X2IT   C11  153   0.941   2.019   4.013
    4X2IT    O3  154   0.874   2.000   4.136
    4X2IT   C15  155   0.759   2.082   4.161
    5X2IT   H18  156   2.224   0.860   1.958
    5X2IT    N4  157   2.167   0.897   2.032
    5X2IT   H17  158   2.067   0.901   2.017
    5X2IT   C14  159   2.214   0.877   2.160
    5X2IT    O5  160   2.328   0.846   2.188
    5X2IT    O4  161   2.115   0.903   2.250
    5X2IT   C13  162   2.151   0.893   2.389
    5X2IT   C10  163   2.218   1.023   2.439
    5X2IT    C9  164   2.252   1.019   2.586
    5X2IT    C4  165   2.189   1.123   2.652
    5X2IT    C5  166   2.201   1.148   2.800
    5X2IT    O1  167   2.144   1.246   2.850
    5X2IT    C6  168   2.281   1.054   2.875
    5X2IT   C12  169   2.296   1.073   3.024
    5X2IT    C7  170   2.344   0.951   2.809
    5X2IT    C8  171   2.332   0.927   2.658
    5X2IT    O2  172   2.390   0.828   2.610
    5X2IT    N3  173   2.422   0.860   2.869
    5X2IT   H15  174   2.439   0.859   2.968
    5X2IT   H16  175   2.463   0.787   2.811
    5X2IT    N2  176   2.122   1.205   2.567
    5X2IT    C3  177   1.997   1.279   2.592
    5X2IT    C2  178   1.904   1.222   2.486
    5X2IT    H2  179   1.815   1.278   2.456
    5X2IT    N1  180   1.899   1.074   2.489
    5X2IT   H14  181   1.814   1.042   2.443
    5X2IT    C1  182   1.983   1.143   2.388
    5X2IT    H1  183   1.958   1.138   2.283
    5X2IT   C11  184   2.129   1.153   2.428
    5X2IT    O3  185   2.183   1.248   2.338
    5X2IT   C15  186   2.308   1.308   2.374
    6X2IT   H18  187   0.238   2.312   0.169
    6X2IT    N4  188   0.278   2.382   0.229
    6X2IT   H17  189   0.269   2.479   0.200
    6X2IT   C14  190   0.280   2.353   0.363
    6X2IT    O5  191   0.265   2.242   0.411
    6X2IT    O4  192   0.307   2.466   0.435
    6X2IT   C13  193   0.319   2.449   0.578
    6X2IT   C10  194   0.460   2.402   0.617
    6X2IT    C9  195   0.479   2.390   0.766
    6X2IT    C4  196   0.584   2.470   0.808
    6X2IT    C5  197   0.629   2.482   0.951
    6X2IT    O1  198   0.726   2.554   0.978
    6X2IT    C6  199   0.554   2.406   1.048
    6X2IT   C12  200   0.594   2.414   1.194
    6X2IT    C7  201   0.451   2.325   1.006
    6X2IT    C8  202   0.406   2.313   0.860
    6X2IT    O2  203   0.309   2.240   0.835
    6X2IT    N3  204   0.377   2.249   1.089
    6X2IT   H15  205   0.391   2.246   1.189
    6X2IT   H16  206   0.301   2.194   1.047
    6X2IT    N2  207   0.646   2.531   0.704
    6X2IT    C3  208   0.709   2.664   0.701
    6X2IT    C2  209   0.629   2.736   0.593
    6X2IT    H2  210   0.672   2.823   0.544
    6X2IT    N1  211   0.484   2.728   0.616
    6X2IT   H14  212   0.437   2.803   0.565
    6X2IT    C1  213   0.547   2.637   0.519
    6X2IT    H1  214   0.526   2.645   0.413
    6X2IT   C11  215   0.577   2.499   0.575
    6X2IT    O3  216   0.666   2.442   0.481
    6X2IT   C15  217   0.743   2.328   0.524
    7X2IT   H18  218   2.848   4.357   2.018
    7X2IT    N4  219   2.809   4.268   1.996
    7X2IT   H17  220   2.852   4.187   2.038
    7X2IT   C14  221   2.675   4.265   1.969
    7X2IT    O5  222   2.607   4.363   1.943
    7X2IT    O4  223   2.629   4.137   1.972
    7X2IT   C13  224   2.490   4.118   1.939
    7X2IT   C10  225   2.469   4.112   1.787
    7X2IT    C9  226   2.325   4.086   1.748
    7X2IT    C4  227   2.317   3.971   1.671
    7X2IT    C5  228   2.188   3.916   1.616
    7X2IT    O1  229   2.191   3.815   1.544
    7X2IT    C6  230   2.068   3.987   1.651
    7X2IT   C12  231   1.935   3.937   1.599
    7X2IT    C7  232   2.076   4.102   1.727
    7X2IT    C8  233   2.208   4.158   1.782
    7X2IT    O2  234   2.203   4.259   1.853
    7X2IT    N3  235   1.970   4.176   1.763
    7X2IT   H15  236   1.876   4.152   1.738
    7X2IT   H16  237   1.988   4.258   1.821
    7X2IT    N2  238   2.439   3.919   1.643
    7X2IT    C3  239   2.476   3.778   1.626
    7X2IT    C2  240   2.579   3.757   1.736
    7X2IT    H2  241   2.649   3.674   1.730
    7X2IT    N1  242   2.529   3.802   1.869
    7X2IT   H14  243   2.584   3.757   1.942
    7X2IT    C1  244   2.619   3.889   1.791
    7X2IT    H1  245   2.720   3.911   1.826
    7X2IT   C11  246   2.546   3.997   1.712
    7X2IT    O3  247   2.643   4.045   1.621
    7X2IT   C15  248   2.596   4.120   1.508
    8X2IT   H18  249   3.947   2.988   3.303
    8X2IT    N4  250   3.936   2.889   3.314
    8X2IT   H17  251   3.845   2.851   3.293
    8X2IT   C14  252   4.047   2.813   3.294
    8X2IT    O5  253   4.162   2.854   3.291
    8X2IT    O4  254   4.011   2.681   3.282
    8X2IT   C13  255   4.120   2.587   3.266
    8X2IT   C10  256   4.181   2.549   3.402
    8X2IT    C9  257   4.290   2.445   3.391
    8X2IT    C4  258   4.258   2.333   3.466
    8X2IT    C5  259   4.345   2.211   3.476
    8X2IT    O1  260   4.310   2.118   3.549
    8X2IT    C6  261   4.467   2.213   3.399
    8X2IT   C12  262   4.559   2.092   3.404
    8X2IT    C7  263   4.499   2.324   3.325
    8X2IT    C8  264   4.410   2.449   3.316
    8X2IT    O2  265   4.447   2.542   3.242
    8X2IT    N3  266   4.611   2.336   3.251
    8X2IT   H15  267   4.680   2.262   3.244
    8X2IT   H16  268   4.624   2.422   3.199
    8X2IT    N2  269   4.143   2.350   3.536
    8X2IT    C3  270   4.042   2.248   3.571
    8X2IT    C2  271   3.917   2.302   3.504
    8X2IT    H2  272   3.819   2.269   3.537
    8X2IT    N1  273   3.939   2.333   3.361
    8X2IT   H14  274   3.849   2.335   3.312
    8X2IT    C1  275   3.940   2.442   3.460
    8X2IT    H1  276   3.863   2.518   3.461
    8X2IT   C11  277   4.081   2.482   3.504
    8X2IT    O3  278   4.060   2.560   3.620
    8X2IT   C15  279   4.172   2.580   3.707
    9X2IT   H18  280   1.531   2.032  -0.298
    9X2IT    N4  281   1.558   1.996  -0.208
    9X2IT   H17  282   1.655   2.008  -0.181
    9X2IT   C14  283   1.462   1.997  -0.111
    9X2IT    O5  284   1.343   2.010  -0.130
    9X2IT    O4  285   1.520   1.977   0.012
    9X2IT   C13  286   1.429   1.969   0.124
    9X2IT   C10  287   1.370   1.827   0.138
    9X2IT    C9  288   1.280   1.813   0.259
    9X2IT    C4  289   1.327   1.713   0.342
    9X2IT    C5  290   1.261   1.673   0.471
    9X2IT    O1  291   1.308   1.579   0.537
    9X2IT    C6  292   1.144   1.748   0.509
    9X2IT   C12  293   1.073   1.713   0.638
    9X2IT    C7  294   1.097   1.847   0.426
    9X2IT    C8  295   1.164   1.886   0.294
    9X2IT    O2  296   1.115   1.980   0.229
    9X2IT    N3  297   0.987   1.921   0.452
    9X2IT   H15  298   0.932   1.910   0.535
    9X2IT   H16  299   0.962   1.993   0.384
    9X2IT    N2  300   1.435   1.649   0.289
    9X2IT    C3  301   1.549   1.590   0.361
    9X2IT    C2  302   1.667   1.669   0.304
    9X2IT    H2  303   1.768   1.628   0.311
    9X2IT    N1  304   1.646   1.815   0.313
    9X2IT   H14  305   1.736   1.863   0.307
    9X2IT    C1  306   1.622   1.745   0.185
    9X2IT    H1  307   1.686   1.764   0.099
    9X2IT   C11  308   1.476   1.713   0.160
    9X2IT    O3  309   1.479   1.619   0.054
    9X2IT   C15  310   1.361   1.540   0.033
   10X2IT   H18  311   1.542   4.472   4.115
   10X2IT    N4  312   1.607   4.518   4.176
   10X2IT   H17  313   1.663   4.592   4.136
   10X2IT   C14  314   1.574   4.522   4.309
   10X2IT    O5  315   1.489   4.454   4.362
   10X2IT    O4  316   1.655   4.612   4.373
   10X2IT   C13  317   1.636   4.623   4.516
   10X2IT   C10  318   1.713   4.513   4.591
   10X2IT    C9  319   1.701   4.525   4.742
   10X2IT    C4  320   1.827   4.538   4.798
   10X2IT    C5  321   1.851   4.552   4.946
   10X2IT    O1  322   1.967   4.559   4.988
   10X2IT    C6  323   1.734   4.557   5.030
   10X2IT   C12  324   1.751   4.572   5.180
   10X2IT    C7  325   1.609   4.543   4.974
   10X2IT    C8  326   1.586   4.527   4.823
   10X2IT    O2  327   1.468   4.520   4.783
   10X2IT    N3  328   1.495   4.544   5.044
   10X2IT   H15  329   1.491   4.555   5.144
   10X2IT   H16  330   1.407   4.535   4.991
   10X2IT    N2  331   1.926   4.527   4.706
   10X2IT    C3  332   2.057   4.595   4.705
   10X2IT    C2  333   2.051   4.673   4.575
   10X2IT    H2  334   2.144   4.708   4.529
   10X2IT    N1  335   1.929   4.756   4.564
   10X2IT   H14  336   1.945   4.831   4.497
   10X2IT    C1  337   1.936   4.627   4.494
   10X2IT    H1  338   1.938   4.623   4.386
   10X2IT   C11  339   1.869   4.513   4.569
   10X2IT    O3  340   1.915   4.396   4.504
   10X2IT   C15  341   1.901   4.272   4.574
   11X2IT   H18  342   4.312   2.604   5.353
   11X2IT    N4  343   4.389   2.608   5.289
   11X2IT   H17  344   4.480   2.584   5.326
   11X2IT   C14  345   4.361   2.581   5.158
   11X2IT    O5  346   4.250   2.580   5.108
   11X2IT    O4  347   4.477   2.559   5.089
   11X2IT   C13  348   4.464   2.535   4.948
   11X2IT   C10  349   4.454   2.667   4.869
   11X2IT    C9  350   4.447   2.647   4.720
   11X2IT    C4  351   4.551   2.714   4.658
   11X2IT    C5  352   4.574   2.714   4.509
   11X2IT    O1  353   4.668   2.780   4.462
   11X2IT    C6  354   4.482   2.636   4.430
   11X2IT   C12  355   4.499   2.632   4.280
   11X2IT    C7  356   4.377   2.571   4.492
   11X2IT    C8  357   4.355   2.572   4.643
   11X2IT    O2  358   4.260   2.506   4.689
   11X2IT    N3  359   4.286   2.498   4.426
   11X2IT   H15  360   4.287   2.485   4.327
   11X2IT   H16  361   4.213   2.452   4.483
   11X2IT    N2  362   4.626   2.786   4.746
   11X2IT    C3  363   4.770   2.813   4.741
   11X2IT    C2  364   4.819   2.751   4.871
   11X2IT    H2  365   4.915   2.783   4.913
   11X2IT    N1  366   4.775   2.611   4.886
   11X2IT   H14  367   4.836   2.563   4.953
   11X2IT    C1  368   4.703   2.719   4.957
   11X2IT    H1  369   4.706   2.725   5.065
   11X2IT   C11  370   4.577   2.764   4.885
   11X2IT    O3  371   4.544   2.886   4.949
   11X2IT   C15  372   4.453   2.973   4.880
   12X2IT   H18  373   2.374   3.294  -0.500
   12X2IT    N4  374   2.315   3.322  -0.424
   12X2IT   H17  375   2.216   3.332  -0.443
   12X2IT   C14  376   2.355   3.283  -0.299
   12X2IT    O5  377   2.466   3.243  -0.270
   12X2IT    O4  378   2.252   3.299  -0.210
   12X2IT   C13  379   2.282   3.268  -0.073
   12X2IT   C10  380   2.350   3.386  -0.002
   12X2IT    C9  381   2.377   3.360   0.145
   12X2IT    C4  382   2.314   3.456   0.223
   12X2IT    C5  383   2.320   3.459   0.373
   12X2IT    O1  384   2.264   3.551   0.434
   12X2IT    C6  385   2.393   3.352   0.437
   12X2IT   C12  386   2.402   3.349   0.588
   12X2IT    C7  387   2.456   3.257   0.359
   12X2IT    C8  388   2.450   3.255   0.206
   12X2IT    O2  389   2.507   3.162   0.146
   12X2IT    N3  390   2.527   3.155   0.409
   12X2IT   H15  391   2.540   3.140   0.508
   12X2IT   H16  392   2.568   3.089   0.342
   12X2IT    N2  393   2.254   3.552   0.147
   12X2IT    C3  394   2.131   3.626   0.177
   12X2IT    C2  395   2.041   3.589   0.060
   12X2IT    H2  396   1.956   3.652   0.035
   12X2IT    N1  397   2.032   3.443   0.041
   12X2IT   H14  398   1.947   3.421  -0.012
   12X2IT    C1  399   2.122   3.522  -0.045
   12X2IT    H1  400   2.102   3.533  -0.150
   12X2IT   C11  401   2.267   3.520   0.002
   12X2IT    O3  402   2.328   3.625  -0.070
   12X2IT   C15  403   2.453   3.674  -0.021
   13X2IT   H18  404   1.554   1.209   5.326
   13X2IT    N4  405   1.622   1.136   5.330
   13X2IT   H17  406   1.665   1.117   5.419
   13X2IT   C14  407   1.605   1.032   5.242
   13X2IT    O5  408   1.533   1.035   5.143
   13X2IT    O4  409   1.683   0.927   5.278
   13X2IT   C13  410   1.681   0.813   5.190
   13X2IT   C10  411   1.777   0.831   5.071
   13X2IT    C9  412   1.782   0.710   4.980
   13X2IT    C4  413   1.912   0.663   4.971
   13X2IT    C5  414   1.952   0.544   4.890
   13X2IT    O1  415   2.071   0.511   4.884
   13X2IT    C6  416   1.846   0.475   4.820
   13X2IT   C12  417   1.880   0.353   4.736
   13X2IT    C7  418   1.717   0.522   4.828
   13X2IT    C8  419   1.677   0.645   4.911
   13X2IT    O2  420   1.557   0.676   4.915
   13X2IT    N3  421   1.612   0.466   4.766
   13X2IT   H15  422   1.620   0.383   4.709
   13X2IT   H16  423   1.520   0.509   4.780
   13X2IT    N2  424   2.000   0.742   5.038
   13X2IT    C3  425   2.122   0.701   5.109
   13X2IT    C2  426   2.094   0.747   5.251
   13X2IT    H2  427   2.177   0.761   5.321
   13X2IT    N1  428   1.964   0.696   5.301
   13X2IT   H14  429   1.965   0.698   5.404
   13X2IT    C1  430   1.975   0.835   5.252
   13X2IT    H1  431   1.964   0.919   5.320
   13X2IT   C11  432   1.928   0.852   5.109
   13X2IT    O3  433   1.977   0.980   5.071
   13X2IT   C15  434   1.983   1.009   4.931
   14X2IT   H18  435   3.543   2.550   4.396
   14X2IT    N4  436   3.546   2.452   4.378
   14X2IT   H17  437   3.558   2.422   4.282
   14X2IT   C14  438   3.595   2.373   4.478
   14X2IT    O5  439   3.610   2.408   4.594
   14X2IT    O4  440   3.622   2.248   4.430
   14X2IT   C13  441   3.669   2.151   4.527
   14X2IT   C10  442   3.552   2.087   4.604
   14X2IT    C9  443   3.596   1.981   4.701
   14X2IT    C4  444   3.535   1.860   4.672
   14X2IT    C5  445   3.558   1.733   4.748
   14X2IT    O1  446   3.496   1.631   4.717
   14X2IT    C6  447   3.652   1.740   4.857
   14X2IT   C12  448   3.680   1.615   4.939
   14X2IT    C7  449   3.713   1.861   4.888
   14X2IT    C8  450   3.688   1.990   4.809
   14X2IT    O2  451   3.751   2.091   4.842
   14X2IT    N3  452   3.800   1.877   4.988
   14X2IT   H15  453   3.829   1.802   5.049
   14X2IT   H16  454   3.840   1.971   5.000
   14X2IT    N2  455   3.446   1.872   4.570
   14X2IT    C3  456   3.412   1.772   4.468
   14X2IT    C2  457   3.449   1.843   4.338
   14X2IT    H2  458   3.406   1.810   4.244
   14X2IT    N1  459   3.587   1.896   4.341
   14X2IT   H14  460   3.620   1.911   4.246
   14X2IT    C1  461   3.473   1.987   4.367
   14X2IT    H1  462   3.449   2.066   4.297
   14X2IT   C11  463   3.447   2.010   4.515
   14X2IT    O3  464   3.318   2.070   4.518
   14X2IT   C15  465   3.249   2.068   4.643
   15X2IT   H18  466   3.558   2.509   0.955
   15X2IT    N4  467   3.503   2.491   0.874
   15X2IT   H17  468   3.403   2.483   0.886
   15X2IT   C14  469   3.551   2.540   0.756
   15X2IT    O5  470   3.665   2.578   0.737
   15X2IT    O4  471   3.453   2.535   0.660
   15X2IT   C13  472   3.492   2.578   0.528
   15X2IT   C10  473   3.560   2.464   0.450
   15X2IT    C9  474   3.596   2.503   0.308
   15X2IT    C4  475   3.535   2.417   0.218
   15X2IT    C5  476   3.550   2.427   0.069
   15X2IT    O1  477   3.494   2.344  -0.003
   15X2IT    C6  478   3.630   2.537   0.020
   15X2IT   C12  479   3.648   2.554  -0.130
   15X2IT    C7  480   3.692   2.622   0.110
   15X2IT    C8  481   3.677   2.609   0.261
   15X2IT    O2  482   3.733   2.694   0.332
   15X2IT    N3  483   3.769   2.725   0.073
   15X2IT   H15  484   3.788   2.749  -0.023
   15X2IT   H16  485   3.809   2.783   0.148
   15X2IT    N2  486   3.468   2.317   0.281
   15X2IT    C3  487   3.344   2.250   0.237
   15X2IT    C2  488   3.249   2.280   0.352
   15X2IT    H2  489   3.160   2.218   0.366
   15X2IT    N1  490   3.243   2.424   0.384
   15X2IT   H14  491   3.156   2.445   0.434
   15X2IT    C1  492   3.326   2.334   0.467
   15X2IT    H1  493   3.299   2.314   0.570
   15X2IT   C11  494   3.473   2.335   0.429
   15X2IT    O3  495   3.526   2.221   0.494
   15X2IT   C15  496   3.652   2.172   0.448
   16X2IT   H18  497   2.619   1.793   5.406
   16X2IT    N4  498   2.541   1.855   5.395
   16X2IT   H17  499   2.500   1.894   5.479
   16X2IT   C14  500   2.538   1.929   5.280
   16X2IT    O5  501   2.605   1.905   5.180
   16X2IT    O4  502   2.447   2.029   5.291
   16X2IT   C13  503   2.428   2.111   5.173
   16X2IT   C10  504   2.331   2.046   5.074
   16X2IT    C9  505   2.303   2.132   4.953
   16X2IT    C4  506   2.167   2.158   4.942
   16X2IT    C5  507   2.106   2.241   4.833
   16X2IT    O1  508   1.983   2.256   4.830
   16X2IT    C6  509   2.197   2.299   4.738
   16X2IT   C12  510   2.142   2.385   4.625
   16X2IT    C7  511   2.332   2.273   4.748
   16X2IT    C8  512   2.394   2.187   4.859
   16X2IT    O2  513   2.517   2.173   4.860
   16X2IT    N3  514   2.424   2.320   4.662
   16X2IT   H15  515   2.402   2.380   4.585
   16X2IT   H16  516   2.522   2.296   4.680
   16X2IT    N2  517   2.096   2.093   5.037
   16X2IT    C3  518   1.972   2.137   5.103
   16X2IT    C2  519   2.013   2.141   5.250
   16X2IT    H2  520   1.937   2.137   5.328
   16X2IT    N1  521   2.137   2.220   5.271
   16X2IT   H14  522   2.142   2.249   5.369
   16X2IT    C1  523   2.144   2.072   5.266
   16X2IT    H1  524   2.170   2.015   5.354
   16X2IT   C11  525   2.186   2.019   5.130
   16X2IT    O3  526   2.154   1.881   5.136
   16X2IT   C15  527   2.146   1.810   5.011
   17X2IT   H18  528   1.443   4.756   3.119
   17X2IT    N4  529   1.399   4.789   3.203
   17X2IT   H17  530   1.298   4.781   3.208
   17X2IT   C14  531   1.473   4.781   3.318
   17X2IT    O5  532   1.593   4.764   3.323
   17X2IT    O4  533   1.392   4.799   3.426
   17X2IT   C13  534   1.458   4.800   3.555
   17X2IT   C10  535   1.517   4.939   3.587
   17X2IT    C9  536   1.581   4.945   3.724
   17X2IT    C4  537   1.521   5.044   3.799
   17X2IT    C5  538   1.560   5.077   3.941
   17X2IT    O1  539   1.503   5.170   4.000
   17X2IT    C6  540   1.664   4.996   3.999
   17X2IT   C12  541   1.708   5.024   4.142
   17X2IT    C7  542   1.724   4.898   3.923
   17X2IT    C8  543   1.684   4.866   3.779
   17X2IT    O2  544   1.742   4.773   3.722
   17X2IT    N3  545   1.823   4.819   3.968
   17X2IT   H15  546   1.860   4.825   4.061
   17X2IT   H16  547   1.860   4.748   3.904
   17X2IT    N2  548   1.428   5.114   3.728
   17X2IT    C3  549   1.303   5.175   3.778
   17X2IT    C2  550   1.198   5.103   3.695
   17X2IT    H2  551   1.099   5.147   3.683
   17X2IT    N1  552   1.212   4.956   3.701
   17X2IT   H14  553   1.123   4.912   3.676
   17X2IT    C1  554   1.264   5.029   3.584
   17X2IT    H1  555   1.219   5.016   3.487
   17X2IT   C11  556   1.413   5.057   3.592
   17X2IT    O3  557   1.435   5.154   3.491
   17X2IT   C15  558   1.557   5.229   3.498
   18X2IT   H18  559   1.711   1.905   1.823
   18X2IT    N4  560   1.671   1.965   1.754
   18X2IT   H17  561   1.635   2.054   1.786
   18X2IT   C14  562   1.722   1.955   1.627
   18X2IT    O5  563   1.789   1.862   1.586
   18X2IT    O4  564   1.681   2.062   1.552
   18X2IT   C13  565   1.722   2.061   1.414
   18X2IT   C10  566   1.627   1.976   1.328
   18X2IT    C9  567   1.662   1.978   1.181
   18X2IT    C4  568   1.555   2.025   1.107
   18X2IT    C5  569   1.556   2.041   0.957
   18X2IT    O1  570   1.454   2.080   0.899
   18X2IT    C6  571   1.680   2.007   0.890
   18X2IT   C12  572   1.688   2.021   0.740
   18X2IT    C7  573   1.786   1.959   0.964
   18X2IT    C8  574   1.783   1.943   1.116
   18X2IT    O2  575   1.886   1.904   1.173
   18X2IT    N3  576   1.904   1.924   0.911
   18X2IT   H15  577   1.924   1.930   0.813
   18X2IT   H16  578   1.977   1.891   0.975
   18X2IT    N2  579   1.445   2.048   1.184
   18X2IT    C3  580   1.342   2.151   1.166
   18X2IT    C2  581   1.352   2.230   1.296
   18X2IT    H2  582   1.269   2.291   1.329
   18X2IT    N1  583   1.491   2.273   1.325
   18X2IT   H14  584   1.489   2.352   1.390
   18X2IT    C1  585   1.436   2.154   1.393
   18X2IT    H1  586   1.418   2.155   1.500
   18X2IT   C11  587   1.476   2.023   1.328
   18X2IT    O3  588   1.389   1.928   1.385
   18X2IT   C15  589   1.375   1.802   1.317
   19X2IT   H18  590   1.851   2.182   2.051
   19X2IT    N4  591   1.931   2.241   2.063
   19X2IT   H17  592   1.947   2.277   2.156
   19X2IT   C14  593   2.039   2.217   1.982
   19X2IT    O5  594   2.036   2.150   1.880
   19X2IT    O4  595   2.149   2.281   2.030
   19X2IT   C13  596   2.269   2.270   1.950
   19X2IT   C10  597   2.270   2.373   1.835
   19X2IT    C9  598   2.397   2.369   1.754
   19X2IT    C4  599   2.458   2.493   1.755
   19X2IT    C5  600   2.587   2.523   1.684
   19X2IT    O1  601   2.633   2.638   1.688
   19X2IT    C6  602   2.649   2.414   1.614
   19X2IT   C12  603   2.780   2.438   1.541
   19X2IT    C7  604   2.587   2.290   1.612
   19X2IT    C8  605   2.456   2.261   1.684
   19X2IT    O2  606   2.411   2.145   1.679
   19X2IT    N3  607   2.637   2.183   1.548
   19X2IT   H15  608   2.724   2.184   1.497
   19X2IT   H16  609   2.583   2.096   1.554
   19X2IT    N2  610   2.384   2.586   1.821
   19X2IT    C3  611   2.433   2.700   1.901
   19X2IT    C2  612   2.374   2.670   2.038
   19X2IT    H2  613   2.363   2.751   2.111
   19X2IT    N1  614   2.406   2.533   2.085
   19X2IT   H14  615   2.397   2.529   2.187
   19X2IT    C1  616   2.273   2.562   2.027
   19X2IT    H1  617   2.184   2.557   2.088
   19X2IT   C11  618   2.262   2.524   1.880
   19X2IT    O3  619   2.144   2.588   1.837
   19X2IT   C15  620   2.126   2.604   1.695
   20X2IT   H18  621   2.881   1.990   1.254
   20X2IT    N4  622   2.931   1.903   1.251
   20X2IT   H17  623   2.899   1.833   1.186
   20X2IT   C14  624   3.064   1.908   1.283
   20X2IT    O5  625   3.119   2.001   1.340
   20X2IT    O4  626   3.124   1.791   1.247
   20X2IT   C13  627   3.264   1.779   1.281
   20X2IT   C10  628   3.283   1.733   1.426
   20X2IT    C9  629   3.428   1.712   1.463
   20X2IT    C4  630   3.449   1.582   1.506
   20X2IT    C5  631   3.582   1.528   1.549
   20X2IT    O1  632   3.590   1.411   1.589
   20X2IT    C6  633   3.694   1.619   1.542
   20X2IT   C12  634   3.831   1.571   1.585
   20X2IT    C7  635   3.673   1.749   1.501
   20X2IT    C8  636   3.536   1.803   1.458
   20X2IT    O2  637   3.530   1.921   1.418
   20X2IT    N3  638   3.770   1.842   1.493
   20X2IT   H15  639   3.866   1.823   1.516
   20X2IT   H16  640   3.744   1.935   1.460
   20X2IT    N2  641   3.333   1.511   1.511
   20X2IT    C3  642   3.314   1.368   1.485
   20X2IT    C2  643   3.216   1.368   1.368
   20X2IT    H2  644   3.156   1.280   1.347
   20X2IT    N1  645   3.262   1.454   1.257
   20X2IT   H14  646   3.215   1.426   1.171
   20X2IT    C1  647   3.161   1.505   1.351
   20X2IT    H1  648   3.059   1.524   1.319
   20X2IT   C11  649   3.219   1.593   1.461
   20X2IT    O3  650   3.115   1.603   1.557
   20X2IT   C15  651   3.151   1.646   1.688
   21X2IT   H18  652   1.387   3.209   2.219
   21X2IT    N4  653   1.478   3.225   2.259
   21X2IT   H17  654   1.554   3.243   2.195
   21X2IT   C14  655   1.481   3.281   2.384
   21X2IT    O5  656   1.386   3.288   2.460
   21X2IT    O4  657   1.607   3.325   2.412
   21X2IT   C13  658   1.626   3.381   2.544
   21X2IT   C10  659   1.651   3.272   2.649
   21X2IT    C9  660   1.678   3.327   2.787
   21X2IT    C4  661   1.801   3.283   2.832
   21X2IT    C5  662   1.860   3.320   2.965
   21X2IT    O1  663   1.969   3.273   2.999
   21X2IT    C6  664   1.782   3.410   3.047
   21X2IT   C12  665   1.835   3.452   3.183
   21X2IT    C7  666   1.658   3.453   3.002
   21X2IT    C8  667   1.600   3.414   2.867
   21X2IT    O2  668   1.490   3.462   2.835
   21X2IT    N3  669   1.578   3.535   3.072
   21X2IT   H15  670   1.602   3.572   3.162
   21X2IT   H16  671   1.489   3.562   3.028
   21X2IT    N2  672   1.859   3.196   2.745
   21X2IT    C3  673   2.003   3.178   2.718
   21X2IT    C2  674   2.012   3.209   2.569
   21X2IT    H2  675   2.097   3.174   2.511
   21X2IT    N1  676   1.949   3.339   2.536
   21X2IT   H14  677   1.986   3.372   2.446
   21X2IT    C1  678   1.875   3.214   2.512
   21X2IT    H1  679   1.852   3.181   2.411
   21X2IT   C11  680   1.776   3.180   2.623
   21X2IT    O3  681   1.742   3.045   2.599
   21X2IT   C15  682   1.682   2.973   2.707
   22X2IT   H18  683   2.866   3.203   0.953
   22X2IT    N4  684   2.871   3.117   0.901
   22X2IT   H17  685   2.853   3.032   0.952
   22X2IT   C14  686   2.840   3.124   0.768
   22X2IT    O5  687   2.832   3.227   0.703
   22X2IT    O4  688   2.822   2.999   0.718
   22X2IT   C13  689   2.794   2.990   0.577
   22X2IT   C10  690   2.924   2.995   0.494
   22X2IT    C9  691   2.900   2.979   0.345
   22X2IT    C4  692   2.970   2.870   0.297
   22X2IT    C5  693   2.967   2.826   0.153
   22X2IT    O1  694   3.037   2.729   0.118
   22X2IT    C6  695   2.883   2.902   0.064
   22X2IT   C12  696   2.876   2.862  -0.082
   22X2IT    C7  697   2.814   3.011   0.112
   22X2IT    C8  698   2.818   3.056   0.259
   22X2IT    O2  699   2.748   3.153   0.292
   22X2IT    N3  700   2.735   3.089   0.037
   22X2IT   H15  701   2.719   3.073  -0.061
   22X2IT   H16  702   2.687   3.166   0.083
   22X2IT    N2  703   3.048   2.813   0.392
   22X2IT    C3  704   3.082   2.670   0.407
   22X2IT    C2  705   3.026   2.638   0.545
   22X2IT    H2  706   3.063   2.551   0.599
   22X2IT    N1  707   2.884   2.677   0.558
   22X2IT   H14  708   2.841   2.624   0.635
   22X2IT    C1  709   2.990   2.764   0.615
   22X2IT    H1  710   2.999   2.777   0.722
   22X2IT   C11  711   3.027   2.880   0.524
   22X2IT    O3  712   3.149   2.928   0.578
   22X2IT   C15  713   3.230   3.011   0.494
   23X2IT   H18  714   2.632   4.495   1.085
   23X2IT    N4  715   2.675   4.572   1.134
   23X2IT   H17  716   2.635   4.664   1.120
   23X2IT   C14  717   2.733   4.542   1.255
   23X2IT    O5  718   2.760   4.430   1.293
   23X2IT    O4  719   2.759   4.657   1.323
   23X2IT   C13  720   2.826   4.642   1.450
   23X2IT   C10  721   2.979   4.629   1.431
   23X2IT    C9  722   3.054   4.620   1.562
   23X2IT    C4  723   3.146   4.722   1.572
   23X2IT    C5  724   3.237   4.742   1.690
   23X2IT    O1  725   3.320   4.835   1.688
   23X2IT    C6  726   3.222   4.649   1.799
   23X2IT   C12  727   3.310   4.664   1.921
   23X2IT    C7  728   3.130   4.547   1.789
   23X2IT    C8  729   3.039   4.527   1.668
   23X2IT    O2  730   2.957   4.433   1.672
   23X2IT    N3  731   3.111   4.455   1.885
   23X2IT   H15  732   3.161   4.454   1.972
   23X2IT   H16  733   3.039   4.384   1.867
   23X2IT    N2  734   3.151   4.797   1.459
   23X2IT    C3  735   3.179   4.941   1.447
   23X2IT    C2  736   3.051   4.993   1.382
   23X2IT    H2  737   3.052   5.089   1.330
   23X2IT    N1  738   2.930   4.951   1.455
   23X2IT   H14  739   2.852   5.014   1.431
   23X2IT    C1  740   2.971   4.879   1.333
   23X2IT    H1  741   2.910   4.884   1.243
   23X2IT   C11  742   3.048   4.751   1.361
   23X2IT    O3  743   3.106   4.718   1.236
   23X2IT   C15  744   3.215   4.625   1.237
   24X2IT   H18  745   0.525   4.144   0.741
   24X2IT    N4  746   0.614   4.101   0.760
   24X2IT   H17  747   0.694   4.162   0.770
   24X2IT   C14  748   0.611   3.983   0.830
   24X2IT    O5  749   0.512   3.914   0.847
   24X2IT    O4  750   0.736   3.953   0.875
   24X2IT   C13  751   0.749   3.827   0.945
   24X2IT   C10  752   0.765   3.709   0.848
   24X2IT    C9  753   0.786   3.577   0.918
   24X2IT    C4  754   0.905   3.520   0.877
   24X2IT    C5  755   0.957   3.389   0.928
   24X2IT    O1  756   1.063   3.343   0.883
   24X2IT    C6  757   0.877   3.322   1.028
   24X2IT   C12  758   0.923   3.189   1.083
   24X2IT    C7  759   0.757   3.379   1.068
   24X2IT    C8  760   0.705   3.512   1.014
   24X2IT    O2  761   0.599   3.556   1.061
   24X2IT    N3  762   0.675   3.323   1.158
   24X2IT   H15  763   0.695   3.236   1.205
   24X2IT   H16  764   0.590   3.375   1.182
   24X2IT    N2  765   0.966   3.593   0.780
   24X2IT    C3  766   1.111   3.609   0.756
   24X2IT    C2  767   1.128   3.760   0.770
   24X2IT    H2  768   1.216   3.808   0.727
   24X2IT    N1  769   1.071   3.812   0.897
   24X2IT   H14  770   1.114   3.902   0.919
   24X2IT    C1  771   0.995   3.826   0.771
   24X2IT    H1  772   0.977   3.923   0.728
   24X2IT   C11  773   0.890   3.717   0.752
   24X2IT    O3  774   0.854   3.728   0.615
   24X2IT   C15  775   0.786   3.616   0.557
   25X2IT   H18  776   4.822   1.384   3.247
   25X2IT    N4  777   4.764   1.446   3.300
   25X2IT   H17  778   4.681   1.481   3.255
   25X2IT   C14  779   4.764   1.429   3.436
   25X2IT    O5  780   4.847   1.365   3.498
   25X2IT    O4  781   4.660   1.498   3.492
   25X2IT   C13  782   4.652   1.494   3.636
   25X2IT   C10  783   4.744   1.599   3.700
   25X2IT    C9  784   4.733   1.603   3.851
   25X2IT    C4  785   4.696   1.730   3.893
   25X2IT    C5  786   4.675   1.768   4.036
   25X2IT    O1  787   4.646   1.885   4.065
   25X2IT    C6  788   4.693   1.663   4.134
   25X2IT   C12  789   4.673   1.695   4.281
   25X2IT    C7  790   4.731   1.537   4.092
   25X2IT    C8  791   4.752   1.500   3.945
   25X2IT    O2  792   4.782   1.382   3.919
   25X2IT    N3  793   4.751   1.434   4.176
   25X2IT   H15  794   4.740   1.441   4.275
   25X2IT   H16  795   4.778   1.345   4.134
   25X2IT    N2  796   4.688   1.818   3.789
   25X2IT    C3  797   4.596   1.932   3.774
   25X2IT    C2  798   4.521   1.896   3.646
   25X2IT    H2  799   4.471   1.974   3.590
   25X2IT    N1  800   4.464   1.760   3.651
   25X2IT   H14  801   4.388   1.752   3.583
   25X2IT    C1  802   4.590   1.783   3.578
   25X2IT    H1  803   4.595   1.773   3.471
   25X2IT   C11  804   4.714   1.749   3.660
   25X2IT    O3  805   4.820   1.809   3.588
   25X2IT   C15  806   4.944   1.827   3.658
   26X2IT   H18  807   3.631   0.726   3.574
   26X2IT    N4  808   3.555   0.688   3.520
   26X2IT   H17  809   3.475   0.653   3.572
   26X2IT   C14  810   3.537   0.740   3.395
   26X2IT    O5  811   3.619   0.807   3.334
   26X2IT    O4  812   3.414   0.703   3.347
   26X2IT   C13  813   3.384   0.746   3.213
   26X2IT   C10  814   3.444   0.650   3.108
   26X2IT    C9  815   3.408   0.688   2.966
   26X2IT    C4  816   3.342   0.583   2.904
   26X2IT    C5  817   3.292   0.587   2.763
   26X2IT    O1  818   3.238   0.487   2.714
   26X2IT    C6  819   3.312   0.711   2.691
   26X2IT   C12  820   3.264   0.722   2.548
   26X2IT    C7  821   3.378   0.815   2.753
   26X2IT    C8  822   3.430   0.809   2.897
   26X2IT    O2  823   3.484   0.910   2.944
   26X2IT    N3  824   3.403   0.933   2.694
   26X2IT   H15  825   3.375   0.955   2.600
   26X2IT   H16  826   3.452   1.004   2.749
   26X2IT    N2  827   3.336   0.472   2.983
   26X2IT    C3  828   3.229   0.372   2.990
   26X2IT    C2  829   3.183   0.382   3.134
   26X2IT    H2  830   3.129   0.299   3.180
   26X2IT    N1  831   3.151   0.521   3.174
   26X2IT   H14  832   3.090   0.520   3.256
   26X2IT    C1  833   3.281   0.462   3.212
   26X2IT    H1  834   3.305   0.443   3.315
   26X2IT   C11  835   3.395   0.501   3.118
   26X2IT    O3  836   3.499   0.410   3.150
   26X2IT   C15  837   3.604   0.395   3.054
   27X2IT   H18  838   2.667   4.304   5.166
   27X2IT    N4  839   2.624   4.392   5.187
   27X2IT   H17  840   2.631   4.424   5.283
   27X2IT   C14  841   2.618   4.483   5.086
   27X2IT    O5  842   2.635   4.459   4.968
   27X2IT    O4  843   2.587   4.607   5.136
   27X2IT   C13  844   2.571   4.712   5.040
   27X2IT   C10  845   2.430   4.712   4.978
   27X2IT    C9  846   2.407   4.826   4.881
   27X2IT    C4  847   2.299   4.902   4.922
   27X2IT    C5  848   2.250   5.024   4.849
   27X2IT    O1  849   2.150   5.084   4.891
   27X2IT    C6  850   2.324   5.062   4.731
   27X2IT   C12  851   2.279   5.184   4.652
   27X2IT    C7  852   2.430   4.985   4.689
   27X2IT    C8  853   2.479   4.860   4.764
   27X2IT    O2  854   2.579   4.801   4.721
   27X2IT    N3  855   2.503   5.011   4.580
   27X2IT   H15  856   2.486   5.090   4.520
   27X2IT   H16  857   2.581   4.948   4.559
   27X2IT    N2  858   2.239   4.850   5.032
   27X2IT    C3  859   2.172   4.923   5.142
   27X2IT    C2  860   2.253   4.880   5.263
   27X2IT    H2  861   2.210   4.889   5.363
   27X2IT    N1  862   2.399   4.899   5.243
   27X2IT   H14  863   2.445   4.903   5.335
   27X2IT    C1  864   2.340   4.765   5.226
   27X2IT    H1  865   2.364   4.685   5.294
   27X2IT   C11  866   2.312   4.730   5.081
   27X2IT    O3  867   2.227   4.616   5.088
   27X2IT   C15  868   2.152   4.583   4.971
   28X2IT   H18  869   4.787   3.421   3.150
   28X2IT    N4  870   4.845   3.499   3.174
   28X2IT   H17  871   4.895   3.495   3.262
   28X2IT   C14  872   4.901   3.567   3.070
   28X2IT    O5  873   4.866   3.559   2.953
   28X2IT    O4  874   5.001   3.649   3.116
   28X2IT   C13  875   5.065   3.733   3.017
   28X2IT   C10  876   4.984   3.861   2.991
   28X2IT    C9  877   5.051   3.954   2.893
   28X2IT    C4  878   5.072   4.078   2.951
   28X2IT    C5  879   5.137   4.194   2.882
   28X2IT    O1  880   5.149   4.302   2.941
   28X2IT    C6  881   5.183   4.170   2.747
   28X2IT   C12  882   5.250   4.283   2.671
   28X2IT    C7  883   5.161   4.047   2.688
   28X2IT    C8  884   5.093   3.930   2.760
   28X2IT    O2  885   5.083   3.823   2.699
   28X2IT    N3  886   5.198   4.017   2.563
   28X2IT   H15  887   5.246   4.082   2.502
   28X2IT   H16  888   5.179   3.922   2.530
   28X2IT    N2  889   5.019   4.085   3.076
   28X2IT    C3  890   5.070   4.161   3.192
   28X2IT    C2  891   5.095   4.051   3.294
   28X2IT    H2  892   5.101   4.075   3.400
   28X2IT    N1  893   5.179   3.941   3.239
   28X2IT   H14  894   5.222   3.890   3.316
   28X2IT    C1  895   5.033   3.924   3.247
   28X2IT    H1  896   4.989   3.851   3.314
   28X2IT   C11  897   4.961   3.953   3.116
   28X2IT    O3  898   4.825   3.964   3.153
   28X2IT   C15  899   4.737   4.029   3.060
   29X2IT   H18  900   2.110   1.276   3.257
   29X2IT    N4  901   2.103   1.250   3.353
   29X2IT   H17  902   2.038   1.176   3.376
   29X2IT   C14  903   2.217   1.263   3.428
   29X2IT    O5  904   2.314   1.329   3.397
   29X2IT    O4  905   2.203   1.196   3.546
   29X2IT   C13  906   2.313   1.207   3.639
   29X2IT   C10  907   2.304   1.336   3.722
   29X2IT    C9  908   2.414   1.348   3.825
   29X2IT    C4  909   2.359   1.359   3.952
   29X2IT    C5  910   2.440   1.372   4.077
   29X2IT    O1  911   2.383   1.386   4.186
   29X2IT    C6  912   2.584   1.369   4.062
   29X2IT   C12  913   2.672   1.381   4.184
   29X2IT    C7  914   2.638   1.358   3.935
   29X2IT    C8  915   2.554   1.346   3.808
   29X2IT    O2  916   2.614   1.332   3.700
   29X2IT    N3  917   2.770   1.356   3.911
   29X2IT   H15  918   2.840   1.361   3.983
   29X2IT   H16  919   2.799   1.346   3.813
   29X2IT    N2  920   2.223   1.366   3.949
   29X2IT    C3  921   2.128   1.314   4.048
   29X2IT    C2  922   2.047   1.215   3.967
   29X2IT    H2  923   1.948   1.184   4.002
   29X2IT    N1  924   2.132   1.118   3.895
   29X2IT   H14  925   2.077   1.035   3.871
   29X2IT    C1  926   2.076   1.234   3.822
   29X2IT    H1  927   2.002   1.220   3.745
   29X2IT   C11  928   2.173   1.350   3.809
   29X2IT    O3  929   2.092   1.459   3.770
   29X2IT   C15  930   2.146   1.590   3.786
   30X2IT   H18  931   3.285   1.055   0.668
   30X2IT    N4  932   3.315   1.002   0.589
   30X2IT   H17  933   3.310   0.901   0.597
   30X2IT   C14  934   3.297   1.060   0.466
   30X2IT    O5  935   3.276   1.178   0.447
   30X2IT    O4  936   3.312   0.966   0.368
   30X2IT   C13  937   3.303   1.014   0.232
   30X2IT   C10  938   3.437   1.073   0.184
   30X2IT    C9  939   3.433   1.118   0.040
   30X2IT    C4  940   3.530   1.052  -0.033
   30X2IT    C5  941   3.553   1.073  -0.180
   30X2IT    O1  942   3.644   1.012  -0.237
   30X2IT    C6  943   3.465   1.166  -0.246
   30X2IT   C12  944   3.482   1.192  -0.395
   30X2IT    C7  945   3.369   1.233  -0.173
   30X2IT    C8  946   3.347   1.211  -0.023
   30X2IT    O2  947   3.255   1.274   0.032
   30X2IT    N3  948   3.284   1.323  -0.225
   30X2IT   H15  949   3.283   1.348  -0.322
   30X2IT   H16  950   3.216   1.365  -0.161
   30X2IT    N2  951   3.607   0.971   0.045
   30X2IT    C3  952   3.669   0.843   0.008
   30X2IT    C2  953   3.606   0.747   0.108
   30X2IT    H2  954   3.655   0.652   0.130
   30X2IT    N1  955   3.458   0.756   0.109
   30X2IT   H14  956   3.420   0.670   0.149
   30X2IT    C1  957   3.537   0.825   0.214
   30X2IT    H1  958   3.531   0.792   0.317
   30X2IT   C11  959   3.558   0.972   0.185
   30X2IT    O3  960   3.660   1.010   0.276
   30X2IT   C15  961   3.730   1.132   0.249
   31X2IT   H18  962   3.143   2.552   5.273
   31X2IT    N4  963   3.099   2.463   5.262
   31X2IT   H17  964   3.076   2.412   5.347
   31X2IT   C14  965   3.019   2.447   5.152
   31X2IT    O5  966   3.020   2.520   5.054
   31X2IT    O4  967   2.942   2.335   5.166
   31X2IT   C13  968   2.858   2.302   5.054
   31X2IT   C10  969   2.936   2.224   4.946
   31X2IT    C9  970   2.849   2.182   4.829
   31X2IT    C4  971   2.853   2.044   4.815
   31X2IT    C5  972   2.778   1.969   4.709
   31X2IT    O1  973   2.791   1.846   4.701
   31X2IT    C6  974   2.694   2.047   4.621
   31X2IT   C12  975   2.615   1.978   4.513
   31X2IT    C7  976   2.691   2.185   4.635
   31X2IT    C8  977   2.769   2.261   4.743
   31X2IT    O2  978   2.755   2.384   4.749
   31X2IT    N3  979   2.618   2.266   4.558
   31X2IT   H15  980   2.559   2.233   4.483
   31X2IT   H16  981   2.622   2.366   4.578
   31X2IT    N2  982   2.940   1.986   4.902
   31X2IT    C3  983   2.929   1.854   4.965
   31X2IT    C2  984   2.927   1.889   5.113
   31X2IT    H2  985   2.953   1.814   5.187
   31X2IT    N1  986   2.825   1.991   5.145
   31X2IT   H14  987   2.802   1.987   5.245
   31X2IT    C1  988   2.966   2.032   5.131
   31X2IT    H1  989   3.022   2.067   5.216
   31X2IT   C11  990   2.999   2.088   4.993
   31X2IT    O3  991   3.140   2.088   4.989
   31X2IT   C15  992   3.201   2.099   4.860
   32X2IT   H18  993   0.438   1.269   4.979
   32X2IT    N4  994   0.500   1.298   4.906
   32X2IT   H17  995   0.459   1.318   4.816
   32X2IT   C14  996   0.611   1.368   4.944
   32X2IT    O5  997   0.656   1.373   5.057
   32X2IT    O4  998   0.669   1.427   4.835
   32X2IT   C13  999   0.792   1.499   4.859
   32X2IT   C10 1000   0.913   1.404   4.860
   32X2IT    C9 1001   1.045   1.477   4.878
   32X2IT    C4 1002   1.128   1.451   4.772
   32X2IT    C5 1003   1.267   1.508   4.758
   32X2IT    O1 1004   1.337   1.476   4.661
   32X2IT    C6 1005   1.310   1.597   4.863
   32X2IT   C12 1006   1.449   1.658   4.855
   32X2IT    C7 1007   1.227   1.622   4.970
   32X2IT    C8 1008   1.086   1.563   4.983
   32X2IT    O2 1009   1.018   1.596   5.081
   32X2IT    N3 1010   1.259   1.702   5.072
   32X2IT   H15 1011   1.347   1.751   5.079
   32X2IT   H16 1012   1.189   1.715   5.146
   32X2IT    N2 1013   1.074   1.361   4.685
   32X2IT    C3 1014   1.092   1.355   4.539
   32X2IT    C2 1015   0.949   1.371   4.489
   32X2IT    H2 1016   0.923   1.338   4.388
   32X2IT    N1 1017   0.882   1.490   4.547
   32X2IT   H14 1018   0.803   1.517   4.487
   32X2IT    C1 1019   0.855   1.356   4.602
   32X2IT    H1 1020   0.757   1.310   4.592
   32X2IT   C11 1021   0.936   1.324   4.727
   32X2IT    O3 1022   0.922   1.184   4.743
   32X2IT   C15 1023   1.017   1.118   4.828
   33X2IT   H18 1024   0.710   3.429   3.785
   33X2IT    N4 1025   0.658   3.347   3.758
   33X2IT   H17 1026   0.636   3.337   3.660
   33X2IT   C14 1027   0.678   3.235   3.834
   33X2IT    O5 1028   0.729   3.234   3.945
   33X2IT    O4 1029   0.628   3.126   3.770
   33X2IT   C13 1030   0.636   3.001   3.841
   33X2IT   C10 1031   0.518   2.985   3.940
   33X2IT    C9 1032   0.519   2.853   4.012
   33X2IT    C4 1033   0.401   2.785   3.989
   33X2IT    C5 1034   0.369   2.649   4.045
   33X2IT    O1 1035   0.259   2.598   4.022
   33X2IT    C6 1036   0.472   2.588   4.126
   33X2IT   C12 1037   0.446   2.451   4.185
   33X2IT    C7 1038   0.589   2.656   4.150
   33X2IT    C8 1039   0.620   2.794   4.093
   33X2IT    O2 1040   0.731   2.844   4.117
   33X2IT    N3 1041   0.690   2.607   4.225
   33X2IT   H15 1042   0.687   2.517   4.269
   33X2IT   H16 1043   0.773   2.666   4.235
   33X2IT    N2 1044   0.313   2.858   3.915
   33X2IT    C3 1045   0.215   2.810   3.817
   33X2IT    C2 1046   0.260   2.881   3.690
   33X2IT    H2 1047   0.189   2.893   3.607
   33X2IT    N1 1048   0.403   2.860   3.661
   33X2IT   H14 1049   0.421   2.878   3.562
   33X2IT    C1 1050   0.358   2.987   3.724
   33X2IT    H1 1051   0.366   3.080   3.670
   33X2IT   C11 1052   0.375   2.988   3.875
   33X2IT    O3 1053   0.297   3.099   3.917
   33X2IT   C15 1054   0.261   3.104   4.055
   34X2IT   H18 1055   0.944   2.051   3.392
   34X2IT    N4 1056   0.997   2.127   3.354
   34X2IT   H17 1057   1.007   2.132   3.254
   34X2IT   C14 1058   0.995   2.244   3.426
   34X2IT    O5 1059   0.959   2.255   3.541
   34X2IT    O4 1060   1.044   2.346   3.349
   34X2IT   C13 1061   1.054   2.475   3.414
   34X2IT   C10 1062   1.184   2.486   3.496
   34X2IT    C9 1063   1.202   2.622   3.560
   34X2IT    C4 1064   1.321   2.679   3.518
   34X2IT    C5 1065   1.369   2.815   3.562
   34X2IT    O1 1066   1.478   2.856   3.522
   34X2IT    C6 1067   1.282   2.888   3.651
   34X2IT   C12 1068   1.324   3.025   3.699
   34X2IT    C7 1069   1.164   2.830   3.693
   34X2IT    C8 1070   1.116   2.692   3.649
   34X2IT    O2 1071   1.006   2.652   3.690
   34X2IT    N3 1072   1.077   2.890   3.777
   34X2IT   H15 1073   1.092   2.982   3.815
   34X2IT   H16 1074   0.992   2.838   3.801
   34X2IT    N2 1075   1.392   2.596   3.439
   34X2IT    C3 1076   1.481   2.631   3.326
   34X2IT    C2 1077   1.415   2.558   3.210
   34X2IT    H2 1078   1.473   2.536   3.120
   34X2IT    N1 1079   1.271   2.588   3.198
   34X2IT   H14 1080   1.239   2.567   3.103
   34X2IT    C1 1081   1.314   2.462   3.262
   34X2IT    H1 1082   1.294   2.367   3.215
   34X2IT   C11 1083   1.317   2.469   3.414
   34X2IT    O3 1084   1.392   2.355   3.452
   34X2IT   C15 1085   1.445   2.354   3.585
   35X2IT   H18 1086   1.013   0.248   2.480
   35X2IT    N4 1087   0.950   0.325   2.470
   35X2IT   H17 1088   0.960   0.382   2.387
   35X2IT   C14 1089   0.827   0.310   2.526
   35X2IT    O5 1090   0.796   0.226   2.608
   35X2IT    O4 1091   0.742   0.407   2.479
   35X2IT   C13 1092   0.609   0.408   2.534
   35X2IT   C10 1093   0.605   0.483   2.669
   35X2IT    C9 1094   0.466   0.492   2.727
   35X2IT    C4 1095   0.431   0.625   2.746
   35X2IT    C5 1096   0.299   0.669   2.802
   35X2IT    O1 1097   0.278   0.790   2.819
   35X2IT    C6 1098   0.204   0.565   2.834
   35X2IT   C12 1099   0.069   0.603   2.890
   35X2IT    C7 1100   0.240   0.433   2.816
   35X2IT    C8 1101   0.375   0.389   2.759
   35X2IT    O2 1102   0.394   0.267   2.743
   35X2IT    N3 1103   0.159   0.329   2.844
   35X2IT   H15 1104   0.066   0.341   2.880
   35X2IT   H16 1105   0.195   0.236   2.825
   35X2IT    N2 1106   0.533   0.709   2.716
   35X2IT    C3 1107   0.524   0.845   2.660
   35X2IT    C2 1108   0.602   0.831   2.530
   35X2IT    H2 1109   0.642   0.920   2.481
   35X2IT    N1 1110   0.554   0.717   2.448
   35X2IT   H14 1111   0.582   0.732   2.350
   35X2IT    C1 1112   0.676   0.702   2.530
   35X2IT    H1 1113   0.773   0.690   2.484
   35X2IT   C11 1114   0.650   0.634   2.663
   35X2IT    O3 1115   0.768   0.659   2.738
   35X2IT   C15 1116   0.760   0.642   2.880
   36X2IT   H18 1117   4.313   0.930   1.345
   36X2IT    N4 1118   4.382   0.889   1.405
   36X2IT   H17 1119   4.478   0.890   1.373
   36X2IT   C14 1120   4.358   0.896   1.540
   36X2IT    O5 1121   4.250   0.921   1.590
   36X2IT    O4 1122   4.471   0.866   1.609
   36X2IT   C13 1123   4.459   0.862   1.753
   36X2IT   C10 1124   4.404   0.726   1.801
   36X2IT    C9 1125   4.396   0.716   1.952
   36X2IT    C4 1126   4.471   0.609   1.997
   36X2IT    C5 1127   4.485   0.571   2.141
   36X2IT    O1 1128   4.552   0.471   2.172
   36X2IT    C6 1129   4.417   0.655   2.237
   36X2IT   C12 1130   4.428   0.622   2.384
   36X2IT    C7 1131   4.341   0.761   2.192
   36X2IT    C8 1132   4.327   0.799   2.044
   36X2IT    O2 1133   4.260   0.899   2.016
   36X2IT    N3 1134   4.273   0.844   2.273
   36X2IT   H15 1135   4.273   0.835   2.373
   36X2IT   H16 1136   4.222   0.921   2.229
   36X2IT    N2 1137   4.524   0.537   1.894
   36X2IT    C3 1138   4.653   0.466   1.891
   36X2IT    C2 1139   4.725   0.535   1.776
   36X2IT    H2 1140   4.809   0.485   1.727
   36X2IT    N1 1141   4.727   0.682   1.792
   36X2IT   H14 1142   4.804   0.721   1.736
   36X2IT    C1 1143   4.630   0.619   1.701
   36X2IT    H1 1144   4.636   0.635   1.594
   36X2IT   C11 1145   4.492   0.601   1.763
   36X2IT    O3 1146   4.426   0.512   1.676
   36X2IT   C15 1147   4.309   0.445   1.726
   37X2IT   H18 1148   5.209   0.370   4.897
   37X2IT    N4 1149   5.144   0.339   4.828
   37X2IT   H17 1150   5.047   0.331   4.856
   37X2IT   C14 1151   5.173   0.369   4.698
   37X2IT    O5 1152   5.282   0.406   4.658
   37X2IT    O4 1153   5.063   0.349   4.619
   37X2IT   C13 1154   5.082   0.371   4.478
   37X2IT   C10 1155   5.143   0.248   4.409
   37X2IT    C9 1156   5.157   0.264   4.260
   37X2IT    C4 1157   5.088   0.165   4.194
   37X2IT    C5 1158   5.080   0.152   4.044
   37X2IT    O1 1159   5.019   0.057   3.994
   37X2IT    C6 1160   5.148   0.254   3.968
   37X2IT   C12 1161   5.145   0.248   3.816
   37X2IT    C7 1162   5.219   0.353   4.034
   37X2IT    C8 1163   5.226   0.364   4.186
   37X2IT    O2 1164   5.288   0.460   4.235
   37X2IT    N3 1165   5.287   0.451   3.971
   37X2IT   H15 1166   5.291   0.460   3.871
   37X2IT   H16 1167   5.334   0.520   4.030
   37X2IT    N2 1168   5.033   0.075   4.280
   37X2IT    C3 1169   4.907  -0.000   4.265
   37X2IT    C2 1170   4.828   0.045   4.386
   37X2IT    H2 1171   4.745  -0.015   4.422
   37X2IT    N1 1172   4.821   0.193   4.397
   37X2IT   H14 1173   4.742   0.219   4.455
   37X2IT    C1 1174   4.918   0.118   4.479
   37X2IT    H1 1175   4.907   0.114   4.587
   37X2IT   C11 1176   5.058   0.115   4.421
   37X2IT    O3 1177   5.124   0.014   4.494
   37X2IT   C15 1178   5.245  -0.040   4.438
   38X2IT   H18 1179   1.254   4.739   1.054
   38X2IT    N4 1180   1.299   4.653   1.029
   38X2IT   H17 1181   1.392   4.659   0.990
   38X2IT   C14 1182   1.265   4.543   1.103
   38X2IT    O5 1183   1.168   4.534   1.175
   38X2IT    O4 1184   1.355   4.442   1.080
   38X2IT   C13 1185   1.327   4.317   1.146
   38X2IT   C10 1186   1.226   4.232   1.067
   38X2IT    C9 1187   1.200   4.097   1.130
   38X2IT    C4 1188   1.229   3.996   1.040
   38X2IT    C5 1189   1.215   3.850   1.071
   38X2IT    O1 1190   1.240   3.767   0.983
   38X2IT    C6 1191   1.171   3.816   1.204
   38X2IT   C12 1192   1.155   3.670   1.242
   38X2IT    C7 1193   1.140   3.917   1.293
   38X2IT    C8 1194   1.154   4.066   1.261
   38X2IT    O2 1195   1.128   4.148   1.350
   38X2IT    N3 1196   1.097   3.895   1.418
   38X2IT   H15 1197   1.084   3.803   1.457
   38X2IT   H16 1198   1.079   3.977   1.477
   38X2IT    N2 1199   1.265   4.045   0.919
   38X2IT    C3 1200   1.361   3.988   0.823
   38X2IT    C2 1201   1.464   4.100   0.810
   38X2IT    H2 1202   1.529   4.103   0.723
   38X2IT    N1 1203   1.514   4.145   0.942
   38X2IT   H14 1204   1.604   4.192   0.929
   38X2IT    C1 1205   1.410   4.224   0.872
   38X2IT    H1 1206   1.432   4.323   0.834
   38X2IT   C11 1207   1.269   4.194   0.921
   38X2IT    O3 1208   1.185   4.251   0.822
   38X2IT   C15 1209   1.049   4.207   0.818
   39X2IT   H18 1210   4.044   0.230   3.576
   39X2IT    N4 1211   4.041   0.257   3.673
   39X2IT   H17 1212   4.120   0.231   3.731
   39X2IT   C14 1213   3.970   0.370   3.703
   39X2IT    O5 1214   3.891   0.425   3.629
   39X2IT    O4 1215   3.999   0.411   3.830
   39X2IT   C13 1216   3.927   0.527   3.878
   39X2IT   C10 1217   3.789   0.488   3.932
   39X2IT    C9 1218   3.713   0.605   3.989
   39X2IT    C4 1219   3.680   0.581   4.121
   39X2IT    C5 1220   3.605   0.678   4.208
   39X2IT    O1 1221   3.577   0.646   4.325
   39X2IT    C6 1222   3.569   0.804   4.148
   39X2IT   C12 1223   3.494   0.906   4.230
   39X2IT    C7 1224   3.601   0.828   4.016
   39X2IT    C8 1225   3.677   0.728   3.928
   39X2IT    O2 1226   3.704   0.762   3.811
   39X2IT    N3 1227   3.570   0.941   3.951
   39X2IT   H15 1228   3.522   1.018   3.994
   39X2IT   H16 1229   3.600   0.949   3.853
   39X2IT    N2 1230   3.717   0.456   4.161
   39X2IT    C3 1231   3.762   0.414   4.294
   39X2IT    C2 1232   3.901   0.360   4.265
   39X2IT    H2 1233   3.948   0.291   4.336
   39X2IT    N1 1234   3.985   0.457   4.191
   39X2IT   H14 1235   4.083   0.434   4.204
   39X2IT    C1 1236   3.919   0.346   4.119
   39X2IT    H1 1237   3.979   0.267   4.074
   39X2IT   C11 1238   3.789   0.386   4.051
   39X2IT    O3 1239   3.728   0.262   4.019
   39X2IT   C15 1240   3.588   0.264   3.990
   40X2IT   H18 1241   4.823   1.060   0.780
   40X2IT    N4 1242   4.867   1.131   0.725
   40X2IT   H17 1243   4.925   1.198   0.773
   40X2IT   C14 1244   4.898   1.098   0.596
   40X2IT    O5 1245   4.854   1.002   0.535
   40X2IT    O4 1246   4.984   1.191   0.543
   40X2IT   C13 1247   5.021   1.172   0.405
   40X2IT   C10 1248   4.915   1.230   0.310
   40X2IT    C9 1249   4.953   1.218   0.164
   40X2IT    C4 1250   4.955   1.343   0.106
   40X2IT    C5 1251   4.990   1.368  -0.038
   40X2IT    O1 1252   4.986   1.483  -0.084
   40X2IT    C6 1253   5.026   1.252  -0.116
   40X2IT   C12 1254   5.063   1.270  -0.262
   40X2IT    C7 1255   5.023   1.127  -0.058
   40X2IT    C8 1256   4.986   1.103   0.089
   40X2IT    O2 1257   4.991   0.987   0.132
   40X2IT    N3 1258   5.053   1.013  -0.123
   40X2IT   H15 1259   5.081   1.011  -0.219
   40X2IT   H16 1260   5.049   0.926  -0.069
   40X2IT    N2 1261   4.915   1.441   0.191
   40X2IT    C3 1262   4.961   1.580   0.198
   40X2IT    C2 1263   5.017   1.589   0.339
   40X2IT    H2 1264   5.028   1.687   0.386
   40X2IT    N1 1265   5.114   1.482   0.368
   40X2IT   H14 1266   5.174   1.510   0.446
   40X2IT    C1 1267   4.975   1.469   0.416
   40X2IT    H1 1268   4.953   1.472   0.522
   40X2IT   C11 1269   4.887   1.384   0.326
   40X2IT    O3 1270   4.756   1.412   0.370
   40X2IT   C15 1271   4.648   1.378   0.281
   41X2IT   H18 1272   2.580   2.208   2.270
   41X2IT    N4 1273   2.659   2.175   2.218
   41X2IT   H17 1274   2.642   2.104   2.148
   41X2IT   C14 1275   2.760   2.265   2.198
   41X2IT    O5 1276   2.775   2.369   2.260
   41X2IT    O4 1277   2.846   2.218   2.102
   41X2IT   C13 1278   2.962   2.299   2.075
   41X2IT   C10 1279   3.075   2.272   2.176
   41X2IT    C9 1280   3.201   2.350   2.147
   41X2IT    C4 1281   3.307   2.264   2.129
   41X2IT    C5 1282   3.447   2.309   2.098
   41X2IT    O1 1283   3.537   2.225   2.087
   41X2IT    C6 1284   3.467   2.451   2.084
   41X2IT   C12 1285   3.606   2.503   2.052
   41X2IT    C7 1286   3.361   2.537   2.103
   41X2IT    C8 1287   3.219   2.490   2.136
   41X2IT    O2 1288   3.130   2.576   2.146
   41X2IT    N3 1289   3.370   2.671   2.094
   41X2IT   H15 1290   3.456   2.718   2.071
   41X2IT   H16 1291   3.284   2.725   2.108
   41X2IT    N2 1292   3.273   2.134   2.151
   41X2IT    C3 1293   3.326   2.014   2.084
   41X2IT    C2 1294   3.201   1.955   2.020
   41X2IT    H2 1295   3.199   1.850   1.992
   41X2IT    N1 1296   3.127   2.054   1.939
   41X2IT   H14 1297   3.067   2.005   1.872
   41X2IT    C1 1298   3.080   2.022   2.076
   41X2IT    H1 1299   2.986   1.971   2.092
   41X2IT   C11 1300   3.127   2.123   2.180
   41X2IT    O3 1301   3.102   2.059   2.303
   41X2IT   C15 1302   3.170   2.110   2.419
   42X2IT   H18 1303   2.565   1.463   1.040
   42X2IT    N4 1304   2.554   1.396   0.967
   42X2IT   H17 1305   2.582   1.301   0.987
   42X2IT   C14 1306   2.452   1.418   0.878
   42X2IT    O5 1307   2.393   1.524   0.865
   42X2IT    O4 1308   2.430   1.306   0.804
   42X2IT   C13 1309   2.329   1.317   0.701
   42X2IT   C10 1310   2.386   1.379   0.573
   42X2IT    C9 1311   2.285   1.387   0.460
   42X2IT    C4 1312   2.332   1.318   0.350
   42X2IT    C5 1313   2.256   1.304   0.221
   42X2IT    O1 1314   2.307   1.244   0.126
   42X2IT    C6 1315   2.125   1.365   0.217
   42X2IT   C12 1316   2.043   1.355   0.090
   42X2IT    C7 1317   2.079   1.435   0.327
   42X2IT    C8 1318   2.158   1.449   0.457
   42X2IT    O2 1319   2.105   1.510   0.551
   42X2IT    N3 1320   1.960   1.497   0.332
   42X2IT   H15 1321   1.894   1.496   0.255
   42X2IT   H16 1322   1.935   1.544   0.419
   42X2IT    N2 1323   2.458   1.270   0.369
   42X2IT    C3 1324   2.517   1.147   0.315
   42X2IT    C2 1325   2.554   1.071   0.442
   42X2IT    H2 1326   2.629   0.992   0.438
   42X2IT    N1 1327   2.441   1.060   0.536
   42X2IT   H14 1328   2.457   0.982   0.600
   42X2IT    C1 1329   2.544   1.162   0.559
   42X2IT    H1 1330   2.610   1.157   0.644
   42X2IT   C11 1331   2.505   1.300   0.507
   42X2IT    O3 1332   2.627   1.373   0.507
   42X2IT   C15 1333   2.631   1.492   0.428
   43X2IT   H18 1334   3.462   0.442   2.164
   43X2IT    N4 1335   3.412   0.406   2.085
   43X2IT   H17 1336   3.330   0.457   2.055
   43X2IT   C14 1337   3.487   0.340   1.991
   43X2IT    O5 1338   3.599   0.297   2.009
   43X2IT    O4 1339   3.414   0.324   1.877
   43X2IT   C13 1340   3.478   0.249   1.771
   43X2IT   C10 1341   3.461   0.097   1.791
   43X2IT    C9 1342   3.520   0.015   1.679
   43X2IT    C4 1343   3.423  -0.065   1.622
   43X2IT    C5 1344   3.448  -0.158   1.507
   43X2IT    O1 1345   3.356  -0.229   1.465
   43X2IT    C6 1346   3.582  -0.160   1.454
   43X2IT   C12 1347   3.614  -0.251   1.337
   43X2IT    C7 1348   3.679  -0.080   1.511
   43X2IT    C8 1349   3.653   0.014   1.629
   43X2IT    O2 1350   3.747   0.084   1.670
   43X2IT    N3 1351   3.807  -0.077   1.470
   43X2IT   H15 1352   3.841  -0.131   1.392
   43X2IT   H16 1353   3.870  -0.013   1.519
   43X2IT    N2 1354   3.304  -0.055   1.687
   43X2IT    C3 1355   3.169  -0.065   1.630
   43X2IT    C2 1356   3.109   0.071   1.664
   43X2IT    H2 1357   3.001   0.084   1.665
   43X2IT    N1 1358   3.196   0.183   1.621
   43X2IT   H14 1359   3.140   0.269   1.614
   43X2IT    C1 1360   3.197   0.140   1.762
   43X2IT    H1 1361   3.159   0.205   1.840
   43X2IT   C11 1362   3.312   0.046   1.796
   43X2IT    O3 1363   3.276  -0.009   1.922
   43X2IT   C15 1364   3.344  -0.128   1.962
   44X2IT   H18 1365   3.193   3.120   2.066
   44X2IT    N4 1366   3.183   3.209   2.113
   44X2IT   H17 1367   3.140   3.208   2.204
   44X2IT   C14 1368   3.277   3.304   2.084
   44X2IT    O5 1369   3.353   3.301   1.989
   44X2IT    O4 1370   3.270   3.405   2.176
   44X2IT   C13 1371   3.359   3.516   2.154
   44X2IT   C10 1372   3.301   3.616   2.053
   44X2IT    C9 1373   3.388   3.738   2.033
   44X2IT    C4 1374   3.317   3.853   2.063
   44X2IT    C5 1375   3.375   3.991   2.054
   44X2IT    O1 1376   3.303   4.089   2.079
   44X2IT    C6 1377   3.514   4.001   2.016
   44X2IT   C12 1378   3.578   4.138   2.005
   44X2IT    C7 1379   3.584   3.886   1.985
   44X2IT    C8 1380   3.524   3.746   1.993
   44X2IT    O2 1381   3.598   3.649   1.968
   44X2IT    N3 1382   3.713   3.886   1.946
   44X2IT   H15 1383   3.768   3.969   1.937
   44X2IT   H16 1384   3.755   3.794   1.927
   44X2IT    N2 1385   3.188   3.827   2.093
   44X2IT    C3 1386   3.101   3.898   2.188
   44X2IT    C2 1387   3.064   3.789   2.286
   44X2IT    H2 1388   2.975   3.800   2.349
   44X2IT    N1 1389   3.182   3.718   2.340
   44X2IT   H14 1390   3.158   3.672   2.428
   44X2IT    C1 1391   3.103   3.657   2.231
   44X2IT    H1 1392   3.047   3.566   2.248
   44X2IT   C11 1393   3.162   3.680   2.093
   44X2IT    O3 1394   3.058   3.644   2.004
   44X2IT   C15 1395   3.068   3.691   1.869
   45X2IT   H18 1396   5.129   3.746   0.517
   45X2IT    N4 1397   5.093   3.689   0.592
   45X2IT   H17 1398   5.152   3.614   0.625
   45X2IT   C14 1399   5.007   3.750   0.679
   45X2IT    O5 1400   4.951   3.856   0.659
   45X2IT    O4 1401   4.991   3.672   0.790
   45X2IT   C13 1402   4.897   3.721   0.888
   45X2IT   C10 1403   4.752   3.684   0.852
   45X2IT    C9 1404   4.652   3.728   0.956
   45X2IT    C4 1405   4.581   3.618   1.003
   45X2IT    C5 1406   4.474   3.626   1.108
   45X2IT    O1 1407   4.413   3.524   1.141
   45X2IT    C6 1408   4.448   3.757   1.163
   45X2IT   C12 1409   4.341   3.772   1.269
   45X2IT    C7 1410   4.518   3.866   1.115
   45X2IT    C8 1411   4.626   3.857   1.008
   45X2IT    O2 1412   4.686   3.961   0.975
   45X2IT    N3 1413   4.499   3.992   1.159
   45X2IT   H15 1414   4.433   4.016   1.231
   45X2IT   H16 1415   4.558   4.065   1.118
   45X2IT    N2 1416   4.615   3.504   0.937
   45X2IT    C3 1417   4.619   3.367   0.991
   45X2IT    C2 1418   4.764   3.328   0.970
   45X2IT    H2 1419   4.793   3.223   0.968
   45X2IT    N1 1420   4.858   3.429   1.025
   45X2IT   H14 1421   4.949   3.385   1.041
   45X2IT    C1 1422   4.829   3.428   0.881
   45X2IT    H1 1423   4.906   3.402   0.809
   45X2IT   C11 1424   4.724   3.530   0.839
   45X2IT    O3 1425   4.688   3.490   0.708
   45X2IT   C15 1426   4.564   3.542   0.656
   46X2IT   H18 1427   2.632   3.010   2.072
   46X2IT    N4 1428   2.584   3.092   2.039
   46X2IT   H17 1429   2.604   3.179   2.085
   46X2IT   C14 1430   2.549   3.092   1.907
   46X2IT    O5 1431   2.546   2.995   1.834
   46X2IT    O4 1432   2.512   3.219   1.869
   46X2IT   C13 1433   2.466   3.233   1.733
   46X2IT   C10 1434   2.317   3.196   1.720
   46X2IT    C9 1435   2.263   3.217   1.580
   46X2IT    C4 1436   2.157   3.305   1.583
   46X2IT    C5 1437   2.080   3.348   1.461
   46X2IT    O1 1438   1.984   3.425   1.473
   46X2IT    C6 1439   2.126   3.295   1.335
   46X2IT   C12 1440   2.053   3.335   1.208
   46X2IT    C7 1441   2.232   3.206   1.332
   46X2IT    C8 1442   2.308   3.163   1.457
   46X2IT    O2 1443   2.404   3.086   1.443
   46X2IT    N3 1444   2.280   3.150   1.220
   46X2IT   H15 1445   2.242   3.170   1.129
   46X2IT   H16 1446   2.360   3.087   1.230
   46X2IT    N2 1447   2.124   3.342   1.710
   46X2IT    C3 1448   2.070   3.471   1.755
   46X2IT    C2 1449   2.177   3.517   1.854
   46X2IT    H2 1450   2.152   3.592   1.929
   46X2IT    N1 1451   2.313   3.514   1.795
   46X2IT   H14 1452   2.374   3.576   1.848
   46X2IT    C1 1453   2.269   3.404   1.883
   46X2IT    H1 1454   2.315   3.390   1.980
   46X2IT   C11 1455   2.219   3.282   1.808
   46X2IT    O3 1456   2.152   3.206   1.906
   46X2IT   C15 1457   2.061   3.105   1.860
   47X2IT   H18 1458   3.007   4.841   0.858
   47X2IT    N4 1459   2.996   4.879   0.765
   47X2IT   H17 1460   2.960   4.973   0.758
   47X2IT   C14 1461   3.084   4.834   0.671
   47X2IT    O5 1462   3.153   4.734   0.681
   47X2IT    O4 1463   3.078   4.914   0.560
   47X2IT   C13 1464   3.161   4.875   0.449
   47X2IT   C10 1465   3.091   4.767   0.363
   47X2IT    C9 1466   3.172   4.728   0.241
   47X2IT    C4 1467   3.098   4.750   0.126
   47X2IT    C5 1468   3.149   4.723  -0.013
   47X2IT    O1 1469   3.074   4.742  -0.110
   47X2IT    C6 1470   3.284   4.673  -0.023
   47X2IT   C12 1471   3.341   4.644  -0.160
   47X2IT    C7 1472   3.357   4.650   0.092
   47X2IT    C8 1473   3.304   4.678   0.232
   47X2IT    O2 1474   3.380   4.658   0.328
   47X2IT    N3 1475   3.483   4.603   0.092
   47X2IT   H15 1476   3.533   4.581   0.008
   47X2IT   H16 1477   3.528   4.591   0.183
   47X2IT    N2 1478   2.972   4.792   0.153
   47X2IT    C3 1479   2.888   4.885   0.075
   47X2IT    C2 1480   2.863   4.997   0.175
   47X2IT    H2 1481   2.779   5.065   0.160
   47X2IT    N1 1482   2.988   5.049   0.234
   47X2IT   H14 1483   2.972   5.143   0.271
   47X2IT    C1 1484   2.905   4.954   0.310
   47X2IT    H1 1485   2.854   4.985   0.401
   47X2IT   C11 1486   2.953   4.810   0.300
   47X2IT    O3 1487   2.845   4.734   0.349
   47X2IT   C15 1488   2.843   4.594   0.317
   48X2IT   H18 1489   2.882   1.434   3.536
   48X2IT    N4 1490   2.949   1.390   3.476
   48X2IT   H17 1491   2.914   1.347   3.392
   48X2IT   C14 1492   3.075   1.444   3.476
   48X2IT    O5 1493   3.119   1.520   3.561
   48X2IT    O4 1494   3.146   1.397   3.370
   48X2IT   C13 1495   3.283   1.440   3.361
   48X2IT   C10 1496   3.375   1.353   3.449
   48X2IT    C9 1497   3.521   1.391   3.437
   48X2IT    C4 1498   3.595   1.281   3.395
   48X2IT    C5 1499   3.744   1.285   3.372
   48X2IT    O1 1500   3.802   1.181   3.338
   48X2IT    C6 1501   3.809   1.412   3.393
   48X2IT   C12 1502   3.959   1.422   3.371
   48X2IT    C7 1503   3.735   1.520   3.436
   48X2IT    C8 1504   3.584   1.515   3.459
   48X2IT    O2 1505   3.527   1.620   3.493
   48X2IT    N3 1506   3.788   1.642   3.459
   48X2IT   H15 1507   3.885   1.663   3.447
   48X2IT   H16 1508   3.723   1.715   3.489
   48X2IT    N2 1509   3.520   1.169   3.385
   48X2IT    C3 1510   3.535   1.058   3.289
   48X2IT    C2 1511   3.401   1.060   3.216
   48X2IT    H2 1512   3.367   0.971   3.163
   48X2IT    N1 1513   3.368   1.194   3.163
   48X2IT   H14 1514   3.299   1.185   3.088
   48X2IT    C1 1515   3.306   1.148   3.289
   48X2IT    H1 1516   3.200   1.128   3.295
   48X2IT   C11 1517   3.377   1.199   3.414
   48X2IT    O3 1518   3.326   1.119   3.518
   48X2IT   C15 1519   3.400   1.116   3.641
   49X2IT   H18 1520   1.979   3.614   2.511
   49X2IT    N4 1521   1.933   3.623   2.422
   49X2IT   H17 1522   1.929   3.540   2.364
   49X2IT   C14 1523   1.832   3.714   2.414
   49X2IT    O5 1524   1.812   3.804   2.495
   49X2IT    O4 1525   1.760   3.694   2.300
   49X2IT   C13 1526   1.653   3.789   2.275
   49X2IT   C10 1527   1.706   3.917   2.208
   49X2IT    C9 1528   1.596   4.015   2.174
   49X2IT    C4 1529   1.597   4.042   2.039
   49X2IT    C5 1530   1.500   4.136   1.971
   49X2IT    O1 1531   1.511   4.157   1.850
   49X2IT    C6 1532   1.400   4.197   2.055
   49X2IT   C12 1533   1.300   4.291   1.994
   49X2IT    C7 1534   1.400   4.170   2.191
   49X2IT    C8 1535   1.500   4.076   2.259
   49X2IT    O2 1536   1.488   4.056   2.381
   49X2IT    N3 1537   1.313   4.224   2.278
   49X2IT   H15 1538   1.239   4.286   2.250
   49X2IT   H16 1539   1.321   4.196   2.376
   49X2IT    N2 1540   1.700   3.981   1.975
   49X2IT    C3 1541   1.702   3.928   1.837
   49X2IT    C2 1542   1.732   3.781   1.860
   49X2IT    H2 1543   1.773   3.721   1.779
   49X2IT    N1 1544   1.639   3.719   1.957
   49X2IT   H14 1545   1.639   3.617   1.944
   49X2IT    C1 1546   1.774   3.760   2.001
   49X2IT    H1 1547   1.848   3.686   2.030
   49X2IT   C11 1548   1.777   3.896   2.069
   49X2IT    O3 1549   1.914   3.930   2.072
   49X2IT   C15 1550   1.947   4.068   2.095
   50X2IT   H18 1551   1.917   3.473   4.182
   50X2IT    N4 1552   1.855   3.445   4.256
   50X2IT   H17 1553   1.833   3.346   4.263
   50X2IT   C14 1554   1.860   3.520   4.370
   50X2IT    O5 1555   1.909   3.631   4.379
   50X2IT    O4 1556   1.796   3.454   4.472
   50X2IT   C13 1557   1.787   3.525   4.597
   50X2IT   C10 1558   1.668   3.622   4.598
   50X2IT    C9 1559   1.650   3.694   4.730
   50X2IT    C4 1560   1.525   3.668   4.782
   50X2IT    C5 1561   1.475   3.723   4.913
   50X2IT    O1 1562   1.359   3.698   4.949
   50X2IT    C6 1563   1.568   3.804   4.988
   50X2IT   C12 1564   1.525   3.862   5.121
   50X2IT    C7 1565   1.693   3.830   4.936
   50X2IT    C8 1566   1.742   3.774   4.802
   50X2IT    O2 1567   1.859   3.800   4.767
   50X2IT    N3 1568   1.786   3.905   4.998
   50X2IT   H15 1569   1.771   3.948   5.087
   50X2IT   H16 1570   1.876   3.917   4.950
   50X2IT    N2 1571   1.448   3.595   4.697
   50X2IT    C3 1572   1.345   3.495   4.731
   50X2IT    C2 1573   1.400   3.369   4.666
   50X2IT    H2 1574   1.333   3.286   4.644
   50X2IT    N1 1575   1.540   3.342   4.705
   50X2IT   H14 1576   1.561   3.243   4.689
   50X2IT    C1 1577   1.512   3.405   4.574
   50X2IT    H1 1578   1.531   3.352   4.482
   50X2IT   C11 1579   1.527   3.556   4.576
   50X2IT    O3 1580   1.464   3.598   4.457
   50X2IT   C15 1581   1.427   3.737   4.448
   51X2IT   H18 1582   0.397   2.113   2.539
   51X2IT    N4 1583   0.427   2.043   2.474
   51X2IT   H17 1584   0.448   1.952   2.512
   51X2IT   C14 1585   0.377   2.052   2.347
   51X2IT    O5 1586   0.324   2.151   2.300
   51X2IT    O4 1587   0.400   1.936   2.280
   51X2IT   C13 1588   0.359   1.934   2.141
   51X2IT   C10 1589   0.465   1.997   2.050
   51X2IT    C9 1590   0.429   1.990   1.903
   51X2IT    C4 1591   0.527   1.922   1.833
   51X2IT    C5 1592   0.521   1.897   1.685
   51X2IT    O1 1593   0.616   1.838   1.630
   51X2IT    C6 1594   0.404   1.945   1.616
   51X2IT   C12 1595   0.392   1.922   1.467
   51X2IT    C7 1596   0.307   2.013   1.686
   51X2IT    C8 1597   0.314   2.039   1.837
   51X2IT    O2 1598   0.219   2.098   1.890
   51X2IT    N3 1599   0.196   2.063   1.630
   51X2IT   H15 1600   0.174   2.053   1.532
   51X2IT   H16 1601   0.129   2.111   1.692
   51X2IT    N2 1602   0.632   1.888   1.912
   51X2IT    C3 1603   0.718   1.769   1.902
   51X2IT    C2 1604   0.696   1.702   2.037
   51X2IT    H2 1605   0.770   1.630   2.074
   51X2IT    N1 1606   0.553   1.683   2.068
   51X2IT   H14 1607   0.543   1.609   2.138
   51X2IT    C1 1608   0.626   1.796   2.128
   51X2IT    H1 1609   0.645   1.799   2.234
   51X2IT   C11 1610   0.606   1.927   2.053
   51X2IT    O3 1611   0.708   2.011   2.104
   51X2IT   C15 1612   0.741   2.128   2.028
   52X2IT   H18 1613   4.553   1.558   2.163
   52X2IT    N4 1614   4.515   1.616   2.090
   52X2IT   H17 1615   4.499   1.713   2.113
   52X2IT   C14 1616   4.549   1.582   1.962
   52X2IT    O5 1617   4.595   1.474   1.928
   52X2IT    O4 1618   4.518   1.684   1.877
   52X2IT   C13 1619   4.542   1.660   1.737
   52X2IT   C10 1620   4.425   1.584   1.673
   52X2IT    C9 1621   4.443   1.562   1.524
   52X2IT    C4 1622   4.337   1.618   1.455
   52X2IT    C5 1623   4.324   1.615   1.305
   52X2IT    O1 1624   4.224   1.665   1.252
   52X2IT    C6 1625   4.432   1.553   1.232
   52X2IT   C12 1626   4.425   1.547   1.081
   52X2IT    C7 1627   4.537   1.496   1.302
   52X2IT    C8 1628   4.548   1.499   1.454
   52X2IT    O2 1629   4.649   1.449   1.506
   52X2IT    N3 1630   4.640   1.434   1.243
   52X2IT   H15 1631   4.650   1.425   1.143
   52X2IT   H16 1632   4.713   1.397   1.304
   52X2IT    N2 1633   4.242   1.669   1.538
   52X2IT    C3 1634   4.156   1.786   1.516
   52X2IT    C2 1635   4.194   1.876   1.632
   52X2IT    H2 1636   4.126   1.955   1.664
   52X2IT    N1 1637   4.340   1.897   1.642
   52X2IT   H14 1638   4.359   1.982   1.696
   52X2IT    C1 1639   4.274   1.799   1.730
   52X2IT    H1 1640   4.269   1.816   1.837
   52X2IT   C11 1641   4.285   1.656   1.680
   52X2IT    O3 1642   4.190   1.585   1.758
   52X2IT   C15 1643   4.148   1.457   1.709
   53X2IT   H18 1644   4.490   2.818   1.042
   53X2IT    N4 1645   4.589   2.827   1.028
   53X2IT   H17 1646   4.620   2.901   0.967
   53X2IT   C14 1647   4.669   2.788   1.132
   53X2IT    O5 1648   4.633   2.720   1.226
   53X2IT    O4 1649   4.796   2.834   1.113
   53X2IT   C13 1650   4.893   2.795   1.212
   53X2IT   C10 1651   4.949   2.654   1.183
   53X2IT    C9 1652   5.057   2.612   1.281
   53X2IT    C4 1653   5.174   2.583   1.213
   53X2IT    C5 1654   5.300   2.539   1.281
   53X2IT    O1 1655   5.400   2.511   1.212
   53X2IT    C6 1656   5.297   2.531   1.425
   53X2IT   C12 1657   5.422   2.487   1.499
   53X2IT    C7 1658   5.180   2.559   1.492
   53X2IT    C8 1659   5.051   2.603   1.422
   53X2IT    O2 1660   4.953   2.630   1.493
   53X2IT    N3 1661   5.167   2.552   1.625
   53X2IT   H15 1662   5.242   2.527   1.687
   53X2IT   H16 1663   5.076   2.577   1.665
   53X2IT    N2 1664   5.158   2.591   1.079
   53X2IT    C3 1665   5.258   2.633   0.979
   53X2IT    C2 1666   5.191   2.754   0.914
   53X2IT    H2 1667   5.223   2.787   0.816
   53X2IT    N1 1668   5.146   2.853   1.015
   53X2IT   H14 1669   5.135   2.944   0.970
   53X2IT    C1 1670   5.048   2.759   0.956
   53X2IT    H1 1671   4.969   2.794   0.892
   53X2IT   C11 1672   5.021   2.638   1.044
   53X2IT    O3 1673   4.955   2.547   0.958
   53X2IT   C15 1674   4.950   2.410   0.999
   54X2IT   H18 1675   2.766   4.296   2.484
   54X2IT    N4 1676   2.668   4.309   2.501
   54X2IT   H17 1677   2.615   4.359   2.431
   54X2IT   C14 1678   2.605   4.212   2.574
   54X2IT    O5 1679   2.661   4.128   2.643
   54X2IT    O4 1680   2.470   4.225   2.563
   54X2IT   C13 1681   2.390   4.134   2.641
   54X2IT   C10 1682   2.373   4.182   2.786
   54X2IT    C9 1683   2.285   4.092   2.869
   54X2IT    C4 1684   2.178   4.164   2.919
   54X2IT    C5 1685   2.070   4.104   3.005
   54X2IT    O1 1686   1.980   4.177   3.049
   54X2IT    C6 1687   2.080   3.963   3.032
   54X2IT   C12 1688   1.975   3.896   3.118
   54X2IT    C7 1689   2.187   3.892   2.983
   54X2IT    C8 1690   2.297   3.954   2.896
   54X2IT    O2 1691   2.386   3.879   2.853
   54X2IT    N3 1692   2.206   3.760   3.004
   54X2IT   H15 1693   2.143   3.704   3.057
   54X2IT   H16 1694   2.288   3.717   2.961
   54X2IT    N2 1695   2.186   4.296   2.889
   54X2IT    C3 1696   2.075   4.390   2.863
   54X2IT    C2 1697   2.105   4.436   2.721
   54X2IT    H2 1698   2.062   4.529   2.684
   54X2IT    N1 1699   2.125   4.322   2.628
   54X2IT   H14 1700   2.109   4.354   2.532
   54X2IT    C1 1701   2.242   4.393   2.682
   54X2IT    H1 1702   2.306   4.451   2.618
   54X2IT   C11 1703   2.304   4.323   2.802
   54X2IT    O3 1704   2.390   4.420   2.858
   54X2IT   C15 1705   2.433   4.399   2.993
   55X2IT   H18 1706   1.195   5.056   1.298
   55X2IT    N4 1707   1.238   5.075   1.210
   55X2IT   H17 1708   1.312   5.144   1.208
   55X2IT   C14 1709   1.241   4.972   1.120
   55X2IT    O5 1710   1.173   4.871   1.126
   55X2IT    O4 1711   1.327   5.002   1.018
   55X2IT   C13 1712   1.336   4.905   0.912
   55X2IT   C10 1713   1.224   4.924   0.809
   55X2IT    C9 1714   1.233   4.828   0.692
   55X2IT    C4 1715   1.242   4.899   0.573
   55X2IT    C5 1716   1.254   4.834   0.438
   55X2IT    O1 1717   1.258   4.905   0.337
   55X2IT    C6 1718   1.259   4.690   0.436
   55X2IT   C12 1719   1.271   4.618   0.303
   55X2IT    C7 1720   1.249   4.620   0.555
   55X2IT    C8 1721   1.237   4.687   0.692
   55X2IT    O2 1722   1.233   4.614   0.792
   55X2IT    N3 1723   1.251   4.486   0.562
   55X2IT   H15 1724   1.261   4.426   0.482
   55X2IT   H16 1725   1.245   4.444   0.656
   55X2IT    N2 1726   1.231   5.033   0.593
   55X2IT    C3 1727   1.296   5.141   0.516
   55X2IT    C2 1728   1.377   5.212   0.624
   55X2IT    H2 1729   1.410   5.314   0.608
   55X2IT    N1 1730   1.463   5.118   0.701
   55X2IT   H14 1731   1.538   5.170   0.746
   55X2IT    C1 1732   1.334   5.164   0.758
   55X2IT    H1 1733   1.332   5.227   0.846
   55X2IT   C11 1734   1.221   5.064   0.738
   55X2IT    O3 1735   1.104   5.139   0.768
   55X2IT   C15 1736   0.979   5.086   0.721
   56X2IT   H18 1737   2.351   1.888   2.583
   56X2IT    N4 1738   2.339   1.958   2.654
   56X2IT   H17 1739   2.290   2.042   2.628
   56X2IT   C14 1740   2.331   1.913   2.782
   56X2IT    O5 1741   2.363   1.802   2.820
   56X2IT    O4 1742   2.285   2.013   2.864
   56X2IT   C13 1743   2.277   1.982   3.004
   56X2IT   C10 1744   2.413   2.000   3.074
   56X2IT    C9 1745   2.407   1.975   3.223
   56X2IT    C4 1746   2.449   2.088   3.292
   56X2IT    C5 1747   2.455   2.097   3.441
   56X2IT    O1 1748   2.497   2.201   3.495
   56X2IT    C6 1749   2.410   1.981   3.515
   56X2IT   C12 1750   2.413   1.984   3.666
   56X2IT    C7 1751   2.369   1.869   3.446
   56X2IT    C8 1752   2.364   1.860   3.293
   56X2IT    O2 1753   2.322   1.756   3.242
   56X2IT    N3 1754   2.327   1.756   3.506
   56X2IT   H15 1755   2.322   1.745   3.605
   56X2IT   H16 1756   2.298   1.679   3.445
   56X2IT    N2 1757   2.492   2.186   3.208
   56X2IT    C3 1758   2.482   2.331   3.227
   56X2IT    C2 1759   2.399   2.374   3.106
   56X2IT    H2 1760   2.401   2.477   3.072
   56X2IT    N1 1761   2.274   2.295   3.093
   56X2IT   H14 1762   2.207   2.347   3.036
   56X2IT    C1 1763   2.391   2.261   3.010
   56X2IT    H1 1764   2.388   2.274   2.902
   56X2IT   C11 1765   2.473   2.146   3.066
   56X2IT    O3 1766   2.594   2.151   2.993
   56X2IT   C15 1767   2.707   2.081   3.048
   57X2IT   H18 1768   3.789   3.014   4.080
   57X2IT    N4 1769   3.740   3.071   4.013
   57X2IT   H17 1770   3.682   3.145   4.050
   57X2IT   C14 1771   3.801   3.089   3.892
   57X2IT    O5 1772   3.893   3.021   3.849
   57X2IT    O4 1773   3.742   3.192   3.824
   57X2IT   C13 1774   3.792   3.218   3.691
   57X2IT   C10 1775   3.727   3.124   3.588
   57X2IT    C9 1776   3.771   3.152   3.446
   57X2IT    C4 1777   3.662   3.182   3.367
   57X2IT    C5 1778   3.671   3.215   3.221
   57X2IT    O1 1779   3.567   3.236   3.156
   57X2IT    C6 1780   3.804   3.220   3.164
   57X2IT   C12 1781   3.820   3.254   3.017
   57X2IT    C7 1782   3.913   3.190   3.243
   57X2IT    C8 1783   3.902   3.155   3.392
   57X2IT    O2 1784   4.007   3.134   3.454
   57X2IT    N3 1785   4.040   3.190   3.199
   57X2IT   H15 1786   4.065   3.213   3.104
   57X2IT   H16 1787   4.113   3.168   3.267
   57X2IT    N2 1788   3.545   3.168   3.434
   57X2IT    C3 1789   3.421   3.246   3.416
   57X2IT    C2 1790   3.402   3.308   3.554
   57X2IT    H2 1791   3.304   3.344   3.584
   57X2IT    N1 1792   3.523   3.379   3.601
   57X2IT   H14 1793   3.498   3.446   3.673
   57X2IT    C1 1794   3.494   3.243   3.651
   57X2IT    H1 1795   3.469   3.226   3.755
   57X2IT   C11 1796   3.570   3.134   3.577
   57X2IT    O3 1797   3.505   3.014   3.615
   57X2IT   C15 1798   3.527   2.899   3.533
   58X2IT   H18 1799   4.446   4.590   3.868
   58X2IT    N4 1800   4.481   4.508   3.915
   58X2IT   H17 1801   4.567   4.468   3.881
   58X2IT   C14 1802   4.451   4.498   4.048
   58X2IT    O5 1803   4.366   4.563   4.106
   58X2IT    O4 1804   4.529   4.402   4.106
   58X2IT   C13 1805   4.503   4.375   4.246
   58X2IT   C10 1806   4.385   4.279   4.264
   58X2IT    C9 1807   4.360   4.243   4.409
   58X2IT    C4 1808   4.368   4.106   4.426
   58X2IT    C5 1809   4.349   4.037   4.559
   58X2IT    O1 1810   4.354   3.914   4.564
   58X2IT    C6 1811   4.324   4.122   4.672
   58X2IT   C12 1812   4.304   4.059   4.809
   58X2IT    C7 1813   4.314   4.259   4.655
   58X2IT    C8 1814   4.333   4.328   4.519
   58X2IT    O2 1815   4.328   4.452   4.516
   58X2IT    N3 1816   4.290   4.346   4.754
   58X2IT   H15 1817   4.277   4.318   4.850
   58X2IT   H16 1818   4.287   4.445   4.730
   58X2IT    N2 1819   4.387   4.041   4.309
   58X2IT    C3 1820   4.463   3.917   4.286
   58X2IT    C2 1821   4.570   3.962   4.188
   58X2IT    H2 1822   4.621   3.888   4.126
   58X2IT    N1 1823   4.643   4.081   4.236
   58X2IT   H14 1824   4.733   4.088   4.187
   58X2IT    C1 1825   4.535   4.097   4.136
   58X2IT    H1 1826   4.558   4.129   4.035
   58X2IT   C11 1827   4.402   4.138   4.197
   58X2IT    O3 1828   4.308   4.114   4.094
   58X2IT   C15 1829   4.170   4.106   4.131
   59X2IT   H18 1830   0.187   3.493   2.570
   59X2IT    N4 1831   0.226   3.552   2.499
   59X2IT   H17 1832   0.323   3.579   2.510
   59X2IT   C14 1833   0.174   3.540   2.374
   59X2IT    O5 1834   0.068   3.485   2.347
   59X2IT    O4 1835   0.255   3.603   2.283
   59X2IT   C13 1836   0.208   3.604   2.147
   59X2IT   C10 1837   0.109   3.718   2.122
   59X2IT    C9 1838   0.063   3.727   1.978
   59X2IT    C4 1839   0.092   3.852   1.926
   59X2IT    C5 1840   0.061   3.894   1.786
   59X2IT    O1 1841   0.088   4.009   1.749
   59X2IT    C6 1842  -0.001   3.794   1.701
   59X2IT   C12 1843  -0.035   3.830   1.558
   59X2IT    C7 1844  -0.031   3.670   1.753
   59X2IT    C8 1845   0.001   3.629   1.897
   59X2IT    O2 1846  -0.027   3.513   1.932
   59X2IT    N3 1847  -0.090   3.572   1.683
   59X2IT   H15 1848  -0.116   3.581   1.586
   59X2IT   H16 1849  -0.107   3.483   1.731
   59X2IT    N2 1850   0.146   3.935   2.020
   59X2IT    C3 1851   0.246   4.041   2.000
   59X2IT    C2 1852   0.360   3.994   2.090
   59X2IT    H2 1853   0.435   4.066   2.124
   59X2IT    N1 1854   0.399   3.854   2.063
   59X2IT   H14 1855   0.494   3.839   2.098
   59X2IT    C1 1856   0.312   3.885   2.178
   59X2IT    H1 1857   0.347   3.871   2.280
   59X2IT   C11 1858   0.164   3.863   2.149
   59X2IT    O3 1859   0.098   3.928   2.256
   59X2IT   C15 1860  -0.041   3.959   2.238
   60X2IT   H18 1861   0.319   0.259   5.103
   60X2IT    N4 1862   0.407   0.302   5.125
   60X2IT   H17 1863   0.413   0.353   5.212
   60X2IT   C14 1864   0.519   0.242   5.074
   60X2IT    O5 1865   0.520   0.159   4.985
   60X2IT    O4 1866   0.630   0.292   5.136
   60X2IT   C13 1867   0.757   0.242   5.088
   60X2IT   C10 1868   0.803   0.318   4.962
   60X2IT    C9 1869   0.939   0.274   4.913
   60X2IT    C4 1870   1.026   0.381   4.910
   60X2IT    C5 1871   1.169   0.371   4.866
   60X2IT    O1 1872   1.239   0.473   4.863
   60X2IT    C6 1873   1.217   0.240   4.829
   60X2IT   C12 1874   1.360   0.223   4.785
   60X2IT    C7 1875   1.129   0.133   4.832
   60X2IT    C8 1876   0.983   0.144   4.875
   60X2IT    O2 1877   0.915   0.041   4.878
   60X2IT    N3 1878   1.163   0.008   4.797
   60X2IT   H15 1879   1.256  -0.018   4.768
   60X2IT   H16 1880   1.091  -0.064   4.805
   60X2IT    N2 1881   0.965   0.497   4.943
   60X2IT    C3 1882   1.022   0.613   5.013
   60X2IT    C2 1883   0.934   0.623   5.136
   60X2IT    H2 1884   0.929   0.717   5.192
   60X2IT    N1 1885   0.924   0.494   5.209
   60X2IT   H14 1886   0.895   0.512   5.305
   60X2IT    C1 1887   0.815   0.536   5.119
   60X2IT    H1 1888   0.717   0.562   5.158
   60X2IT   C11 1889   0.823   0.473   4.981
   60X2IT    O3 1890   0.733   0.550   4.902
   60X2IT   C15 1891   0.746   0.541   4.760
   61X2IT   H18 1892   4.017   0.878   0.857
   61X2IT    N4 1893   4.024   0.790   0.809
   61X2IT   H17 1894   4.111   0.739   0.818
   61X2IT   C14 1895   3.907   0.720   0.794
   61X2IT    O5 1896   3.795   0.766   0.808
   61X2IT    O4 1897   3.935   0.591   0.756
   61X2IT   C13 1898   3.820   0.507   0.730
   61X2IT   C10 1899   3.767   0.528   0.587
   61X2IT    C9 1900   3.652   0.436   0.553
   61X2IT    C4 1901   3.683   0.359   0.443
   61X2IT    C5 1902   3.590   0.257   0.383
   61X2IT    O1 1903   3.625   0.196   0.281
   61X2IT    C6 1904   3.463   0.238   0.449
   61X2IT   C12 1905   3.365   0.137   0.394
   61X2IT    C7 1906   3.432   0.316   0.559
   61X2IT    C8 1907   3.527   0.420   0.619
   61X2IT    O2 1908   3.490   0.481   0.721
   61X2IT    N3 1909   3.316   0.307   0.627
   61X2IT   H15 1910   3.243   0.242   0.602
   61X2IT   H16 1911   3.304   0.368   0.708
   61X2IT    N2 1912   3.803   0.393   0.389
   61X2IT    C3 1913   3.900   0.304   0.322
   61X2IT    C2 1914   4.023   0.319   0.410
   61X2IT    H2 1915   4.121   0.293   0.371
   61X2IT    N1 1916   3.993   0.295   0.553
   61X2IT   H14 1917   4.080   0.271   0.603
   61X2IT    C1 1918   4.004   0.433   0.503
   61X2IT    H1 1919   4.086   0.497   0.535
   61X2IT   C11 1920   3.870   0.497   0.472
   61X2IT    O3 1921   3.903   0.612   0.396
   61X2IT   C15 1922   3.798   0.672   0.319
   62X2IT   H18 1923   1.988   3.022   2.878
   62X2IT    N4 1924   1.996   2.953   2.950
   62X2IT   H17 1925   1.945   2.866   2.936
   62X2IT   C14 1926   2.112   2.950   3.021
   62X2IT    O5 1927   2.195   3.040   3.024
   62X2IT    O4 1928   2.121   2.834   3.093
   62X2IT   C13 1929   2.237   2.821   3.178
   62X2IT   C10 1930   2.216   2.892   3.313
   62X2IT    C9 1931   2.332   2.874   3.408
   62X2IT    C4 1932   2.289   2.815   3.525
   62X2IT    C5 1933   2.380   2.782   3.641
   62X2IT    O1 1934   2.332   2.733   3.744
   62X2IT    C6 1935   2.520   2.813   3.623
   62X2IT   C12 1936   2.617   2.782   3.736
   62X2IT    C7 1937   2.562   2.873   3.506
   62X2IT    C8 1938   2.469   2.906   3.390
   62X2IT    O2 1939   2.519   2.956   3.287
   62X2IT    N3 1940   2.690   2.906   3.482
   62X2IT   H15 1941   2.765   2.890   3.547
   62X2IT   H16 1942   2.710   2.949   3.391
   62X2IT    N2 1943   2.155   2.797   3.527
   62X2IT    C3 1944   2.079   2.689   3.592
   62X2IT    C2 1945   2.006   2.626   3.474
   62X2IT    H2 1946   1.917   2.565   3.491
   62X2IT    N1 1947   2.098   2.591   3.363
   62X2IT   H14 1948   2.054   2.520   3.303
   62X2IT    C1 1949   2.018   2.715   3.355
   62X2IT    H1 1950   1.939   2.726   3.282
   62X2IT   C11 1951   2.094   2.839   3.398
   62X2IT    O3 1952   1.993   2.937   3.416
   62X2IT   C15 1953   2.028   3.053   3.493
   63X2IT   H18 1954   3.823   3.286   1.163
   63X2IT    N4 1955   3.843   3.259   1.257
   63X2IT   H17 1956   3.780   3.292   1.329
   63X2IT   C14 1957   3.907   3.140   1.275
   63X2IT    O5 1958   3.965   3.078   1.187
   63X2IT    O4 1959   3.901   3.102   1.406
   63X2IT   C13 1960   3.970   2.980   1.441
   63X2IT   C10 1961   4.120   3.006   1.465
   63X2IT    C9 1962   4.195   2.882   1.508
   63X2IT    C4 1963   4.256   2.903   1.630
   63X2IT    C5 1964   4.337   2.800   1.702
   63X2IT    O1 1965   4.391   2.829   1.810
   63X2IT    C6 1966   4.349   2.671   1.639
   63X2IT   C12 1967   4.430   2.562   1.706
   63X2IT    C7 1968   4.289   2.650   1.516
   63X2IT    C8 1969   4.206   2.756   1.443
   63X2IT    O2 1970   4.153   2.725   1.336
   63X2IT    N3 1971   4.295   2.534   1.449
   63X2IT   H15 1972   4.344   2.453   1.483
   63X2IT   H16 1973   4.246   2.529   1.359
   63X2IT    N2 1974   4.239   3.031   1.674
   63X2IT    C3 1975   4.226   3.078   1.813
   63X2IT    C2 1976   4.089   3.144   1.812
   63X2IT    H2 1977   4.064   3.217   1.889
   63X2IT    N1 1978   3.984   3.055   1.757
   63X2IT   H14 1979   3.893   3.088   1.789
   63X2IT    C1 1980   4.043   3.160   1.671
   63X2IT    H1 1981   3.984   3.244   1.638
   63X2IT   C11 1982   4.153   3.108   1.580
   63X2IT    O3 1983   4.218   3.225   1.533
   63X2IT   C15 1984   4.348   3.210   1.476
   64X2IT   H18 1985   2.219   1.505   1.801
   64X2IT    N4 1986   2.161   1.423   1.811
   64X2IT   H17 1987   2.182   1.361   1.887
   64X2IT   C14 1988   2.032   1.433   1.767
   64X2IT    O5 1989   1.990   1.521   1.694
   64X2IT    O4 1990   1.959   1.328   1.813
   64X2IT   C13 1991   1.821   1.323   1.770
   64X2IT   C10 1992   1.809   1.258   1.631
   64X2IT    C9 1993   1.666   1.244   1.584
   64X2IT    C4 1994   1.637   1.111   1.558
   64X2IT    C5 1995   1.503   1.062   1.511
   64X2IT    O1 1996   1.487   0.942   1.486
   64X2IT    C6 1997   1.400   1.162   1.496
   64X2IT   C12 1998   1.262   1.119   1.449
   64X2IT    C7 1999   1.429   1.294   1.521
   64X2IT    C8 2000   1.566   1.343   1.569
   64X2IT    O2 2001   1.580   1.464   1.593
   64X2IT    N3 2002   1.340   1.394   1.508
   64X2IT   H15 2003   1.245   1.379   1.480
   64X2IT   H16 2004   1.372   1.488   1.531
   64X2IT    N2 2005   1.746   1.031   1.572
   64X2IT    C3 2006   1.750   0.891   1.618
   64X2IT    C2 2007   1.839   0.901   1.742
   64X2IT    H2 2008   1.889   0.812   1.780
   64X2IT    N1 2009   1.793   1.005   1.837
   64X2IT   H14 2010   1.831   0.986   1.930
   64X2IT    C1 2011   1.905   1.034   1.745
   64X2IT    H1 2012   2.005   1.050   1.784
   64X2IT   C11 2013   1.863   1.110   1.620
   64X2IT    O3 2014   1.974   1.098   1.534
   64X2IT   C15 2015   1.952   1.125   1.395
   65X2IT   H18 2016  -0.044   3.751   3.619
   65X2IT    N4 2017   0.005   3.797   3.694
   65X2IT   H17 2018   0.007   3.898   3.692
   65X2IT   C14 2019   0.007   3.731   3.814
   65X2IT    O5 2020  -0.020   3.614   3.830
   65X2IT    O4 2021   0.049   3.817   3.912
   65X2IT   C13 2022   0.062   3.759   4.044
   65X2IT   C10 2023   0.197   3.688   4.061
   65X2IT    C9 2024   0.218   3.633   4.200
   65X2IT    C4 2025   0.333   3.687   4.256
   65X2IT    C5 2026   0.382   3.654   4.394
   65X2IT    O1 2027   0.487   3.704   4.435
   65X2IT    C6 2028   0.301   3.562   4.471
   65X2IT   C12 2029   0.345   3.525   4.612
   65X2IT    C7 2030   0.187   3.508   4.415
   65X2IT    C8 2031   0.139   3.542   4.274
   65X2IT    O2 2032   0.033   3.490   4.235
   65X2IT    N3 2033   0.107   3.421   4.478
   65X2IT   H15 2034   0.123   3.389   4.572
   65X2IT   H16 2035   0.024   3.388   4.427
   65X2IT    N2 2036   0.399   3.767   4.170
   65X2IT    C3 2037   0.478   3.888   4.200
   65X2IT    C2 2038   0.405   3.995   4.120
   65X2IT    H2 2039   0.456   4.087   4.094
   65X2IT    N1 2040   0.260   3.997   4.148
   65X2IT   H14 2041   0.221   4.088   4.122
   65X2IT    C1 2042   0.310   3.930   4.026
   65X2IT    H1 2043   0.287   3.970   3.928
   65X2IT   C11 2044   0.324   3.779   4.041
   65X2IT    O3 2045   0.403   3.741   3.930
   65X2IT   C15 2046   0.467   3.613   3.936
   66X2IT   H18 2047   4.916   1.331   2.994
   66X2IT    N4 2048   4.858   1.275   2.935
   66X2IT   H17 2049   4.769   1.245   2.973
   66X2IT   C14 2050   4.870   1.296   2.800
   66X2IT    O5 2051   4.961   1.355   2.746
   66X2IT    O4 2052   4.765   1.237   2.735
   66X2IT   C13 2053   4.767   1.245   2.591
   66X2IT   C10 2054   4.856   1.135   2.529
   66X2IT    C9 2055   4.856   1.137   2.378
   66X2IT    C4 2056   4.813   1.014   2.330
   66X2IT    C5 2057   4.800   0.982   2.184
   66X2IT    O1 2058   4.764   0.869   2.149
   66X2IT    C6 2059   4.832   1.088   2.091
   66X2IT   C12 2060   4.820   1.063   1.942
   66X2IT    C7 2061   4.875   1.210   2.140
   66X2IT    C8 2062   4.889   1.241   2.289
   66X2IT    O2 2063   4.925   1.356   2.321
   66X2IT    N3 2064   4.909   1.314   2.061
   66X2IT   H15 2065   4.904   1.311   1.961
   66X2IT   H16 2066   4.939   1.400   2.108
   66X2IT    N2 2067   4.792   0.924   2.429
   66X2IT    C3 2068   4.691   0.817   2.434
   66X2IT    C2 2069   4.610   0.854   2.557
   66X2IT    H2 2070   4.550   0.778   2.607
   66X2IT    N1 2071   4.563   0.994   2.553
   66X2IT   H14 2072   4.483   1.005   2.616
   66X2IT    C1 2073   4.682   0.959   2.634
   66X2IT    H1 2074   4.679   0.966   2.742
   66X2IT   C11 2075   4.813   0.988   2.562
   66X2IT    O3 2076   4.909   0.918   2.639
   66X2IT   C15 2077   5.036   0.892   2.577
   67X2IT   H18 2078   1.946   4.571   2.178
   67X2IT    N4 2079   1.940   4.635   2.101
   67X2IT   H17 2080   1.859   4.696   2.098
   67X2IT   C14 2081   2.057   4.679   2.047
   67X2IT    O5 2082   2.166   4.627   2.065
   67X2IT    O4 2083   2.035   4.786   1.966
   67X2IT   C13 2084   2.150   4.839   1.896
   67X2IT   C10 2085   2.179   4.759   1.768
   67X2IT    C9 2086   2.295   4.815   1.689
   67X2IT    C4 2087   2.254   4.849   1.561
   67X2IT    C5 2088   2.344   4.908   1.456
   67X2IT    O1 2089   2.299   4.931   1.343
   67X2IT    C6 2090   2.480   4.934   1.496
   67X2IT   C12 2091   2.577   4.994   1.396
   67X2IT    C7 2092   2.522   4.900   1.623
   67X2IT    C8 2093   2.429   4.838   1.729
   67X2IT    O2 2094   2.476   4.816   1.841
   67X2IT    N3 2095   2.647   4.918   1.669
   67X2IT   H15 2096   2.720   4.959   1.613
   67X2IT   H16 2097   2.666   4.891   1.766
   67X2IT    N2 2098   2.125   4.814   1.538
   67X2IT    C3 2099   2.026   4.882   1.453
   67X2IT    C2 2100   1.917   4.918   1.553
   67X2IT    H2 2101   1.816   4.940   1.517
   67X2IT    N1 2102   1.969   4.990   1.671
   67X2IT   H14 2103   1.894   5.041   1.716
   67X2IT    C1 2104   1.940   4.845   1.680
   67X2IT    H1 2105   1.860   4.809   1.743
   67X2IT   C11 2106   2.063   4.757   1.662
   67X2IT    O3 2107   2.010   4.628   1.640
   67X2IT   C15 2108   2.097   4.531   1.581
   68X2IT   H18 2109   0.011   0.635   1.574
   68X2IT    N4 2110   0.031   0.731   1.597
   68X2IT   H17 2111  -0.007   0.801   1.535
   68X2IT   C14 2112   0.047   0.759   1.729
   68X2IT    O5 2113   0.067   0.677   1.817
   68X2IT    O4 2114   0.042   0.894   1.749
   68X2IT   C13 2115   0.064   0.940   1.884
   68X2IT   C10 2116   0.214   0.951   1.915
   68X2IT    C9 2117   0.242   1.005   2.054
   68X2IT    C4 2118   0.320   1.119   2.045
   68X2IT    C5 2119   0.365   1.198   2.165
   68X2IT    O1 2120   0.438   1.297   2.148
   68X2IT    C6 2121   0.320   1.152   2.294
   68X2IT   C12 2122   0.361   1.228   2.418
   68X2IT    C7 2123   0.243   1.037   2.302
   68X2IT    C8 2124   0.198   0.957   2.180
   68X2IT    O2 2125   0.126   0.858   2.198
   68X2IT    N3 2126   0.198   0.986   2.417
   68X2IT   H15 2127   0.216   1.027   2.507
   68X2IT   H16 2128   0.140   0.901   2.411
   68X2IT    N2 2129   0.357   1.146   1.918
   68X2IT    C3 2130   0.379   1.278   1.856
   68X2IT    C2 2131   0.277   1.277   1.742
   68X2IT    H2 2132   0.290   1.345   1.658
   68X2IT    N1 2133   0.141   1.242   1.789
   68X2IT   H14 2134   0.072   1.276   1.721
   68X2IT    C1 2135   0.225   1.139   1.724
   68X2IT    H1 2136   0.198   1.099   1.628
   68X2IT   C11 2137   0.296   1.049   1.823
   68X2IT    O3 2138   0.394   0.982   1.745
   68X2IT   C15 2139   0.502   0.919   1.815
   69X2IT   H18 2140   0.573   3.074   4.618
   69X2IT    N4 2141   0.635   3.002   4.649
   69X2IT   H17 2142   0.682   2.948   4.578
   69X2IT   C14 2143   0.697   3.022   4.769
   69X2IT    O5 2144   0.663   3.104   4.853
   69X2IT    O4 2145   0.799   2.933   4.784
   69X2IT   C13 2146   0.870   2.937   4.910
   69X2IT   C10 2147   0.797   2.857   5.018
   69X2IT    C9 2148   0.871   2.854   5.150
   69X2IT    C4 2149   0.898   2.723   5.187
   69X2IT    C5 2150   0.971   2.684   5.312
   69X2IT    O1 2151   0.987   2.564   5.339
   69X2IT    C6 2152   1.018   2.792   5.395
   69X2IT   C12 2153   1.093   2.760   5.523
   69X2IT    C7 2154   0.991   2.923   5.359
   69X2IT    C8 2155   0.915   2.961   5.231
   69X2IT    O2 2156   0.900   3.082   5.207
   69X2IT    N3 2157   1.028   3.030   5.431
   69X2IT   H15 2158   1.081   3.023   5.516
   69X2IT   H16 2159   1.004   3.122   5.394
   69X2IT    N2 2160   0.843   2.633   5.100
   69X2IT    C3 2161   0.895   2.501   5.062
   69X2IT    C2 2162   0.912   2.517   4.911
   69X2IT    H2 2163   0.918   2.428   4.848
   69X2IT    N1 2164   0.991   2.637   4.876
   69X2IT   H14 2165   1.030   2.626   4.781
   69X2IT    C1 2166   0.844   2.640   4.866
   69X2IT    H1 2167   0.795   2.649   4.770
   69X2IT   C11 2168   0.777   2.704   4.987
   69X2IT    O3 2169   0.641   2.667   4.974
   69X2IT   C15 2170   0.559   2.678   5.091
   70X2IT   H18 2171   3.911   3.482   1.673
   70X2IT    N4 2172   3.953   3.514   1.759
   70X2IT   H17 2173   4.000   3.603   1.756
   70X2IT   C14 2174   3.892   3.474   1.874
   70X2IT    O5 2175   3.812   3.383   1.884
   70X2IT    O4 2176   3.939   3.548   1.979
   70X2IT   C13 2177   3.888   3.513   2.110
   70X2IT   C10 2178   3.967   3.395   2.170
   70X2IT    C9 2179   3.922   3.359   2.310
   70X2IT    C4 2180   4.028   3.369   2.398
   70X2IT    C5 2181   4.017   3.340   2.545
   70X2IT    O1 2182   4.118   3.348   2.617
   70X2IT    C6 2183   3.886   3.304   2.595
   70X2IT   C12 2184   3.868   3.275   2.742
   70X2IT    C7 2185   3.781   3.294   2.506
   70X2IT    C8 2186   3.793   3.322   2.356
   70X2IT    O2 2187   3.691   3.314   2.287
   70X2IT    N3 2188   3.656   3.259   2.542
   70X2IT   H15 2189   3.630   3.239   2.637
   70X2IT   H16 2190   3.585   3.256   2.468
   70X2IT    N2 2191   4.144   3.399   2.335
   70X2IT    C3 2192   4.257   3.479   2.387
   70X2IT    C2 2193   4.264   3.593   2.286
   70X2IT    H2 2194   4.356   3.650   2.276
   70X2IT    N1 2195   4.133   3.659   2.266
   70X2IT   H14 2196   4.148   3.753   2.227
   70X2IT    C1 2197   4.180   3.559   2.168
   70X2IT    H1 2198   4.206   3.589   2.067
   70X2IT   C11 2199   4.121   3.421   2.190
   70X2IT    O3 2200   4.202   3.336   2.110
   70X2IT   C15 2201   4.197   3.196   2.139
   71X2IT   H18 2202   5.028   0.378   2.178
   71X2IT    N4 2203   5.007   0.301   2.118
   71X2IT   H17 2204   4.947   0.228   2.156
   71X2IT   C14 2205   5.002   0.327   1.984
   71X2IT    O5 2206   5.048   0.426   1.930
   71X2IT    O4 2207   4.942   0.223   1.919
   71X2IT   C13 2208   4.936   0.234   1.775
   71X2IT   C10 2209   5.067   0.187   1.709
   71X2IT    C9 2210   5.062   0.191   1.558
   71X2IT    C4 2211   5.088   0.065   1.507
   71X2IT    C5 2212   5.090   0.033   1.360
   71X2IT    O1 2213   5.118  -0.082   1.323
   71X2IT    C6 2214   5.060   0.141   1.270
   71X2IT   C12 2215   5.059   0.116   1.121
   71X2IT    C7 2216   5.035   0.267   1.321
   71X2IT    C8 2217   5.034   0.299   1.471
   71X2IT    O2 2218   5.006   0.414   1.506
   71X2IT    N3 2219   5.007   0.375   1.246
   71X2IT   H15 2220   5.002   0.371   1.145
   71X2IT   H16 2221   4.989   0.463   1.294
   71X2IT    N2 2222   5.119  -0.025   1.604
   71X2IT    C3 2223   5.089  -0.169   1.607
   71X2IT    C2 2224   5.004  -0.181   1.733
   71X2IT    H2 2225   4.993  -0.278   1.781
   71X2IT    N1 2226   4.891  -0.086   1.733
   71X2IT   H14 2227   4.818  -0.120   1.798
   71X2IT    C1 2228   5.012  -0.055   1.811
   71X2IT    H1 2229   5.010  -0.053   1.919
   71X2IT   C11 2230   5.108   0.038   1.739
   71X2IT    O3 2231   5.228   0.028   1.812
   71X2IT   C15 2232   5.348   0.073   1.748
   72X2IT   H18 2233   0.798   4.373   4.273
   72X2IT    N4 2234   0.833   4.296   4.326
   72X2IT   H17 2235   0.890   4.228   4.277
   72X2IT   C14 2236   0.855   4.319   4.459
   72X2IT    O5 2237   0.812   4.414   4.522
   72X2IT    O4 2238   0.930   4.217   4.512
   72X2IT   C13 2239   0.957   4.225   4.653
   72X2IT   C10 2240   0.839   4.169   4.735
   72X2IT    C9 2241   0.866   4.168   4.884
   72X2IT    C4 2242   0.856   4.040   4.934
   72X2IT    C5 2243   0.877   4.004   5.079
   72X2IT    O1 2244   0.862   3.887   5.115
   72X2IT    C6 2245   0.914   4.112   5.167
   72X2IT   C12 2246   0.937   4.083   5.314
   72X2IT    C7 2247   0.923   4.241   5.117
   72X2IT    C8 2248   0.900   4.276   4.970
   72X2IT    O2 2249   0.916   4.394   4.935
   72X2IT    N3 2250   0.955   4.348   5.192
   72X2IT   H15 2251   0.975   4.342   5.290
   72X2IT   H16 2252   0.961   4.438   5.144
   72X2IT    N2 2253   0.816   3.951   4.840
   72X2IT    C3 2254   0.853   3.809   4.827
   72X2IT    C2 2255   0.920   3.805   4.691
   72X2IT    H2 2256   0.929   3.711   4.638
   72X2IT    N1 2257   1.026   3.908   4.677
   72X2IT   H14 2258   1.090   3.880   4.602
   72X2IT    C1 2259   0.893   3.932   4.619
   72X2IT    H1 2260   0.880   3.938   4.511
   72X2IT   C11 2261   0.804   4.018   4.707
   72X2IT    O3 2262   0.674   4.002   4.651
   72X2IT   C15 2263   0.563   4.038   4.734
   73X2IT   H18 2264   3.781   5.131   3.653
   73X2IT    N4 2265   3.860   5.106   3.598
   73X2IT   H17 2266   3.946   5.086   3.647
   73X2IT   C14 2267   3.834   5.040   3.481
   73X2IT    O5 2268   3.725   5.035   3.426
   73X2IT    O4 2269   3.948   4.984   3.431
   73X2IT   C13 2270   3.937   4.917   3.304
   73X2IT   C10 2271   3.946   5.017   3.187
   73X2IT    C9 2272   3.942   4.950   3.052
   73X2IT    C4 2273   4.055   4.981   2.979
   73X2IT    C5 2274   4.083   4.930   2.841
   73X2IT    O1 2275   4.186   4.965   2.782
   73X2IT    C6 2276   3.985   4.841   2.784
   73X2IT   C12 2277   4.006   4.785   2.645
   73X2IT    C7 2278   3.870   4.811   2.856
   73X2IT    C8 2279   3.843   4.864   2.997
   73X2IT    O2 2280   3.739   4.827   3.054
   73X2IT    N3 2281   3.773   4.731   2.811
   73X2IT   H15 2282   3.775   4.686   2.721
   73X2IT   H16 2283   3.693   4.714   2.874
   73X2IT    N2 2284   4.135   5.069   3.045
   73X2IT    C3 2285   4.282   5.077   3.042
   73X2IT    C2 2286   4.319   5.056   3.188
   73X2IT    H2 2287   4.416   5.089   3.225
   73X2IT    N1 2288   4.257   4.934   3.245
   73X2IT   H14 2289   4.309   4.905   3.327
   73X2IT    C1 2290   4.197   5.067   3.272
   73X2IT    H1 2291   4.197   5.108   3.372
   73X2IT   C11 2292   4.080   5.100   3.180
   73X2IT    O3 2293   4.060   5.239   3.198
   73X2IT   C15 2294   3.984   5.308   3.098
   74X2IT   H18 2295   1.901   4.095   4.204
   74X2IT    N4 2296   1.807   4.100   4.169
   74X2IT   H17 2297   1.748   4.173   4.205
   74X2IT   C14 2298   1.788   4.055   4.041
   74X2IT    O5 2299   1.866   3.987   3.978
   74X2IT    O4 2300   1.665   4.095   3.996
   74X2IT   C13 2301   1.628   4.050   3.864
   74X2IT   C10 2302   1.569   3.907   3.869
   74X2IT    C9 2303   1.522   3.858   3.733
   74X2IT    C4 2304   1.388   3.825   3.739
   74X2IT    C5 2305   1.310   3.774   3.621
   74X2IT    O1 2306   1.191   3.742   3.636
   74X2IT    C6 2307   1.381   3.763   3.496
   74X2IT   C12 2308   1.308   3.712   3.374
   74X2IT    C7 2309   1.516   3.795   3.491
   74X2IT    C8 2310   1.594   3.847   3.612
   74X2IT    O2 2311   1.713   3.877   3.595
   74X2IT    N3 2312   1.590   3.787   3.380
   74X2IT   H15 2313   1.554   3.757   3.291
   74X2IT   H16 2314   1.689   3.815   3.388
   74X2IT    N2 2315   1.338   3.836   3.864
   74X2IT    C3 2316   1.201   3.875   3.904
   74X2IT    C2 2317   1.226   4.000   3.987
   74X2IT    H2 2318   1.150   4.033   4.058
   74X2IT    N1 2319   1.310   4.099   3.916
   74X2IT   H14 2320   1.295   4.191   3.958
   74X2IT    C1 2321   1.371   4.011   4.018
   74X2IT    H1 2322   1.409   4.051   4.111
   74X2IT   C11 2323   1.441   3.890   3.958
   74X2IT    O3 2324   1.461   3.804   4.068
   74X2IT   C15 2325   1.490   3.666   4.040
   75X2IT   H18 2326   3.925   0.900   1.540
   75X2IT    N4 2327   3.868   0.848   1.605
   75X2IT   H17 2328   3.873   0.747   1.600
   75X2IT   C14 2329   3.843   0.908   1.725
   75X2IT    O5 2330   3.859   1.026   1.750
   75X2IT    O4 2331   3.792   0.816   1.813
   75X2IT   C13 2332   3.754   0.866   1.942
   75X2IT   C10 2333   3.613   0.927   1.940
   75X2IT    C9 2334   3.567   0.975   2.076
   75X2IT    C4 2335   3.449   0.911   2.111
   75X2IT    C5 2336   3.376   0.935   2.240
   75X2IT    O1 2337   3.269   0.876   2.262
   75X2IT    C6 2338   3.437   1.028   2.332
   75X2IT   C12 2339   3.370   1.056   2.465
   75X2IT    C7 2340   3.554   1.092   2.297
   75X2IT    C8 2341   3.627   1.068   2.164
   75X2IT    O2 2342   3.734   1.128   2.144
   75X2IT    N3 2343   3.617   1.181   2.375
   75X2IT   H15 2344   3.585   1.208   2.466
   75X2IT   H16 2345   3.704   1.222   2.339
   75X2IT    N2 2346   3.403   0.831   2.012
   75X2IT    C3 2347   3.329   0.704   2.025
   75X2IT    C2 2348   3.421   0.606   1.954
   75X2IT    H2 2349   3.381   0.511   1.918
   75X2IT    N1 2350   3.560   0.612   2.005
   75X2IT   H14 2351   3.608   0.525   1.983
   75X2IT    C1 2352   3.525   0.681   1.879
   75X2IT    H1 2353   3.565   0.647   1.785
   75X2IT   C11 2354   3.498   0.829   1.897
   75X2IT    O3 2355   3.435   0.867   1.776
   75X2IT   C15 2356   3.362   0.991   1.776
   76X2IT   H18 2357   2.749   3.395   4.669
   76X2IT    N4 2358   2.711   3.474   4.620
   76X2IT   H17 2359   2.631   3.458   4.561
   76X2IT   C14 2360   2.726   3.596   4.680
   76X2IT    O5 2361   2.803   3.620   4.772
   76X2IT    O4 2362   2.645   3.688   4.620
   76X2IT   C13 2363   2.654   3.823   4.669
   76X2IT   C10 2364   2.772   3.898   4.604
   76X2IT    C9 2365   2.781   4.043   4.648
   76X2IT    C4 2366   2.774   4.126   4.538
   76X2IT    C5 2367   2.780   4.276   4.547
   76X2IT    O1 2368   2.776   4.343   4.443
   76X2IT    C6 2369   2.790   4.333   4.679
   76X2IT   C12 2370   2.795   4.484   4.695
   76X2IT    C7 2371   2.798   4.249   4.789
   76X2IT    C8 2372   2.793   4.097   4.779
   76X2IT    O2 2373   2.797   4.031   4.884
   76X2IT    N3 2374   2.809   4.293   4.915
   76X2IT   H15 2375   2.812   4.390   4.940
   76X2IT   H16 2376   2.813   4.222   4.989
   76X2IT    N2 2377   2.770   4.057   4.422
   76X2IT    C3 2378   2.700   4.094   4.297
   76X2IT    C2 2379   2.604   3.977   4.279
   76X2IT    H2 2380   2.561   3.957   4.180
   76X2IT    N1 2381   2.523   3.951   4.400
   76X2IT   H14 2382   2.439   3.899   4.374
   76X2IT    C1 2383   2.641   3.867   4.371
   76X2IT    H1 2384   2.630   3.763   4.347
   76X2IT   C11 2385   2.765   3.911   4.447
   76X2IT    O3 2386   2.871   3.842   4.382
   76X2IT   C15 2387   3.004   3.891   4.405
   77X2IT   H18 2388   2.807   0.904   2.876
   77X2IT    N4 2389   2.820   0.807   2.899
   77X2IT   H17 2390   2.911   0.767   2.878
   77X2IT   C14 2391   2.749   0.760   3.005
   77X2IT    O5 2392   2.653   0.815   3.056
   77X2IT    O4 2393   2.799   0.639   3.044
   77X2IT   C13 2394   2.729   0.573   3.152
   77X2IT   C10 2395   2.606   0.496   3.101
   77X2IT    C9 2396   2.534   0.420   3.210
   77X2IT    C4 2397   2.529   0.285   3.179
   77X2IT    C5 2398   2.465   0.181   3.266
   77X2IT    O1 2399   2.462   0.063   3.229
   77X2IT    C6 2400   2.409   0.228   3.391
   77X2IT   C12 2401   2.344   0.128   3.484
   77X2IT    C7 2402   2.413   0.362   3.421
   77X2IT    C8 2403   2.478   0.467   3.331
   77X2IT    O2 2404   2.480   0.585   3.370
   77X2IT    N3 2405   2.362   0.415   3.534
   77X2IT   H15 2406   2.318   0.360   3.605
   77X2IT   H16 2407   2.372   0.516   3.546
   77X2IT    N2 2408   2.582   0.259   3.056
   77X2IT    C3 2409   2.655   0.138   3.013
   77X2IT    C2 2410   2.790   0.195   2.972
   77X2IT    H2 2411   2.855   0.138   2.905
   77X2IT    N1 2412   2.850   0.280   3.078
   77X2IT   H14 2413   2.951   0.287   3.063
   77X2IT    C1 2414   2.781   0.343   2.964
   77X2IT    H1 2415   2.836   0.402   2.892
   77X2IT   C11 2416   2.637   0.383   2.995
   77X2IT    O3 2417   2.580   0.409   2.868
   77X2IT   C15 2418   2.437   0.411   2.860
   78X2IT   H18 2419   2.715   0.393   1.190
   78X2IT    N4 2420   2.660   0.345   1.259
   78X2IT   H17 2421   2.620   0.256   1.232
   78X2IT   C14 2422   2.695   0.366   1.389
   78X2IT    O5 2423   2.766   0.456   1.430
   78X2IT    O4 2424   2.635   0.273   1.469
   78X2IT   C13 2425   2.657   0.286   1.611
   78X2IT   C10 2426   2.561   0.389   1.673
   78X2IT    C9 2427   2.576   0.401   1.823
   78X2IT    C4 2428   2.456   0.373   1.886
   78X2IT    C5 2429   2.437   0.375   2.035
   78X2IT    O1 2430   2.325   0.352   2.083
   78X2IT    C6 2431   2.554   0.406   2.114
   78X2IT   C12 2432   2.542   0.409   2.265
   78X2IT    C7 2433   2.673   0.435   2.052
   78X2IT    C8 2434   2.691   0.433   1.900
   78X2IT    O2 2435   2.804   0.456   1.854
   78X2IT    N3 2436   2.786   0.466   2.117
   78X2IT   H15 2437   2.793   0.470   2.217
   78X2IT   H16 2438   2.870   0.484   2.060
   78X2IT    N2 2439   2.356   0.351   1.797
   78X2IT    C3 2440   2.241   0.260   1.811
   78X2IT    C2 2441   2.260   0.166   1.693
   78X2IT    H2 2442   2.176   0.108   1.656
   78X2IT    N1 2443   2.396   0.108   1.689
   78X2IT   H14 2444   2.395   0.022   1.633
   78X2IT    C1 2445   2.363   0.222   1.602
   78X2IT    H1 2446   2.359   0.210   1.494
   78X2IT   C11 2447   2.408   0.356   1.658
   78X2IT    O3 2448   2.338   0.451   1.579
   78X2IT   C15 2449   2.329   0.584   1.631
   79X2IT   H18 2450   5.252   4.513   0.741
   79X2IT    N4 2451   5.212   4.604   0.726
   79X2IT   H17 2452   5.232   4.675   0.796
   79X2IT   C14 2453   5.192   4.642   0.596
   79X2IT    O5 2454   5.193   4.567   0.500
   79X2IT    O4 2455   5.168   4.776   0.590
   79X2IT   C13 2456   5.138   4.829   0.459
   79X2IT   C10 2457   4.990   4.810   0.422
   79X2IT    C9 2458   4.954   4.870   0.289
   79X2IT    C4 2459   4.853   4.963   0.304
   79X2IT    C5 2460   4.794   5.043   0.192
   79X2IT    O1 2461   4.700   5.121   0.214
   79X2IT    C6 2462   4.851   5.021   0.061
   79X2IT   C12 2463   4.796   5.098  -0.058
   79X2IT    C7 2464   4.951   4.927   0.045
   79X2IT    C8 2465   5.010   4.846   0.161
   79X2IT    O2 2466   5.103   4.768   0.136
   79X2IT    N3 2467   5.009   4.899  -0.073
   79X2IT   H15 2468   4.984   4.944  -0.159
   79X2IT   H16 2469   5.084   4.829  -0.073
   79X2IT    N2 2470   4.808   4.968   0.432
   79X2IT    C3 2471   4.756   5.085   0.505
   79X2IT    C2 2472   4.853   5.095   0.623
   79X2IT    H2 2473   4.824   5.150   0.712
   79X2IT    N1 2474   4.994   5.096   0.579
   79X2IT   H14 2475   5.052   5.137   0.653
   79X2IT    C1 2476   4.934   4.971   0.630
   79X2IT    H1 2477   4.968   4.928   0.723
   79X2IT   C11 2478   4.887   4.878   0.520
   79X2IT    O3 2479   4.805   4.784   0.587
   79X2IT   C15 2480   4.715   4.706   0.507
   80SOL     OW 2481   0.230   0.628   0.113
   80SOL    HW1 2482   0.137   0.626   0.150
   80SOL    HW2 2483   0.231   0.589   0.021
   81SOL     OW 2484   0.225   0.275   0.996
   81SOL    HW1 2485   0.260   0.258   1.088
   81SOL    HW2 2486   0.137   0.230   0.984
   82SOL     OW 2487   0.019   0.368   0.647
   82SOL    HW1 2488  -0.063   0.411   0.686
   82SOL    HW2 2489  -0.009   0.295   0.584
   83SOL     OW 2490   0.569   1.275   1.165
   83SOL    HW1 2491   0.476   1.268   1.128
   83SOL    HW2 2492   0.580   1.364   1.209
   84SOL     OW 2493   1.555   1.511   0.703
   84SOL    HW1 2494   1.498   1.495   0.784
   84SOL    HW2 2495   1.496   1.521   0.623
   85SOL     OW 2496   1.135   0.703   0.717
   85SOL    HW1 2497   1.192   0.781   0.692
   85SOL    HW2 2498   1.075   0.729   0.793
   86SOL     OW 2499   1.755   0.607   0.231
   86SOL    HW1 2500   1.743   0.594   0.132
   86SOL    HW2 2501   1.725   0.526   0.280
   87SOL     OW 2502   0.768   1.144   1.023
   87SOL    HW1 2503   0.690   1.161   1.083
   87SOL    HW2 2504   0.802   1.231   0.987
   88SOL     OW 2505   0.850   0.798   1.823
   88SOL    HW1 2506   0.846   0.874   1.888
   88SOL    HW2 2507   0.872   0.834   1.732
   89SOL     OW 2508   0.685   1.012   0.665
   89SOL    HW1 2509   0.754   0.996   0.735
   89SOL    HW2 2510   0.612   1.069   0.703
   90SOL     OW 2511   0.686   1.161   1.803
   90SOL    HW1 2512   0.746   1.240   1.817
   90SOL    HW2 2513   0.600   1.192   1.762
   91SOL     OW 2514   0.335   1.435   1.061
   91SOL    HW1 2515   0.257   1.404   1.008
   91SOL    HW2 2516   0.393   1.493   1.004
   92SOL     OW 2517   0.438   0.392   1.499
   92SOL    HW1 2518   0.520   0.336   1.508
   92SOL    HW2 2519   0.357   0.334   1.503
   93SOL     OW 2520   1.603   0.447   0.737
   93SOL    HW1 2521   1.529   0.493   0.687
   93SOL    HW2 2522   1.654   0.515   0.790
   94SOL     OW 2523   0.231   1.713   0.483
   94SOL    HW1 2524   0.265   1.790   0.537
   94SOL    HW2 2525   0.275   1.713   0.393
   95SOL     OW 2526   1.127   1.341   1.690
   95SOL    HW1 2527   1.174   1.341   1.778
   95SOL    HW2 2528   1.079   1.254   1.679
   96SOL     OW 2529   0.230   1.434   0.538
   96SOL    HW1 2530   0.204   1.530   0.538
   96SOL    HW2 2531   0.159   1.380   0.583
   97SOL     OW 2532   0.240   1.091   0.886
   97SOL    HW1 2533   0.254   1.007   0.938
   97SOL    HW2 2534   0.185   1.155   0.941
   98SOL     OW 2535   0.620   1.786   1.439
   98SOL    HW1 2536   0.528   1.769   1.474
   98SOL    HW2 2537   0.648   1.878   1.465
   99SOL     OW 2538   0.606   0.964   0.123
   99SOL    HW1 2539   0.613   1.048   0.069
   99SOL    HW2 2540   0.652   0.977   0.211
  100SOL     OW 2541   1.594   0.114   1.480
  100SOL    HW1 2542   1.576   0.181   1.408
  100SOL    HW2 2543   1.591   0.160   1.569
  101SOL     OW 2544   0.122   0.643   0.563
  101SOL    HW1 2545   0.077   0.555   0.580
  101SOL    HW2 2546   0.121   0.697   0.647
  102SOL     OW 2547   1.689   0.922   0.612
  102SOL    HW1 2548   1.784   0.893   0.620
  102SOL    HW2 2549   1.681   0.987   0.537
  103SOL     OW 2550   0.613   1.365   0.726
  103SOL    HW1 2551   0.564   1.278   0.735
  103SOL    HW2 2552   0.590   1.408   0.639
  104SOL     OW 2553   0.809   0.004   0.502
  104SOL    HW1 2554   0.849   0.095   0.493
  104SOL    HW2 2555   0.709   0.012   0.508
  105SOL     OW 2556   0.197   0.976   1.264
  105SOL    HW1 2557   0.286   0.931   1.250
  105SOL    HW2 2558   0.124   0.911   1.245
  106SOL     OW 2559   1.187   1.792   1.616
  106SOL    HW1 2560   1.211   1.852   1.540
  106SOL    HW2 2561   1.194   1.697   1.586
  107SOL     OW 2562   0.317   0.251   1.801
  107SOL    HW1 2563   0.388   0.322   1.807
  107SOL    HW2 2564   0.229   0.290   1.829
  108SOL     OW 2565   1.466   1.417   0.953
  108SOL    HW1 2566   1.407   1.423   1.033
  108SOL    HW2 2567   1.451   1.329   0.907
  109SOL     OW 2568   1.667   1.714   0.572
  109SOL    HW1 2569   1.626   1.691   0.484
  109SOL    HW2 2570   1.649   1.640   0.637
  110SOL     OW 2571   0.598   0.729   0.270
  110SOL    HW1 2572   0.622   0.798   0.202
  110SOL    HW2 2573   0.520   0.762   0.324
  111SOL     OW 2574   1.281   0.345   0.944
  111SOL    HW1 2575   1.195   0.295   0.931
  111SOL    HW2 2576   1.343   0.291   1.000
  112SOL     OW 2577   0.807   0.605   1.465
  112SOL    HW1 2578   0.760   0.602   1.554
  112SOL    HW2 2579   0.756   0.550   1.399
  113SOL     OW 2580   1.394   0.469   1.674
  113SOL    HW1 2581   1.374   0.512   1.762
  113SOL    HW2 2582   1.472   0.407   1.683
  114SOL     OW 2583   0.973   0.890   1.572
  114SOL    HW1 2584   1.019   0.806   1.543
  114SOL    HW2 2585   0.917   0.924   1.497
  115SOL     OW 2586   0.991   0.410   1.242
  115SOL    HW1 2587   0.914   0.444   1.296
  115SOL    HW2 2588   0.957   0.359   1.163
  116SOL     OW 2589   1.041   0.701   0.429
  116SOL    HW1 2590   1.067   0.697   0.525
  116SOL    HW2 2591   0.956   0.650   0.415
  117SOL     OW 2592   0.076   0.811   0.789
  117SOL    HW1 2593   0.175   0.799   0.798
  117SOL    HW2 2594   0.052   0.906   0.810
  118SOL     OW 2595   0.130   1.821   1.571
  118SOL    HW1 2596   0.120   1.806   1.670
  118SOL    HW2 2597   0.044   1.857   1.535
  119SOL     OW 2598   1.719   0.585   1.831
  119SOL    HW1 2599   1.693   0.674   1.795
  119SOL    HW2 2600   1.717   0.517   1.758
  120SOL     OW 2601   1.362   1.144   0.545
  120SOL    HW1 2602   1.445   1.115   0.497
  120SOL    HW2 2603   1.313   1.211   0.489
  121SOL     OW 2604   0.550   0.196   0.885
  121SOL    HW1 2605   0.545   0.191   0.985
  121SOL    HW2 2606   0.552   0.292   0.856
  122SOL     OW 2607   1.008   1.456   0.477
  122SOL    HW1 2608   0.962   1.528   0.425
  122SOL    HW2 2609   1.004   1.476   0.575
  123SOL     OW 2610   0.351   1.801   0.853
  123SOL    HW1 2611   0.401   1.715   0.859
  123SOL    HW2 2612   0.416   1.878   0.850
  124SOL     OW 2613   1.795   1.066   0.873
  124SOL    HW1 2614   1.733   1.051   0.797
  124SOL    HW2 2615   1.743   1.077   0.958
  125SOL     OW 2616   0.321   0.943   0.242
  125SOL    HW1 2617   0.403   0.982   0.200
  125SOL    HW2 2618   0.294   0.861   0.193
  126SOL     OW 2619   1.458   0.735   0.728
  126SOL    HW1 2620   1.453   0.670   0.803
  126SOL    HW2 2621   1.538   0.794   0.741
  127SOL     OW 2622   0.202   0.285   1.498
  127SOL    HW1 2623   0.122   0.345   1.485
  127SOL    HW2 2624   0.192   0.236   1.584
  128SOL     OW 2625   1.632   1.377   0.081
  128SOL    HW1 2626   1.600   1.471   0.071
  128SOL    HW2 2627   1.556   1.314   0.069
  129SOL     OW 2628   0.464   1.743   0.323
  129SOL    HW1 2629   0.497   1.782   0.409
  129SOL    HW2 2630   0.540   1.736   0.258
  130SOL     OW 2631   0.249   1.785   1.241
  130SOL    HW1 2632   0.306   1.720   1.291
  130SOL    HW2 2633   0.233   1.752   1.148
  131SOL     OW 2634   0.940   1.698   0.904
  131SOL    HW1 2635   1.020   1.641   0.925
  131SOL    HW2 2636   0.891   1.658   0.827
  132SOL     OW 2637   0.382   0.700   0.480
  132SOL    HW1 2638   0.427   0.610   0.477
  132SOL    HW2 2639   0.288   0.689   0.513
  133SOL     OW 2640   1.547   0.222   1.729
  133SOL    HW1 2641   1.542   0.259   1.821
  133SOL    HW2 2642   1.475   0.153   1.717
  134SOL     OW 2643   0.781   0.264   1.749
  134SOL    HW1 2644   0.848   0.203   1.792
  134SOL    HW2 2645   0.708   0.283   1.814
  135SOL     OW 2646   0.888   1.514   1.195
  135SOL    HW1 2647   0.865   1.489   1.101
  135SOL    HW2 2648   0.949   1.445   1.234
  136SOL     OW 2649   1.351   0.590   1.433
  136SOL    HW1 2650   1.379   0.547   1.518
  136SOL    HW2 2651   1.376   0.686   1.434
  137SOL     OW 2652   0.803   1.402   0.924
  137SOL    HW1 2653   0.893   1.416   0.882
  137SOL    HW2 2654   0.732   1.404   0.853
  138SOL     OW 2655   0.922   0.503   0.899
  138SOL    HW1 2656   0.897   0.494   0.803
  138SOL    HW2 2657   0.970   0.421   0.930
  139SOL     OW 2658   0.539   0.064   0.512
  139SOL    HW1 2659   0.458   0.065   0.570
  139SOL    HW2 2660   0.542   0.147   0.457
  140SOL     OW 2661   0.297   0.035   0.171
  140SOL    HW1 2662   0.346   0.119   0.150
  140SOL    HW2 2663   0.359  -0.030   0.216
  141SOL     OW 2664   0.935   0.236   0.480
  141SOL    HW1 2665   0.887   0.277   0.402
  141SOL    HW2 2666   1.034   0.234   0.461
  142SOL     OW 2667   1.076   0.683   1.464
  142SOL    HW1 2668   0.996   0.622   1.467
  142SOL    HW2 2669   1.157   0.630   1.440
  143SOL     OW 2670   1.227   1.570   0.793
  143SOL    HW1 2671   1.248   1.644   0.728
  143SOL    HW2 2672   1.295   1.570   0.866
  144SOL     OW 2673   0.459   1.152   0.741
  144SOL    HW1 2674   0.388   1.125   0.806
  144SOL    HW2 2675   0.433   1.124   0.648
  145SOL     OW 2676   0.561   0.222   1.147
  145SOL    HW1 2677   0.599   0.138   1.184
  145SOL    HW2 2678   0.473   0.241   1.191
  146SOL     OW 2679   0.866   0.454   0.642
  146SOL    HW1 2680   0.834   0.526   0.580
  146SOL    HW2 2681   0.890   0.373   0.589
  147SOL     OW 2682   1.429   1.173   0.867
  147SOL    HW1 2683   1.374   1.089   0.860
  147SOL    HW2 2684   1.455   1.202   0.775
  148SOL     OW 2685   1.466   0.590   0.992
  148SOL    HW1 2686   1.436   0.495   0.999
  148SOL    HW2 2687   1.539   0.606   1.058
  149SOL     OW 2688   1.857   0.833   0.377
  149SOL    HW1 2689   1.899   0.769   0.441
  149SOL    HW2 2690   1.819   0.782   0.299
  150SOL     OW 2691   0.488   1.385   0.174
  150SOL    HW1 2692   0.401   1.370   0.221
  150SOL    HW2 2693   0.471   1.411   0.079
  151SOL     OW 2694   1.664   1.280   0.657
  151SOL    HW1 2695   1.763   1.288   0.671
  151SOL    HW2 2696   1.619   1.364   0.688
  152SOL     OW 2697   1.390   0.575   0.078
  152SOL    HW1 2698   1.336   0.554   0.159
  152SOL    HW2 2699   1.481   0.534   0.087
  153SOL     OW 2700   0.527   0.256   0.328
  153SOL    HW1 2701   0.554   0.197   0.253
  153SOL    HW2 2702   0.527   0.351   0.297
  154SOL     OW 2703   1.064   1.347   1.340
  154SOL    HW1 2704   0.984   1.324   1.395
  154SOL    HW2 2705   1.147   1.321   1.389
  155SOL     OW 2706   1.111   1.195   1.100
  155SOL    HW1 2707   1.071   1.239   1.181
  155SOL    HW2 2708   1.070   1.232   1.017
  156SOL     OW 2709   1.638   1.099   1.079
  156SOL    HW1 2710   1.643   1.180   1.138
  156SOL    HW2 2711   1.552   1.101   1.028
  157SOL     OW 2712   0.915   0.089   1.402
  157SOL    HW1 2713   0.940   0.069   1.307
  157SOL    HW2 2714   0.987   0.145   1.444
  158SOL     OW 2715   0.980   1.116   1.719
  158SOL    HW1 2716   0.881   1.122   1.729
  158SOL    HW2 2717   1.003   1.036   1.663
  159SOL     OW 2718   0.705   1.050   0.368
  159SOL    HW1 2719   0.691   1.057   0.467
  159SOL    HW2 2720   0.789   0.999   0.350
  160SOL     OW 2721   0.410   0.813   1.251
  160SOL    HW1 2722   0.496   0.825   1.301
  160SOL    HW2 2723   0.368   0.726   1.278
  161SOL     OW 2724   1.274   0.386   1.262
  161SOL    HW1 2725   1.295   0.460   1.326
  161SOL    HW2 2726   1.185   0.403   1.219
  162SOL     OW 2727   0.064   1.564   1.331
  162SOL    HW1 2728   0.018   1.646   1.297
  162SOL    HW2 2729   0.162   1.583   1.340
  163SOL     OW 2730   0.367   1.100   0.501
  163SOL    HW1 2731   0.360   1.183   0.445
  163SOL    HW2 2732   0.371   1.020   0.441
  164SOL     OW 2733   0.566   0.537   0.865
  164SOL    HW1 2734   0.578   0.603   0.791
  164SOL    HW2 2735   0.612   0.571   0.948
  165SOL     OW 2736   1.252   1.348   0.388
  165SOL    HW1 2737   1.302   1.425   0.428
  165SOL    HW2 2738   1.157   1.350   0.420
  166SOL     OW 2739   1.272   1.445   1.142
  166SOL    HW1 2740   1.319   1.458   1.229
  166SOL    HW2 2741   1.206   1.371   1.151
  167SOL     OW 2742   1.582   0.639   0.472
  167SOL    HW1 2743   1.551   0.700   0.545
  167SOL    HW2 2744   1.632   0.691   0.403
  168SOL     OW 2745   0.354   1.510   1.329
  168SOL    HW1 2746   0.333   1.466   1.242
  168SOL    HW2 2747   0.451   1.536   1.332
  169SOL     OW 2748   0.402   0.751   1.598
  169SOL    HW1 2749   0.470   0.806   1.551
  169SOL    HW2 2750   0.442   0.663   1.625
  170SOL     OW 2751   1.013   0.105   1.770
  170SOL    HW1 2752   1.019   0.190   1.718
  170SOL    HW2 2753   1.045   0.029   1.713
  171SOL     OW 2754   0.504   0.050   1.740
  171SOL    HW1 2755   0.462  -0.007   1.670
  171SOL    HW2 2756   0.438   0.119   1.772
  172SOL     OW 2757   0.573   0.870   1.029
  172SOL    HW1 2758   0.617   0.959   1.020
  172SOL    HW2 2759   0.510   0.870   1.106
  173SOL     OW 2760   1.360   0.862   1.045
  173SOL    HW1 2761   1.285   0.862   0.979
  173SOL    HW2 2762   1.397   0.770   1.054
  174SOL     OW 2763   1.209   0.525   0.275
  174SOL    HW1 2764   1.222   0.441   0.329
  174SOL    HW2 2765   1.180   0.599   0.335
  175SOL     OW 2766   0.307   0.213   1.231
  175SOL    HW1 2767   0.284   0.250   1.321
  175SOL    HW2 2768   0.277   0.118   1.225
  176SOL     OW 2769   0.037   1.310   1.282
  176SOL    HW1 2770   0.090   1.261   1.350
  176SOL    HW2 2771   0.059   1.408   1.287
  177SOL     OW 2772   0.732   0.634   1.064
  177SOL    HW1 2773   0.791   0.608   0.988
  177SOL    HW2 2774   0.704   0.730   1.053
  178SOL     OW 2775   0.307   0.063   0.618
  178SOL    HW1 2776   0.296   0.157   0.651
  178SOL    HW2 2777   0.302   0.000   0.695
  179SOL     OW 2778   1.622   0.367   0.374
  179SOL    HW1 2779   1.624   0.291   0.438
  179SOL    HW2 2780   1.574   0.444   0.414
  180SOL     OW 2781   1.023   0.766   0.966
  180SOL    HW1 2782   1.038   0.787   1.062
  180SOL    HW2 2783   0.993   0.671   0.957
  181SOL     OW 2784   0.980   1.573   1.700
  181SOL    HW1 2785   0.960   1.617   1.612
  181SOL    HW2 2786   1.019   1.482   1.684
  182SOL     OW 2787   1.540   0.274   0.125
  182SOL    HW1 2788   1.479   0.199   0.148
  182SOL    HW2 2789   1.562   0.326   0.208
  183SOL     OW 2790   1.303   0.838   0.042
  183SOL    HW1 2791   1.337   0.745   0.057
  183SOL    HW2 2792   1.321   0.865  -0.053
  184SOL     OW 2793   1.068   1.333   0.849
  184SOL    HW1 2794   1.075   1.249   0.794
  184SOL    HW2 2795   1.130   1.402   0.813
  185SOL     OW 2796   0.319   0.810   0.949
  185SOL    HW1 2797   0.412   0.846   0.954
  185SOL    HW2 2798   0.313   0.725   1.001
  186SOL     OW 2799   0.339   0.509   1.006
  186SOL    HW1 2800   0.287   0.426   0.989
  186SOL    HW2 2801   0.416   0.514   0.942
  187SOL     OW 2802   1.138   0.380   1.678
  187SOL    HW1 2803   1.093   0.443   1.742
  187SOL    HW2 2804   1.231   0.411   1.661
  188SOL     OW 2805   1.160   0.207   1.477
  188SOL    HW1 2806   1.160   0.271   1.554
  188SOL    HW2 2807   1.188   0.255   1.394
  189SOL     OW 2808   0.088   1.801   0.927
  189SOL    HW1 2809   0.046   1.715   0.900
  189SOL    HW2 2810   0.182   1.804   0.893
  190SOL     OW 2811   0.504   1.568   0.910
  190SOL    HW1 2812   0.570   1.642   0.919
  190SOL    HW2 2813   0.548   1.489   0.868
  191SOL     OW 2814   1.002   0.796   1.238
  191SOL    HW1 2815   1.043   0.764   1.324
  191SOL    HW2 2816   0.906   0.769   1.235
  192SOL     OW 2817   0.040   0.544   1.114
  192SOL    HW1 2818   0.125   0.511   1.073
  192SOL    HW2 2819   0.053   0.559   1.212
  193SOL     OW 2820   0.189   0.520   1.722
  193SOL    HW1 2821   0.248   0.480   1.652
  193SOL    HW2 2822   0.131   0.591   1.681
  194SOL     OW 2823   1.657   0.604   1.206
  194SOL    HW1 2824   1.619   0.535   1.268
  194SOL    HW2 2825   1.739   0.568   1.162
  195SOL     OW 2826   0.252   1.564   1.744
  195SOL    HW1 2827   0.222   1.621   1.820
  195SOL    HW2 2828   0.245   1.467   1.770
  196SOL     OW 2829   0.671   0.464   1.269
  196SOL    HW1 2830   0.637   0.375   1.239
  196SOL    HW2 2831   0.697   0.518   1.189
  197SOL     OW 2832   0.930   1.678   1.465
  197SOL    HW1 2833   0.906   1.660   1.370
  197SOL    HW2 2834   0.960   1.772   1.475
  198SOL     OW 2835   0.473   0.500   0.191
  198SOL    HW1 2836   0.534   0.580   0.195
  198SOL    HW2 2837   0.378   0.531   0.198
  199SOL     OW 2838   1.347   1.059   1.234
  199SOL    HW1 2839   1.371   0.996   1.160
  199SOL    HW2 2840   1.257   1.099   1.216
  200SOL     OW 2841   1.302   0.855   0.309
  200SOL    HW1 2842   1.216   0.824   0.351
  200SOL    HW2 2843   1.298   0.841   0.210
  201SOL     OW 2844   1.759   1.747   1.154
  201SOL    HW1 2845   1.820   1.777   1.081
  201SOL    HW2 2846   1.721   1.658   1.132
  202SOL     OW 2847   1.252   1.731   1.128
  202SOL    HW1 2848   1.336   1.736   1.074
  202SOL    HW2 2849   1.229   1.635   1.146
  203SOL     OW 2850   0.083   1.258   1.022
  203SOL    HW1 2851   0.078   1.257   1.122
  203SOL    HW2 2852   0.000   1.217   0.984
  204SOL     OW 2853   0.903   0.086   0.133
  204SOL    HW1 2854   0.954   0.087   0.047
  204SOL    HW2 2855   0.959   0.044   0.204
  205SOL     OW 2856   1.726   0.135   0.523
  205SOL    HW1 2857   1.799   0.118   0.456
  205SOL    HW2 2858   1.695   0.048   0.561
  206SOL     OW 2859   0.130   1.794   1.851
  206SOL    HW1 2860   0.089   1.720   1.904
  206SOL    HW2 2861   0.194   1.845   1.909
  207SOL     OW 2862   1.280   0.927   0.672
  207SOL    HW1 2863   1.340   0.846   0.674
  207SOL    HW2 2864   1.320   0.996   0.612
  208SOL     OW 2865   0.830   1.273   1.422
  208SOL    HW1 2866   0.825   1.306   1.517
  208SOL    HW2 2867   0.744   1.292   1.376
  209SOL     OW 2868   0.672   1.616   0.154
  209SOL    HW1 2869   0.681   1.626   0.055
  209SOL    HW2 2870   0.632   1.527   0.175
  210SOL     OW 2871   1.650   1.720   1.394
  210SOL    HW1 2872   1.703   1.730   1.310
  210SOL    HW2 2873   1.623   1.810   1.428
  211SOL     OW 2874   1.841   0.175   0.963
  211SOL    HW1 2875   1.880   0.090   0.927
  211SOL    HW2 2876   1.743   0.177   0.944
  212SOL     OW 2877   0.263   0.326   0.720
  212SOL    HW1 2878   0.184   0.377   0.686
  212SOL    HW2 2879   0.254   0.311   0.818
  213SOL     OW 2880   0.822   1.002   1.372
  213SOL    HW1 2881   0.862   1.001   1.280
  213SOL    HW2 2882   0.832   1.094   1.412
  214SOL     OW 2883   0.916   0.910   0.291
  214SOL    HW1 2884   0.979   0.948   0.223
  214SOL    HW2 2885   0.956   0.827   0.330
  215SOL     OW 2886   0.372   1.288   1.490
  215SOL    HW1 2887   0.359   1.381   1.456
  215SOL    HW2 2888   0.288   1.236   1.477
  216SOL     OW 2889   1.614   1.292   1.289
  216SOL    HW1 2890   1.674   1.295   1.369
  216SOL    HW2 2891   1.539   1.356   1.302
  217SOL     OW 2892   1.039   1.098   0.696
  217SOL    HW1 2893   0.969   1.051   0.750
  217SOL    HW2 2894   1.098   1.030   0.653
  218SOL     OW 2895   1.014   0.236   0.971
  218SOL    HW1 2896   1.006   0.200   0.878
  218SOL    HW2 2897   1.012   0.160   1.036
  219SOL     OW 2898   0.590   1.487   0.491
  219SOL    HW1 2899   0.632   1.429   0.421
  219SOL    HW2 2900   0.546   1.566   0.447
  220SOL     OW 2901   1.709   0.385   1.381
  220SOL    HW1 2902   1.782   0.454   1.385
  220SOL    HW2 2903   1.737   0.310   1.322
  221SOL     OW 2904   0.255   1.348   0.290
  221SOL    HW1 2905   0.159   1.349   0.263
  221SOL    HW2 2906   0.267   1.401   0.374
  222SOL     OW 2907   0.672   0.203   1.489
  222SOL    HW1 2908   0.762   0.187   1.449
  222SOL    HW2 2909   0.680   0.208   1.588
  223SOL     OW 2910   0.075   0.345   0.033
  223SOL    HW1 2911  -0.017   0.317   0.004
  223SOL    HW2 2912   0.106   0.422  -0.023
  224SOL     OW 2913   0.072   0.166   0.318
  224SOL    HW1 2914   0.055   0.249   0.264
  224SOL    HW2 2915   0.162   0.129   0.296
  225SOL     OW 2916   1.183   1.335   0.119
  225SOL    HW1 2917   1.084   1.324   0.121
  225SOL    HW2 2918   1.217   1.350   0.212
  226SOL     OW 2919   0.613   0.842   1.431
  226SOL    HW1 2920   0.669   0.923   1.414
  226SOL    HW2 2921   0.672   0.762   1.434
  227SOL     OW 2922   1.493   1.767   0.959
  227SOL    HW1 2923   1.526   1.831   0.890
  227SOL    HW2 2924   1.559   1.761   1.034
  228SOL     OW 2925   0.716   0.565   1.708
  228SOL    HW1 2926   0.735   0.630   1.782
  228SOL    HW2 2927   0.776   0.485   1.717
  229SOL     OW 2928   0.390   1.741   1.560
  229SOL    HW1 2929   0.299   1.782   1.558
  229SOL    HW2 2930   0.383   1.647   1.592
  230SOL     OW 2931   1.674   0.883   1.254
  230SOL    HW1 2932   1.647   0.794   1.217
  230SOL    HW2 2933   1.675   0.951   1.181
  231SOL     OW 2934   1.225   0.325   0.449
  231SOL    HW1 2935   1.290   0.251   0.438
  231SOL    HW2 2936   1.245   0.375   0.533
  232SOL     OW 2937   0.594   0.745   0.652
  232SOL    HW1 2938   0.644   0.830   0.633
  232SOL    HW2 2939   0.506   0.747   0.604
  233SOL     OW 2940   1.777   0.342   1.642
  233SOL    HW1 2941   1.760   0.373   1.548
  233SOL    HW2 2942   1.693   0.305   1.680
  234SOL     OW 2943   0.859   1.374   0.016
  234SOL    HW1 2944   0.813   1.389   0.104
  234SOL    HW2 2945   0.903   1.459  -0.014
  235SOL     OW 2946   0.661   1.790   0.953
  235SOL    HW1 2947   0.615   1.878   0.940
  235SOL    HW2 2948   0.760   1.802   0.946
  236SOL     OW 2949   0.859   0.956   0.861
  236SOL    HW1 2950   0.913   0.887   0.909
  236SOL    HW2 2951   0.827   1.025   0.927
  237SOL     OW 2952   1.083   0.984   0.087
  237SOL    HW1 2953   1.060   1.037   0.005
  237SOL    HW2 2954   1.164   0.928   0.068
  238SOL     OW 2955   1.861   1.569   0.851
  238SOL    HW1 2956   1.790   1.557   0.781
  238SOL    HW2 2957   1.862   1.490   0.911
  239SOL     OW 2958   0.079   1.240   0.653
  239SOL    HW1 2959   0.078   1.193   0.741
  239SOL    HW2 2960   0.161   1.212   0.602
  240SOL     OW 2961   0.672   1.391   1.624
  240SOL    HW1 2962   0.594   1.341   1.662
  240SOL    HW2 2963   0.669   1.486   1.655
  241SOL     OW 2964   1.824   0.192   1.227
  241SOL    HW1 2965   1.820   0.102   1.271
  241SOL    HW2 2966   1.827   0.181   1.128
  242SOL     OW 2967   0.428   0.424   0.520
  242SOL    HW1 2968   0.458   0.352   0.458
  242SOL    HW2 2969   0.389   0.384   0.603
  243SOL     OW 2970   1.705   1.487   1.104
  243SOL    HW1 2971   1.612   1.462   1.077
  243SOL    HW2 2972   1.731   1.437   1.186
  244SOL     OW 2973   0.317   0.547   1.280
  244SOL    HW1 2974   0.355   0.488   1.352
  244SOL    HW2 2975   0.357   0.521   1.192
  245SOL     OW 2976   0.812   1.586   0.687
  245SOL    HW1 2977   0.844   1.596   0.593
  245SOL    HW2 2978   0.733   1.524   0.689
  246SOL     OW 2979   1.424   0.214   1.112
  246SOL    HW1 2980   1.476   0.149   1.167
  246SOL    HW2 2981   1.375   0.277   1.173
  247SOL     OW 2982   0.770   1.330   0.301
  247SOL    HW1 2983   0.724   1.243   0.318
  247SOL    HW2 2984   0.861   1.327   0.342
  248SOL     OW 2985   0.618   1.567   1.284
  248SOL    HW1 2986   0.613   1.649   1.341
  248SOL    HW2 2987   0.707   1.564   1.239
  249SOL     OW 2988   1.352   0.052   0.168
  249SOL    HW1 2989   1.387   0.011   0.084
  249SOL    HW2 2990   1.262   0.014   0.188
  250SOL     OW 2991   1.300   0.453   0.691
  250SOL    HW1 2992   1.241   0.533   0.695
  250SOL    HW2 2993   1.315   0.418   0.784
  251SOL     OW 2994   1.593   0.221   0.882
  251SOL    HW1 2995   1.509   0.220   0.936
  251SOL    HW2 2996   1.595   0.304   0.826
  252SOL     OW 2997   0.875   1.646   0.337
  252SOL    HW1 2998   0.798   1.611   0.283
  252SOL    HW2 2999   0.843   1.717   0.399
  253SOL     OW 3000   0.230   0.628   1.975
  253SOL    HW1 3001   0.137   0.626   2.012
  253SOL    HW2 3002   0.231   0.589   1.883
  254SOL     OW 3003   0.019   0.368   2.509
  254SOL    HW1 3004  -0.063   0.411   2.548
  254SOL    HW2 3005  -0.009   0.295   2.446
  255SOL     OW 3006   0.569   1.275   3.027
  255SOL    HW1 3007   0.476   1.268   2.990
  255SOL    HW2 3008   0.580   1.364   3.071
  256SOL     OW 3009   1.555   1.511   2.565
  256SOL    HW1 3010   1.498   1.495   2.646
  256SOL    HW2 3011   1.496   1.521   2.485
  257SOL     OW 3012   1.135   0.703   2.579
  257SOL    HW1 3013   1.192   0.781   2.554
  257SOL    HW2 3014   1.075   0.729   2.655
  258SOL     OW 3015   1.755   0.607   2.093
  258SOL    HW1 3016   1.743   0.594   1.994
  258SOL    HW2 3017   1.725   0.526   2.142
  259SOL     OW 3018   0.768   1.144   2.885
  259SOL    HW1 3019   0.690   1.161   2.945
  259SOL    HW2 3020   0.802   1.231   2.849
  260SOL     OW 3021   0.850   0.798   3.685
  260SOL    HW1 3022   0.846   0.874   3.750
  260SOL    HW2 3023   0.872   0.834   3.594
  261SOL     OW 3024   0.686   1.161   3.665
  261SOL    HW1 3025   0.746   1.240   3.679
  261SOL    HW2 3026   0.600   1.192   3.624
  262SOL     OW 3027   0.335   1.435   2.923
  262SOL    HW1 3028   0.257   1.404   2.870
  262SOL    HW2 3029   0.393   1.493   2.866
  263SOL     OW 3030   1.460   1.505   3.201
  263SOL    HW1 3031   1.484   1.599   3.227
  263SOL    HW2 3032   1.444   1.451   3.283
  264SOL     OW 3033   0.438   0.392   3.361
  264SOL    HW1 3034   0.520   0.336   3.370
  264SOL    HW2 3035   0.357   0.334   3.365
  265SOL     OW 3036   1.603   0.447   2.599
  265SOL    HW1 3037   1.529   0.493   2.549
  265SOL    HW2 3038   1.654   0.515   2.652
  266SOL     OW 3039   0.231   1.713   2.345
  266SOL    HW1 3040   0.265   1.790   2.399
  266SOL    HW2 3041   0.275   1.713   2.255
  267SOL     OW 3042   1.127   1.341   3.552
  267SOL    HW1 3043   1.174   1.341   3.640
  267SOL    HW2 3044   1.079   1.254   3.541
  268SOL     OW 3045   0.230   1.434   2.400
  268SOL    HW1 3046   0.204   1.530   2.400
  268SOL    HW2 3047   0.159   1.380   2.445
  269SOL     OW 3048   0.240   1.091   2.748
  269SOL    HW1 3049   0.254   1.007   2.800
  269SOL    HW2 3050   0.185   1.155   2.803
  270SOL     OW 3051   0.620   1.786   3.301
  270SOL    HW1 3052   0.528   1.769   3.336
  270SOL    HW2 3053   0.648   1.878   3.327
  271SOL     OW 3054   0.606   0.964   1.985
  271SOL    HW1 3055   0.613   1.048   1.931
  271SOL    HW2 3056   0.652   0.977   2.073
  272SOL     OW 3057   0.122   0.643   2.425
  272SOL    HW1 3058   0.077   0.555   2.442
  272SOL    HW2 3059   0.121   0.697   2.509
  273SOL     OW 3060   1.842   1.767   2.221
  273SOL    HW1 3061   1.896   1.738   2.301
  273SOL    HW2 3062   1.872   1.857   2.192
  274SOL     OW 3063   0.027   1.596   1.979
  274SOL    HW1 3064   0.008   1.500   2.000
  274SOL    HW2 3065  -0.006   1.654   2.054
  275SOL     OW 3066   1.689   0.922   2.474
  275SOL    HW1 3067   1.784   0.893   2.482
  275SOL    HW2 3068   1.681   0.987   2.399
  276SOL     OW 3069   1.641   1.108   2.294
  276SOL    HW1 3070   1.727   1.110   2.242
  276SOL    HW2 3071   1.655   1.155   2.382
  277SOL     OW 3072   0.113   0.737   3.459
  277SOL    HW1 3073   0.201   0.724   3.504
  277SOL    HW2 3074   0.100   0.834   3.437
  278SOL     OW 3075   0.613   1.365   2.588
  278SOL    HW1 3076   0.564   1.278   2.597
  278SOL    HW2 3077   0.590   1.408   2.501
  279SOL     OW 3078   1.293   1.228   3.285
  279SOL    HW1 3079   1.330   1.155   3.227
  279SOL    HW2 3080   1.345   1.233   3.370
  280SOL     OW 3081   0.197   0.976   3.126
  280SOL    HW1 3082   0.286   0.931   3.112
  280SOL    HW2 3083   0.124   0.911   3.107
  281SOL     OW 3084   1.525   0.999   2.052
  281SOL    HW1 3085   1.462   0.923   2.065
  281SOL    HW2 3086   1.573   1.017   2.138
  282SOL     OW 3087   1.187   1.792   3.478
  282SOL    HW1 3088   1.211   1.852   3.402
  282SOL    HW2 3089   1.194   1.697   3.448
  283SOL     OW 3090   0.317   0.251   3.663
  283SOL    HW1 3091   0.388   0.322   3.669
  283SOL    HW2 3092   0.229   0.290   3.691
  284SOL     OW 3093   1.466   1.417   2.815
  284SOL    HW1 3094   1.407   1.423   2.895
  284SOL    HW2 3095   1.451   1.329   2.769
  285SOL     OW 3096   1.667   1.714   2.434
  285SOL    HW1 3097   1.626   1.691   2.346
  285SOL    HW2 3098   1.649   1.640   2.499
  286SOL     OW 3099   0.598   0.729   2.132
  286SOL    HW1 3100   0.622   0.798   2.064
  286SOL    HW2 3101   0.520   0.762   2.186
  287SOL     OW 3102   1.281   0.345   2.806
  287SOL    HW1 3103   1.195   0.295   2.793
  287SOL    HW2 3104   1.343   0.291   2.862
  288SOL     OW 3105   1.576   1.662   2.169
  288SOL    HW1 3106   1.665   1.708   2.172
  288SOL    HW2 3107   1.555   1.638   2.074
  289SOL     OW 3108   0.807   0.605   3.327
  289SOL    HW1 3109   0.760   0.602   3.416
  289SOL    HW2 3110   0.756   0.550   3.261
  290SOL     OW 3111   1.394   0.469   3.536
  290SOL    HW1 3112   1.374   0.512   3.624
  290SOL    HW2 3113   1.472   0.407   3.545
  291SOL     OW 3114   0.973   0.890   3.434
  291SOL    HW1 3115   1.019   0.806   3.405
  291SOL    HW2 3116   0.917   0.924   3.359
  292SOL     OW 3117   0.991   0.410   3.104
  292SOL    HW1 3118   0.914   0.444   3.158
  292SOL    HW2 3119   0.957   0.359   3.025
  293SOL     OW 3120   1.041   0.701   2.291
  293SOL    HW1 3121   1.067   0.697   2.387
  293SOL    HW2 3122   0.956   0.650   2.277
  294SOL     OW 3123   0.130   1.821   3.433
  294SOL    HW1 3124   0.120   1.806   3.532
  294SOL    HW2 3125   0.044   1.857   3.397
  295SOL     OW 3126   0.865   0.348   2.057
  295SOL    HW1 3127   0.924   0.411   2.008
  295SOL    HW2 3128   0.884   0.254   2.028
  296SOL     OW 3129   1.719   0.585   3.693
  296SOL    HW1 3130   1.693   0.674   3.657
  296SOL    HW2 3131   1.717   0.517   3.620
  297SOL     OW 3132   1.362   1.144   2.407
  297SOL    HW1 3133   1.445   1.115   2.359
  297SOL    HW2 3134   1.313   1.211   2.351
  298SOL     OW 3135   1.008   1.456   2.339
  298SOL    HW1 3136   0.962   1.528   2.287
  298SOL    HW2 3137   1.004   1.476   2.437
  299SOL     OW 3138   0.351   1.801   2.715
  299SOL    HW1 3139   0.401   1.715   2.721
  299SOL    HW2 3140   0.416   1.878   2.712
  300SOL     OW 3141   1.795   1.066   2.735
  300SOL    HW1 3142   1.733   1.051   2.659
  300SOL    HW2 3143   1.743   1.077   2.820
  301SOL     OW 3144   1.227   1.550   3.368
  301SOL    HW1 3145   1.233   1.473   3.432
  301SOL    HW2 3146   1.175   1.524   3.288
  302SOL     OW 3147   1.458   0.735   2.590
  302SOL    HW1 3148   1.453   0.670   2.665
  302SOL    HW2 3149   1.538   0.794   2.603
  303SOL     OW 3150   0.461   1.266   3.589
  303SOL    HW1 3151   0.411   1.267   3.503
  303SOL    HW2 3152   0.398   1.248   3.665
  304SOL     OW 3153   1.111   1.776   2.099
  304SOL    HW1 3154   1.051   1.714   2.149
  304SOL    HW2 3155   1.142   1.732   2.014
  305SOL     OW 3156   0.202   0.285   3.360
  305SOL    HW1 3157   0.122   0.345   3.347
  305SOL    HW2 3158   0.192   0.236   3.446
  306SOL     OW 3159   1.632   1.377   1.943
  306SOL    HW1 3160   1.600   1.471   1.933
  306SOL    HW2 3161   1.556   1.314   1.931
  307SOL     OW 3162   1.400   0.107   2.288
  307SOL    HW1 3163   1.376   0.070   2.198
  307SOL    HW2 3164   1.499   0.123   2.292
  308SOL     OW 3165   0.249   1.785   3.103
  308SOL    HW1 3166   0.306   1.720   3.153
  308SOL    HW2 3167   0.233   1.752   3.010
  309SOL     OW 3168   0.940   1.698   2.766
  309SOL    HW1 3169   1.020   1.641   2.787
  309SOL    HW2 3170   0.891   1.658   2.689
  310SOL     OW 3171   0.382   0.700   2.342
  310SOL    HW1 3172   0.427   0.610   2.339
  310SOL    HW2 3173   0.288   0.689   2.375
  311SOL     OW 3174   0.614   0.122   1.979
  311SOL    HW1 3175   0.712   0.100   1.986
  311SOL    HW2 3176   0.583   0.105   1.886
  312SOL     OW 3177   0.781   0.264   3.611
  312SOL    HW1 3178   0.848   0.203   3.654
  312SOL    HW2 3179   0.708   0.283   3.676
  313SOL     OW 3180   0.888   1.514   3.057
  313SOL    HW1 3181   0.865   1.489   2.963
  313SOL    HW2 3182   0.949   1.445   3.096
  314SOL     OW 3183   1.351   0.590   3.295
  314SOL    HW1 3184   1.379   0.547   3.380
  314SOL    HW2 3185   1.376   0.686   3.296
  315SOL     OW 3186   0.803   1.402   2.786
  315SOL    HW1 3187   0.893   1.416   2.744
  315SOL    HW2 3188   0.732   1.404   2.715
  316SOL     OW 3189   0.922   0.503   2.761
  316SOL    HW1 3190   0.897   0.494   2.665
  316SOL    HW2 3191   0.970   0.421   2.792
  317SOL     OW 3192   0.539   0.064   2.374
  317SOL    HW1 3193   0.458   0.065   2.432
  317SOL    HW2 3194   0.542   0.147   2.319
  318SOL     OW 3195   1.434   1.188   1.903
  318SOL    HW1 3196   1.466   1.112   1.960
  318SOL    HW2 3197   1.342   1.215   1.933
  319SOL     OW 3198   0.297   0.035   2.033
  319SOL    HW1 3199   0.346   0.119   2.012
  319SOL    HW2 3200   0.359  -0.030   2.078
  320SOL     OW 3201   1.076   0.683   3.326
  320SOL    HW1 3202   0.996   0.622   3.329
  320SOL    HW2 3203   1.157   0.630   3.302
  321SOL     OW 3204   1.227   1.570   2.655
  321SOL    HW1 3205   1.248   1.644   2.590
  321SOL    HW2 3206   1.295   1.570   2.728
  322SOL     OW 3207   1.271   1.797   2.453
  322SOL    HW1 3208   1.315   1.861   2.389
  322SOL    HW2 3209   1.221   1.849   2.523
  323SOL     OW 3210   1.032   0.549   1.878
  323SOL    HW1 3211   0.991   0.631   1.839
  323SOL    HW2 3212   1.096   0.575   1.951
  324SOL     OW 3213   0.078   0.556   3.248
  324SOL    HW1 3214   0.170   0.555   3.207
  324SOL    HW2 3215   0.072   0.630   3.315
  325SOL     OW 3216   0.561   0.222   3.009
  325SOL    HW1 3217   0.599   0.138   3.046
  325SOL    HW2 3218   0.473   0.241   3.053
  326SOL     OW 3219   1.429   1.173   2.729
  326SOL    HW1 3220   1.374   1.089   2.722
  326SOL    HW2 3221   1.455   1.202   2.637
  327SOL     OW 3222   1.466   0.590   2.854
  327SOL    HW1 3223   1.436   0.495   2.861
  327SOL    HW2 3224   1.539   0.606   2.920
  328SOL     OW 3225   1.857   0.833   2.239
  328SOL    HW1 3226   1.899   0.769   2.303
  328SOL    HW2 3227   1.819   0.782   2.161
  329SOL     OW 3228   1.390   0.575   1.940
  329SOL    HW1 3229   1.336   0.554   2.021
  329SOL    HW2 3230   1.481   0.534   1.949
  330SOL     OW 3231   0.527   0.256   2.190
  330SOL    HW1 3232   0.554   0.197   2.115
  330SOL    HW2 3233   0.527   0.351   2.159
  331SOL     OW 3234   1.754   1.223   3.450
  331SOL    HW1 3235   1.845   1.184   3.437
  331SOL    HW2 3236   1.762   1.319   3.474
  332SOL     OW 3237   1.064   1.347   3.202
  332SOL    HW1 3238   0.984   1.324   3.257
  332SOL    HW2 3239   1.147   1.321   3.251
  333SOL     OW 3240   1.592   1.629   3.487
  333SOL    HW1 3241   1.619   1.663   3.397
  333SOL    HW2 3242   1.671   1.591   3.533
  334SOL     OW 3243   1.111   1.195   2.962
  334SOL    HW1 3244   1.071   1.239   3.043
  334SOL    HW2 3245   1.070   1.232   2.879
  335SOL     OW 3246   1.638   1.099   2.941
  335SOL    HW1 3247   1.643   1.180   3.000
  335SOL    HW2 3248   1.552   1.101   2.890
  336SOL     OW 3249   0.915   0.089   3.264
  336SOL    HW1 3250   0.940   0.069   3.169
  336SOL    HW2 3251   0.987   0.145   3.306
  337SOL     OW 3252   0.980   1.116   3.581
  337SOL    HW1 3253   0.881   1.122   3.591
  337SOL    HW2 3254   1.003   1.036   3.525
  338SOL     OW 3255   0.705   1.050   2.230
  338SOL    HW1 3256   0.691   1.057   2.329
  338SOL    HW2 3257   0.789   0.999   2.212
  339SOL     OW 3258   0.410   0.813   3.113
  339SOL    HW1 3259   0.496   0.825   3.163
  339SOL    HW2 3260   0.368   0.726   3.140
  340SOL     OW 3261   1.274   0.386   3.124
  340SOL    HW1 3262   1.295   0.460   3.188
  340SOL    HW2 3263   1.185   0.403   3.081
  341SOL     OW 3264   0.064   1.564   3.193
  341SOL    HW1 3265   0.018   1.646   3.159
  341SOL    HW2 3266   0.162   1.583   3.202
  342SOL     OW 3267   1.252   1.348   2.250
  342SOL    HW1 3268   1.302   1.425   2.290
  342SOL    HW2 3269   1.157   1.350   2.282
  343SOL     OW 3270   1.272   1.445   3.004
  343SOL    HW1 3271   1.319   1.458   3.091
  343SOL    HW2 3272   1.206   1.371   3.013
  344SOL     OW 3273   1.582   0.639   2.334
  344SOL    HW1 3274   1.551   0.700   2.407
  344SOL    HW2 3275   1.632   0.691   2.265
  345SOL     OW 3276   0.354   1.510   3.191
  345SOL    HW1 3277   0.333   1.466   3.104
  345SOL    HW2 3278   0.451   1.536   3.194
  346SOL     OW 3279   0.402   0.751   3.460
  346SOL    HW1 3280   0.470   0.806   3.413
  346SOL    HW2 3281   0.442   0.663   3.487
  347SOL     OW 3282   1.587   0.779   3.532
  347SOL    HW1 3283   1.495   0.817   3.527
  347SOL    HW2 3284   1.647   0.826   3.467
  348SOL     OW 3285   0.504   0.050   3.602
  348SOL    HW1 3286   0.462  -0.007   3.532
  348SOL    HW2 3287   0.438   0.119   3.634
  349SOL     OW 3288   0.573   0.870   2.891
  349SOL    HW1 3289   0.617   0.959   2.882
  349SOL    HW2 3290   0.510   0.870   2.968
  350SOL     OW 3291   1.360   0.862   2.907
  350SOL    HW1 3292   1.285   0.862   2.841
  350SOL    HW2 3293   1.397   0.770   2.916
  351SOL     OW 3294   1.209   0.525   2.137
  351SOL    HW1 3295   1.222   0.441   2.191
  351SOL    HW2 3296   1.180   0.599   2.197
  352SOL     OW 3297   0.307   0.213   3.093
  352SOL    HW1 3298   0.284   0.250   3.183
  352SOL    HW2 3299   0.277   0.118   3.087
  353SOL     OW 3300   0.037   1.310   3.144
  353SOL    HW1 3301   0.090   1.261   3.212
  353SOL    HW2 3302   0.059   1.408   3.149
  354SOL     OW 3303   1.728   0.935   3.716
  354SOL    HW1 3304   1.682   0.928   3.627
  354SOL    HW2 3305   1.666   0.979   3.782
  355SOL     OW 3306   0.307   0.063   2.480
  355SOL    HW1 3307   0.296   0.157   2.513
  355SOL    HW2 3308   0.302   0.000   2.557
  356SOL     OW 3309   1.622   0.367   2.236
  356SOL    HW1 3310   1.624   0.291   2.300
  356SOL    HW2 3311   1.574   0.444   2.276
  357SOL     OW 3312   1.023   0.766   2.828
  357SOL    HW1 3313   1.038   0.787   2.924
  357SOL    HW2 3314   0.993   0.671   2.819
  358SOL     OW 3315   0.980   1.573   3.562
  358SOL    HW1 3316   0.960   1.617   3.474
  358SOL    HW2 3317   1.019   1.482   3.546
  359SOL     OW 3318   1.859   1.518   3.467
  359SOL    HW1 3319   1.873   1.545   3.372
  359SOL    HW2 3320   1.942   1.540   3.520
  360SOL     OW 3321   0.350   0.898   3.666
  360SOL    HW1 3322   0.426   0.942   3.714
  360SOL    HW2 3323   0.385   0.851   3.584
  361SOL     OW 3324   1.540   0.274   1.987
  361SOL    HW1 3325   1.479   0.199   2.010
  361SOL    HW2 3326   1.562   0.326   2.070
  362SOL     OW 3327   1.303   0.838   1.904
  362SOL    HW1 3328   1.337   0.745   1.919
  362SOL    HW2 3329   1.321   0.865   1.809
  363SOL     OW 3330   1.068   1.333   2.711
  363SOL    HW1 3331   1.075   1.249   2.656
  363SOL    HW2 3332   1.130   1.402   2.675
  364SOL     OW 3333   1.138   0.380   3.540
  364SOL    HW1 3334   1.093   0.443   3.604
  364SOL    HW2 3335   1.231   0.411   3.523
  365SOL     OW 3336   1.160   0.207   3.339
  365SOL    HW1 3337   1.160   0.271   3.416
  365SOL    HW2 3338   1.188   0.255   3.256
  366SOL     OW 3339   0.088   1.801   2.789
  366SOL    HW1 3340   0.046   1.715   2.762
  366SOL    HW2 3341   0.182   1.804   2.755
  367SOL     OW 3342   0.504   1.568   2.772
  367SOL    HW1 3343   0.570   1.642   2.781
  367SOL    HW2 3344   0.548   1.489   2.730
  368SOL     OW 3345   1.002   0.796   3.100
  368SOL    HW1 3346   1.043   0.764   3.186
  368SOL    HW2 3347   0.906   0.769   3.097
  369SOL     OW 3348   0.189   0.520   3.584
  369SOL    HW1 3349   0.248   0.480   3.514
  369SOL    HW2 3350   0.131   0.591   3.543
  370SOL     OW 3351   1.369   0.950   3.522
  370SOL    HW1 3352   1.408   1.039   3.542
  370SOL    HW2 3353   1.379   0.930   3.425
  371SOL     OW 3354   0.815   0.572   2.187
  371SOL    HW1 3355   0.822   0.483   2.141
  371SOL    HW2 3356   0.721   0.606   2.179
  372SOL     OW 3357   1.657   0.604   3.068
  372SOL    HW1 3358   1.619   0.535   3.130
  372SOL    HW2 3359   1.739   0.568   3.024
  373SOL     OW 3360   0.252   1.564   3.606
  373SOL    HW1 3361   0.222   1.621   3.682
  373SOL    HW2 3362   0.245   1.467   3.632
  374SOL     OW 3363   0.671   0.464   3.131
  374SOL    HW1 3364   0.637   0.375   3.101
  374SOL    HW2 3365   0.697   0.518   3.051
  375SOL     OW 3366   0.930   1.678   3.327
  375SOL    HW1 3367   0.906   1.660   3.232
  375SOL    HW2 3368   0.960   1.772   3.337
  376SOL     OW 3369   0.473   0.500   2.053
  376SOL    HW1 3370   0.534   0.580   2.057
  376SOL    HW2 3371   0.378   0.531   2.060
  377SOL     OW 3372   0.159   1.137   3.328
  377SOL    HW1 3373   0.181   1.076   3.404
  377SOL    HW2 3374   0.169   1.088   3.242
  378SOL     OW 3375   1.347   1.059   3.096
  378SOL    HW1 3376   1.371   0.996   3.022
  378SOL    HW2 3377   1.257   1.099   3.078
  379SOL     OW 3378   1.302   0.855   2.171
  379SOL    HW1 3379   1.216   0.824   2.213
  379SOL    HW2 3380   1.298   0.841   2.072
  380SOL     OW 3381   1.759   1.747   3.016
  380SOL    HW1 3382   1.820   1.777   2.943
  380SOL    HW2 3383   1.721   1.658   2.994
  381SOL     OW 3384   1.252   1.731   2.990
  381SOL    HW1 3385   1.336   1.736   2.936
  381SOL    HW2 3386   1.229   1.635   3.008
  382SOL     OW 3387   0.083   1.258   2.884
  382SOL    HW1 3388   0.078   1.257   2.984
  382SOL    HW2 3389   0.000   1.217   2.846
  383SOL     OW 3390   0.688   1.662   3.578
  383SOL    HW1 3391   0.632   1.743   3.587
  383SOL    HW2 3392   0.740   1.666   3.492
  384SOL     OW 3393   1.726   0.135   2.385
  384SOL    HW1 3394   1.799   0.118   2.318
  384SOL    HW2 3395   1.695   0.048   2.423
  385SOL     OW 3396   1.388   1.573   2.339
  385SOL    HW1 3397   1.455   1.585   2.265
  385SOL    HW2 3398   1.348   1.662   2.362
  386SOL     OW 3399   0.130   1.794   3.713
  386SOL    HW1 3400   0.089   1.720   3.766
  386SOL    HW2 3401   0.194   1.845   3.771
  387SOL     OW 3402   1.280   0.927   2.534
  387SOL    HW1 3403   1.340   0.846   2.536
  387SOL    HW2 3404   1.320   0.996   2.474
  388SOL     OW 3405   0.830   1.273   3.284
  388SOL    HW1 3406   0.825   1.306   3.379
  388SOL    HW2 3407   0.744   1.292   3.238
  389SOL     OW 3408   1.650   1.720   3.256
  389SOL    HW1 3409   1.703   1.730   3.172
  389SOL    HW2 3410   1.623   1.810   3.290
  390SOL     OW 3411   1.841   0.175   2.825
  390SOL    HW1 3412   1.880   0.090   2.789
  390SOL    HW2 3413   1.743   0.177   2.806
  391SOL     OW 3414   1.194   1.612   1.893
  391SOL    HW1 3415   1.200   1.519   1.930
  391SOL    HW2 3416   1.135   1.612   1.813
  392SOL     OW 3417   0.822   1.002   3.234
  392SOL    HW1 3418   0.862   1.001   3.142
  392SOL    HW2 3419   0.832   1.094   3.274
  393SOL     OW 3420   0.916   0.910   2.153
  393SOL    HW1 3421   0.979   0.948   2.085
  393SOL    HW2 3422   0.956   0.827   2.192
  394SOL     OW 3423   1.504   1.607   1.906
  394SOL    HW1 3424   1.412   1.644   1.913
  394SOL    HW2 3425   1.542   1.627   1.816
  395SOL     OW 3426   0.372   1.288   3.352
  395SOL    HW1 3427   0.359   1.381   3.318
  395SOL    HW2 3428   0.288   1.236   3.339
  396SOL     OW 3429   1.614   1.292   3.151
  396SOL    HW1 3430   1.674   1.295   3.231
  396SOL    HW2 3431   1.539   1.356   3.164
  397SOL     OW 3432   1.039   1.098   2.558
  397SOL    HW1 3433   0.969   1.051   2.612
  397SOL    HW2 3434   1.098   1.030   2.515
  398SOL     OW 3435   1.014   0.236   2.833
  398SOL    HW1 3436   1.006   0.200   2.740
  398SOL    HW2 3437   1.012   0.160   2.898
  399SOL     OW 3438   0.590   1.487   2.353
  399SOL    HW1 3439   0.632   1.429   2.283
  399SOL    HW2 3440   0.546   1.566   2.309
  400SOL     OW 3441   1.709   0.385   3.243
  400SOL    HW1 3442   1.782   0.454   3.247
  400SOL    HW2 3443   1.737   0.310   3.184
  401SOL     OW 3444   0.255   1.348   2.152
  401SOL    HW1 3445   0.159   1.349   2.125
  401SOL    HW2 3446   0.267   1.401   2.236
  402SOL     OW 3447   0.105   1.013   3.588
  402SOL    HW1 3448   0.028   0.980   3.642
  402SOL    HW2 3449   0.190   0.983   3.630
  403SOL     OW 3450   0.672   0.203   3.351
  403SOL    HW1 3451   0.762   0.187   3.311
  403SOL    HW2 3452   0.680   0.208   3.450
  404SOL     OW 3453   1.440   0.856   3.260
  404SOL    HW1 3454   1.383   0.908   3.197
  404SOL    HW2 3455   1.536   0.868   3.236
  405SOL     OW 3456   1.183   1.335   1.981
  405SOL    HW1 3457   1.084   1.324   1.983
  405SOL    HW2 3458   1.217   1.350   2.074
  406SOL     OW 3459   0.613   0.842   3.293
  406SOL    HW1 3460   0.669   0.923   3.276
  406SOL    HW2 3461   0.672   0.762   3.296
  407SOL     OW 3462   1.493   1.767   2.821
  407SOL    HW1 3463   1.526   1.831   2.752
  407SOL    HW2 3464   1.559   1.761   2.896
  408SOL     OW 3465   0.716   0.565   3.570
  408SOL    HW1 3466   0.735   0.630   3.644
  408SOL    HW2 3467   0.776   0.485   3.579
  409SOL     OW 3468   1.450   1.220   3.495
  409SOL    HW1 3469   1.441   1.210   3.594
  409SOL    HW2 3470   1.546   1.213   3.469
  410SOL     OW 3471   0.390   1.741   3.422
  410SOL    HW1 3472   0.299   1.782   3.420
  410SOL    HW2 3473   0.383   1.647   3.454
  411SOL     OW 3474   1.674   0.883   3.116
  411SOL    HW1 3475   1.647   0.794   3.079
  411SOL    HW2 3476   1.675   0.951   3.043
  412SOL     OW 3477   1.225   0.325   2.311
  412SOL    HW1 3478   1.290   0.251   2.300
  412SOL    HW2 3479   1.245   0.375   2.395
  413SOL     OW 3480   1.777   0.342   3.504
  413SOL    HW1 3481   1.760   0.373   3.410
  413SOL    HW2 3482   1.693   0.305   3.542
  414SOL     OW 3483   1.730   0.934   3.379
  414SOL    HW1 3484   1.768   1.025   3.394
  414SOL    HW2 3485   1.722   0.917   3.280
  415SOL     OW 3486   0.859   1.374   1.878
  415SOL    HW1 3487   0.813   1.389   1.966
  415SOL    HW2 3488   0.903   1.459   1.848
  416SOL     OW 3489   0.661   1.790   2.815
  416SOL    HW1 3490   0.615   1.878   2.802
  416SOL    HW2 3491   0.760   1.802   2.808
  417SOL     OW 3492   0.859   0.956   2.723
  417SOL    HW1 3493   0.913   0.887   2.771
  417SOL    HW2 3494   0.827   1.025   2.789
  418SOL     OW 3495   1.083   0.984   1.949
  418SOL    HW1 3496   1.060   1.037   1.867
  418SOL    HW2 3497   1.164   0.928   1.930
  419SOL     OW 3498   1.861   1.569   2.713
  419SOL    HW1 3499   1.790   1.557   2.643
  419SOL    HW2 3500   1.862   1.490   2.773
  420SOL     OW 3501   0.221   1.314   3.706
  420SOL    HW1 3502   0.156   1.241   3.685
  420SOL    HW2 3503   0.225   1.328   3.804
  421SOL     OW 3504   0.079   1.240   2.515
  421SOL    HW1 3505   0.078   1.193   2.603
  421SOL    HW2 3506   0.161   1.212   2.464
  422SOL     OW 3507   0.672   1.391   3.486
  422SOL    HW1 3508   0.594   1.341   3.524
  422SOL    HW2 3509   0.669   1.486   3.517
  423SOL     OW 3510   1.824   0.192   3.089
  423SOL    HW1 3511   1.820   0.102   3.133
  423SOL    HW2 3512   1.827   0.181   2.990
  424SOL     OW 3513   0.428   0.424   2.382
  424SOL    HW1 3514   0.458   0.352   2.320
  424SOL    HW2 3515   0.389   0.384   2.465
  425SOL     OW 3516   1.705   1.487   2.966
  425SOL    HW1 3517   1.612   1.462   2.939
  425SOL    HW2 3518   1.731   1.437   3.048
  426SOL     OW 3519   0.317   0.547   3.142
  426SOL    HW1 3520   0.355   0.488   3.214
  426SOL    HW2 3521   0.357   0.521   3.054
  427SOL     OW 3522   0.812   1.586   2.549
  427SOL    HW1 3523   0.844   1.596   2.455
  427SOL    HW2 3524   0.733   1.524   2.551
  428SOL     OW 3525   1.424   0.214   2.974
  428SOL    HW1 3526   1.476   0.149   3.029
  428SOL    HW2 3527   1.375   0.277   3.035
  429SOL     OW 3528   1.001   0.034   3.016
  429SOL    HW1 3529   0.938  -0.038   2.985
  429SOL    HW2 3530   1.094  -0.002   3.016
  430SOL     OW 3531   0.770   1.330   2.163
  430SOL    HW1 3532   0.724   1.243   2.180
  430SOL    HW2 3533   0.861   1.327   2.204
  431SOL     OW 3534   0.618   1.567   3.146
  431SOL    HW1 3535   0.613   1.649   3.203
  431SOL    HW2 3536   0.707   1.564   3.101
  432SOL     OW 3537   1.352   0.052   2.030
  432SOL    HW1 3538   1.387   0.011   1.946
  432SOL    HW2 3539   1.262   0.014   2.050
  433SOL     OW 3540   1.300   0.453   2.553
  433SOL    HW1 3541   1.241   0.533   2.557
  433SOL    HW2 3542   1.315   0.418   2.646
  434SOL     OW 3543   1.593   0.221   2.744
  434SOL    HW1 3544   1.509   0.220   2.798
  434SOL    HW2 3545   1.595   0.304   2.688
  435SOL     OW 3546   0.230   0.628   3.837
  435SOL    HW1 3547   0.137   0.626   3.874
  435SOL    HW2 3548   0.231   0.589   3.745
  436SOL     OW 3549   1.555   1.511   4.427
  436SOL    HW1 3550   1.498   1.495   4.508
  436SOL    HW2 3551   1.496   1.521   4.347
  437SOL     OW 3552   1.135   0.703   4.441
  437SOL    HW1 3553   1.192   0.781   4.416
  437SOL    HW2 3554   1.075   0.729   4.517
  438SOL     OW 3555   1.755   0.607   3.955
  438SOL    HW1 3556   1.743   0.594   3.856
  438SOL    HW2 3557   1.725   0.526   4.004
  439SOL     OW 3558   0.685   1.012   4.389
  439SOL    HW1 3559   0.754   0.996   4.459
  439SOL    HW2 3560   0.612   1.069   4.427
  440SOL     OW 3561   0.335   1.435   4.785
  440SOL    HW1 3562   0.257   1.404   4.732
  440SOL    HW2 3563   0.393   1.493   4.728
  441SOL     OW 3564   1.603   0.447   4.461
  441SOL    HW1 3565   1.529   0.493   4.411
  441SOL    HW2 3566   1.654   0.515   4.514
  442SOL     OW 3567   0.231   1.713   4.207
  442SOL    HW1 3568   0.265   1.790   4.261
  442SOL    HW2 3569   0.275   1.713   4.117
  443SOL     OW 3570   0.230   1.434   4.262
  443SOL    HW1 3571   0.204   1.530   4.262
  443SOL    HW2 3572   0.159   1.380   4.307
  444SOL     OW 3573   0.240   1.091   4.610
  444SOL    HW1 3574   0.254   1.007   4.662
  444SOL    HW2 3575   0.185   1.155   4.665
  445SOL     OW 3576   0.620   1.786   5.163
  445SOL    HW1 3577   0.528   1.769   5.198
  445SOL    HW2 3578   0.648   1.878   5.189
  446SOL     OW 3579   0.606   0.964   3.847
  446SOL    HW1 3580   0.613   1.048   3.793
  446SOL    HW2 3581   0.652   0.977   3.935
  447SOL     OW 3582   0.122   0.643   4.287
  447SOL    HW1 3583   0.077   0.555   4.304
  447SOL    HW2 3584   0.121   0.697   4.371
  448SOL     OW 3585   1.842   1.767   4.083
  448SOL    HW1 3586   1.896   1.738   4.163
  448SOL    HW2 3587   1.872   1.857   4.054
  449SOL     OW 3588   0.027   1.596   3.841
  449SOL    HW1 3589   0.008   1.500   3.862
  449SOL    HW2 3590  -0.006   1.654   3.916
  450SOL     OW 3591   1.689   0.922   4.336
  450SOL    HW1 3592   1.784   0.893   4.344
  450SOL    HW2 3593   1.681   0.987   4.261
  451SOL     OW 3594   1.641   1.108   4.156
  451SOL    HW1 3595   1.727   1.110   4.104
  451SOL    HW2 3596   1.655   1.155   4.244
  452SOL     OW 3597   0.613   1.365   4.450
  452SOL    HW1 3598   0.564   1.278   4.459
  452SOL    HW2 3599   0.590   1.408   4.363
  453SOL     OW 3600   0.809   0.004   4.226
  453SOL    HW1 3601   0.849   0.095   4.217
  453SOL    HW2 3602   0.709   0.012   4.232
  454SOL     OW 3603   0.197   0.976   4.988
  454SOL    HW1 3604   0.286   0.931   4.974
  454SOL    HW2 3605   0.124   0.911   4.969
  455SOL     OW 3606   1.525   0.999   3.914
  455SOL    HW1 3607   1.462   0.923   3.927
  455SOL    HW2 3608   1.573   1.017   4.000
  456SOL     OW 3609   1.667   1.714   4.296
  456SOL    HW1 3610   1.626   1.691   4.208
  456SOL    HW2 3611   1.649   1.640   4.361
  457SOL     OW 3612   0.598   0.729   3.994
  457SOL    HW1 3613   0.622   0.798   3.926
  457SOL    HW2 3614   0.520   0.762   4.048
  458SOL     OW 3615   1.576   1.662   4.031
  458SOL    HW1 3616   1.665   1.708   4.034
  458SOL    HW2 3617   1.555   1.638   3.936
  459SOL     OW 3618   1.041   0.701   4.153
  459SOL    HW1 3619   1.067   0.697   4.249
  459SOL    HW2 3620   0.956   0.650   4.139
  460SOL     OW 3621   0.076   0.811   4.513
  460SOL    HW1 3622   0.175   0.799   4.522
  460SOL    HW2 3623   0.052   0.906   4.534
  461SOL     OW 3624   0.130   1.821   5.295
  461SOL    HW1 3625   0.120   1.806   5.394
  461SOL    HW2 3626   0.044   1.857   5.259
  462SOL     OW 3627   0.865   0.348   3.919
  462SOL    HW1 3628   0.924   0.411   3.870
  462SOL    HW2 3629   0.884   0.254   3.890
  463SOL     OW 3630   1.362   1.144   4.269
  463SOL    HW1 3631   1.445   1.115   4.221
  463SOL    HW2 3632   1.313   1.211   4.213
  464SOL     OW 3633   0.550   0.196   4.609
  464SOL    HW1 3634   0.545   0.191   4.709
  464SOL    HW2 3635   0.552   0.292   4.580
  465SOL     OW 3636   1.008   1.456   4.201
  465SOL    HW1 3637   0.962   1.528   4.149
  465SOL    HW2 3638   1.004   1.476   4.299
  466SOL     OW 3639   0.351   1.801   4.577
  466SOL    HW1 3640   0.401   1.715   4.583
  466SOL    HW2 3641   0.416   1.878   4.574
  467SOL     OW 3642   1.795   1.066   4.597
  467SOL    HW1 3643   1.733   1.051   4.521
  467SOL    HW2 3644   1.743   1.077   4.682
  468SOL     OW 3645   0.321   0.943   3.966
  468SOL    HW1 3646   0.403   0.982   3.924
  468SOL    HW2 3647   0.294   0.861   3.917
  469SOL     OW 3648   1.458   0.735   4.452
  469SOL    HW1 3649   1.453   0.670   4.527
  469SOL    HW2 3650   1.538   0.794   4.465
  470SOL     OW 3651   1.632   1.377   3.805
  470SOL    HW1 3652   1.600   1.471   3.795
  470SOL    HW2 3653   1.556   1.314   3.793
  471SOL     OW 3654   0.464   1.743   4.047
  471SOL    HW1 3655   0.497   1.782   4.133
  471SOL    HW2 3656   0.540   1.736   3.982
  472SOL     OW 3657   0.249   1.785   4.965
  472SOL    HW1 3658   0.306   1.720   5.015
  472SOL    HW2 3659   0.233   1.752   4.872
  473SOL     OW 3660   0.940   1.698   4.628
  473SOL    HW1 3661   1.020   1.641   4.649
  473SOL    HW2 3662   0.891   1.658   4.551
  474SOL     OW 3663   0.382   0.700   4.204
  474SOL    HW1 3664   0.427   0.610   4.201
  474SOL    HW2 3665   0.288   0.689   4.237
  475SOL     OW 3666   0.614   0.122   3.841
  475SOL    HW1 3667   0.712   0.100   3.848
  475SOL    HW2 3668   0.583   0.105   3.748
  476SOL     OW 3669   0.922   0.503   4.623
  476SOL    HW1 3670   0.897   0.494   4.527
  476SOL    HW2 3671   0.970   0.421   4.654
  477SOL     OW 3672   0.539   0.064   4.236
  477SOL    HW1 3673   0.458   0.065   4.294
  477SOL    HW2 3674   0.542   0.147   4.181
  478SOL     OW 3675   1.434   1.188   3.765
  478SOL    HW1 3676   1.466   1.112   3.822
  478SOL    HW2 3677   1.342   1.215   3.795
  479SOL     OW 3678   0.297   0.035   3.895
  479SOL    HW1 3679   0.346   0.119   3.874
  479SOL    HW2 3680   0.359  -0.030   3.940
  480SOL     OW 3681   0.935   0.236   4.204
  480SOL    HW1 3682   0.887   0.277   4.126
  480SOL    HW2 3683   1.034   0.234   4.185
  481SOL     OW 3684   0.459   1.152   4.465
  481SOL    HW1 3685   0.388   1.125   4.530
  481SOL    HW2 3686   0.433   1.124   4.372
  482SOL     OW 3687   1.271   1.797   4.315
  482SOL    HW1 3688   1.315   1.861   4.251
  482SOL    HW2 3689   1.221   1.849   4.385
  483SOL     OW 3690   1.032   0.549   3.740
  483SOL    HW1 3691   0.991   0.631   3.701
  483SOL    HW2 3692   1.096   0.575   3.813
  484SOL     OW 3693   0.866   0.454   4.366
  484SOL    HW1 3694   0.834   0.526   4.304
  484SOL    HW2 3695   0.890   0.373   4.313
  485SOL     OW 3696   1.017   0.039   4.477
  485SOL    HW1 3697   0.945   0.044   4.408
  485SOL    HW2 3698   0.993  -0.030   4.546
  486SOL     OW 3699   1.429   1.173   4.591
  486SOL    HW1 3700   1.374   1.089   4.584
  486SOL    HW2 3701   1.455   1.202   4.499
  487SOL     OW 3702   1.857   0.833   4.101
  487SOL    HW1 3703   1.899   0.769   4.165
  487SOL    HW2 3704   1.819   0.782   4.023
  488SOL     OW 3705   0.488   1.385   3.898
  488SOL    HW1 3706   0.401   1.370   3.945
  488SOL    HW2 3707   0.471   1.411   3.803
  489SOL     OW 3708   1.664   1.280   4.381
  489SOL    HW1 3709   1.763   1.288   4.395
  489SOL    HW2 3710   1.619   1.364   4.412
  490SOL     OW 3711   1.390   0.575   3.802
  490SOL    HW1 3712   1.336   0.554   3.883
  490SOL    HW2 3713   1.481   0.534   3.811
  491SOL     OW 3714   0.527   0.256   4.052
  491SOL    HW1 3715   0.554   0.197   3.977
  491SOL    HW2 3716   0.527   0.351   4.021
  492SOL     OW 3717   1.638   1.099   4.803
  492SOL    HW1 3718   1.643   1.180   4.862
  492SOL    HW2 3719   1.552   1.101   4.752
  493SOL     OW 3720   0.705   1.050   4.092
  493SOL    HW1 3721   0.691   1.057   4.191
  493SOL    HW2 3722   0.789   0.999   4.074
  494SOL     OW 3723   0.410   0.813   4.975
  494SOL    HW1 3724   0.496   0.825   5.025
  494SOL    HW2 3725   0.368   0.726   5.002
  495SOL     OW 3726   0.367   1.100   4.225
  495SOL    HW1 3727   0.360   1.183   4.169
  495SOL    HW2 3728   0.371   1.020   4.165
  496SOL     OW 3729   1.252   1.348   4.112
  496SOL    HW1 3730   1.302   1.425   4.152
  496SOL    HW2 3731   1.157   1.350   4.144
  497SOL     OW 3732   1.582   0.639   4.196
  497SOL    HW1 3733   1.551   0.700   4.269
  497SOL    HW2 3734   1.632   0.691   4.127
  498SOL     OW 3735   0.354   1.510   5.053
  498SOL    HW1 3736   0.333   1.466   4.966
  498SOL    HW2 3737   0.451   1.536   5.056
  499SOL     OW 3738   0.573   0.870   4.753
  499SOL    HW1 3739   0.617   0.959   4.744
  499SOL    HW2 3740   0.510   0.870   4.830
  500SOL     OW 3741   1.360   0.862   4.769
  500SOL    HW1 3742   1.285   0.862   4.703
  500SOL    HW2 3743   1.397   0.770   4.778
  501SOL     OW 3744   1.209   0.525   3.999
  501SOL    HW1 3745   1.222   0.441   4.053
  501SOL    HW2 3746   1.180   0.599   4.059
  502SOL     OW 3747   1.622   0.367   4.098
  502SOL    HW1 3748   1.624   0.291   4.162
  502SOL    HW2 3749   1.574   0.444   4.138
  503SOL     OW 3750   1.023   0.766   4.690
  503SOL    HW1 3751   1.038   0.787   4.786
  503SOL    HW2 3752   0.993   0.671   4.681
  504SOL     OW 3753   1.540   0.274   3.849
  504SOL    HW1 3754   1.479   0.199   3.872
  504SOL    HW2 3755   1.562   0.326   3.932
  505SOL     OW 3756   1.303   0.838   3.766
  505SOL    HW1 3757   1.337   0.745   3.781
  505SOL    HW2 3758   1.321   0.865   3.671
  506SOL     OW 3759   0.319   0.810   4.673
  506SOL    HW1 3760   0.412   0.846   4.678
  506SOL    HW2 3761   0.313   0.725   4.725
  507SOL     OW 3762   1.160   0.207   5.201
  507SOL    HW1 3763   1.160   0.271   5.278
  507SOL    HW2 3764   1.188   0.255   5.118
  508SOL     OW 3765   0.008   1.326   3.924
  508SOL    HW1 3766  -0.085   1.347   3.893
  508SOL    HW2 3767   0.018   1.227   3.937
  509SOL     OW 3768   0.088   1.801   4.651
  509SOL    HW1 3769   0.046   1.715   4.624
  509SOL    HW2 3770   0.182   1.804   4.617
  510SOL     OW 3771   0.504   1.568   4.634
  510SOL    HW1 3772   0.570   1.642   4.643
  510SOL    HW2 3773   0.548   1.489   4.592
  511SOL     OW 3774   0.040   0.544   4.838
  511SOL    HW1 3775   0.125   0.511   4.797
  511SOL    HW2 3776   0.053   0.559   4.936
  512SOL     OW 3777   0.815   0.572   4.049
  512SOL    HW1 3778   0.822   0.483   4.003
  512SOL    HW2 3779   0.721   0.606   4.041
  513SOL     OW 3780   0.473   0.500   3.915
  513SOL    HW1 3781   0.534   0.580   3.919
  513SOL    HW2 3782   0.378   0.531   3.922
  514SOL     OW 3783   1.347   1.059   4.958
  514SOL    HW1 3784   1.371   0.996   4.884
  514SOL    HW2 3785   1.257   1.099   4.940
  515SOL     OW 3786   1.302   0.855   4.033
  515SOL    HW1 3787   1.216   0.824   4.075
  515SOL    HW2 3788   1.298   0.841   3.934
  516SOL     OW 3789   1.759   1.747   4.878
  516SOL    HW1 3790   1.820   1.777   4.805
  516SOL    HW2 3791   1.721   1.658   4.856
  517SOL     OW 3792   1.726   0.135   4.247
  517SOL    HW1 3793   1.799   0.118   4.180
  517SOL    HW2 3794   1.695   0.048   4.285
  518SOL     OW 3795   1.388   1.573   4.201
  518SOL    HW1 3796   1.455   1.585   4.127
  518SOL    HW2 3797   1.348   1.662   4.224
  519SOL     OW 3798   1.280   0.927   4.396
  519SOL    HW1 3799   1.340   0.846   4.398
  519SOL    HW2 3800   1.320   0.996   4.336
  520SOL     OW 3801   1.841   0.175   4.687
  520SOL    HW1 3802   1.880   0.090   4.651
  520SOL    HW2 3803   1.743   0.177   4.668
  521SOL     OW 3804   0.263   0.326   4.444
  521SOL    HW1 3805   0.184   0.377   4.410
  521SOL    HW2 3806   0.254   0.311   4.542
  522SOL     OW 3807   1.194   1.612   3.755
  522SOL    HW1 3808   1.200   1.519   3.792
  522SOL    HW2 3809   1.135   1.612   3.675
  523SOL     OW 3810   0.822   1.002   5.096
  523SOL    HW1 3811   0.862   1.001   5.004
  523SOL    HW2 3812   0.832   1.094   5.136
  524SOL     OW 3813   0.916   0.910   4.015
  524SOL    HW1 3814   0.979   0.948   3.947
  524SOL    HW2 3815   0.956   0.827   4.054
  525SOL     OW 3816   1.504   1.607   3.768
  525SOL    HW1 3817   1.412   1.644   3.775
  525SOL    HW2 3818   1.542   1.627   3.678
  526SOL     OW 3819   1.039   1.098   4.420
  526SOL    HW1 3820   0.969   1.051   4.474
  526SOL    HW2 3821   1.098   1.030   4.377
  527SOL     OW 3822   0.590   1.487   4.215
  527SOL    HW1 3823   0.632   1.429   4.145
  527SOL    HW2 3824   0.546   1.566   4.171
  528SOL     OW 3825   1.709   0.385   5.105
  528SOL    HW1 3826   1.782   0.454   5.109
  528SOL    HW2 3827   1.737   0.310   5.046
  529SOL     OW 3828   0.255   1.348   4.014
  529SOL    HW1 3829   0.159   1.349   3.987
  529SOL    HW2 3830   0.267   1.401   4.098
  530SOL     OW 3831   1.183   1.335   3.843
  530SOL    HW1 3832   1.084   1.324   3.845
  530SOL    HW2 3833   1.217   1.350   3.936
  531SOL     OW 3834   1.493   1.767   4.683
  531SOL    HW1 3835   1.526   1.831   4.614
  531SOL    HW2 3836   1.559   1.761   4.758
  532SOL     OW 3837   1.225   0.325   4.173
  532SOL    HW1 3838   1.290   0.251   4.162
  532SOL    HW2 3839   1.245   0.375   4.257
  533SOL     OW 3840   0.594   0.745   4.376
  533SOL    HW1 3841   0.644   0.830   4.357
  533SOL    HW2 3842   0.506   0.747   4.328
  534SOL     OW 3843   0.859   1.374   3.740
  534SOL    HW1 3844   0.813   1.389   3.828
  534SOL    HW2 3845   0.903   1.459   3.710
  535SOL     OW 3846   0.661   1.790   4.677
  535SOL    HW1 3847   0.615   1.878   4.664
  535SOL    HW2 3848   0.760   1.802   4.670
  536SOL     OW 3849   0.859   0.956   4.585
  536SOL    HW1 3850   0.913   0.887   4.633
  536SOL    HW2 3851   0.827   1.025   4.651
  537SOL     OW 3852   1.083   0.984   3.811
  537SOL    HW1 3853   1.060   1.037   3.729
  537SOL    HW2 3854   1.164   0.928   3.792
  538SOL     OW 3855   1.861   1.569   4.575
  538SOL    HW1 3856   1.790   1.557   4.505
  538SOL    HW2 3857   1.862   1.490   4.635
  539SOL     OW 3858   0.079   1.240   4.377
  539SOL    HW1 3859   0.078   1.193   4.465
  539SOL    HW2 3860   0.161   1.212   4.326
  540SOL     OW 3861   1.824   0.192   4.951
  540SOL    HW1 3862   1.820   0.102   4.995
  540SOL    HW2 3863   1.827   0.181   4.852
  541SOL     OW 3864   0.428   0.424   4.244
  541SOL    HW1 3865   0.458   0.352   4.182
  541SOL    HW2 3866   0.389   0.384   4.327
  542SOL     OW 3867   1.705   1.487   4.828
  542SOL    HW1 3868   1.612   1.462   4.801
  542SOL    HW2 3869   1.731   1.437   4.910
  543SOL     OW 3870   0.770   1.330   4.025
  543SOL    HW1 3871   0.724   1.243   4.042
  543SOL    HW2 3872   0.861   1.327   4.066
  544SOL     OW 3873   1.300   0.453   4.415
  544SOL    HW1 3874   1.241   0.533   4.419
  544SOL    HW2 3875   1.315   0.418   4.508
  545SOL     OW 3876   1.593   0.221   4.606
  545SOL    HW1 3877   1.509   0.220   4.660
  545SOL    HW2 3878   1.595   0.304   4.550
  546SOL     OW 3879   0.039   1.077   4.024
  546SOL    HW1 3880   0.138   1.066   4.015
  546SOL    HW2 3881  -0.001   0.991   4.056
  547SOL     OW 3882   0.019   2.230   0.647
  547SOL    HW1 3883  -0.063   2.273   0.686
  547SOL    HW2 3884  -0.009   2.157   0.584
  548SOL     OW 3885   1.555   3.373   0.703
  548SOL    HW1 3886   1.498   3.357   0.784
  548SOL    HW2 3887   1.496   3.383   0.623
  549SOL     OW 3888   1.135   2.565   0.717
  549SOL    HW1 3889   1.192   2.643   0.692
  549SOL    HW2 3890   1.075   2.591   0.793
  550SOL     OW 3891   1.755   2.469   0.231
  550SOL    HW1 3892   1.743   2.456   0.132
  550SOL    HW2 3893   1.725   2.388   0.280
  551SOL     OW 3894   0.768   3.006   1.023
  551SOL    HW1 3895   0.690   3.023   1.083
  551SOL    HW2 3896   0.802   3.093   0.987
  552SOL     OW 3897   0.850   2.660   1.823
  552SOL    HW1 3898   0.846   2.736   1.888
  552SOL    HW2 3899   0.872   2.696   1.732
  553SOL     OW 3900   0.686   3.023   1.803
  553SOL    HW1 3901   0.746   3.102   1.817
  553SOL    HW2 3902   0.600   3.054   1.762
  554SOL     OW 3903   0.335   3.297   1.061
  554SOL    HW1 3904   0.257   3.266   1.008
  554SOL    HW2 3905   0.393   3.355   1.004
  555SOL     OW 3906   1.460   3.367   1.339
  555SOL    HW1 3907   1.484   3.461   1.365
  555SOL    HW2 3908   1.444   3.313   1.421
  556SOL     OW 3909   0.438   2.254   1.499
  556SOL    HW1 3910   0.520   2.198   1.508
  556SOL    HW2 3911   0.357   2.196   1.503
  557SOL     OW 3912   1.603   2.309   0.737
  557SOL    HW1 3913   1.529   2.355   0.687
  557SOL    HW2 3914   1.654   2.377   0.790
  558SOL     OW 3915   0.231   3.575   0.483
  558SOL    HW1 3916   0.265   3.652   0.537
  558SOL    HW2 3917   0.275   3.575   0.393
  559SOL     OW 3918   1.127   3.203   1.690
  559SOL    HW1 3919   1.174   3.203   1.778
  559SOL    HW2 3920   1.079   3.116   1.679
  560SOL     OW 3921   0.230   3.296   0.538
  560SOL    HW1 3922   0.204   3.392   0.538
  560SOL    HW2 3923   0.159   3.242   0.583
  561SOL     OW 3924   0.240   2.953   0.886
  561SOL    HW1 3925   0.254   2.869   0.938
  561SOL    HW2 3926   0.185   3.017   0.941
  562SOL     OW 3927   0.620   3.648   1.439
  562SOL    HW1 3928   0.528   3.631   1.474
  562SOL    HW2 3929   0.648   3.740   1.465
  563SOL     OW 3930   0.606   2.826   0.123
  563SOL    HW1 3931   0.613   2.910   0.069
  563SOL    HW2 3932   0.652   2.839   0.211
  564SOL     OW 3933   0.122   2.505   0.563
  564SOL    HW1 3934   0.077   2.417   0.580
  564SOL    HW2 3935   0.121   2.559   0.647
  565SOL     OW 3936   1.842   3.629   0.359
  565SOL    HW1 3937   1.896   3.600   0.439
  565SOL    HW2 3938   1.872   3.719   0.330
  566SOL     OW 3939   0.027   3.458   0.117
  566SOL    HW1 3940   0.008   3.362   0.138
  566SOL    HW2 3941  -0.006   3.516   0.192
  567SOL     OW 3942   1.689   2.784   0.612
  567SOL    HW1 3943   1.784   2.755   0.620
  567SOL    HW2 3944   1.681   2.849   0.537
  568SOL     OW 3945   1.641   2.970   0.432
  568SOL    HW1 3946   1.727   2.972   0.380
  568SOL    HW2 3947   1.655   3.017   0.520
  569SOL     OW 3948   0.613   3.227   0.726
  569SOL    HW1 3949   0.564   3.140   0.735
  569SOL    HW2 3950   0.590   3.270   0.639
  570SOL     OW 3951   1.293   3.090   1.423
  570SOL    HW1 3952   1.330   3.017   1.365
  570SOL    HW2 3953   1.345   3.095   1.508
  571SOL     OW 3954   0.197   2.838   1.264
  571SOL    HW1 3955   0.286   2.793   1.250
  571SOL    HW2 3956   0.124   2.773   1.245
  572SOL     OW 3957   1.525   2.861   0.190
  572SOL    HW1 3958   1.462   2.785   0.203
  572SOL    HW2 3959   1.573   2.879   0.276
  573SOL     OW 3960   1.187   3.654   1.616
  573SOL    HW1 3961   1.211   3.714   1.540
  573SOL    HW2 3962   1.194   3.559   1.586
  574SOL     OW 3963   1.466   3.279   0.953
  574SOL    HW1 3964   1.407   3.285   1.033
  574SOL    HW2 3965   1.451   3.191   0.907
  575SOL     OW 3966   1.667   3.576   0.572
  575SOL    HW1 3967   1.626   3.553   0.484
  575SOL    HW2 3968   1.649   3.502   0.637
  576SOL     OW 3969   1.281   2.207   0.944
  576SOL    HW1 3970   1.195   2.157   0.931
  576SOL    HW2 3971   1.343   2.153   1.000
  577SOL     OW 3972   1.576   3.524   0.307
  577SOL    HW1 3973   1.665   3.570   0.310
  577SOL    HW2 3974   1.555   3.500   0.212
  578SOL     OW 3975   0.807   2.467   1.465
  578SOL    HW1 3976   0.760   2.464   1.554
  578SOL    HW2 3977   0.756   2.412   1.399
  579SOL     OW 3978   1.394   2.331   1.674
  579SOL    HW1 3979   1.374   2.374   1.762
  579SOL    HW2 3980   1.472   2.269   1.683
  580SOL     OW 3981   0.973   2.752   1.572
  580SOL    HW1 3982   1.019   2.668   1.543
  580SOL    HW2 3983   0.917   2.786   1.497
  581SOL     OW 3984   0.991   2.272   1.242
  581SOL    HW1 3985   0.914   2.306   1.296
  581SOL    HW2 3986   0.957   2.221   1.163
  582SOL     OW 3987   1.041   2.563   0.429
  582SOL    HW1 3988   1.067   2.559   0.525
  582SOL    HW2 3989   0.956   2.512   0.415
  583SOL     OW 3990   0.865   2.210   0.195
  583SOL    HW1 3991   0.924   2.273   0.146
  583SOL    HW2 3992   0.884   2.116   0.166
  584SOL     OW 3993   1.719   2.447   1.831
  584SOL    HW1 3994   1.693   2.536   1.795
  584SOL    HW2 3995   1.717   2.379   1.758
  585SOL     OW 3996   1.362   3.006   0.545
  585SOL    HW1 3997   1.445   2.977   0.497
  585SOL    HW2 3998   1.313   3.073   0.489
  586SOL     OW 3999   0.550   2.058   0.885
  586SOL    HW1 4000   0.545   2.053   0.985
  586SOL    HW2 4001   0.552   2.154   0.856
  587SOL     OW 4002   1.008   3.318   0.477
  587SOL    HW1 4003   0.962   3.390   0.425
  587SOL    HW2 4004   1.004   3.338   0.575
  588SOL     OW 4005   0.351   3.663   0.853
  588SOL    HW1 4006   0.401   3.577   0.859
  588SOL    HW2 4007   0.416   3.740   0.850
  589SOL     OW 4008   1.795   2.928   0.873
  589SOL    HW1 4009   1.733   2.913   0.797
  589SOL    HW2 4010   1.743   2.939   0.958
  590SOL     OW 4011   1.227   3.412   1.506
  590SOL    HW1 4012   1.233   3.335   1.570
  590SOL    HW2 4013   1.175   3.386   1.426
  591SOL     OW 4014   0.321   2.805   0.242
  591SOL    HW1 4015   0.403   2.844   0.200
  591SOL    HW2 4016   0.294   2.723   0.193
  592SOL     OW 4017   1.458   2.597   0.728
  592SOL    HW1 4018   1.453   2.532   0.803
  592SOL    HW2 4019   1.538   2.656   0.741
  593SOL     OW 4020   0.461   3.128   1.727
  593SOL    HW1 4021   0.411   3.129   1.641
  593SOL    HW2 4022   0.398   3.110   1.803
  594SOL     OW 4023   1.111   3.638   0.237
  594SOL    HW1 4024   1.051   3.576   0.287
  594SOL    HW2 4025   1.142   3.594   0.152
  595SOL     OW 4026   1.632   3.239   0.081
  595SOL    HW1 4027   1.600   3.333   0.071
  595SOL    HW2 4028   1.556   3.176   0.069
  596SOL     OW 4029   0.464   3.605   0.323
  596SOL    HW1 4030   0.497   3.644   0.409
  596SOL    HW2 4031   0.540   3.598   0.258
  597SOL     OW 4032   1.400   1.969   0.426
  597SOL    HW1 4033   1.376   1.932   0.336
  597SOL    HW2 4034   1.499   1.985   0.430
  598SOL     OW 4035   0.249   3.647   1.241
  598SOL    HW1 4036   0.306   3.582   1.291
  598SOL    HW2 4037   0.233   3.614   1.148
  599SOL     OW 4038   0.781   2.126   1.749
  599SOL    HW1 4039   0.848   2.065   1.792
  599SOL    HW2 4040   0.708   2.145   1.814
  600SOL     OW 4041   1.351   2.452   1.433
  600SOL    HW1 4042   1.379   2.409   1.518
  600SOL    HW2 4043   1.376   2.548   1.434
  601SOL     OW 4044   0.922   2.365   0.899
  601SOL    HW1 4045   0.897   2.356   0.803
  601SOL    HW2 4046   0.970   2.283   0.930
  602SOL     OW 4047   0.539   1.926   0.512
  602SOL    HW1 4048   0.458   1.927   0.570
  602SOL    HW2 4049   0.542   2.009   0.457
  603SOL     OW 4050   1.434   3.050   0.041
  603SOL    HW1 4051   1.466   2.974   0.098
  603SOL    HW2 4052   1.342   3.077   0.071
  604SOL     OW 4053   0.297   1.897   0.171
  604SOL    HW1 4054   0.346   1.981   0.150
  604SOL    HW2 4055   0.359   1.832   0.216
  605SOL     OW 4056   1.076   2.545   1.464
  605SOL    HW1 4057   0.996   2.484   1.467
  605SOL    HW2 4058   1.157   2.492   1.440
  606SOL     OW 4059   1.227   3.432   0.793
  606SOL    HW1 4060   1.248   3.506   0.728
  606SOL    HW2 4061   1.295   3.432   0.866
  607SOL     OW 4062   0.459   3.014   0.741
  607SOL    HW1 4063   0.388   2.987   0.806
  607SOL    HW2 4064   0.433   2.986   0.648
  608SOL     OW 4065   0.561   2.084   1.147
  608SOL    HW1 4066   0.599   2.000   1.184
  608SOL    HW2 4067   0.473   2.103   1.191
  609SOL     OW 4068   1.017   1.901   0.753
  609SOL    HW1 4069   0.945   1.906   0.684
  609SOL    HW2 4070   0.993   1.832   0.822
  610SOL     OW 4071   1.429   3.035   0.867
  610SOL    HW1 4072   1.374   2.951   0.860
  610SOL    HW2 4073   1.455   3.064   0.775
  611SOL     OW 4074   1.466   2.452   0.992
  611SOL    HW1 4075   1.436   2.357   0.999
  611SOL    HW2 4076   1.539   2.468   1.058
  612SOL     OW 4077   1.857   2.695   0.377
  612SOL    HW1 4078   1.899   2.631   0.441
  612SOL    HW2 4079   1.819   2.644   0.299
  613SOL     OW 4080   0.488   3.247   0.174
  613SOL    HW1 4081   0.401   3.232   0.221
  613SOL    HW2 4082   0.471   3.273   0.079
  614SOL     OW 4083   1.664   3.142   0.657
  614SOL    HW1 4084   1.763   3.150   0.671
  614SOL    HW2 4085   1.619   3.226   0.688
  615SOL     OW 4086   1.390   2.437   0.078
  615SOL    HW1 4087   1.336   2.416   0.159
  615SOL    HW2 4088   1.481   2.396   0.087
  616SOL     OW 4089   0.527   2.118   0.328
  616SOL    HW1 4090   0.554   2.059   0.253
  616SOL    HW2 4091   0.527   2.213   0.297
  617SOL     OW 4092   1.754   3.085   1.588
  617SOL    HW1 4093   1.845   3.046   1.575
  617SOL    HW2 4094   1.762   3.181   1.612
  618SOL     OW 4095   1.064   3.209   1.340
  618SOL    HW1 4096   0.984   3.186   1.395
  618SOL    HW2 4097   1.147   3.183   1.389
  619SOL     OW 4098   1.592   3.491   1.625
  619SOL    HW1 4099   1.619   3.525   1.535
  619SOL    HW2 4100   1.671   3.453   1.671
  620SOL     OW 4101   1.111   3.057   1.100
  620SOL    HW1 4102   1.071   3.101   1.181
  620SOL    HW2 4103   1.070   3.094   1.017
  621SOL     OW 4104   1.638   2.961   1.079
  621SOL    HW1 4105   1.643   3.042   1.138
  621SOL    HW2 4106   1.552   2.963   1.028
  622SOL     OW 4107   0.915   1.951   1.402
  622SOL    HW1 4108   0.940   1.931   1.307
  622SOL    HW2 4109   0.987   2.007   1.444
  623SOL     OW 4110   0.980   2.978   1.719
  623SOL    HW1 4111   0.881   2.984   1.729
  623SOL    HW2 4112   1.003   2.898   1.663
  624SOL     OW 4113   0.064   3.426   1.331
  624SOL    HW1 4114   0.018   3.508   1.297
  624SOL    HW2 4115   0.162   3.445   1.340
  625SOL     OW 4116   0.367   2.962   0.501
  625SOL    HW1 4117   0.360   3.045   0.445
  625SOL    HW2 4118   0.371   2.882   0.441
  626SOL     OW 4119   1.252   3.210   0.388
  626SOL    HW1 4120   1.302   3.287   0.428
  626SOL    HW2 4121   1.157   3.212   0.420
  627SOL     OW 4122   1.272   3.307   1.142
  627SOL    HW1 4123   1.319   3.320   1.229
  627SOL    HW2 4124   1.206   3.233   1.151
  628SOL     OW 4125   1.582   2.501   0.472
  628SOL    HW1 4126   1.551   2.562   0.545
  628SOL    HW2 4127   1.632   2.553   0.403
  629SOL     OW 4128   0.354   3.372   1.329
  629SOL    HW1 4129   0.333   3.328   1.242
  629SOL    HW2 4130   0.451   3.398   1.332
  630SOL     OW 4131   1.587   2.641   1.670
  630SOL    HW1 4132   1.495   2.679   1.665
  630SOL    HW2 4133   1.647   2.688   1.605
  631SOL     OW 4134   1.013   1.967   1.770
  631SOL    HW1 4135   1.019   2.052   1.718
  631SOL    HW2 4136   1.045   1.891   1.713
  632SOL     OW 4137   0.573   2.732   1.029
  632SOL    HW1 4138   0.617   2.821   1.020
  632SOL    HW2 4139   0.510   2.732   1.106
  633SOL     OW 4140   1.360   2.724   1.045
  633SOL    HW1 4141   1.285   2.724   0.979
  633SOL    HW2 4142   1.397   2.632   1.054
  634SOL     OW 4143   1.209   2.387   0.275
  634SOL    HW1 4144   1.222   2.303   0.329
  634SOL    HW2 4145   1.180   2.461   0.335
  635SOL     OW 4146   0.307   2.075   1.231
  635SOL    HW1 4147   0.284   2.112   1.321
  635SOL    HW2 4148   0.277   1.980   1.225
  636SOL     OW 4149   0.037   3.172   1.282
  636SOL    HW1 4150   0.090   3.123   1.350
  636SOL    HW2 4151   0.059   3.270   1.287
  637SOL     OW 4152   1.728   2.797   1.854
  637SOL    HW1 4153   1.682   2.790   1.765
  637SOL    HW2 4154   1.666   2.841   1.920
  638SOL     OW 4155   0.307   1.925   0.618
  638SOL    HW1 4156   0.296   2.019   0.651
  638SOL    HW2 4157   0.302   1.862   0.695
  639SOL     OW 4158   1.622   2.229   0.374
  639SOL    HW1 4159   1.624   2.153   0.438
  639SOL    HW2 4160   1.574   2.306   0.414
  640SOL     OW 4161   1.023   2.628   0.966
  640SOL    HW1 4162   1.038   2.649   1.062
  640SOL    HW2 4163   0.993   2.533   0.957
  641SOL     OW 4164   0.980   3.435   1.700
  641SOL    HW1 4165   0.960   3.479   1.612
  641SOL    HW2 4166   1.019   3.344   1.684
  642SOL     OW 4167   0.350   2.760   1.804
  642SOL    HW1 4168   0.426   2.804   1.852
  642SOL    HW2 4169   0.385   2.713   1.722
  643SOL     OW 4170   1.303   2.700   0.042
  643SOL    HW1 4171   1.337   2.607   0.057
  643SOL    HW2 4172   1.321   2.727  -0.053
  644SOL     OW 4173   1.138   2.242   1.678
  644SOL    HW1 4174   1.093   2.305   1.742
  644SOL    HW2 4175   1.231   2.273   1.661
  645SOL     OW 4176   1.160   2.069   1.477
  645SOL    HW1 4177   1.160   2.133   1.554
  645SOL    HW2 4178   1.188   2.117   1.394
  646SOL     OW 4179   0.008   3.188   0.200
  646SOL    HW1 4180  -0.085   3.209   0.169
  646SOL    HW2 4181   0.018   3.089   0.213
  647SOL     OW 4182   0.088   3.663   0.927
  647SOL    HW1 4183   0.046   3.577   0.900
  647SOL    HW2 4184   0.182   3.666   0.893
  648SOL     OW 4185   1.002   2.658   1.238
  648SOL    HW1 4186   1.043   2.626   1.324
  648SOL    HW2 4187   0.906   2.631   1.235
  649SOL     OW 4188   1.369   2.812   1.660
  649SOL    HW1 4189   1.408   2.901   1.680
  649SOL    HW2 4190   1.379   2.792   1.563
  650SOL     OW 4191   0.815   2.434   0.325
  650SOL    HW1 4192   0.822   2.345   0.279
  650SOL    HW2 4193   0.721   2.468   0.317
  651SOL     OW 4194   1.657   2.466   1.206
  651SOL    HW1 4195   1.619   2.397   1.268
  651SOL    HW2 4196   1.739   2.430   1.162
  652SOL     OW 4197   0.252   3.426   1.744
  652SOL    HW1 4198   0.222   3.483   1.820
  652SOL    HW2 4199   0.245   3.329   1.770
  653SOL     OW 4200   0.930   3.540   1.465
  653SOL    HW1 4201   0.906   3.522   1.370
  653SOL    HW2 4202   0.960   3.634   1.475
  654SOL     OW 4203   0.159   2.999   1.466
  654SOL    HW1 4204   0.181   2.938   1.542
  654SOL    HW2 4205   0.169   2.950   1.380
  655SOL     OW 4206   1.347   2.921   1.234
  655SOL    HW1 4207   1.371   2.858   1.160
  655SOL    HW2 4208   1.257   2.961   1.216
  656SOL     OW 4209   1.302   2.717   0.309
  656SOL    HW1 4210   1.216   2.686   0.351
  656SOL    HW2 4211   1.298   2.703   0.210
  657SOL     OW 4212   1.759   3.609   1.154
  657SOL    HW1 4213   1.820   3.639   1.081
  657SOL    HW2 4214   1.721   3.520   1.132
  658SOL     OW 4215   0.083   3.120   1.022
  658SOL    HW1 4216   0.078   3.119   1.122
  658SOL    HW2 4217   0.000   3.079   0.984
  659SOL     OW 4218   0.688   3.524   1.716
  659SOL    HW1 4219   0.632   3.605   1.725
  659SOL    HW2 4220   0.740   3.528   1.630
  660SOL     OW 4221   0.903   1.948   0.133
  660SOL    HW1 4222   0.954   1.949   0.047
  660SOL    HW2 4223   0.959   1.906   0.204
  661SOL     OW 4224   1.726   1.997   0.523
  661SOL    HW1 4225   1.799   1.980   0.456
  661SOL    HW2 4226   1.695   1.910   0.561
  662SOL     OW 4227   1.388   3.435   0.477
  662SOL    HW1 4228   1.455   3.447   0.403
  662SOL    HW2 4229   1.348   3.524   0.500
  663SOL     OW 4230   1.280   2.789   0.672
  663SOL    HW1 4231   1.340   2.708   0.674
  663SOL    HW2 4232   1.320   2.858   0.612
  664SOL     OW 4233   0.830   3.135   1.422
  664SOL    HW1 4234   0.825   3.168   1.517
  664SOL    HW2 4235   0.744   3.154   1.376
  665SOL     OW 4236   0.672   3.478   0.154
  665SOL    HW1 4237   0.681   3.488   0.055
  665SOL    HW2 4238   0.632   3.389   0.175
  666SOL     OW 4239   1.650   3.582   1.394
  666SOL    HW1 4240   1.703   3.592   1.310
  666SOL    HW2 4241   1.623   3.672   1.428
  667SOL     OW 4242   1.194   3.474   0.031
  667SOL    HW1 4243   1.200   3.381   0.068
  667SOL    HW2 4244   1.135   3.474  -0.049
  668SOL     OW 4245   0.822   2.864   1.372
  668SOL    HW1 4246   0.862   2.863   1.280
  668SOL    HW2 4247   0.832   2.956   1.412
  669SOL     OW 4248   1.504   3.469   0.044
  669SOL    HW1 4249   1.412   3.506   0.051
  669SOL    HW2 4250   1.542   3.489  -0.046
  670SOL     OW 4251   0.372   3.150   1.490
  670SOL    HW1 4252   0.359   3.243   1.456
  670SOL    HW2 4253   0.288   3.098   1.477
  671SOL     OW 4254   1.614   3.154   1.289
  671SOL    HW1 4255   1.674   3.157   1.369
  671SOL    HW2 4256   1.539   3.218   1.302
  672SOL     OW 4257   1.039   2.960   0.696
  672SOL    HW1 4258   0.969   2.913   0.750
  672SOL    HW2 4259   1.098   2.892   0.653
  673SOL     OW 4260   1.014   2.098   0.971
  673SOL    HW1 4261   1.006   2.062   0.878
  673SOL    HW2 4262   1.012   2.022   1.036
  674SOL     OW 4263   0.590   3.349   0.491
  674SOL    HW1 4264   0.632   3.291   0.421
  674SOL    HW2 4265   0.546   3.428   0.447
  675SOL     OW 4266   0.255   3.210   0.290
  675SOL    HW1 4267   0.159   3.211   0.263
  675SOL    HW2 4268   0.267   3.263   0.374
  676SOL     OW 4269   0.105   2.875   1.726
  676SOL    HW1 4270   0.028   2.842   1.780
  676SOL    HW2 4271   0.190   2.845   1.768
  677SOL     OW 4272   0.672   2.065   1.489
  677SOL    HW1 4273   0.762   2.049   1.449
  677SOL    HW2 4274   0.680   2.070   1.588
  678SOL     OW 4275   0.075   2.207   0.033
  678SOL    HW1 4276  -0.017   2.179   0.004
  678SOL    HW2 4277   0.106   2.284  -0.023
  679SOL     OW 4278   1.440   2.718   1.398
  679SOL    HW1 4279   1.383   2.770   1.335
  679SOL    HW2 4280   1.536   2.730   1.374
  680SOL     OW 4281   0.072   2.028   0.318
  680SOL    HW1 4282   0.055   2.111   0.264
  680SOL    HW2 4283   0.162   1.991   0.296
  681SOL     OW 4284   1.183   3.197   0.119
  681SOL    HW1 4285   1.084   3.186   0.121
  681SOL    HW2 4286   1.217   3.212   0.212
  682SOL     OW 4287   0.613   2.704   1.431
  682SOL    HW1 4288   0.669   2.785   1.414
  682SOL    HW2 4289   0.672   2.624   1.434
  683SOL     OW 4290   1.493   3.629   0.959
  683SOL    HW1 4291   1.526   3.693   0.890
  683SOL    HW2 4292   1.559   3.623   1.034
  684SOL     OW 4293   0.716   2.427   1.708
  684SOL    HW1 4294   0.735   2.492   1.782
  684SOL    HW2 4295   0.776   2.347   1.717
  685SOL     OW 4296   1.450   3.082   1.633
  685SOL    HW1 4297   1.441   3.072   1.732
  685SOL    HW2 4298   1.546   3.075   1.607
  686SOL     OW 4299   0.390   3.603   1.560
  686SOL    HW1 4300   0.299   3.644   1.558
  686SOL    HW2 4301   0.383   3.509   1.592
  687SOL     OW 4302   1.674   2.745   1.254
  687SOL    HW1 4303   1.647   2.656   1.217
  687SOL    HW2 4304   1.675   2.813   1.181
  688SOL     OW 4305   1.225   2.187   0.449
  688SOL    HW1 4306   1.290   2.113   0.438
  688SOL    HW2 4307   1.245   2.237   0.533
  689SOL     OW 4308   1.777   2.204   1.642
  689SOL    HW1 4309   1.760   2.235   1.548
  689SOL    HW2 4310   1.693   2.167   1.680
  690SOL     OW 4311   1.730   2.796   1.517
  690SOL    HW1 4312   1.768   2.887   1.532
  690SOL    HW2 4313   1.722   2.779   1.418
  691SOL     OW 4314   0.859   3.236   0.016
  691SOL    HW1 4315   0.813   3.251   0.104
  691SOL    HW2 4316   0.903   3.321  -0.014
  692SOL     OW 4317   0.859   2.818   0.861
  692SOL    HW1 4318   0.913   2.749   0.909
  692SOL    HW2 4319   0.827   2.887   0.927
  693SOL     OW 4320   1.083   2.846   0.087
  693SOL    HW1 4321   1.060   2.899   0.005
  693SOL    HW2 4322   1.164   2.790   0.068
  694SOL     OW 4323   1.861   3.431   0.851
  694SOL    HW1 4324   1.790   3.419   0.781
  694SOL    HW2 4325   1.862   3.352   0.911
  695SOL     OW 4326   0.221   3.176   1.844
  695SOL    HW1 4327   0.156   3.103   1.823
  695SOL    HW2 4328   0.225   3.190   1.942
  696SOL     OW 4329   0.079   3.102   0.653
  696SOL    HW1 4330   0.078   3.055   0.741
  696SOL    HW2 4331   0.161   3.074   0.602
  697SOL     OW 4332   0.672   3.253   1.624
  697SOL    HW1 4333   0.594   3.203   1.662
  697SOL    HW2 4334   0.669   3.348   1.655
  698SOL     OW 4335   1.705   3.349   1.104
  698SOL    HW1 4336   1.612   3.324   1.077
  698SOL    HW2 4337   1.731   3.299   1.186
  699SOL     OW 4338   0.812   3.448   0.687
  699SOL    HW1 4339   0.844   3.458   0.593
  699SOL    HW2 4340   0.733   3.386   0.689
  700SOL     OW 4341   1.001   1.896   1.154
  700SOL    HW1 4342   0.938   1.824   1.123
  700SOL    HW2 4343   1.094   1.860   1.154
  701SOL     OW 4344   0.770   3.192   0.301
  701SOL    HW1 4345   0.724   3.105   0.318
  701SOL    HW2 4346   0.861   3.189   0.342
  702SOL     OW 4347   1.300   2.315   0.691
  702SOL    HW1 4348   1.241   2.395   0.695
  702SOL    HW2 4349   1.315   2.280   0.784
  703SOL     OW 4350   0.039   2.939   0.300
  703SOL    HW1 4351   0.138   2.928   0.291
  703SOL    HW2 4352  -0.001   2.853   0.332
  704SOL     OW 4353   0.875   3.508   0.337
  704SOL    HW1 4354   0.798   3.473   0.283
  704SOL    HW2 4355   0.843   3.579   0.399
  705SOL     OW 4356   0.230   2.490   1.975
  705SOL    HW1 4357   0.137   2.488   2.012
  705SOL    HW2 4358   0.231   2.451   1.883
  706SOL     OW 4359   0.225   2.137   2.858
  706SOL    HW1 4360   0.260   2.120   2.950
  706SOL    HW2 4361   0.137   2.092   2.846
  707SOL     OW 4362   0.019   2.230   2.509
  707SOL    HW1 4363  -0.063   2.273   2.548
  707SOL    HW2 4364  -0.009   2.157   2.446
  708SOL     OW 4365   0.569   3.137   3.027
  708SOL    HW1 4366   0.476   3.130   2.990
  708SOL    HW2 4367   0.580   3.226   3.071
  709SOL     OW 4368   1.135   2.565   2.579
  709SOL    HW1 4369   1.192   2.643   2.554
  709SOL    HW2 4370   1.075   2.591   2.655
  710SOL     OW 4371   1.755   2.469   2.093
  710SOL    HW1 4372   1.743   2.456   1.994
  710SOL    HW2 4373   1.725   2.388   2.142
  711SOL     OW 4374   0.768   3.006   2.885
  711SOL    HW1 4375   0.690   3.023   2.945
  711SOL    HW2 4376   0.802   3.093   2.849
  712SOL     OW 4377   0.685   2.874   2.527
  712SOL    HW1 4378   0.754   2.858   2.597
  712SOL    HW2 4379   0.612   2.931   2.565
  713SOL     OW 4380   0.335   3.297   2.923
  713SOL    HW1 4381   0.257   3.266   2.870
  713SOL    HW2 4382   0.393   3.355   2.866
  714SOL     OW 4383   1.460   3.367   3.201
  714SOL    HW1 4384   1.484   3.461   3.227
  714SOL    HW2 4385   1.444   3.313   3.283
  715SOL     OW 4386   0.438   2.254   3.361
  715SOL    HW1 4387   0.520   2.198   3.370
  715SOL    HW2 4388   0.357   2.196   3.365
  716SOL     OW 4389   1.603   2.309   2.599
  716SOL    HW1 4390   1.529   2.355   2.549
  716SOL    HW2 4391   1.654   2.377   2.652
  717SOL     OW 4392   1.127   3.203   3.552
  717SOL    HW1 4393   1.174   3.203   3.640
  717SOL    HW2 4394   1.079   3.116   3.541
  718SOL     OW 4395   0.240   2.953   2.748
  718SOL    HW1 4396   0.254   2.869   2.800
  718SOL    HW2 4397   0.185   3.017   2.803
  719SOL     OW 4398   0.620   3.648   3.301
  719SOL    HW1 4399   0.528   3.631   3.336
  719SOL    HW2 4400   0.648   3.740   3.327
  720SOL     OW 4401   0.606   2.826   1.985
  720SOL    HW1 4402   0.613   2.910   1.931
  720SOL    HW2 4403   0.652   2.839   2.073
  721SOL     OW 4404   1.594   1.976   3.342
  721SOL    HW1 4405   1.576   2.043   3.270
  721SOL    HW2 4406   1.591   2.022   3.431
  722SOL     OW 4407   0.122   2.505   2.425
  722SOL    HW1 4408   0.077   2.417   2.442
  722SOL    HW2 4409   0.121   2.559   2.509
  723SOL     OW 4410   1.689   2.784   2.474
  723SOL    HW1 4411   1.784   2.755   2.482
  723SOL    HW2 4412   1.681   2.849   2.399
  724SOL     OW 4413   1.641   2.970   2.294
  724SOL    HW1 4414   1.727   2.972   2.242
  724SOL    HW2 4415   1.655   3.017   2.382
  725SOL     OW 4416   0.113   2.599   3.459
  725SOL    HW1 4417   0.201   2.586   3.504
  725SOL    HW2 4418   0.100   2.696   3.437
  726SOL     OW 4419   0.613   3.227   2.588
  726SOL    HW1 4420   0.564   3.140   2.597
  726SOL    HW2 4421   0.590   3.270   2.501
  727SOL     OW 4422   1.293   3.090   3.285
  727SOL    HW1 4423   1.330   3.017   3.227
  727SOL    HW2 4424   1.345   3.095   3.370
  728SOL     OW 4425   0.809   1.866   2.364
  728SOL    HW1 4426   0.849   1.957   2.355
  728SOL    HW2 4427   0.709   1.874   2.370
  729SOL     OW 4428   0.197   2.838   3.126
  729SOL    HW1 4429   0.286   2.793   3.112
  729SOL    HW2 4430   0.124   2.773   3.107
  730SOL     OW 4431   1.525   2.861   2.052
  730SOL    HW1 4432   1.462   2.785   2.065
  730SOL    HW2 4433   1.573   2.879   2.138
  731SOL     OW 4434   0.317   2.113   3.663
  731SOL    HW1 4435   0.388   2.184   3.669
  731SOL    HW2 4436   0.229   2.152   3.691
  732SOL     OW 4437   1.466   3.279   2.815
  732SOL    HW1 4438   1.407   3.285   2.895
  732SOL    HW2 4439   1.451   3.191   2.769
  733SOL     OW 4440   0.598   2.591   2.132
  733SOL    HW1 4441   0.622   2.660   2.064
  733SOL    HW2 4442   0.520   2.624   2.186
  734SOL     OW 4443   1.281   2.207   2.806
  734SOL    HW1 4444   1.195   2.157   2.793
  734SOL    HW2 4445   1.343   2.153   2.862
  735SOL     OW 4446   1.576   3.524   2.169
  735SOL    HW1 4447   1.665   3.570   2.172
  735SOL    HW2 4448   1.555   3.500   2.074
  736SOL     OW 4449   0.973   2.752   3.434
  736SOL    HW1 4450   1.019   2.668   3.405
  736SOL    HW2 4451   0.917   2.786   3.359
  737SOL     OW 4452   0.991   2.272   3.104
  737SOL    HW1 4453   0.914   2.306   3.158
  737SOL    HW2 4454   0.957   2.221   3.025
  738SOL     OW 4455   1.041   2.563   2.291
  738SOL    HW1 4456   1.067   2.559   2.387
  738SOL    HW2 4457   0.956   2.512   2.277
  739SOL     OW 4458   0.076   2.673   2.651
  739SOL    HW1 4459   0.175   2.661   2.660
  739SOL    HW2 4460   0.052   2.768   2.672
  740SOL     OW 4461   0.130   3.683   3.433
  740SOL    HW1 4462   0.120   3.668   3.532
  740SOL    HW2 4463   0.044   3.719   3.397
  741SOL     OW 4464   1.719   2.447   3.693
  741SOL    HW1 4465   1.693   2.536   3.657
  741SOL    HW2 4466   1.717   2.379   3.620
  742SOL     OW 4467   1.362   3.006   2.407
  742SOL    HW1 4468   1.445   2.977   2.359
  742SOL    HW2 4469   1.313   3.073   2.351
  743SOL     OW 4470   0.550   2.058   2.747
  743SOL    HW1 4471   0.545   2.053   2.847
  743SOL    HW2 4472   0.552   2.154   2.718
  744SOL     OW 4473   1.008   3.318   2.339
  744SOL    HW1 4474   0.962   3.390   2.287
  744SOL    HW2 4475   1.004   3.338   2.437
  745SOL     OW 4476   0.351   3.663   2.715
  745SOL    HW1 4477   0.401   3.577   2.721
  745SOL    HW2 4478   0.416   3.740   2.712
  746SOL     OW 4479   1.227   3.412   3.368
  746SOL    HW1 4480   1.233   3.335   3.432
  746SOL    HW2 4481   1.175   3.386   3.288
  747SOL     OW 4482   0.321   2.805   2.104
  747SOL    HW1 4483   0.403   2.844   2.062
  747SOL    HW2 4484   0.294   2.723   2.055
  748SOL     OW 4485   1.458   2.597   2.590
  748SOL    HW1 4486   1.453   2.532   2.665
  748SOL    HW2 4487   1.538   2.656   2.603
  749SOL     OW 4488   1.111   3.638   2.099
  749SOL    HW1 4489   1.051   3.576   2.149
  749SOL    HW2 4490   1.142   3.594   2.014
  750SOL     OW 4491   0.202   2.147   3.360
  750SOL    HW1 4492   0.122   2.207   3.347
  750SOL    HW2 4493   0.192   2.098   3.446
  751SOL     OW 4494   1.632   3.239   1.943
  751SOL    HW1 4495   1.600   3.333   1.933
  751SOL    HW2 4496   1.556   3.176   1.931
  752SOL     OW 4497   0.464   3.605   2.185
  752SOL    HW1 4498   0.497   3.644   2.271
  752SOL    HW2 4499   0.540   3.598   2.120
  753SOL     OW 4500   1.400   1.969   2.288
  753SOL    HW1 4501   1.376   1.932   2.198
  753SOL    HW2 4502   1.499   1.985   2.292
  754SOL     OW 4503   0.249   3.647   3.103
  754SOL    HW1 4504   0.306   3.582   3.153
  754SOL    HW2 4505   0.233   3.614   3.010
  755SOL     OW 4506   0.940   3.560   2.766
  755SOL    HW1 4507   1.020   3.503   2.787
  755SOL    HW2 4508   0.891   3.520   2.689
  756SOL     OW 4509   0.382   2.562   2.342
  756SOL    HW1 4510   0.427   2.472   2.339
  756SOL    HW2 4511   0.288   2.551   2.375
  757SOL     OW 4512   1.547   2.084   3.591
  757SOL    HW1 4513   1.542   2.121   3.683
  757SOL    HW2 4514   1.475   2.015   3.579
  758SOL     OW 4515   0.888   3.376   3.057
  758SOL    HW1 4516   0.865   3.351   2.963
  758SOL    HW2 4517   0.949   3.307   3.096
  759SOL     OW 4518   0.803   3.264   2.786
  759SOL    HW1 4519   0.893   3.278   2.744
  759SOL    HW2 4520   0.732   3.266   2.715
  760SOL     OW 4521   0.922   2.365   2.761
  760SOL    HW1 4522   0.897   2.356   2.665
  760SOL    HW2 4523   0.970   2.283   2.792
  761SOL     OW 4524   1.434   3.050   1.903
  761SOL    HW1 4525   1.466   2.974   1.960
  761SOL    HW2 4526   1.342   3.077   1.933
  762SOL     OW 4527   0.935   2.098   2.342
  762SOL    HW1 4528   0.887   2.139   2.264
  762SOL    HW2 4529   1.034   2.096   2.323
  763SOL     OW 4530   1.227   3.432   2.655
  763SOL    HW1 4531   1.248   3.506   2.590
  763SOL    HW2 4532   1.295   3.432   2.728
  764SOL     OW 4533   0.459   3.014   2.603
  764SOL    HW1 4534   0.388   2.987   2.668
  764SOL    HW2 4535   0.433   2.986   2.510
  765SOL     OW 4536   1.271   3.659   2.453
  765SOL    HW1 4537   1.315   3.723   2.389
  765SOL    HW2 4538   1.221   3.711   2.523
  766SOL     OW 4539   1.032   2.411   1.878
  766SOL    HW1 4540   0.991   2.493   1.839
  766SOL    HW2 4541   1.096   2.437   1.951
  767SOL     OW 4542   0.078   2.418   3.248
  767SOL    HW1 4543   0.170   2.417   3.207
  767SOL    HW2 4544   0.072   2.492   3.315
  768SOL     OW 4545   0.561   2.084   3.009
  768SOL    HW1 4546   0.599   2.000   3.046
  768SOL    HW2 4547   0.473   2.103   3.053
  769SOL     OW 4548   0.866   2.316   2.504
  769SOL    HW1 4549   0.834   2.388   2.442
  769SOL    HW2 4550   0.890   2.235   2.451
  770SOL     OW 4551   1.017   1.901   2.615
  770SOL    HW1 4552   0.945   1.906   2.546
  770SOL    HW2 4553   0.993   1.832   2.684
  771SOL     OW 4554   1.429   3.035   2.729
  771SOL    HW1 4555   1.374   2.951   2.722
  771SOL    HW2 4556   1.455   3.064   2.637
  772SOL     OW 4557   1.466   2.452   2.854
  772SOL    HW1 4558   1.436   2.357   2.861
  772SOL    HW2 4559   1.539   2.468   2.920
  773SOL     OW 4560   1.857   2.695   2.239
  773SOL    HW1 4561   1.899   2.631   2.303
  773SOL    HW2 4562   1.819   2.644   2.161
  774SOL     OW 4563   0.488   3.247   2.036
  774SOL    HW1 4564   0.401   3.232   2.083
  774SOL    HW2 4565   0.471   3.273   1.941
  775SOL     OW 4566   1.390   2.437   1.940
  775SOL    HW1 4567   1.336   2.416   2.021
  775SOL    HW2 4568   1.481   2.396   1.949
  776SOL     OW 4569   1.754   3.085   3.450
  776SOL    HW1 4570   1.845   3.046   3.437
  776SOL    HW2 4571   1.762   3.181   3.474
  777SOL     OW 4572   1.064   3.209   3.202
  777SOL    HW1 4573   0.984   3.186   3.257
  777SOL    HW2 4574   1.147   3.183   3.251
  778SOL     OW 4575   1.592   3.491   3.487
  778SOL    HW1 4576   1.619   3.525   3.397
  778SOL    HW2 4577   1.671   3.453   3.533
  779SOL     OW 4578   1.111   3.057   2.962
  779SOL    HW1 4579   1.071   3.101   3.043
  779SOL    HW2 4580   1.070   3.094   2.879
  780SOL     OW 4581   1.638   2.961   2.941
  780SOL    HW1 4582   1.643   3.042   3.000
  780SOL    HW2 4583   1.552   2.963   2.890
  781SOL     OW 4584   0.980   2.978   3.581
  781SOL    HW1 4585   0.881   2.984   3.591
  781SOL    HW2 4586   1.003   2.898   3.525
  782SOL     OW 4587   0.705   2.912   2.230
  782SOL    HW1 4588   0.691   2.919   2.329
  782SOL    HW2 4589   0.789   2.861   2.212
  783SOL     OW 4590   0.410   2.675   3.113
  783SOL    HW1 4591   0.496   2.687   3.163
  783SOL    HW2 4592   0.368   2.588   3.140
  784SOL     OW 4593   0.064   3.426   3.193
  784SOL    HW1 4594   0.018   3.508   3.159
  784SOL    HW2 4595   0.162   3.445   3.202
  785SOL     OW 4596   0.367   2.962   2.363
  785SOL    HW1 4597   0.360   3.045   2.307
  785SOL    HW2 4598   0.371   2.882   2.303
  786SOL     OW 4599   0.566   2.399   2.727
  786SOL    HW1 4600   0.578   2.465   2.653
  786SOL    HW2 4601   0.612   2.433   2.810
  787SOL     OW 4602   1.272   3.307   3.004
  787SOL    HW1 4603   1.319   3.320   3.091
  787SOL    HW2 4604   1.206   3.233   3.013
  788SOL     OW 4605   1.582   2.501   2.334
  788SOL    HW1 4606   1.551   2.562   2.407
  788SOL    HW2 4607   1.632   2.553   2.265
  789SOL     OW 4608   0.354   3.372   3.191
  789SOL    HW1 4609   0.333   3.328   3.104
  789SOL    HW2 4610   0.451   3.398   3.194
  790SOL     OW 4611   0.402   2.613   3.460
  790SOL    HW1 4612   0.470   2.668   3.413
  790SOL    HW2 4613   0.442   2.525   3.487
  791SOL     OW 4614   1.587   2.641   3.532
  791SOL    HW1 4615   1.495   2.679   3.527
  791SOL    HW2 4616   1.647   2.688   3.467
  792SOL     OW 4617   1.013   1.967   3.632
  792SOL    HW1 4618   1.019   2.052   3.580
  792SOL    HW2 4619   1.045   1.891   3.575
  793SOL     OW 4620   0.504   1.912   3.602
  793SOL    HW1 4621   0.462   1.855   3.532
  793SOL    HW2 4622   0.438   1.981   3.634
  794SOL     OW 4623   0.573   2.732   2.891
  794SOL    HW1 4624   0.617   2.821   2.882
  794SOL    HW2 4625   0.510   2.732   2.968
  795SOL     OW 4626   1.360   2.724   2.907
  795SOL    HW1 4627   1.285   2.724   2.841
  795SOL    HW2 4628   1.397   2.632   2.916
  796SOL     OW 4629   1.209   2.387   2.137
  796SOL    HW1 4630   1.222   2.303   2.191
  796SOL    HW2 4631   1.180   2.461   2.197
  797SOL     OW 4632   0.307   2.075   3.093
  797SOL    HW1 4633   0.284   2.112   3.183
  797SOL    HW2 4634   0.277   1.980   3.087
  798SOL     OW 4635   0.037   3.172   3.144
  798SOL    HW1 4636   0.090   3.123   3.212
  798SOL    HW2 4637   0.059   3.270   3.149
  799SOL     OW 4638   0.732   2.496   2.926
  799SOL    HW1 4639   0.791   2.470   2.850
  799SOL    HW2 4640   0.704   2.592   2.915
  800SOL     OW 4641   1.728   2.797   3.716
  800SOL    HW1 4642   1.682   2.790   3.627
  800SOL    HW2 4643   1.666   2.841   3.782
  801SOL     OW 4644   1.622   2.229   2.236
  801SOL    HW1 4645   1.624   2.153   2.300
  801SOL    HW2 4646   1.574   2.306   2.276
  802SOL     OW 4647   1.023   2.628   2.828
  802SOL    HW1 4648   1.038   2.649   2.924
  802SOL    HW2 4649   0.993   2.533   2.819
  803SOL     OW 4650   0.980   3.435   3.562
  803SOL    HW1 4651   0.960   3.479   3.474
  803SOL    HW2 4652   1.019   3.344   3.546
  804SOL     OW 4653   1.859   3.380   3.467
  804SOL    HW1 4654   1.873   3.407   3.372
  804SOL    HW2 4655   1.942   3.402   3.520
  805SOL     OW 4656   1.540   2.136   1.987
  805SOL    HW1 4657   1.479   2.061   2.010
  805SOL    HW2 4658   1.562   2.188   2.070
  806SOL     OW 4659   1.303   2.700   1.904
  806SOL    HW1 4660   1.337   2.607   1.919
  806SOL    HW2 4661   1.321   2.727   1.809
  807SOL     OW 4662   1.068   3.195   2.711
  807SOL    HW1 4663   1.075   3.111   2.656
  807SOL    HW2 4664   1.130   3.264   2.675
  808SOL     OW 4665   0.319   2.672   2.811
  808SOL    HW1 4666   0.412   2.708   2.816
  808SOL    HW2 4667   0.313   2.587   2.863
  809SOL     OW 4668   0.339   2.371   2.868
  809SOL    HW1 4669   0.287   2.288   2.851
  809SOL    HW2 4670   0.416   2.376   2.804
  810SOL     OW 4671   0.008   3.188   2.062
  810SOL    HW1 4672  -0.085   3.209   2.031
  810SOL    HW2 4673   0.018   3.089   2.075
  811SOL     OW 4674   0.088   3.663   2.789
  811SOL    HW1 4675   0.046   3.577   2.762
  811SOL    HW2 4676   0.182   3.666   2.755
  812SOL     OW 4677   0.504   3.430   2.772
  812SOL    HW1 4678   0.570   3.504   2.781
  812SOL    HW2 4679   0.548   3.351   2.730
  813SOL     OW 4680   1.002   2.658   3.100
  813SOL    HW1 4681   1.043   2.626   3.186
  813SOL    HW2 4682   0.906   2.631   3.097
  814SOL     OW 4683   0.040   2.406   2.976
  814SOL    HW1 4684   0.125   2.373   2.935
  814SOL    HW2 4685   0.053   2.421   3.074
  815SOL     OW 4686   0.189   2.382   3.584
  815SOL    HW1 4687   0.248   2.342   3.514
  815SOL    HW2 4688   0.131   2.453   3.543
  816SOL     OW 4689   0.815   2.434   2.187
  816SOL    HW1 4690   0.822   2.345   2.141
  816SOL    HW2 4691   0.721   2.468   2.179
  817SOL     OW 4692   1.657   2.466   3.068
  817SOL    HW1 4693   1.619   2.397   3.130
  817SOL    HW2 4694   1.739   2.430   3.024
  818SOL     OW 4695   0.252   3.426   3.606
  818SOL    HW1 4696   0.222   3.483   3.682
  818SOL    HW2 4697   0.245   3.329   3.632
  819SOL     OW 4698   0.671   2.326   3.131
  819SOL    HW1 4699   0.637   2.237   3.101
  819SOL    HW2 4700   0.697   2.380   3.051
  820SOL     OW 4701   0.930   3.540   3.327
  820SOL    HW1 4702   0.906   3.522   3.232
  820SOL    HW2 4703   0.960   3.634   3.337
  821SOL     OW 4704   0.473   2.362   2.053
  821SOL    HW1 4705   0.534   2.442   2.057
  821SOL    HW2 4706   0.378   2.393   2.060
  822SOL     OW 4707   0.159   2.999   3.328
  822SOL    HW1 4708   0.181   2.938   3.404
  822SOL    HW2 4709   0.169   2.950   3.242
  823SOL     OW 4710   1.347   2.921   3.096
  823SOL    HW1 4711   1.371   2.858   3.022
  823SOL    HW2 4712   1.257   2.961   3.078
  824SOL     OW 4713   1.302   2.717   2.171
  824SOL    HW1 4714   1.216   2.686   2.213
  824SOL    HW2 4715   1.298   2.703   2.072
  825SOL     OW 4716   1.252   3.593   2.990
  825SOL    HW1 4717   1.336   3.598   2.936
  825SOL    HW2 4718   1.229   3.497   3.008
  826SOL     OW 4719   0.083   3.120   2.884
  826SOL    HW1 4720   0.078   3.119   2.984
  826SOL    HW2 4721   0.000   3.079   2.846
  827SOL     OW 4722   0.688   3.524   3.578
  827SOL    HW1 4723   0.632   3.605   3.587
  827SOL    HW2 4724   0.740   3.528   3.492
  828SOL     OW 4725   1.726   1.997   2.385
  828SOL    HW1 4726   1.799   1.980   2.318
  828SOL    HW2 4727   1.695   1.910   2.423
  829SOL     OW 4728   1.388   3.435   2.339
  829SOL    HW1 4729   1.455   3.447   2.265
  829SOL    HW2 4730   1.348   3.524   2.362
  830SOL     OW 4731   1.280   2.789   2.534
  830SOL    HW1 4732   1.340   2.708   2.536
  830SOL    HW2 4733   1.320   2.858   2.474
  831SOL     OW 4734   0.830   3.135   3.284
  831SOL    HW1 4735   0.825   3.168   3.379
  831SOL    HW2 4736   0.744   3.154   3.238
  832SOL     OW 4737   0.672   3.478   2.016
  832SOL    HW1 4738   0.681   3.488   1.917
  832SOL    HW2 4739   0.632   3.389   2.037
  833SOL     OW 4740   1.841   2.037   2.825
  833SOL    HW1 4741   1.880   1.952   2.789
  833SOL    HW2 4742   1.743   2.039   2.806
  834SOL     OW 4743   0.263   2.188   2.582
  834SOL    HW1 4744   0.184   2.239   2.548
  834SOL    HW2 4745   0.254   2.173   2.680
  835SOL     OW 4746   1.194   3.474   1.893
  835SOL    HW1 4747   1.200   3.381   1.930
  835SOL    HW2 4748   1.135   3.474   1.813
  836SOL     OW 4749   0.822   2.864   3.234
  836SOL    HW1 4750   0.862   2.863   3.142
  836SOL    HW2 4751   0.832   2.956   3.274
  837SOL     OW 4752   0.916   2.772   2.153
  837SOL    HW1 4753   0.979   2.810   2.085
  837SOL    HW2 4754   0.956   2.689   2.192
  838SOL     OW 4755   1.504   3.469   1.906
  838SOL    HW1 4756   1.412   3.506   1.913
  838SOL    HW2 4757   1.542   3.489   1.816
  839SOL     OW 4758   0.372   3.150   3.352
  839SOL    HW1 4759   0.359   3.243   3.318
  839SOL    HW2 4760   0.288   3.098   3.339
  840SOL     OW 4761   1.614   3.154   3.151
  840SOL    HW1 4762   1.674   3.157   3.231
  840SOL    HW2 4763   1.539   3.218   3.164
  841SOL     OW 4764   1.039   2.960   2.558
  841SOL    HW1 4765   0.969   2.913   2.612
  841SOL    HW2 4766   1.098   2.892   2.515
  842SOL     OW 4767   1.014   2.098   2.833
  842SOL    HW1 4768   1.006   2.062   2.740
  842SOL    HW2 4769   1.012   2.022   2.898
  843SOL     OW 4770   0.590   3.349   2.353
  843SOL    HW1 4771   0.632   3.291   2.283
  843SOL    HW2 4772   0.546   3.428   2.309
  844SOL     OW 4773   1.709   2.247   3.243
  844SOL    HW1 4774   1.782   2.316   3.247
  844SOL    HW2 4775   1.737   2.172   3.184
  845SOL     OW 4776   0.255   3.210   2.152
  845SOL    HW1 4777   0.159   3.211   2.125
  845SOL    HW2 4778   0.267   3.263   2.236
  846SOL     OW 4779   0.672   2.065   3.351
  846SOL    HW1 4780   0.762   2.049   3.311
  846SOL    HW2 4781   0.680   2.070   3.450
  847SOL     OW 4782   0.075   2.207   1.895
  847SOL    HW1 4783  -0.017   2.179   1.866
  847SOL    HW2 4784   0.106   2.284   1.839
  848SOL     OW 4785   0.072   2.028   2.180
  848SOL    HW1 4786   0.055   2.111   2.126
  848SOL    HW2 4787   0.162   1.991   2.158
  849SOL     OW 4788   1.183   3.197   1.981
  849SOL    HW1 4789   1.084   3.186   1.983
  849SOL    HW2 4790   1.217   3.212   2.074
  850SOL     OW 4791   0.613   2.704   3.293
  850SOL    HW1 4792   0.669   2.785   3.276
  850SOL    HW2 4793   0.672   2.624   3.296
  851SOL     OW 4794   0.390   3.603   3.422
  851SOL    HW1 4795   0.299   3.644   3.420
  851SOL    HW2 4796   0.383   3.509   3.454
  852SOL     OW 4797   1.674   2.745   3.116
  852SOL    HW1 4798   1.647   2.656   3.079
  852SOL    HW2 4799   1.675   2.813   3.043
  853SOL     OW 4800   1.225   2.187   2.311
  853SOL    HW1 4801   1.290   2.113   2.300
  853SOL    HW2 4802   1.245   2.237   2.395
  854SOL     OW 4803   0.594   2.607   2.514
  854SOL    HW1 4804   0.644   2.692   2.495
  854SOL    HW2 4805   0.506   2.609   2.466
  855SOL     OW 4806   1.777   2.204   3.504
  855SOL    HW1 4807   1.760   2.235   3.410
  855SOL    HW2 4808   1.693   2.167   3.542
  856SOL     OW 4809   1.730   2.796   3.379
  856SOL    HW1 4810   1.768   2.887   3.394
  856SOL    HW2 4811   1.722   2.779   3.280
  857SOL     OW 4812   0.859   3.236   1.878
  857SOL    HW1 4813   0.813   3.251   1.966
  857SOL    HW2 4814   0.903   3.321   1.848
  858SOL     OW 4815   0.661   3.652   2.815
  858SOL    HW1 4816   0.615   3.740   2.802
  858SOL    HW2 4817   0.760   3.664   2.808
  859SOL     OW 4818   0.859   2.818   2.723
  859SOL    HW1 4819   0.913   2.749   2.771
  859SOL    HW2 4820   0.827   2.887   2.789
  860SOL     OW 4821   1.083   2.846   1.949
  860SOL    HW1 4822   1.060   2.899   1.867
  860SOL    HW2 4823   1.164   2.790   1.930
  861SOL     OW 4824   0.221   3.176   3.706
  861SOL    HW1 4825   0.156   3.103   3.685
  861SOL    HW2 4826   0.225   3.190   3.804
  862SOL     OW 4827   0.079   3.102   2.515
  862SOL    HW1 4828   0.078   3.055   2.603
  862SOL    HW2 4829   0.161   3.074   2.464
  863SOL     OW 4830   0.672   3.253   3.486
  863SOL    HW1 4831   0.594   3.203   3.524
  863SOL    HW2 4832   0.669   3.348   3.517
  864SOL     OW 4833   1.824   2.054   3.089
  864SOL    HW1 4834   1.820   1.964   3.133
  864SOL    HW2 4835   1.827   2.043   2.990
  865SOL     OW 4836   0.317   2.409   3.142
  865SOL    HW1 4837   0.355   2.350   3.214
  865SOL    HW2 4838   0.357   2.383   3.054
  866SOL     OW 4839   0.812   3.448   2.549
  866SOL    HW1 4840   0.844   3.458   2.455
  866SOL    HW2 4841   0.733   3.386   2.551
  867SOL     OW 4842   1.424   2.076   2.974
  867SOL    HW1 4843   1.476   2.011   3.029
  867SOL    HW2 4844   1.375   2.139   3.035
  868SOL     OW 4845   1.001   1.896   3.016
  868SOL    HW1 4846   0.938   1.824   2.985
  868SOL    HW2 4847   1.094   1.860   3.016
  869SOL     OW 4848   0.770   3.192   2.163
  869SOL    HW1 4849   0.724   3.105   2.180
  869SOL    HW2 4850   0.861   3.189   2.204
  870SOL     OW 4851   0.618   3.429   3.146
  870SOL    HW1 4852   0.613   3.511   3.203
  870SOL    HW2 4853   0.707   3.426   3.101
  871SOL     OW 4854   1.352   1.914   2.030
  871SOL    HW1 4855   1.387   1.873   1.946
  871SOL    HW2 4856   1.262   1.876   2.050
  872SOL     OW 4857   1.300   2.315   2.553
  872SOL    HW1 4858   1.241   2.395   2.557
  872SOL    HW2 4859   1.315   2.280   2.646
  873SOL     OW 4860   1.593   2.083   2.744
  873SOL    HW1 4861   1.509   2.082   2.798
  873SOL    HW2 4862   1.595   2.166   2.688
  874SOL     OW 4863   0.039   2.939   2.162
  874SOL    HW1 4864   0.138   2.928   2.153
  874SOL    HW2 4865  -0.001   2.853   2.194
  875SOL     OW 4866   0.875   3.508   2.199
  875SOL    HW1 4867   0.798   3.473   2.145
  875SOL    HW2 4868   0.843   3.579   2.261
  876SOL     OW 4869   0.230   2.490   3.837
  876SOL    HW1 4870   0.137   2.488   3.874
  876SOL    HW2 4871   0.231   2.451   3.745
  877SOL     OW 4872   0.225   2.137   4.720
  877SOL    HW1 4873   0.260   2.120   4.812
  877SOL    HW2 4874   0.137   2.092   4.708
  878SOL     OW 4875   0.019   2.230   4.371
  878SOL    HW1 4876  -0.063   2.273   4.410
  878SOL    HW2 4877  -0.009   2.157   4.308
  879SOL     OW 4878   1.135   2.565   4.441
  879SOL    HW1 4879   1.192   2.643   4.416
  879SOL    HW2 4880   1.075   2.591   4.517
  880SOL     OW 4881   1.755   2.469   3.955
  880SOL    HW1 4882   1.743   2.456   3.856
  880SOL    HW2 4883   1.725   2.388   4.004
  881SOL     OW 4884   0.685   2.874   4.389
  881SOL    HW1 4885   0.754   2.858   4.459
  881SOL    HW2 4886   0.612   2.931   4.427
  882SOL     OW 4887   0.335   3.297   4.785
  882SOL    HW1 4888   0.257   3.266   4.732
  882SOL    HW2 4889   0.393   3.355   4.728
  883SOL     OW 4890   1.603   2.309   4.461
  883SOL    HW1 4891   1.529   2.355   4.411
  883SOL    HW2 4892   1.654   2.377   4.514
  884SOL     OW 4893   0.240   2.953   4.610
  884SOL    HW1 4894   0.254   2.869   4.662
  884SOL    HW2 4895   0.185   3.017   4.665
  885SOL     OW 4896   0.620   3.648   5.163
  885SOL    HW1 4897   0.528   3.631   5.198
  885SOL    HW2 4898   0.648   3.740   5.189
  886SOL     OW 4899   0.122   2.505   4.287
  886SOL    HW1 4900   0.077   2.417   4.304
  886SOL    HW2 4901   0.121   2.559   4.371
  887SOL     OW 4902   1.689   2.784   4.336
  887SOL    HW1 4903   1.784   2.755   4.344
  887SOL    HW2 4904   1.681   2.849   4.261
  888SOL     OW 4905   1.641   2.970   4.156
  888SOL    HW1 4906   1.727   2.972   4.104
  888SOL    HW2 4907   1.655   3.017   4.244
  889SOL     OW 4908   0.613   3.227   4.450
  889SOL    HW1 4909   0.564   3.140   4.459
  889SOL    HW2 4910   0.590   3.270   4.363
  890SOL     OW 4911   0.197   2.838   4.988
  890SOL    HW1 4912   0.286   2.793   4.974
  890SOL    HW2 4913   0.124   2.773   4.969
  891SOL     OW 4914   1.525   2.861   3.914
  891SOL    HW1 4915   1.462   2.785   3.927
  891SOL    HW2 4916   1.573   2.879   4.000
  892SOL     OW 4917   1.667   3.576   4.296
  892SOL    HW1 4918   1.626   3.553   4.208
  892SOL    HW2 4919   1.649   3.502   4.361
  893SOL     OW 4920   1.281   2.207   4.668
  893SOL    HW1 4921   1.195   2.157   4.655
  893SOL    HW2 4922   1.343   2.153   4.724
  894SOL     OW 4923   0.991   2.272   4.966
  894SOL    HW1 4924   0.914   2.306   5.020
  894SOL    HW2 4925   0.957   2.221   4.887
  895SOL     OW 4926   1.041   2.563   4.153
  895SOL    HW1 4927   1.067   2.559   4.249
  895SOL    HW2 4928   0.956   2.512   4.139
  896SOL     OW 4929   0.076   2.673   4.513
  896SOL    HW1 4930   0.175   2.661   4.522
  896SOL    HW2 4931   0.052   2.768   4.534
  897SOL     OW 4932   0.130   3.683   5.295
  897SOL    HW1 4933   0.120   3.668   5.394
  897SOL    HW2 4934   0.044   3.719   5.259
  898SOL     OW 4935   1.362   3.006   4.269
  898SOL    HW1 4936   1.445   2.977   4.221
  898SOL    HW2 4937   1.313   3.073   4.213
  899SOL     OW 4938   0.550   2.058   4.609
  899SOL    HW1 4939   0.545   2.053   4.709
  899SOL    HW2 4940   0.552   2.154   4.580
  900SOL     OW 4941   1.008   3.318   4.201
  900SOL    HW1 4942   0.962   3.390   4.149
  900SOL    HW2 4943   1.004   3.338   4.299
  901SOL     OW 4944   1.795   2.928   4.597
  901SOL    HW1 4945   1.733   2.913   4.521
  901SOL    HW2 4946   1.743   2.939   4.682
  902SOL     OW 4947   1.458   2.597   4.452
  902SOL    HW1 4948   1.453   2.532   4.527
  902SOL    HW2 4949   1.538   2.656   4.465
  903SOL     OW 4950   1.111   3.638   3.961
  903SOL    HW1 4951   1.051   3.576   4.011
  903SOL    HW2 4952   1.142   3.594   3.876
  904SOL     OW 4953   1.632   3.239   3.805
  904SOL    HW1 4954   1.600   3.333   3.795
  904SOL    HW2 4955   1.556   3.176   3.793
  905SOL     OW 4956   1.400   1.969   4.150
  905SOL    HW1 4957   1.376   1.932   4.060
  905SOL    HW2 4958   1.499   1.985   4.154
  906SOL     OW 4959   0.249   3.647   4.965
  906SOL    HW1 4960   0.306   3.582   5.015
  906SOL    HW2 4961   0.233   3.614   4.872
  907SOL     OW 4962   0.803   3.264   4.648
  907SOL    HW1 4963   0.893   3.278   4.606
  907SOL    HW2 4964   0.732   3.266   4.577
  908SOL     OW 4965   0.922   2.365   4.623
  908SOL    HW1 4966   0.897   2.356   4.527
  908SOL    HW2 4967   0.970   2.283   4.654
  909SOL     OW 4968   0.539   1.926   4.236
  909SOL    HW1 4969   0.458   1.927   4.294
  909SOL    HW2 4970   0.542   2.009   4.181
  910SOL     OW 4971   0.297   1.897   3.895
  910SOL    HW1 4972   0.346   1.981   3.874
  910SOL    HW2 4973   0.359   1.832   3.940
  911SOL     OW 4974   0.459   3.014   4.465
  911SOL    HW1 4975   0.388   2.987   4.530
  911SOL    HW2 4976   0.433   2.986   4.372
  912SOL     OW 4977   1.271   3.659   4.315
  912SOL    HW1 4978   1.315   3.723   4.251
  912SOL    HW2 4979   1.221   3.711   4.385
  913SOL     OW 4980   0.561   2.084   4.871
  913SOL    HW1 4981   0.599   2.000   4.908
  913SOL    HW2 4982   0.473   2.103   4.915
  914SOL     OW 4983   0.866   2.316   4.366
  914SOL    HW1 4984   0.834   2.388   4.304
  914SOL    HW2 4985   0.890   2.235   4.313
  915SOL     OW 4986   1.017   1.901   4.477
  915SOL    HW1 4987   0.945   1.906   4.408
  915SOL    HW2 4988   0.993   1.832   4.546
  916SOL     OW 4989   1.429   3.035   4.591
  916SOL    HW1 4990   1.374   2.951   4.584
  916SOL    HW2 4991   1.455   3.064   4.499
  917SOL     OW 4992   1.466   2.452   4.716
  917SOL    HW1 4993   1.436   2.357   4.723
  917SOL    HW2 4994   1.539   2.468   4.782
  918SOL     OW 4995   1.857   2.695   4.101
  918SOL    HW1 4996   1.899   2.631   4.165
  918SOL    HW2 4997   1.819   2.644   4.023
  919SOL     OW 4998   0.488   3.247   3.898
  919SOL    HW1 4999   0.401   3.232   3.945
  919SOL    HW2 5000   0.471   3.273   3.803
  920SOL     OW 5001   1.664   3.142   4.381
  920SOL    HW1 5002   1.763   3.150   4.395
  920SOL    HW2 5003   1.619   3.226   4.412
  921SOL     OW 5004   1.390   2.437   3.802
  921SOL    HW1 5005   1.336   2.416   3.883
  921SOL    HW2 5006   1.481   2.396   3.811
  922SOL     OW 5007   0.527   2.118   4.052
  922SOL    HW1 5008   0.554   2.059   3.977
  922SOL    HW2 5009   0.527   2.213   4.021
  923SOL     OW 5010   1.111   3.057   4.824
  923SOL    HW1 5011   1.071   3.101   4.905
  923SOL    HW2 5012   1.070   3.094   4.741
  924SOL     OW 5013   1.638   2.961   4.803
  924SOL    HW1 5014   1.643   3.042   4.862
  924SOL    HW2 5015   1.552   2.963   4.752
  925SOL     OW 5016   1.274   2.248   4.986
  925SOL    HW1 5017   1.295   2.322   5.050
  925SOL    HW2 5018   1.185   2.265   4.943
  926SOL     OW 5019   0.566   2.399   4.589
  926SOL    HW1 5020   0.578   2.465   4.515
  926SOL    HW2 5021   0.612   2.433   4.672
  927SOL     OW 5022   1.252   3.210   4.112
  927SOL    HW1 5023   1.302   3.287   4.152
  927SOL    HW2 5024   1.157   3.212   4.144
  928SOL     OW 5025   1.272   3.307   4.866
  928SOL    HW1 5026   1.319   3.320   4.953
  928SOL    HW2 5027   1.206   3.233   4.875
  929SOL     OW 5028   1.582   2.501   4.196
  929SOL    HW1 5029   1.551   2.562   4.269
  929SOL    HW2 5030   1.632   2.553   4.127
  930SOL     OW 5031   0.354   3.372   5.053
  930SOL    HW1 5032   0.333   3.328   4.966
  930SOL    HW2 5033   0.451   3.398   5.056
  931SOL     OW 5034   0.573   2.732   4.753
  931SOL    HW1 5035   0.617   2.821   4.744
  931SOL    HW2 5036   0.510   2.732   4.830
  932SOL     OW 5037   1.360   2.724   4.769
  932SOL    HW1 5038   1.285   2.724   4.703
  932SOL    HW2 5039   1.397   2.632   4.778
  933SOL     OW 5040   0.307   2.075   4.955
  933SOL    HW1 5041   0.284   2.112   5.045
  933SOL    HW2 5042   0.277   1.980   4.949
  934SOL     OW 5043   0.037   3.172   5.006
  934SOL    HW1 5044   0.090   3.123   5.074
  934SOL    HW2 5045   0.059   3.270   5.011
  935SOL     OW 5046   0.307   1.925   4.342
  935SOL    HW1 5047   0.296   2.019   4.375
  935SOL    HW2 5048   0.302   1.862   4.419
  936SOL     OW 5049   1.622   2.229   4.098
  936SOL    HW1 5050   1.624   2.153   4.162
  936SOL    HW2 5051   1.574   2.306   4.138
  937SOL     OW 5052   1.540   2.136   3.849
  937SOL    HW1 5053   1.479   2.061   3.872
  937SOL    HW2 5054   1.562   2.188   3.932
  938SOL     OW 5055   1.068   3.195   4.573
  938SOL    HW1 5056   1.075   3.111   4.518
  938SOL    HW2 5057   1.130   3.264   4.537
  939SOL     OW 5058   0.319   2.672   4.673
  939SOL    HW1 5059   0.412   2.708   4.678
  939SOL    HW2 5060   0.313   2.587   4.725
  940SOL     OW 5061   0.339   2.371   4.730
  940SOL    HW1 5062   0.287   2.288   4.713
  940SOL    HW2 5063   0.416   2.376   4.666
  941SOL     OW 5064   0.008   3.188   3.924
  941SOL    HW1 5065  -0.085   3.209   3.893
  941SOL    HW2 5066   0.018   3.089   3.937
  942SOL     OW 5067   0.088   3.663   4.651
  942SOL    HW1 5068   0.046   3.577   4.624
  942SOL    HW2 5069   0.182   3.666   4.617
  943SOL     OW 5070   0.504   3.430   4.634
  943SOL    HW1 5071   0.570   3.504   4.643
  943SOL    HW2 5072   0.548   3.351   4.592
  944SOL     OW 5073   0.040   2.406   4.838
  944SOL    HW1 5074   0.125   2.373   4.797
  944SOL    HW2 5075   0.053   2.421   4.936
  945SOL     OW 5076   0.815   2.434   4.049
  945SOL    HW1 5077   0.822   2.345   4.003
  945SOL    HW2 5078   0.721   2.468   4.041
  946SOL     OW 5079   1.657   2.466   4.930
  946SOL    HW1 5080   1.619   2.397   4.992
  946SOL    HW2 5081   1.739   2.430   4.886
  947SOL     OW 5082   0.671   2.326   4.993
  947SOL    HW1 5083   0.637   2.237   4.963
  947SOL    HW2 5084   0.697   2.380   4.913
  948SOL     OW 5085   0.930   3.540   5.189
  948SOL    HW1 5086   0.906   3.522   5.094
  948SOL    HW2 5087   0.960   3.634   5.199
  949SOL     OW 5088   0.473   2.362   3.915
  949SOL    HW1 5089   0.534   2.442   3.919
  949SOL    HW2 5090   0.378   2.393   3.922
  950SOL     OW 5091   1.347   2.921   4.958
  950SOL    HW1 5092   1.371   2.858   4.884
  950SOL    HW2 5093   1.257   2.961   4.940
  951SOL     OW 5094   1.302   2.717   4.033
  951SOL    HW1 5095   1.216   2.686   4.075
  951SOL    HW2 5096   1.298   2.703   3.934
  952SOL     OW 5097   0.083   3.120   4.746
  952SOL    HW1 5098   0.078   3.119   4.846
  952SOL    HW2 5099   0.000   3.079   4.708
  953SOL     OW 5100   1.726   1.997   4.247
  953SOL    HW1 5101   1.799   1.980   4.180
  953SOL    HW2 5102   1.695   1.910   4.285
  954SOL     OW 5103   1.388   3.435   4.201
  954SOL    HW1 5104   1.455   3.447   4.127
  954SOL    HW2 5105   1.348   3.524   4.224
  955SOL     OW 5106   1.280   2.789   4.396
  955SOL    HW1 5107   1.340   2.708   4.398
  955SOL    HW2 5108   1.320   2.858   4.336
  956SOL     OW 5109   1.650   3.582   5.118
  956SOL    HW1 5110   1.703   3.592   5.034
  956SOL    HW2 5111   1.623   3.672   5.152
  957SOL     OW 5112   1.841   2.037   4.687
  957SOL    HW1 5113   1.880   1.952   4.651
  957SOL    HW2 5114   1.743   2.039   4.668
  958SOL     OW 5115   0.263   2.188   4.444
  958SOL    HW1 5116   0.184   2.239   4.410
  958SOL    HW2 5117   0.254   2.173   4.542
  959SOL     OW 5118   1.194   3.474   3.755
  959SOL    HW1 5119   1.200   3.381   3.792
  959SOL    HW2 5120   1.135   3.474   3.675
  960SOL     OW 5121   0.916   2.772   4.015
  960SOL    HW1 5122   0.979   2.810   3.947
  960SOL    HW2 5123   0.956   2.689   4.054
  961SOL     OW 5124   1.504   3.469   3.768
  961SOL    HW1 5125   1.412   3.506   3.775
  961SOL    HW2 5126   1.542   3.489   3.678
  962SOL     OW 5127   1.039   2.960   4.420
  962SOL    HW1 5128   0.969   2.913   4.474
  962SOL    HW2 5129   1.098   2.892   4.377
  963SOL     OW 5130   1.014   2.098   4.695
  963SOL    HW1 5131   1.006   2.062   4.602
  963SOL    HW2 5132   1.012   2.022   4.760
  964SOL     OW 5133   0.590   3.349   4.215
  964SOL    HW1 5134   0.632   3.291   4.145
  964SOL    HW2 5135   0.546   3.428   4.171
  965SOL     OW 5136   1.709   2.247   5.105
  965SOL    HW1 5137   1.782   2.316   5.109
  965SOL    HW2 5138   1.737   2.172   5.046
  966SOL     OW 5139   0.075   2.207   3.757
  966SOL    HW1 5140  -0.017   2.179   3.728
  966SOL    HW2 5141   0.106   2.284   3.701
  967SOL     OW 5142   0.072   2.028   4.042
  967SOL    HW1 5143   0.055   2.111   3.988
  967SOL    HW2 5144   0.162   1.991   4.020
  968SOL     OW 5145   1.183   3.197   3.843
  968SOL    HW1 5146   1.084   3.186   3.845
  968SOL    HW2 5147   1.217   3.212   3.936
  969SOL     OW 5148   1.450   3.082   5.357
  969SOL    HW1 5149   1.441   3.072   5.456
  969SOL    HW2 5150   1.546   3.075   5.331
  970SOL     OW 5151   1.674   2.745   4.978
  970SOL    HW1 5152   1.647   2.656   4.941
  970SOL    HW2 5153   1.675   2.813   4.905
  971SOL     OW 5154   0.594   2.607   4.376
  971SOL    HW1 5155   0.644   2.692   4.357
  971SOL    HW2 5156   0.506   2.609   4.328
  972SOL     OW 5157   1.730   2.796   5.241
  972SOL    HW1 5158   1.768   2.887   5.256
  972SOL    HW2 5159   1.722   2.779   5.142
  973SOL     OW 5160   0.661   3.652   4.677
  973SOL    HW1 5161   0.615   3.740   4.664
  973SOL    HW2 5162   0.760   3.664   4.670
  974SOL     OW 5163   0.079   3.102   4.377
  974SOL    HW1 5164   0.078   3.055   4.465
  974SOL    HW2 5165   0.161   3.074   4.326
  975SOL     OW 5166   1.824   2.054   4.951
  975SOL    HW1 5167   1.820   1.964   4.995
  975SOL    HW2 5168   1.827   2.043   4.852
  976SOL     OW 5169   0.812   3.448   4.411
  976SOL    HW1 5170   0.844   3.458   4.317
  976SOL    HW2 5171   0.733   3.386   4.413
  977SOL     OW 5172   1.001   1.896   4.878
  977SOL    HW1 5173   0.938   1.824   4.847
  977SOL    HW2 5174   1.094   1.860   4.878
  978SOL     OW 5175   1.300   2.315   4.415
  978SOL    HW1 5176   1.241   2.395   4.419
  978SOL    HW2 5177   1.315   2.280   4.508
  979SOL     OW 5178   1.593   2.083   4.606
  979SOL    HW1 5179   1.509   2.082   4.660
  979SOL    HW2 5180   1.595   2.166   4.550
  980SOL     OW 5181   0.039   2.939   4.024
  980SOL    HW1 5182   0.138   2.928   4.015
  980SOL    HW2 5183  -0.001   2.853   4.056
  981SOL     OW 5184   0.875   3.508   4.061
  981SOL    HW1 5185   0.798   3.473   4.007
  981SOL    HW2 5186   0.843   3.579   4.123
  982SOL     OW 5187   0.230   4.352   0.113
  982SOL    HW1 5188   0.137   4.350   0.150
  982SOL    HW2 5189   0.231   4.313   0.021
  983SOL     OW 5190   0.225   3.999   0.996
  983SOL    HW1 5191   0.260   3.982   1.088
  983SOL    HW2 5192   0.137   3.954   0.984
  984SOL     OW 5193   0.019   4.092   0.647
  984SOL    HW1 5194  -0.063   4.135   0.686
  984SOL    HW2 5195  -0.009   4.019   0.584
  985SOL     OW 5196   0.569   4.999   1.165
  985SOL    HW1 5197   0.476   4.992   1.128
  985SOL    HW2 5198   0.580   5.088   1.209
  986SOL     OW 5199   1.755   4.331   0.231
  986SOL    HW1 5200   1.743   4.318   0.132
  986SOL    HW2 5201   1.725   4.250   0.280
  987SOL     OW 5202   0.768   4.868   1.023
  987SOL    HW1 5203   0.690   4.885   1.083
  987SOL    HW2 5204   0.802   4.955   0.987
  988SOL     OW 5205   0.850   4.522   1.823
  988SOL    HW1 5206   0.846   4.598   1.888
  988SOL    HW2 5207   0.872   4.558   1.732
  989SOL     OW 5208   0.685   4.736   0.665
  989SOL    HW1 5209   0.754   4.720   0.735
  989SOL    HW2 5210   0.612   4.793   0.703
  990SOL     OW 5211   0.686   4.885   1.803
  990SOL    HW1 5212   0.746   4.964   1.817
  990SOL    HW2 5213   0.600   4.916   1.762
  991SOL     OW 5214   0.335   5.159   1.061
  991SOL    HW1 5215   0.257   5.128   1.008
  991SOL    HW2 5216   0.393   5.217   1.004
  992SOL     OW 5217   0.438   4.116   1.499
  992SOL    HW1 5218   0.520   4.060   1.508
  992SOL    HW2 5219   0.357   4.058   1.503
  993SOL     OW 5220   0.240   4.815   0.886
  993SOL    HW1 5221   0.254   4.731   0.938
  993SOL    HW2 5222   0.185   4.879   0.941
  994SOL     OW 5223   0.606   4.688   0.123
  994SOL    HW1 5224   0.613   4.772   0.069
  994SOL    HW2 5225   0.652   4.701   0.211
  995SOL     OW 5226   1.594   3.838   1.480
  995SOL    HW1 5227   1.576   3.905   1.408
  995SOL    HW2 5228   1.591   3.884   1.569
  996SOL     OW 5229   0.122   4.367   0.563
  996SOL    HW1 5230   0.077   4.279   0.580
  996SOL    HW2 5231   0.121   4.421   0.647
  997SOL     OW 5232   1.689   4.646   0.612
  997SOL    HW1 5233   1.784   4.617   0.620
  997SOL    HW2 5234   1.681   4.711   0.537
  998SOL     OW 5235   1.641   4.832   0.432
  998SOL    HW1 5236   1.727   4.834   0.380
  998SOL    HW2 5237   1.655   4.879   0.520
  999SOL     OW 5238   0.113   4.461   1.597
  999SOL    HW1 5239   0.201   4.448   1.642
  999SOL    HW2 5240   0.100   4.558   1.575
 1000SOL     OW 5241   1.293   4.952   1.423
 1000SOL    HW1 5242   1.330   4.879   1.365
 1000SOL    HW2 5243   1.345   4.957   1.508
 1001SOL     OW 5244   0.197   4.700   1.264
 1001SOL    HW1 5245   0.286   4.655   1.250
 1001SOL    HW2 5246   0.124   4.635   1.245
 1002SOL     OW 5247   1.525   4.723   0.190
 1002SOL    HW1 5248   1.462   4.647   0.203
 1002SOL    HW2 5249   1.573   4.741   0.276
 1003SOL     OW 5250   0.317   3.975   1.801
 1003SOL    HW1 5251   0.388   4.046   1.807
 1003SOL    HW2 5252   0.229   4.014   1.829
 1004SOL     OW 5253   1.466   5.141   0.953
 1004SOL    HW1 5254   1.407   5.147   1.033
 1004SOL    HW2 5255   1.451   5.053   0.907
 1005SOL     OW 5256   0.598   4.453   0.270
 1005SOL    HW1 5257   0.622   4.522   0.202
 1005SOL    HW2 5258   0.520   4.486   0.324
 1006SOL     OW 5259   0.807   4.329   1.465
 1006SOL    HW1 5260   0.760   4.326   1.554
 1006SOL    HW2 5261   0.756   4.274   1.399
 1007SOL     OW 5262   1.394   4.193   1.674
 1007SOL    HW1 5263   1.374   4.236   1.762
 1007SOL    HW2 5264   1.472   4.131   1.683
 1008SOL     OW 5265   0.973   4.614   1.572
 1008SOL    HW1 5266   1.019   4.530   1.543
 1008SOL    HW2 5267   0.917   4.648   1.497
 1009SOL     OW 5268   1.041   4.425   0.429
 1009SOL    HW1 5269   1.067   4.421   0.525
 1009SOL    HW2 5270   0.956   4.374   0.415
 1010SOL     OW 5271   1.719   4.309   1.831
 1010SOL    HW1 5272   1.693   4.398   1.795
 1010SOL    HW2 5273   1.717   4.241   1.758
 1011SOL     OW 5274   1.795   4.790   0.873
 1011SOL    HW1 5275   1.733   4.775   0.797
 1011SOL    HW2 5276   1.743   4.801   0.958
 1012SOL     OW 5277   0.321   4.667   0.242
 1012SOL    HW1 5278   0.403   4.706   0.200
 1012SOL    HW2 5279   0.294   4.585   0.193
 1013SOL     OW 5280   0.202   4.009   1.498
 1013SOL    HW1 5281   0.122   4.069   1.485
 1013SOL    HW2 5282   0.192   3.960   1.584
 1014SOL     OW 5283   1.632   5.101   0.081
 1014SOL    HW1 5284   1.600   5.195   0.071
 1014SOL    HW2 5285   1.556   5.038   0.069
 1015SOL     OW 5286   1.400   3.831   0.426
 1015SOL    HW1 5287   1.376   3.794   0.336
 1015SOL    HW2 5288   1.499   3.847   0.430
 1016SOL     OW 5289   0.382   4.424   0.480
 1016SOL    HW1 5290   0.427   4.334   0.477
 1016SOL    HW2 5291   0.288   4.413   0.513
 1017SOL     OW 5292   1.547   3.946   1.729
 1017SOL    HW1 5293   1.542   3.983   1.821
 1017SOL    HW2 5294   1.475   3.877   1.717
 1018SOL     OW 5295   0.781   3.988   1.749
 1018SOL    HW1 5296   0.848   3.927   1.792
 1018SOL    HW2 5297   0.708   4.007   1.814
 1019SOL     OW 5298   1.351   4.314   1.433
 1019SOL    HW1 5299   1.379   4.271   1.518
 1019SOL    HW2 5300   1.376   4.410   1.434
 1020SOL     OW 5301   0.803   5.126   0.924
 1020SOL    HW1 5302   0.893   5.140   0.882
 1020SOL    HW2 5303   0.732   5.128   0.853
 1021SOL     OW 5304   0.539   3.788   0.512
 1021SOL    HW1 5305   0.458   3.789   0.570
 1021SOL    HW2 5306   0.542   3.871   0.457
 1022SOL     OW 5307   1.434   4.912   0.041
 1022SOL    HW1 5308   1.466   4.836   0.098
 1022SOL    HW2 5309   1.342   4.939   0.071
 1023SOL     OW 5310   0.297   3.759   0.171
 1023SOL    HW1 5311   0.346   3.843   0.150
 1023SOL    HW2 5312   0.359   3.694   0.216
 1024SOL     OW 5313   0.935   3.960   0.480
 1024SOL    HW1 5314   0.887   4.001   0.402
 1024SOL    HW2 5315   1.034   3.958   0.461
 1025SOL     OW 5316   1.076   4.407   1.464
 1025SOL    HW1 5317   0.996   4.346   1.467
 1025SOL    HW2 5318   1.157   4.354   1.440
 1026SOL     OW 5319   0.459   4.876   0.741
 1026SOL    HW1 5320   0.388   4.849   0.806
 1026SOL    HW2 5321   0.433   4.848   0.648
 1027SOL     OW 5322   0.078   4.280   1.386
 1027SOL    HW1 5323   0.170   4.279   1.345
 1027SOL    HW2 5324   0.072   4.354   1.453
 1028SOL     OW 5325   0.561   3.946   1.147
 1028SOL    HW1 5326   0.599   3.862   1.184
 1028SOL    HW2 5327   0.473   3.965   1.191
 1029SOL     OW 5328   0.866   4.178   0.642
 1029SOL    HW1 5329   0.834   4.250   0.580
 1029SOL    HW2 5330   0.890   4.097   0.589
 1030SOL     OW 5331   1.857   4.557   0.377
 1030SOL    HW1 5332   1.899   4.493   0.441
 1030SOL    HW2 5333   1.819   4.506   0.299
 1031SOL     OW 5334   1.390   4.299   0.078
 1031SOL    HW1 5335   1.336   4.278   0.159
 1031SOL    HW2 5336   1.481   4.258   0.087
 1032SOL     OW 5337   0.527   3.980   0.328
 1032SOL    HW1 5338   0.554   3.921   0.253
 1032SOL    HW2 5339   0.527   4.075   0.297
 1033SOL     OW 5340   1.638   4.823   1.079
 1033SOL    HW1 5341   1.643   4.904   1.138
 1033SOL    HW2 5342   1.552   4.825   1.028
 1034SOL     OW 5343   0.980   4.840   1.719
 1034SOL    HW1 5344   0.881   4.846   1.729
 1034SOL    HW2 5345   1.003   4.760   1.663
 1035SOL     OW 5346   0.705   4.774   0.368
 1035SOL    HW1 5347   0.691   4.781   0.467
 1035SOL    HW2 5348   0.789   4.723   0.350
 1036SOL     OW 5349   0.410   4.537   1.251
 1036SOL    HW1 5350   0.496   4.549   1.301
 1036SOL    HW2 5351   0.368   4.450   1.278
 1037SOL     OW 5352   0.367   4.824   0.501
 1037SOL    HW1 5353   0.360   4.907   0.445
 1037SOL    HW2 5354   0.371   4.744   0.441
 1038SOL     OW 5355   0.566   4.261   0.865
 1038SOL    HW1 5356   0.578   4.327   0.791
 1038SOL    HW2 5357   0.612   4.295   0.948
 1039SOL     OW 5358   1.582   4.363   0.472
 1039SOL    HW1 5359   1.551   4.424   0.545
 1039SOL    HW2 5360   1.632   4.415   0.403
 1040SOL     OW 5361   0.402   4.475   1.598
 1040SOL    HW1 5362   0.470   4.530   1.551
 1040SOL    HW2 5363   0.442   4.387   1.625
 1041SOL     OW 5364   1.587   4.503   1.670
 1041SOL    HW1 5365   1.495   4.541   1.665
 1041SOL    HW2 5366   1.647   4.550   1.605
 1042SOL     OW 5367   1.013   3.829   1.770
 1042SOL    HW1 5368   1.019   3.914   1.718
 1042SOL    HW2 5369   1.045   3.753   1.713
 1043SOL     OW 5370   0.504   3.774   1.740
 1043SOL    HW1 5371   0.462   3.717   1.670
 1043SOL    HW2 5372   0.438   3.843   1.772
 1044SOL     OW 5373   0.573   4.594   1.029
 1044SOL    HW1 5374   0.617   4.683   1.020
 1044SOL    HW2 5375   0.510   4.594   1.106
 1045SOL     OW 5376   1.209   4.249   0.275
 1045SOL    HW1 5377   1.222   4.165   0.329
 1045SOL    HW2 5378   1.180   4.323   0.335
 1046SOL     OW 5379   0.307   3.937   1.231
 1046SOL    HW1 5380   0.284   3.974   1.321
 1046SOL    HW2 5381   0.277   3.842   1.225
 1047SOL     OW 5382   0.732   4.358   1.064
 1047SOL    HW1 5383   0.791   4.332   0.988
 1047SOL    HW2 5384   0.704   4.454   1.053
 1048SOL     OW 5385   1.728   4.659   1.854
 1048SOL    HW1 5386   1.682   4.652   1.765
 1048SOL    HW2 5387   1.666   4.703   1.920
 1049SOL     OW 5388   0.307   3.787   0.618
 1049SOL    HW1 5389   0.296   3.881   0.651
 1049SOL    HW2 5390   0.302   3.724   0.695
 1050SOL     OW 5391   1.622   4.091   0.374
 1050SOL    HW1 5392   1.624   4.015   0.438
 1050SOL    HW2 5393   1.574   4.168   0.414
 1051SOL     OW 5394   1.023   4.490   0.966
 1051SOL    HW1 5395   1.038   4.511   1.062
 1051SOL    HW2 5396   0.993   4.395   0.957
 1052SOL     OW 5397   1.859   5.242   1.605
 1052SOL    HW1 5398   1.873   5.269   1.510
 1052SOL    HW2 5399   1.942   5.264   1.658
 1053SOL     OW 5400   0.350   4.622   1.804
 1053SOL    HW1 5401   0.426   4.666   1.852
 1053SOL    HW2 5402   0.385   4.575   1.722
 1054SOL     OW 5403   0.319   4.534   0.949
 1054SOL    HW1 5404   0.412   4.570   0.954
 1054SOL    HW2 5405   0.313   4.449   1.001
 1055SOL     OW 5406   0.339   4.233   1.006
 1055SOL    HW1 5407   0.287   4.150   0.989
 1055SOL    HW2 5408   0.416   4.238   0.942
 1056SOL     OW 5409   1.138   4.104   1.678
 1056SOL    HW1 5410   1.093   4.167   1.742
 1056SOL    HW2 5411   1.231   4.135   1.661
 1057SOL     OW 5412   1.002   4.520   1.238
 1057SOL    HW1 5413   1.043   4.488   1.324
 1057SOL    HW2 5414   0.906   4.493   1.235
 1058SOL     OW 5415   0.040   4.268   1.114
 1058SOL    HW1 5416   0.125   4.235   1.073
 1058SOL    HW2 5417   0.053   4.283   1.212
 1059SOL     OW 5418   0.189   4.244   1.722
 1059SOL    HW1 5419   0.248   4.204   1.652
 1059SOL    HW2 5420   0.131   4.315   1.681
 1060SOL     OW 5421   1.369   4.674   1.660
 1060SOL    HW1 5422   1.408   4.763   1.680
 1060SOL    HW2 5423   1.379   4.654   1.563
 1061SOL     OW 5424   0.815   4.296   0.325
 1061SOL    HW1 5425   0.822   4.207   0.279
 1061SOL    HW2 5426   0.721   4.330   0.317
 1062SOL     OW 5427   1.657   4.328   1.206
 1062SOL    HW1 5428   1.619   4.259   1.268
 1062SOL    HW2 5429   1.739   4.292   1.162
 1063SOL     OW 5430   0.671   4.188   1.269
 1063SOL    HW1 5431   0.637   4.099   1.239
 1063SOL    HW2 5432   0.697   4.242   1.189
 1064SOL     OW 5433   0.473   4.224   0.191
 1064SOL    HW1 5434   0.534   4.304   0.195
 1064SOL    HW2 5435   0.378   4.255   0.198
 1065SOL     OW 5436   0.159   4.861   1.466
 1065SOL    HW1 5437   0.181   4.800   1.542
 1065SOL    HW2 5438   0.169   4.812   1.380
 1066SOL     OW 5439   0.083   4.982   1.022
 1066SOL    HW1 5440   0.078   4.981   1.122
 1066SOL    HW2 5441   0.000   4.941   0.984
 1067SOL     OW 5442   1.726   3.859   0.523
 1067SOL    HW1 5443   1.799   3.842   0.456
 1067SOL    HW2 5444   1.695   3.772   0.561
 1068SOL     OW 5445   0.830   4.997   1.422
 1068SOL    HW1 5446   0.825   5.030   1.517
 1068SOL    HW2 5447   0.744   5.016   1.376
 1069SOL     OW 5448   1.841   3.899   0.963
 1069SOL    HW1 5449   1.880   3.814   0.927
 1069SOL    HW2 5450   1.743   3.901   0.944
 1070SOL     OW 5451   0.263   4.050   0.720
 1070SOL    HW1 5452   0.184   4.101   0.686
 1070SOL    HW2 5453   0.254   4.035   0.818
 1071SOL     OW 5454   0.822   4.726   1.372
 1071SOL    HW1 5455   0.862   4.725   1.280
 1071SOL    HW2 5456   0.832   4.818   1.412
 1072SOL     OW 5457   0.916   4.634   0.291
 1072SOL    HW1 5458   0.979   4.672   0.223
 1072SOL    HW2 5459   0.956   4.551   0.330
 1073SOL     OW 5460   0.372   5.012   1.490
 1073SOL    HW1 5461   0.359   5.105   1.456
 1073SOL    HW2 5462   0.288   4.960   1.477
 1074SOL     OW 5463   1.614   5.016   1.289
 1074SOL    HW1 5464   1.674   5.019   1.369
 1074SOL    HW2 5465   1.539   5.080   1.302
 1075SOL     OW 5466   1.709   4.109   1.381
 1075SOL    HW1 5467   1.782   4.178   1.385
 1075SOL    HW2 5468   1.737   4.034   1.322
 1076SOL     OW 5469   0.105   4.737   1.726
 1076SOL    HW1 5470   0.028   4.704   1.780
 1076SOL    HW2 5471   0.190   4.707   1.768
 1077SOL     OW 5472   0.672   3.927   1.489
 1077SOL    HW1 5473   0.762   3.911   1.449
 1077SOL    HW2 5474   0.680   3.932   1.588
 1078SOL     OW 5475   0.075   4.069   0.033
 1078SOL    HW1 5476  -0.017   4.041   0.004
 1078SOL    HW2 5477   0.106   4.146  -0.023
 1079SOL     OW 5478   1.440   4.580   1.398
 1079SOL    HW1 5479   1.383   4.632   1.335
 1079SOL    HW2 5480   1.536   4.592   1.374
 1080SOL     OW 5481   0.072   3.890   0.318
 1080SOL    HW1 5482   0.055   3.973   0.264
 1080SOL    HW2 5483   0.162   3.853   0.296
 1081SOL     OW 5484   0.613   4.566   1.431
 1081SOL    HW1 5485   0.669   4.647   1.414
 1081SOL    HW2 5486   0.672   4.486   1.434
 1082SOL     OW 5487   0.716   4.289   1.708
 1082SOL    HW1 5488   0.735   4.354   1.782
 1082SOL    HW2 5489   0.776   4.209   1.717
 1083SOL     OW 5490   1.450   4.944   1.633
 1083SOL    HW1 5491   1.441   4.934   1.732
 1083SOL    HW2 5492   1.546   4.937   1.607
 1084SOL     OW 5493   1.674   4.607   1.254
 1084SOL    HW1 5494   1.647   4.518   1.217
 1084SOL    HW2 5495   1.675   4.675   1.181
 1085SOL     OW 5496   1.225   4.049   0.449
 1085SOL    HW1 5497   1.290   3.975   0.438
 1085SOL    HW2 5498   1.245   4.099   0.533
 1086SOL     OW 5499   0.594   4.469   0.652
 1086SOL    HW1 5500   0.644   4.554   0.633
 1086SOL    HW2 5501   0.506   4.471   0.604
 1087SOL     OW 5502   1.777   4.066   1.642
 1087SOL    HW1 5503   1.760   4.097   1.548
 1087SOL    HW2 5504   1.693   4.029   1.680
 1088SOL     OW 5505   1.730   4.658   1.517
 1088SOL    HW1 5506   1.768   4.749   1.532
 1088SOL    HW2 5507   1.722   4.641   1.418
 1089SOL     OW 5508   0.859   4.680   0.861
 1089SOL    HW1 5509   0.913   4.611   0.909
 1089SOL    HW2 5510   0.827   4.749   0.927
 1090SOL     OW 5511   1.083   4.708   0.087
 1090SOL    HW1 5512   1.060   4.761   0.005
 1090SOL    HW2 5513   1.164   4.652   0.068
 1091SOL     OW 5514   0.079   4.964   0.653
 1091SOL    HW1 5515   0.078   4.917   0.741
 1091SOL    HW2 5516   0.161   4.936   0.602
 1092SOL     OW 5517   1.824   3.916   1.227
 1092SOL    HW1 5518   1.820   3.826   1.271
 1092SOL    HW2 5519   1.827   3.905   1.128
 1093SOL     OW 5520   0.428   4.148   0.520
 1093SOL    HW1 5521   0.458   4.076   0.458
 1093SOL    HW2 5522   0.389   4.108   0.603
 1094SOL     OW 5523   0.317   4.271   1.280
 1094SOL    HW1 5524   0.355   4.212   1.352
 1094SOL    HW2 5525   0.357   4.245   1.192
 1095SOL     OW 5526   1.424   3.938   1.112
 1095SOL    HW1 5527   1.476   3.873   1.167
 1095SOL    HW2 5528   1.375   4.001   1.173
 1096SOL     OW 5529   0.770   5.054   0.301
 1096SOL    HW1 5530   0.724   4.967   0.318
 1096SOL    HW2 5531   0.861   5.051   0.342
 1097SOL     OW 5532   1.352   3.776   0.168
 1097SOL    HW1 5533   1.387   3.735   0.084
 1097SOL    HW2 5534   1.262   3.738   0.188
 1098SOL     OW 5535   0.230   4.352   1.975
 1098SOL    HW1 5536   0.137   4.350   2.012
 1098SOL    HW2 5537   0.231   4.313   1.883
 1099SOL     OW 5538   0.569   4.999   3.027
 1099SOL    HW1 5539   0.476   4.992   2.990
 1099SOL    HW2 5540   0.580   5.088   3.071
 1100SOL     OW 5541   1.135   4.427   2.579
 1100SOL    HW1 5542   1.192   4.505   2.554
 1100SOL    HW2 5543   1.075   4.453   2.655
 1101SOL     OW 5544   1.755   4.331   2.093
 1101SOL    HW1 5545   1.743   4.318   1.994
 1101SOL    HW2 5546   1.725   4.250   2.142
 1102SOL     OW 5547   0.768   4.868   2.885
 1102SOL    HW1 5548   0.690   4.885   2.945
 1102SOL    HW2 5549   0.802   4.955   2.849
 1103SOL     OW 5550   0.850   4.522   3.685
 1103SOL    HW1 5551   0.846   4.598   3.750
 1103SOL    HW2 5552   0.872   4.558   3.594
 1104SOL     OW 5553   0.686   4.885   3.665
 1104SOL    HW1 5554   0.746   4.964   3.679
 1104SOL    HW2 5555   0.600   4.916   3.624
 1105SOL     OW 5556   0.335   5.159   2.923
 1105SOL    HW1 5557   0.257   5.128   2.870
 1105SOL    HW2 5558   0.393   5.217   2.866
 1106SOL     OW 5559   0.438   4.116   3.361
 1106SOL    HW1 5560   0.520   4.060   3.370
 1106SOL    HW2 5561   0.357   4.058   3.365
 1107SOL     OW 5562   1.603   4.171   2.599
 1107SOL    HW1 5563   1.529   4.217   2.549
 1107SOL    HW2 5564   1.654   4.239   2.652
 1108SOL     OW 5565   0.240   4.815   2.748
 1108SOL    HW1 5566   0.254   4.731   2.800
 1108SOL    HW2 5567   0.185   4.879   2.803
 1109SOL     OW 5568   0.122   4.367   2.425
 1109SOL    HW1 5569   0.077   4.279   2.442
 1109SOL    HW2 5570   0.121   4.421   2.509
 1110SOL     OW 5571   1.689   4.646   2.474
 1110SOL    HW1 5572   1.784   4.617   2.482
 1110SOL    HW2 5573   1.681   4.711   2.399
 1111SOL     OW 5574   1.641   4.832   2.294
 1111SOL    HW1 5575   1.727   4.834   2.242
 1111SOL    HW2 5576   1.655   4.879   2.382
 1112SOL     OW 5577   0.113   4.461   3.459
 1112SOL    HW1 5578   0.201   4.448   3.504
 1112SOL    HW2 5579   0.100   4.558   3.437
 1113SOL     OW 5580   0.809   3.728   2.364
 1113SOL    HW1 5581   0.849   3.819   2.355
 1113SOL    HW2 5582   0.709   3.736   2.370
 1114SOL     OW 5583   0.197   4.700   3.126
 1114SOL    HW1 5584   0.286   4.655   3.112
 1114SOL    HW2 5585   0.124   4.635   3.107
 1115SOL     OW 5586   1.525   4.723   2.052
 1115SOL    HW1 5587   1.462   4.647   2.065
 1115SOL    HW2 5588   1.573   4.741   2.138
 1116SOL     OW 5589   0.317   3.975   3.663
 1116SOL    HW1 5590   0.388   4.046   3.669
 1116SOL    HW2 5591   0.229   4.014   3.691
 1117SOL     OW 5592   1.466   5.141   2.815
 1117SOL    HW1 5593   1.407   5.147   2.895
 1117SOL    HW2 5594   1.451   5.053   2.769
 1118SOL     OW 5595   1.281   4.069   2.806
 1118SOL    HW1 5596   1.195   4.019   2.793
 1118SOL    HW2 5597   1.343   4.015   2.862
 1119SOL     OW 5598   0.807   4.329   3.327
 1119SOL    HW1 5599   0.760   4.326   3.416
 1119SOL    HW2 5600   0.756   4.274   3.261
 1120SOL     OW 5601   1.394   4.193   3.536
 1120SOL    HW1 5602   1.374   4.236   3.624
 1120SOL    HW2 5603   1.472   4.131   3.545
 1121SOL     OW 5604   0.973   4.614   3.434
 1121SOL    HW1 5605   1.019   4.530   3.405
 1121SOL    HW2 5606   0.917   4.648   3.359
 1122SOL     OW 5607   0.991   4.134   3.104
 1122SOL    HW1 5608   0.914   4.168   3.158
 1122SOL    HW2 5609   0.957   4.083   3.025
 1123SOL     OW 5610   1.041   4.425   2.291
 1123SOL    HW1 5611   1.067   4.421   2.387
 1123SOL    HW2 5612   0.956   4.374   2.277
 1124SOL     OW 5613   0.076   4.535   2.651
 1124SOL    HW1 5614   0.175   4.523   2.660
 1124SOL    HW2 5615   0.052   4.630   2.672
 1125SOL     OW 5616   0.865   4.072   2.057
 1125SOL    HW1 5617   0.924   4.135   2.008
 1125SOL    HW2 5618   0.884   3.978   2.028
 1126SOL     OW 5619   1.719   4.309   3.693
 1126SOL    HW1 5620   1.693   4.398   3.657
 1126SOL    HW2 5621   1.717   4.241   3.620
 1127SOL     OW 5622   0.550   3.920   2.747
 1127SOL    HW1 5623   0.545   3.915   2.847
 1127SOL    HW2 5624   0.552   4.016   2.718
 1128SOL     OW 5625   1.795   4.790   2.735
 1128SOL    HW1 5626   1.733   4.775   2.659
 1128SOL    HW2 5627   1.743   4.801   2.820
 1129SOL     OW 5628   0.321   4.667   2.104
 1129SOL    HW1 5629   0.403   4.706   2.062
 1129SOL    HW2 5630   0.294   4.585   2.055
 1130SOL     OW 5631   1.458   4.459   2.590
 1130SOL    HW1 5632   1.453   4.394   2.665
 1130SOL    HW2 5633   1.538   4.518   2.603
 1131SOL     OW 5634   1.632   5.101   1.943
 1131SOL    HW1 5635   1.600   5.195   1.933
 1131SOL    HW2 5636   1.556   5.038   1.931
 1132SOL     OW 5637   1.400   3.831   2.288
 1132SOL    HW1 5638   1.376   3.794   2.198
 1132SOL    HW2 5639   1.499   3.847   2.292
 1133SOL     OW 5640   0.382   4.424   2.342
 1133SOL    HW1 5641   0.427   4.334   2.339
 1133SOL    HW2 5642   0.288   4.413   2.375
 1134SOL     OW 5643   0.614   3.846   1.979
 1134SOL    HW1 5644   0.712   3.824   1.986
 1134SOL    HW2 5645   0.583   3.829   1.886
 1135SOL     OW 5646   0.781   3.988   3.611
 1135SOL    HW1 5647   0.848   3.927   3.654
 1135SOL    HW2 5648   0.708   4.007   3.676
 1136SOL     OW 5649   1.351   4.314   3.295
 1136SOL    HW1 5650   1.379   4.271   3.380
 1136SOL    HW2 5651   1.376   4.410   3.296
 1137SOL     OW 5652   0.922   4.227   2.761
 1137SOL    HW1 5653   0.897   4.218   2.665
 1137SOL    HW2 5654   0.970   4.145   2.792
 1138SOL     OW 5655   0.539   3.788   2.374
 1138SOL    HW1 5656   0.458   3.789   2.432
 1138SOL    HW2 5657   0.542   3.871   2.319
 1139SOL     OW 5658   1.434   4.912   1.903
 1139SOL    HW1 5659   1.466   4.836   1.960
 1139SOL    HW2 5660   1.342   4.939   1.933
 1140SOL     OW 5661   0.935   3.960   2.342
 1140SOL    HW1 5662   0.887   4.001   2.264
 1140SOL    HW2 5663   1.034   3.958   2.323
 1141SOL     OW 5664   1.076   4.407   3.326
 1141SOL    HW1 5665   0.996   4.346   3.329
 1141SOL    HW2 5666   1.157   4.354   3.302
 1142SOL     OW 5667   0.459   4.876   2.603
 1142SOL    HW1 5668   0.388   4.849   2.668
 1142SOL    HW2 5669   0.433   4.848   2.510
 1143SOL     OW 5670   1.032   4.273   1.878
 1143SOL    HW1 5671   0.991   4.355   1.839
 1143SOL    HW2 5672   1.096   4.299   1.951
 1144SOL     OW 5673   0.561   3.946   3.009
 1144SOL    HW1 5674   0.599   3.862   3.046
 1144SOL    HW2 5675   0.473   3.965   3.053
 1145SOL     OW 5676   0.866   4.178   2.504
 1145SOL    HW1 5677   0.834   4.250   2.442
 1145SOL    HW2 5678   0.890   4.097   2.451
 1146SOL     OW 5679   1.017   3.763   2.615
 1146SOL    HW1 5680   0.945   3.768   2.546
 1146SOL    HW2 5681   0.993   3.694   2.684
 1147SOL     OW 5682   1.429   4.897   2.729
 1147SOL    HW1 5683   1.374   4.813   2.722
 1147SOL    HW2 5684   1.455   4.926   2.637
 1148SOL     OW 5685   1.466   4.314   2.854
 1148SOL    HW1 5686   1.436   4.219   2.861
 1148SOL    HW2 5687   1.539   4.330   2.920
 1149SOL     OW 5688   1.664   5.004   2.519
 1149SOL    HW1 5689   1.763   5.012   2.533
 1149SOL    HW2 5690   1.619   5.088   2.550
 1150SOL     OW 5691   1.754   4.947   3.450
 1150SOL    HW1 5692   1.845   4.908   3.437
 1150SOL    HW2 5693   1.762   5.043   3.474
 1151SOL     OW 5694   1.638   4.823   2.941
 1151SOL    HW1 5695   1.643   4.904   3.000
 1151SOL    HW2 5696   1.552   4.825   2.890
 1152SOL     OW 5697   0.915   3.813   3.264
 1152SOL    HW1 5698   0.940   3.793   3.169
 1152SOL    HW2 5699   0.987   3.869   3.306
 1153SOL     OW 5700   0.980   4.840   3.581
 1153SOL    HW1 5701   0.881   4.846   3.591
 1153SOL    HW2 5702   1.003   4.760   3.525
 1154SOL     OW 5703   0.410   4.537   3.113
 1154SOL    HW1 5704   0.496   4.549   3.163
 1154SOL    HW2 5705   0.368   4.450   3.140
 1155SOL     OW 5706   1.274   4.110   3.124
 1155SOL    HW1 5707   1.295   4.184   3.188
 1155SOL    HW2 5708   1.185   4.127   3.081
 1156SOL     OW 5709   0.367   4.824   2.363
 1156SOL    HW1 5710   0.360   4.907   2.307
 1156SOL    HW2 5711   0.371   4.744   2.303
 1157SOL     OW 5712   0.566   4.261   2.727
 1157SOL    HW1 5713   0.578   4.327   2.653
 1157SOL    HW2 5714   0.612   4.295   2.810
 1158SOL     OW 5715   1.582   4.363   2.334
 1158SOL    HW1 5716   1.551   4.424   2.407
 1158SOL    HW2 5717   1.632   4.415   2.265
 1159SOL     OW 5718   0.402   4.475   3.460
 1159SOL    HW1 5719   0.470   4.530   3.413
 1159SOL    HW2 5720   0.442   4.387   3.487
 1160SOL     OW 5721   1.587   4.503   3.532
 1160SOL    HW1 5722   1.495   4.541   3.527
 1160SOL    HW2 5723   1.647   4.550   3.467
 1161SOL     OW 5724   1.013   3.829   3.632
 1161SOL    HW1 5725   1.019   3.914   3.580
 1161SOL    HW2 5726   1.045   3.753   3.575
 1162SOL     OW 5727   0.504   3.774   3.602
 1162SOL    HW1 5728   0.462   3.717   3.532
 1162SOL    HW2 5729   0.438   3.843   3.634
 1163SOL     OW 5730   0.573   4.594   2.891
 1163SOL    HW1 5731   0.617   4.683   2.882
 1163SOL    HW2 5732   0.510   4.594   2.968
 1164SOL     OW 5733   1.360   4.586   2.907
 1164SOL    HW1 5734   1.285   4.586   2.841
 1164SOL    HW2 5735   1.397   4.494   2.916
 1165SOL     OW 5736   0.307   3.937   3.093
 1165SOL    HW1 5737   0.284   3.974   3.183
 1165SOL    HW2 5738   0.277   3.842   3.087
 1166SOL     OW 5739   0.037   5.034   3.144
 1166SOL    HW1 5740   0.090   4.985   3.212
 1166SOL    HW2 5741   0.059   5.132   3.149
 1167SOL     OW 5742   0.732   4.358   2.926
 1167SOL    HW1 5743   0.791   4.332   2.850
 1167SOL    HW2 5744   0.704   4.454   2.915
 1168SOL     OW 5745   0.307   3.787   2.480
 1168SOL    HW1 5746   0.296   3.881   2.513
 1168SOL    HW2 5747   0.302   3.724   2.557
 1169SOL     OW 5748   1.023   4.490   2.828
 1169SOL    HW1 5749   1.038   4.511   2.924
 1169SOL    HW2 5750   0.993   4.395   2.819
 1170SOL     OW 5751   1.859   5.242   3.467
 1170SOL    HW1 5752   1.873   5.269   3.372
 1170SOL    HW2 5753   1.942   5.264   3.520
 1171SOL     OW 5754   0.350   4.622   3.666
 1171SOL    HW1 5755   0.426   4.666   3.714
 1171SOL    HW2 5756   0.385   4.575   3.584
 1172SOL     OW 5757   1.303   4.562   1.904
 1172SOL    HW1 5758   1.337   4.469   1.919
 1172SOL    HW2 5759   1.321   4.589   1.809
 1173SOL     OW 5760   0.319   4.534   2.811
 1173SOL    HW1 5761   0.412   4.570   2.816
 1173SOL    HW2 5762   0.313   4.449   2.863
 1174SOL     OW 5763   0.339   4.233   2.868
 1174SOL    HW1 5764   0.287   4.150   2.851
 1174SOL    HW2 5765   0.416   4.238   2.804
 1175SOL     OW 5766   1.138   4.104   3.540
 1175SOL    HW1 5767   1.093   4.167   3.604
 1175SOL    HW2 5768   1.231   4.135   3.523
 1176SOL     OW 5769   1.160   3.931   3.339
 1176SOL    HW1 5770   1.160   3.995   3.416
 1176SOL    HW2 5771   1.188   3.979   3.256
 1177SOL     OW 5772   1.002   4.520   3.100
 1177SOL    HW1 5773   1.043   4.488   3.186
 1177SOL    HW2 5774   0.906   4.493   3.097
 1178SOL     OW 5775   0.189   4.244   3.584
 1178SOL    HW1 5776   0.248   4.204   3.514
 1178SOL    HW2 5777   0.131   4.315   3.543
 1179SOL     OW 5778   0.815   4.296   2.187
 1179SOL    HW1 5779   0.822   4.207   2.141
 1179SOL    HW2 5780   0.721   4.330   2.179
 1180SOL     OW 5781   1.657   4.328   3.068
 1180SOL    HW1 5782   1.619   4.259   3.130
 1180SOL    HW2 5783   1.739   4.292   3.024
 1181SOL     OW 5784   0.671   4.188   3.131
 1181SOL    HW1 5785   0.637   4.099   3.101
 1181SOL    HW2 5786   0.697   4.242   3.051
 1182SOL     OW 5787   0.473   4.224   2.053
 1182SOL    HW1 5788   0.534   4.304   2.057
 1182SOL    HW2 5789   0.378   4.255   2.060
 1183SOL     OW 5790   0.159   4.861   3.328
 1183SOL    HW1 5791   0.181   4.800   3.404
 1183SOL    HW2 5792   0.169   4.812   3.242
 1184SOL     OW 5793   1.302   4.579   2.171
 1184SOL    HW1 5794   1.216   4.548   2.213
 1184SOL    HW2 5795   1.298   4.565   2.072
 1185SOL     OW 5796   0.083   4.982   2.884
 1185SOL    HW1 5797   0.078   4.981   2.984
 1185SOL    HW2 5798   0.000   4.941   2.846
 1186SOL     OW 5799   1.280   4.651   2.534
 1186SOL    HW1 5800   1.340   4.570   2.536
 1186SOL    HW2 5801   1.320   4.720   2.474
 1187SOL     OW 5802   0.830   4.997   3.284
 1187SOL    HW1 5803   0.825   5.030   3.379
 1187SOL    HW2 5804   0.744   5.016   3.238
 1188SOL     OW 5805   1.841   3.899   2.825
 1188SOL    HW1 5806   1.880   3.814   2.789
 1188SOL    HW2 5807   1.743   3.901   2.806
 1189SOL     OW 5808   1.194   5.336   1.893
 1189SOL    HW1 5809   1.200   5.243   1.930
 1189SOL    HW2 5810   1.135   5.336   1.813
 1190SOL     OW 5811   0.822   4.726   3.234
 1190SOL    HW1 5812   0.862   4.725   3.142
 1190SOL    HW2 5813   0.832   4.818   3.274
 1191SOL     OW 5814   0.372   5.012   3.352
 1191SOL    HW1 5815   0.359   5.105   3.318
 1191SOL    HW2 5816   0.288   4.960   3.339
 1192SOL     OW 5817   1.614   5.016   3.151
 1192SOL    HW1 5818   1.674   5.019   3.231
 1192SOL    HW2 5819   1.539   5.080   3.164
 1193SOL     OW 5820   1.014   3.960   2.833
 1193SOL    HW1 5821   1.006   3.924   2.740
 1193SOL    HW2 5822   1.012   3.884   2.898
 1194SOL     OW 5823   1.709   4.109   3.243
 1194SOL    HW1 5824   1.782   4.178   3.247
 1194SOL    HW2 5825   1.737   4.034   3.184
 1195SOL     OW 5826   0.105   4.737   3.588
 1195SOL    HW1 5827   0.028   4.704   3.642
 1195SOL    HW2 5828   0.190   4.707   3.630
 1196SOL     OW 5829   0.672   3.927   3.351
 1196SOL    HW1 5830   0.762   3.911   3.311
 1196SOL    HW2 5831   0.680   3.932   3.450
 1197SOL     OW 5832   1.440   4.580   3.260
 1197SOL    HW1 5833   1.383   4.632   3.197
 1197SOL    HW2 5834   1.536   4.592   3.236
 1198SOL     OW 5835   0.613   4.566   3.293
 1198SOL    HW1 5836   0.669   4.647   3.276
 1198SOL    HW2 5837   0.672   4.486   3.296
 1199SOL     OW 5838   0.716   4.289   3.570
 1199SOL    HW1 5839   0.735   4.354   3.644
 1199SOL    HW2 5840   0.776   4.209   3.579
 1200SOL     OW 5841   1.674   4.607   3.116
 1200SOL    HW1 5842   1.647   4.518   3.079
 1200SOL    HW2 5843   1.675   4.675   3.043
 1201SOL     OW 5844   0.594   4.469   2.514
 1201SOL    HW1 5845   0.644   4.554   2.495
 1201SOL    HW2 5846   0.506   4.471   2.466
 1202SOL     OW 5847   1.777   4.066   3.504
 1202SOL    HW1 5848   1.760   4.097   3.410
 1202SOL    HW2 5849   1.693   4.029   3.542
 1203SOL     OW 5850   1.730   4.658   3.379
 1203SOL    HW1 5851   1.768   4.749   3.394
 1203SOL    HW2 5852   1.722   4.641   3.280
 1204SOL     OW 5853   1.083   4.708   1.949
 1204SOL    HW1 5854   1.060   4.761   1.867
 1204SOL    HW2 5855   1.164   4.652   1.930
 1205SOL     OW 5856   0.079   4.964   2.515
 1205SOL    HW1 5857   0.078   4.917   2.603
 1205SOL    HW2 5858   0.161   4.936   2.464
 1206SOL     OW 5859   0.428   4.148   2.382
 1206SOL    HW1 5860   0.458   4.076   2.320
 1206SOL    HW2 5861   0.389   4.108   2.465
 1207SOL     OW 5862   0.317   4.271   3.142
 1207SOL    HW1 5863   0.355   4.212   3.214
 1207SOL    HW2 5864   0.357   4.245   3.054
 1208SOL     OW 5865   1.424   3.938   2.974
 1208SOL    HW1 5866   1.476   3.873   3.029
 1208SOL    HW2 5867   1.375   4.001   3.035
 1209SOL     OW 5868   1.001   3.758   3.016
 1209SOL    HW1 5869   0.938   3.686   2.985
 1209SOL    HW2 5870   1.094   3.722   3.016
 1210SOL     OW 5871   1.352   3.776   2.030
 1210SOL    HW1 5872   1.387   3.735   1.946
 1210SOL    HW2 5873   1.262   3.738   2.050
 1211SOL     OW 5874   1.300   4.177   2.553
 1211SOL    HW1 5875   1.241   4.257   2.557
 1211SOL    HW2 5876   1.315   4.142   2.646
 1212SOL     OW 5877   1.593   3.945   2.744
 1212SOL    HW1 5878   1.509   3.944   2.798
 1212SOL    HW2 5879   1.595   4.028   2.688
 1213SOL     OW 5880   0.039   4.801   2.162
 1213SOL    HW1 5881   0.138   4.790   2.153
 1213SOL    HW2 5882  -0.001   4.715   2.194
 1214SOL     OW 5883   0.230   4.352   3.837
 1214SOL    HW1 5884   0.137   4.350   3.874
 1214SOL    HW2 5885   0.231   4.313   3.745
 1215SOL     OW 5886   0.225   3.999   4.720
 1215SOL    HW1 5887   0.260   3.982   4.812
 1215SOL    HW2 5888   0.137   3.954   4.708
 1216SOL     OW 5889   0.019   4.092   4.371
 1216SOL    HW1 5890  -0.063   4.135   4.410
 1216SOL    HW2 5891  -0.009   4.019   4.308
 1217SOL     OW 5892   0.569   4.999   4.889
 1217SOL    HW1 5893   0.476   4.992   4.852
 1217SOL    HW2 5894   0.580   5.088   4.933
 1218SOL     OW 5895   1.555   5.235   4.427
 1218SOL    HW1 5896   1.498   5.219   4.508
 1218SOL    HW2 5897   1.496   5.245   4.347
 1219SOL     OW 5898   1.135   4.427   4.441
 1219SOL    HW1 5899   1.192   4.505   4.416
 1219SOL    HW2 5900   1.075   4.453   4.517
 1220SOL     OW 5901   1.755   4.331   3.955
 1220SOL    HW1 5902   1.743   4.318   3.856
 1220SOL    HW2 5903   1.725   4.250   4.004
 1221SOL     OW 5904   0.768   4.868   4.747
 1221SOL    HW1 5905   0.690   4.885   4.807
 1221SOL    HW2 5906   0.802   4.955   4.711
 1222SOL     OW 5907   0.685   4.736   4.389
 1222SOL    HW1 5908   0.754   4.720   4.459
 1222SOL    HW2 5909   0.612   4.793   4.427
 1223SOL     OW 5910   0.335   5.159   4.785
 1223SOL    HW1 5911   0.257   5.128   4.732
 1223SOL    HW2 5912   0.393   5.217   4.728
 1224SOL     OW 5913   1.603   4.171   4.461
 1224SOL    HW1 5914   1.529   4.217   4.411
 1224SOL    HW2 5915   1.654   4.239   4.514
 1225SOL     OW 5916   0.240   4.815   4.610
 1225SOL    HW1 5917   0.254   4.731   4.662
 1225SOL    HW2 5918   0.185   4.879   4.665
 1226SOL     OW 5919   0.606   4.688   3.847
 1226SOL    HW1 5920   0.613   4.772   3.793
 1226SOL    HW2 5921   0.652   4.701   3.935
 1227SOL     OW 5922   0.122   4.367   4.287
 1227SOL    HW1 5923   0.077   4.279   4.304
 1227SOL    HW2 5924   0.121   4.421   4.371
 1228SOL     OW 5925   1.641   4.832   4.156
 1228SOL    HW1 5926   1.727   4.834   4.104
 1228SOL    HW2 5927   1.655   4.879   4.244
 1229SOL     OW 5928   0.809   3.728   4.226
 1229SOL    HW1 5929   0.849   3.819   4.217
 1229SOL    HW2 5930   0.709   3.736   4.232
 1230SOL     OW 5931   0.197   4.700   4.988
 1230SOL    HW1 5932   0.286   4.655   4.974
 1230SOL    HW2 5933   0.124   4.635   4.969
 1231SOL     OW 5934   1.525   4.723   3.914
 1231SOL    HW1 5935   1.462   4.647   3.927
 1231SOL    HW2 5936   1.573   4.741   4.000
 1232SOL     OW 5937   1.466   5.141   4.677
 1232SOL    HW1 5938   1.407   5.147   4.757
 1232SOL    HW2 5939   1.451   5.053   4.631
 1233SOL     OW 5940   0.598   4.453   3.994
 1233SOL    HW1 5941   0.622   4.522   3.926
 1233SOL    HW2 5942   0.520   4.486   4.048
 1234SOL     OW 5943   1.281   4.069   4.668
 1234SOL    HW1 5944   1.195   4.019   4.655
 1234SOL    HW2 5945   1.343   4.015   4.724
 1235SOL     OW 5946   1.041   4.425   4.153
 1235SOL    HW1 5947   1.067   4.421   4.249
 1235SOL    HW2 5948   0.956   4.374   4.139
 1236SOL     OW 5949   0.076   4.535   4.513
 1236SOL    HW1 5950   0.175   4.523   4.522
 1236SOL    HW2 5951   0.052   4.630   4.534
 1237SOL     OW 5952   0.865   4.072   3.919
 1237SOL    HW1 5953   0.924   4.135   3.870
 1237SOL    HW2 5954   0.884   3.978   3.890
 1238SOL     OW 5955   1.362   4.868   4.269
 1238SOL    HW1 5956   1.445   4.839   4.221
 1238SOL    HW2 5957   1.313   4.935   4.213
 1239SOL     OW 5958   0.321   4.667   3.966
 1239SOL    HW1 5959   0.403   4.706   3.924
 1239SOL    HW2 5960   0.294   4.585   3.917
 1240SOL     OW 5961   0.382   4.424   4.204
 1240SOL    HW1 5962   0.427   4.334   4.201
 1240SOL    HW2 5963   0.288   4.413   4.237
 1241SOL     OW 5964   0.614   3.846   3.841
 1241SOL    HW1 5965   0.712   3.824   3.848
 1241SOL    HW2 5966   0.583   3.829   3.748
 1242SOL     OW 5967   0.803   5.126   4.648
 1242SOL    HW1 5968   0.893   5.140   4.606
 1242SOL    HW2 5969   0.732   5.128   4.577
 1243SOL     OW 5970   0.935   3.960   4.204
 1243SOL    HW1 5971   0.887   4.001   4.126
 1243SOL    HW2 5972   1.034   3.958   4.185
 1244SOL     OW 5973   1.227   5.294   4.517
 1244SOL    HW1 5974   1.248   5.368   4.452
 1244SOL    HW2 5975   1.295   5.294   4.590
 1245SOL     OW 5976   0.459   4.876   4.465
 1245SOL    HW1 5977   0.388   4.849   4.530
 1245SOL    HW2 5978   0.433   4.848   4.372
 1246SOL     OW 5979   1.032   4.273   3.740
 1246SOL    HW1 5980   0.991   4.355   3.701
 1246SOL    HW2 5981   1.096   4.299   3.813
 1247SOL     OW 5982   1.429   4.897   4.591
 1247SOL    HW1 5983   1.374   4.813   4.584
 1247SOL    HW2 5984   1.455   4.926   4.499
 1248SOL     OW 5985   1.466   4.314   4.716
 1248SOL    HW1 5986   1.436   4.219   4.723
 1248SOL    HW2 5987   1.539   4.330   4.782
 1249SOL     OW 5988   1.857   4.557   4.101
 1249SOL    HW1 5989   1.899   4.493   4.165
 1249SOL    HW2 5990   1.819   4.506   4.023
 1250SOL     OW 5991   1.664   5.004   4.381
 1250SOL    HW1 5992   1.763   5.012   4.395
 1250SOL    HW2 5993   1.619   5.088   4.412
 1251SOL     OW 5994   1.638   4.823   4.803
 1251SOL    HW1 5995   1.643   4.904   4.862
 1251SOL    HW2 5996   1.552   4.825   4.752
 1252SOL     OW 5997   0.705   4.774   4.092
 1252SOL    HW1 5998   0.691   4.781   4.191
 1252SOL    HW2 5999   0.789   4.723   4.074
 1253SOL     OW 6000   0.410   4.537   4.975
 1253SOL    HW1 6001   0.496   4.549   5.025
 1253SOL    HW2 6002   0.368   4.450   5.002
 1254SOL     OW 6003   1.274   4.110   4.986
 1254SOL    HW1 6004   1.295   4.184   5.050
 1254SOL    HW2 6005   1.185   4.127   4.943
 1255SOL     OW 6006   0.367   4.824   4.225
 1255SOL    HW1 6007   0.360   4.907   4.169
 1255SOL    HW2 6008   0.371   4.744   4.165
 1256SOL     OW 6009   0.566   4.261   4.589
 1256SOL    HW1 6010   0.578   4.327   4.515
 1256SOL    HW2 6011   0.612   4.295   4.672
 1257SOL     OW 6012   0.573   4.594   4.753
 1257SOL    HW1 6013   0.617   4.683   4.744
 1257SOL    HW2 6014   0.510   4.594   4.830
 1258SOL     OW 6015   0.307   3.937   4.955
 1258SOL    HW1 6016   0.284   3.974   5.045
 1258SOL    HW2 6017   0.277   3.842   4.949
 1259SOL     OW 6018   0.037   5.034   5.006
 1259SOL    HW1 6019   0.090   4.985   5.074
 1259SOL    HW2 6020   0.059   5.132   5.011
 1260SOL     OW 6021   0.732   4.358   4.788
 1260SOL    HW1 6022   0.791   4.332   4.712
 1260SOL    HW2 6023   0.704   4.454   4.777
 1261SOL     OW 6024   1.023   4.490   4.690
 1261SOL    HW1 6025   1.038   4.511   4.786
 1261SOL    HW2 6026   0.993   4.395   4.681
 1262SOL     OW 6027   1.303   4.562   3.766
 1262SOL    HW1 6028   1.337   4.469   3.781
 1262SOL    HW2 6029   1.321   4.589   3.671
 1263SOL     OW 6030   0.319   4.534   4.673
 1263SOL    HW1 6031   0.412   4.570   4.678
 1263SOL    HW2 6032   0.313   4.449   4.725
 1264SOL     OW 6033   0.339   4.233   4.730
 1264SOL    HW1 6034   0.287   4.150   4.713
 1264SOL    HW2 6035   0.416   4.238   4.666
 1265SOL     OW 6036   1.160   3.931   5.201
 1265SOL    HW1 6037   1.160   3.995   5.278
 1265SOL    HW2 6038   1.188   3.979   5.118
 1266SOL     OW 6039   0.040   4.268   4.838
 1266SOL    HW1 6040   0.125   4.235   4.797
 1266SOL    HW2 6041   0.053   4.283   4.936
 1267SOL     OW 6042   0.815   4.296   4.049
 1267SOL    HW1 6043   0.822   4.207   4.003
 1267SOL    HW2 6044   0.721   4.330   4.041
 1268SOL     OW 6045   1.657   4.328   4.930
 1268SOL    HW1 6046   1.619   4.259   4.992
 1268SOL    HW2 6047   1.739   4.292   4.886
 1269SOL     OW 6048   0.671   4.188   4.993
 1269SOL    HW1 6049   0.637   4.099   4.963
 1269SOL    HW2 6050   0.697   4.242   4.913
 1270SOL     OW 6051   0.473   4.224   3.915
 1270SOL    HW1 6052   0.534   4.304   3.919
 1270SOL    HW2 6053   0.378   4.255   3.922
 1271SOL     OW 6054   1.347   4.783   4.958
 1271SOL    HW1 6055   1.371   4.720   4.884
 1271SOL    HW2 6056   1.257   4.823   4.940
 1272SOL     OW 6057   1.302   4.579   4.033
 1272SOL    HW1 6058   1.216   4.548   4.075
 1272SOL    HW2 6059   1.298   4.565   3.934
 1273SOL     OW 6060   0.083   4.982   4.746
 1273SOL    HW1 6061   0.078   4.981   4.846
 1273SOL    HW2 6062   0.000   4.941   4.708
 1274SOL     OW 6063   1.726   3.859   4.247
 1274SOL    HW1 6064   1.799   3.842   4.180
 1274SOL    HW2 6065   1.695   3.772   4.285
 1275SOL     OW 6066   1.280   4.651   4.396
 1275SOL    HW1 6067   1.340   4.570   4.398
 1275SOL    HW2 6068   1.320   4.720   4.336
 1276SOL     OW 6069   0.830   4.997   5.146
 1276SOL    HW1 6070   0.825   5.030   5.241
 1276SOL    HW2 6071   0.744   5.016   5.100
 1277SOL     OW 6072   0.263   4.050   4.444
 1277SOL    HW1 6073   0.184   4.101   4.410
 1277SOL    HW2 6074   0.254   4.035   4.542
 1278SOL     OW 6075   0.822   4.726   5.096
 1278SOL    HW1 6076   0.862   4.725   5.004
 1278SOL    HW2 6077   0.832   4.818   5.136
 1279SOL     OW 6078   0.916   4.634   4.015
 1279SOL    HW1 6079   0.979   4.672   3.947
 1279SOL    HW2 6080   0.956   4.551   4.054
 1280SOL     OW 6081   1.039   4.822   4.420
 1280SOL    HW1 6082   0.969   4.775   4.474
 1280SOL    HW2 6083   1.098   4.754   4.377
 1281SOL     OW 6084   0.075   4.069   3.757
 1281SOL    HW1 6085  -0.017   4.041   3.728
 1281SOL    HW2 6086   0.106   4.146   3.701
 1282SOL     OW 6087   1.450   4.944   5.357
 1282SOL    HW1 6088   1.441   4.934   5.456
 1282SOL    HW2 6089   1.546   4.937   5.331
 1283SOL     OW 6090   0.594   4.469   4.376
 1283SOL    HW1 6091   0.644   4.554   4.357
 1283SOL    HW2 6092   0.506   4.471   4.328
 1284SOL     OW 6093   0.859   4.680   4.585
 1284SOL    HW1 6094   0.913   4.611   4.633
 1284SOL    HW2 6095   0.827   4.749   4.651
 1285SOL     OW 6096   1.083   4.708   3.811
 1285SOL    HW1 6097   1.060   4.761   3.729
 1285SOL    HW2 6098   1.164   4.652   3.792
 1286SOL     OW 6099   0.770   5.054   4.025
 1286SOL    HW1 6100   0.724   4.967   4.042
 1286SOL    HW2 6101   0.861   5.051   4.066
 1287SOL     OW 6102   1.300   4.177   4.415
 1287SOL    HW1 6103   1.241   4.257   4.419
 1287SOL    HW2 6104   1.315   4.142   4.508
 1288SOL     OW 6105   1.593   3.945   4.606
 1288SOL    HW1 6106   1.509   3.944   4.660
 1288SOL    HW2 6107   1.595   4.028   4.550
 1289SOL     OW 6108   0.039   4.801   4.024
 1289SOL    HW1 6109   0.138   4.790   4.015
 1289SOL    HW2 6110  -0.001   4.715   4.056
 1290SOL     OW 6111   2.087   0.275   0.996
 1290SOL    HW1 6112   2.122   0.258   1.088
 1290SOL    HW2 6113   1.999   0.230   0.984
 1291SOL     OW 6114   1.881   0.368   0.647
 1291SOL    HW1 6115   1.799   0.411   0.686
 1291SOL    HW2 6116   1.853   0.295   0.584
 1292SOL     OW 6117   2.431   1.275   1.165
 1292SOL    HW1 6118   2.338   1.268   1.128
 1292SOL    HW2 6119   2.442   1.364   1.209
 1293SOL     OW 6120   3.417   1.511   0.703
 1293SOL    HW1 6121   3.360   1.495   0.784
 1293SOL    HW2 6122   3.358   1.521   0.623
 1294SOL     OW 6123   2.997   0.703   0.717
 1294SOL    HW1 6124   3.054   0.781   0.692
 1294SOL    HW2 6125   2.937   0.729   0.793
 1295SOL     OW 6126   2.712   0.798   1.823
 1295SOL    HW1 6127   2.708   0.874   1.888
 1295SOL    HW2 6128   2.734   0.834   1.732
 1296SOL     OW 6129   2.548   1.161   1.803
 1296SOL    HW1 6130   2.608   1.240   1.817
 1296SOL    HW2 6131   2.462   1.192   1.762
 1297SOL     OW 6132   2.197   1.435   1.061
 1297SOL    HW1 6133   2.119   1.404   1.008
 1297SOL    HW2 6134   2.255   1.493   1.004
 1298SOL     OW 6135   2.093   1.713   0.483
 1298SOL    HW1 6136   2.127   1.790   0.537
 1298SOL    HW2 6137   2.137   1.713   0.393
 1299SOL     OW 6138   2.989   1.341   1.690
 1299SOL    HW1 6139   3.036   1.341   1.778
 1299SOL    HW2 6140   2.941   1.254   1.679
 1300SOL     OW 6141   2.102   1.091   0.886
 1300SOL    HW1 6142   2.116   1.007   0.938
 1300SOL    HW2 6143   2.047   1.155   0.941
 1301SOL     OW 6144   2.482   1.786   1.439
 1301SOL    HW1 6145   2.390   1.769   1.474
 1301SOL    HW2 6146   2.510   1.878   1.465
 1302SOL     OW 6147   2.468   0.964   0.123
 1302SOL    HW1 6148   2.475   1.048   0.069
 1302SOL    HW2 6149   2.514   0.977   0.211
 1303SOL     OW 6150   3.456   0.114   1.480
 1303SOL    HW1 6151   3.438   0.181   1.408
 1303SOL    HW2 6152   3.453   0.160   1.569
 1304SOL     OW 6153   1.984   0.643   0.563
 1304SOL    HW1 6154   1.939   0.555   0.580
 1304SOL    HW2 6155   1.983   0.697   0.647
 1305SOL     OW 6156   3.704   1.767   0.359
 1305SOL    HW1 6157   3.758   1.738   0.439
 1305SOL    HW2 6158   3.734   1.857   0.330
 1306SOL     OW 6159   3.551   0.922   0.612
 1306SOL    HW1 6160   3.646   0.893   0.620
 1306SOL    HW2 6161   3.543   0.987   0.537
 1307SOL     OW 6162   3.503   1.108   0.432
 1307SOL    HW1 6163   3.589   1.110   0.380
 1307SOL    HW2 6164   3.517   1.155   0.520
 1308SOL     OW 6165   1.975   0.737   1.597
 1308SOL    HW1 6166   2.063   0.724   1.642
 1308SOL    HW2 6167   1.962   0.834   1.575
 1309SOL     OW 6168   2.671   0.004   0.502
 1309SOL    HW1 6169   2.711   0.095   0.493
 1309SOL    HW2 6170   2.571   0.012   0.508
 1310SOL     OW 6171   2.059   0.976   1.264
 1310SOL    HW1 6172   2.148   0.931   1.250
 1310SOL    HW2 6173   1.986   0.911   1.245
 1311SOL     OW 6174   3.328   1.417   0.953
 1311SOL    HW1 6175   3.269   1.423   1.033
 1311SOL    HW2 6176   3.313   1.329   0.907
 1312SOL     OW 6177   3.529   1.714   0.572
 1312SOL    HW1 6178   3.488   1.691   0.484
 1312SOL    HW2 6179   3.511   1.640   0.637
 1313SOL     OW 6180   2.460   0.729   0.270
 1313SOL    HW1 6181   2.484   0.798   0.202
 1313SOL    HW2 6182   2.382   0.762   0.324
 1314SOL     OW 6183   3.143   0.345   0.944
 1314SOL    HW1 6184   3.057   0.295   0.931
 1314SOL    HW2 6185   3.205   0.291   1.000
 1315SOL     OW 6186   3.438   1.662   0.307
 1315SOL    HW1 6187   3.527   1.708   0.310
 1315SOL    HW2 6188   3.417   1.638   0.212
 1316SOL     OW 6189   2.669   0.605   1.465
 1316SOL    HW1 6190   2.622   0.602   1.554
 1316SOL    HW2 6191   2.618   0.550   1.399
 1317SOL     OW 6192   3.256   0.469   1.674
 1317SOL    HW1 6193   3.236   0.512   1.762
 1317SOL    HW2 6194   3.334   0.407   1.683
 1318SOL     OW 6195   2.835   0.890   1.572
 1318SOL    HW1 6196   2.881   0.806   1.543
 1318SOL    HW2 6197   2.779   0.924   1.497
 1319SOL     OW 6198   2.903   0.701   0.429
 1319SOL    HW1 6199   2.929   0.697   0.525
 1319SOL    HW2 6200   2.818   0.650   0.415
 1320SOL     OW 6201   1.938   0.811   0.789
 1320SOL    HW1 6202   2.037   0.799   0.798
 1320SOL    HW2 6203   1.914   0.906   0.810
 1321SOL     OW 6204   2.727   0.348   0.195
 1321SOL    HW1 6205   2.786   0.411   0.146
 1321SOL    HW2 6206   2.746   0.254   0.166
 1322SOL     OW 6207   2.412   0.196   0.885
 1322SOL    HW1 6208   2.407   0.191   0.985
 1322SOL    HW2 6209   2.414   0.292   0.856
 1323SOL     OW 6210   2.870   1.456   0.477
 1323SOL    HW1 6211   2.824   1.528   0.425
 1323SOL    HW2 6212   2.866   1.476   0.575
 1324SOL     OW 6213   2.213   1.801   0.853
 1324SOL    HW1 6214   2.263   1.715   0.859
 1324SOL    HW2 6215   2.278   1.878   0.850
 1325SOL     OW 6216   3.657   1.066   0.873
 1325SOL    HW1 6217   3.595   1.051   0.797
 1325SOL    HW2 6218   3.605   1.077   0.958
 1326SOL     OW 6219   3.320   0.735   0.728
 1326SOL    HW1 6220   3.315   0.670   0.803
 1326SOL    HW2 6221   3.400   0.794   0.741
 1327SOL     OW 6222   2.323   1.266   1.727
 1327SOL    HW1 6223   2.273   1.267   1.641
 1327SOL    HW2 6224   2.260   1.248   1.803
 1328SOL     OW 6225   2.064   0.285   1.498
 1328SOL    HW1 6226   1.984   0.345   1.485
 1328SOL    HW2 6227   2.054   0.236   1.584
 1329SOL     OW 6228   2.326   1.743   0.323
 1329SOL    HW1 6229   2.359   1.782   0.409
 1329SOL    HW2 6230   2.402   1.736   0.258
 1330SOL     OW 6231   2.111   1.785   1.241
 1330SOL    HW1 6232   2.168   1.720   1.291
 1330SOL    HW2 6233   2.095   1.752   1.148
 1331SOL     OW 6234   2.802   1.698   0.904
 1331SOL    HW1 6235   2.882   1.641   0.925
 1331SOL    HW2 6236   2.753   1.658   0.827
 1332SOL     OW 6237   2.244   0.700   0.480
 1332SOL    HW1 6238   2.289   0.610   0.477
 1332SOL    HW2 6239   2.150   0.689   0.513
 1333SOL     OW 6240   2.476   0.122   0.117
 1333SOL    HW1 6241   2.574   0.100   0.124
 1333SOL    HW2 6242   2.445   0.105   0.024
 1334SOL     OW 6243   2.750   1.514   1.195
 1334SOL    HW1 6244   2.727   1.489   1.101
 1334SOL    HW2 6245   2.811   1.445   1.234
 1335SOL     OW 6246   3.213   0.590   1.433
 1335SOL    HW1 6247   3.241   0.547   1.518
 1335SOL    HW2 6248   3.238   0.686   1.434
 1336SOL     OW 6249   2.784   0.503   0.899
 1336SOL    HW1 6250   2.759   0.494   0.803
 1336SOL    HW2 6251   2.832   0.421   0.930
 1337SOL     OW 6252   2.401   0.064   0.512
 1337SOL    HW1 6253   2.320   0.065   0.570
 1337SOL    HW2 6254   2.404   0.147   0.457
 1338SOL     OW 6255   2.159   0.035   0.171
 1338SOL    HW1 6256   2.208   0.119   0.150
 1338SOL    HW2 6257   2.221  -0.030   0.216
 1339SOL     OW 6258   2.797   0.236   0.480
 1339SOL    HW1 6259   2.749   0.277   0.402
 1339SOL    HW2 6260   2.896   0.234   0.461
 1340SOL     OW 6261   2.938   0.683   1.464
 1340SOL    HW1 6262   2.858   0.622   1.467
 1340SOL    HW2 6263   3.019   0.630   1.440
 1341SOL     OW 6264   3.089   1.570   0.793
 1341SOL    HW1 6265   3.110   1.644   0.728
 1341SOL    HW2 6266   3.157   1.570   0.866
 1342SOL     OW 6267   3.133   1.797   0.591
 1342SOL    HW1 6268   3.177   1.861   0.527
 1342SOL    HW2 6269   3.083   1.849   0.661
 1343SOL     OW 6270   2.894   0.549   0.016
 1343SOL    HW1 6271   2.853   0.631  -0.023
 1343SOL    HW2 6272   2.958   0.575   0.089
 1344SOL     OW 6273   1.940   0.556   1.386
 1344SOL    HW1 6274   2.032   0.555   1.345
 1344SOL    HW2 6275   1.934   0.630   1.453
 1345SOL     OW 6276   2.423   0.222   1.147
 1345SOL    HW1 6277   2.461   0.138   1.184
 1345SOL    HW2 6278   2.335   0.241   1.191
 1346SOL     OW 6279   2.728   0.454   0.642
 1346SOL    HW1 6280   2.696   0.526   0.580
 1346SOL    HW2 6281   2.752   0.373   0.589
 1347SOL     OW 6282   2.879   0.039   0.753
 1347SOL    HW1 6283   2.807   0.044   0.684
 1347SOL    HW2 6284   2.855  -0.030   0.822
 1348SOL     OW 6285   3.291   1.173   0.867
 1348SOL    HW1 6286   3.236   1.089   0.860
 1348SOL    HW2 6287   3.317   1.202   0.775
 1349SOL     OW 6288   3.328   0.590   0.992
 1349SOL    HW1 6289   3.298   0.495   0.999
 1349SOL    HW2 6290   3.401   0.606   1.058
 1350SOL     OW 6291   3.526   1.280   0.657
 1350SOL    HW1 6292   3.625   1.288   0.671
 1350SOL    HW2 6293   3.481   1.364   0.688
 1351SOL     OW 6294   3.252   0.575   0.078
 1351SOL    HW1 6295   3.198   0.554   0.159
 1351SOL    HW2 6296   3.343   0.534   0.087
 1352SOL     OW 6297   2.389   0.256   0.328
 1352SOL    HW1 6298   2.416   0.197   0.253
 1352SOL    HW2 6299   2.389   0.351   0.297
 1353SOL     OW 6300   2.926   1.347   1.340
 1353SOL    HW1 6301   2.846   1.324   1.395
 1353SOL    HW2 6302   3.009   1.321   1.389
 1354SOL     OW 6303   2.973   1.195   1.100
 1354SOL    HW1 6304   2.933   1.239   1.181
 1354SOL    HW2 6305   2.932   1.232   1.017
 1355SOL     OW 6306   3.500   1.099   1.079
 1355SOL    HW1 6307   3.505   1.180   1.138
 1355SOL    HW2 6308   3.414   1.101   1.028
 1356SOL     OW 6309   2.777   0.089   1.402
 1356SOL    HW1 6310   2.802   0.069   1.307
 1356SOL    HW2 6311   2.849   0.145   1.444
 1357SOL     OW 6312   2.842   1.116   1.719
 1357SOL    HW1 6313   2.743   1.122   1.729
 1357SOL    HW2 6314   2.865   1.036   1.663
 1358SOL     OW 6315   2.272   0.813   1.251
 1358SOL    HW1 6316   2.358   0.825   1.301
 1358SOL    HW2 6317   2.230   0.726   1.278
 1359SOL     OW 6318   3.136   0.386   1.262
 1359SOL    HW1 6319   3.157   0.460   1.326
 1359SOL    HW2 6320   3.047   0.403   1.219
 1360SOL     OW 6321   1.926   1.564   1.331
 1360SOL    HW1 6322   1.880   1.646   1.297
 1360SOL    HW2 6323   2.024   1.583   1.340
 1361SOL     OW 6324   2.229   1.100   0.501
 1361SOL    HW1 6325   2.222   1.183   0.445
 1361SOL    HW2 6326   2.233   1.020   0.441
 1362SOL     OW 6327   2.428   0.537   0.865
 1362SOL    HW1 6328   2.440   0.603   0.791
 1362SOL    HW2 6329   2.474   0.571   0.948
 1363SOL     OW 6330   3.114   1.348   0.388
 1363SOL    HW1 6331   3.164   1.425   0.428
 1363SOL    HW2 6332   3.019   1.350   0.420
 1364SOL     OW 6333   3.444   0.639   0.472
 1364SOL    HW1 6334   3.413   0.700   0.545
 1364SOL    HW2 6335   3.494   0.691   0.403
 1365SOL     OW 6336   2.216   1.510   1.329
 1365SOL    HW1 6337   2.195   1.466   1.242
 1365SOL    HW2 6338   2.313   1.536   1.332
 1366SOL     OW 6339   2.435   0.870   1.029
 1366SOL    HW1 6340   2.479   0.959   1.020
 1366SOL    HW2 6341   2.372   0.870   1.106
 1367SOL     OW 6342   3.222   0.862   1.045
 1367SOL    HW1 6343   3.147   0.862   0.979
 1367SOL    HW2 6344   3.259   0.770   1.054
 1368SOL     OW 6345   3.071   0.525   0.275
 1368SOL    HW1 6346   3.084   0.441   0.329
 1368SOL    HW2 6347   3.042   0.599   0.335
 1369SOL     OW 6348   2.169   0.213   1.231
 1369SOL    HW1 6349   2.146   0.250   1.321
 1369SOL    HW2 6350   2.139   0.118   1.225
 1370SOL     OW 6351   2.594   0.634   1.064
 1370SOL    HW1 6352   2.653   0.608   0.988
 1370SOL    HW2 6353   2.566   0.730   1.053
 1371SOL     OW 6354   2.169   0.063   0.618
 1371SOL    HW1 6355   2.158   0.157   0.651
 1371SOL    HW2 6356   2.164   0.000   0.695
 1372SOL     OW 6357   2.885   0.766   0.966
 1372SOL    HW1 6358   2.900   0.787   1.062
 1372SOL    HW2 6359   2.855   0.671   0.957
 1373SOL     OW 6360   2.842   1.573   1.700
 1373SOL    HW1 6361   2.822   1.617   1.612
 1373SOL    HW2 6362   2.881   1.482   1.684
 1374SOL     OW 6363   2.212   0.898   1.804
 1374SOL    HW1 6364   2.288   0.942   1.852
 1374SOL    HW2 6365   2.247   0.851   1.722
 1375SOL     OW 6366   3.402   0.274   0.125
 1375SOL    HW1 6367   3.341   0.199   0.148
 1375SOL    HW2 6368   3.424   0.326   0.208
 1376SOL     OW 6369   3.165   0.838   0.042
 1376SOL    HW1 6370   3.199   0.745   0.057
 1376SOL    HW2 6371   3.183   0.865  -0.053
 1377SOL     OW 6372   2.930   1.333   0.849
 1377SOL    HW1 6373   2.937   1.249   0.794
 1377SOL    HW2 6374   2.992   1.402   0.813
 1378SOL     OW 6375   2.181   0.810   0.949
 1378SOL    HW1 6376   2.274   0.846   0.954
 1378SOL    HW2 6377   2.175   0.725   1.001
 1379SOL     OW 6378   2.201   0.509   1.006
 1379SOL    HW1 6379   2.149   0.426   0.989
 1379SOL    HW2 6380   2.278   0.514   0.942
 1380SOL     OW 6381   3.000   0.380   1.678
 1380SOL    HW1 6382   2.955   0.443   1.742
 1380SOL    HW2 6383   3.093   0.411   1.661
 1381SOL     OW 6384   2.864   0.796   1.238
 1381SOL    HW1 6385   2.905   0.764   1.324
 1381SOL    HW2 6386   2.768   0.769   1.235
 1382SOL     OW 6387   1.902   0.544   1.114
 1382SOL    HW1 6388   1.987   0.511   1.073
 1382SOL    HW2 6389   1.915   0.559   1.212
 1383SOL     OW 6390   2.051   0.520   1.722
 1383SOL    HW1 6391   2.110   0.480   1.652
 1383SOL    HW2 6392   1.993   0.591   1.681
 1384SOL     OW 6393   2.677   0.572   0.325
 1384SOL    HW1 6394   2.684   0.483   0.279
 1384SOL    HW2 6395   2.583   0.606   0.317
 1385SOL     OW 6396   3.519   0.604   1.206
 1385SOL    HW1 6397   3.481   0.535   1.268
 1385SOL    HW2 6398   3.601   0.568   1.162
 1386SOL     OW 6399   2.792   1.678   1.465
 1386SOL    HW1 6400   2.768   1.660   1.370
 1386SOL    HW2 6401   2.822   1.772   1.475
 1387SOL     OW 6402   2.335   0.500   0.191
 1387SOL    HW1 6403   2.396   0.580   0.195
 1387SOL    HW2 6404   2.240   0.531   0.198
 1388SOL     OW 6405   3.209   1.059   1.234
 1388SOL    HW1 6406   3.233   0.996   1.160
 1388SOL    HW2 6407   3.119   1.099   1.216
 1389SOL     OW 6408   3.164   0.855   0.309
 1389SOL    HW1 6409   3.078   0.824   0.351
 1389SOL    HW2 6410   3.160   0.841   0.210
 1390SOL     OW 6411   3.621   1.747   1.154
 1390SOL    HW1 6412   3.682   1.777   1.081
 1390SOL    HW2 6413   3.583   1.658   1.132
 1391SOL     OW 6414   1.945   1.258   1.022
 1391SOL    HW1 6415   1.940   1.257   1.122
 1391SOL    HW2 6416   1.862   1.217   0.984
 1392SOL     OW 6417   2.550   1.662   1.716
 1392SOL    HW1 6418   2.494   1.743   1.725
 1392SOL    HW2 6419   2.602   1.666   1.630
 1393SOL     OW 6420   3.250   1.573   0.477
 1393SOL    HW1 6421   3.317   1.585   0.403
 1393SOL    HW2 6422   3.210   1.662   0.500
 1394SOL     OW 6423   1.992   1.794   1.851
 1394SOL    HW1 6424   1.951   1.720   1.904
 1394SOL    HW2 6425   2.056   1.845   1.909
 1395SOL     OW 6426   2.692   1.273   1.422
 1395SOL    HW1 6427   2.687   1.306   1.517
 1395SOL    HW2 6428   2.606   1.292   1.376
 1396SOL     OW 6429   2.534   1.616   0.154
 1396SOL    HW1 6430   2.543   1.626   0.055
 1396SOL    HW2 6431   2.494   1.527   0.175
 1397SOL     OW 6432   3.703   0.175   0.963
 1397SOL    HW1 6433   3.742   0.090   0.927
 1397SOL    HW2 6434   3.605   0.177   0.944
 1398SOL     OW 6435   2.125   0.326   0.720
 1398SOL    HW1 6436   2.046   0.377   0.686
 1398SOL    HW2 6437   2.116   0.311   0.818
 1399SOL     OW 6438   3.056   1.612   0.031
 1399SOL    HW1 6439   3.062   1.519   0.068
 1399SOL    HW2 6440   2.997   1.612  -0.049
 1400SOL     OW 6441   2.684   1.002   1.372
 1400SOL    HW1 6442   2.724   1.001   1.280
 1400SOL    HW2 6443   2.694   1.094   1.412
 1401SOL     OW 6444   2.778   0.910   0.291
 1401SOL    HW1 6445   2.841   0.948   0.223
 1401SOL    HW2 6446   2.818   0.827   0.330
 1402SOL     OW 6447   3.366   1.607   0.044
 1402SOL    HW1 6448   3.274   1.644   0.051
 1402SOL    HW2 6449   3.404   1.627  -0.046
 1403SOL     OW 6450   2.234   1.288   1.490
 1403SOL    HW1 6451   2.221   1.381   1.456
 1403SOL    HW2 6452   2.150   1.236   1.477
 1404SOL     OW 6453   3.476   1.292   1.289
 1404SOL    HW1 6454   3.536   1.295   1.369
 1404SOL    HW2 6455   3.401   1.356   1.302
 1405SOL     OW 6456   2.901   1.098   0.696
 1405SOL    HW1 6457   2.831   1.051   0.750
 1405SOL    HW2 6458   2.960   1.030   0.653
 1406SOL     OW 6459   2.876   0.236   0.971
 1406SOL    HW1 6460   2.868   0.200   0.878
 1406SOL    HW2 6461   2.874   0.160   1.036
 1407SOL     OW 6462   3.571   0.385   1.381
 1407SOL    HW1 6463   3.644   0.454   1.385
 1407SOL    HW2 6464   3.599   0.310   1.322
 1408SOL     OW 6465   3.302   0.856   1.398
 1408SOL    HW1 6466   3.245   0.908   1.335
 1408SOL    HW2 6467   3.398   0.868   1.374
 1409SOL     OW 6468   1.934   0.166   0.318
 1409SOL    HW1 6469   1.917   0.249   0.264
 1409SOL    HW2 6470   2.024   0.129   0.296
 1410SOL     OW 6471   3.045   1.335   0.119
 1410SOL    HW1 6472   2.946   1.324   0.121
 1410SOL    HW2 6473   3.079   1.350   0.212
 1411SOL     OW 6474   2.475   0.842   1.431
 1411SOL    HW1 6475   2.531   0.923   1.414
 1411SOL    HW2 6476   2.534   0.762   1.434
 1412SOL     OW 6477   3.355   1.767   0.959
 1412SOL    HW1 6478   3.388   1.831   0.890
 1412SOL    HW2 6479   3.421   1.761   1.034
 1413SOL     OW 6480   3.312   1.220   1.633
 1413SOL    HW1 6481   3.303   1.210   1.732
 1413SOL    HW2 6482   3.408   1.213   1.607
 1414SOL     OW 6483   2.252   1.741   1.560
 1414SOL    HW1 6484   2.161   1.782   1.558
 1414SOL    HW2 6485   2.245   1.647   1.592
 1415SOL     OW 6486   3.536   0.883   1.254
 1415SOL    HW1 6487   3.509   0.794   1.217
 1415SOL    HW2 6488   3.537   0.951   1.181
 1416SOL     OW 6489   3.087   0.325   0.449
 1416SOL    HW1 6490   3.152   0.251   0.438
 1416SOL    HW2 6491   3.107   0.375   0.533
 1417SOL     OW 6492   2.456   0.745   0.652
 1417SOL    HW1 6493   2.506   0.830   0.633
 1417SOL    HW2 6494   2.368   0.747   0.604
 1418SOL     OW 6495   3.592   0.934   1.517
 1418SOL    HW1 6496   3.630   1.025   1.532
 1418SOL    HW2 6497   3.584   0.917   1.418
 1419SOL     OW 6498   2.721   1.374   0.016
 1419SOL    HW1 6499   2.675   1.389   0.104
 1419SOL    HW2 6500   2.765   1.459  -0.014
 1420SOL     OW 6501   2.523   1.790   0.953
 1420SOL    HW1 6502   2.477   1.878   0.940
 1420SOL    HW2 6503   2.622   1.802   0.946
 1421SOL     OW 6504   2.721   0.956   0.861
 1421SOL    HW1 6505   2.775   0.887   0.909
 1421SOL    HW2 6506   2.689   1.025   0.927
 1422SOL     OW 6507   2.945   0.984   0.087
 1422SOL    HW1 6508   2.922   1.037   0.005
 1422SOL    HW2 6509   3.026   0.928   0.068
 1423SOL     OW 6510   3.723   1.569   0.851
 1423SOL    HW1 6511   3.652   1.557   0.781
 1423SOL    HW2 6512   3.724   1.490   0.911
 1424SOL     OW 6513   1.941   1.240   0.653
 1424SOL    HW1 6514   1.940   1.193   0.741
 1424SOL    HW2 6515   2.023   1.212   0.602
 1425SOL     OW 6516   2.534   1.391   1.624
 1425SOL    HW1 6517   2.456   1.341   1.662
 1425SOL    HW2 6518   2.531   1.486   1.655
 1426SOL     OW 6519   3.686   0.192   1.227
 1426SOL    HW1 6520   3.682   0.102   1.271
 1426SOL    HW2 6521   3.689   0.181   1.128
 1427SOL     OW 6522   2.290   0.424   0.520
 1427SOL    HW1 6523   2.320   0.352   0.458
 1427SOL    HW2 6524   2.251   0.384   0.603
 1428SOL     OW 6525   3.567   1.487   1.104
 1428SOL    HW1 6526   3.474   1.462   1.077
 1428SOL    HW2 6527   3.593   1.437   1.186
 1429SOL     OW 6528   2.179   0.547   1.280
 1429SOL    HW1 6529   2.217   0.488   1.352
 1429SOL    HW2 6530   2.219   0.521   1.192
 1430SOL     OW 6531   2.674   1.586   0.687
 1430SOL    HW1 6532   2.706   1.596   0.593
 1430SOL    HW2 6533   2.595   1.524   0.689
 1431SOL     OW 6534   3.286   0.214   1.112
 1431SOL    HW1 6535   3.338   0.149   1.167
 1431SOL    HW2 6536   3.237   0.277   1.173
 1432SOL     OW 6537   2.863   0.034   1.154
 1432SOL    HW1 6538   2.800  -0.038   1.123
 1432SOL    HW2 6539   2.956  -0.002   1.154
 1433SOL     OW 6540   2.480   1.567   1.284
 1433SOL    HW1 6541   2.475   1.649   1.341
 1433SOL    HW2 6542   2.569   1.564   1.239
 1434SOL     OW 6543   3.162   0.453   0.691
 1434SOL    HW1 6544   3.103   0.533   0.695
 1434SOL    HW2 6545   3.177   0.418   0.784
 1435SOL     OW 6546   3.455   0.221   0.882
 1435SOL    HW1 6547   3.371   0.220   0.936
 1435SOL    HW2 6548   3.457   0.304   0.826
 1436SOL     OW 6549   1.901   1.077   0.300
 1436SOL    HW1 6550   2.000   1.066   0.291
 1436SOL    HW2 6551   1.861   0.991   0.332
 1437SOL     OW 6552   2.737   1.646   0.337
 1437SOL    HW1 6553   2.660   1.611   0.283
 1437SOL    HW2 6554   2.705   1.717   0.399
 1438SOL     OW 6555   2.092   0.628   1.975
 1438SOL    HW1 6556   1.999   0.626   2.012
 1438SOL    HW2 6557   2.093   0.589   1.883
 1439SOL     OW 6558   2.087   0.275   2.858
 1439SOL    HW1 6559   2.122   0.258   2.950
 1439SOL    HW2 6560   1.999   0.230   2.846
 1440SOL     OW 6561   1.881   0.368   2.509
 1440SOL    HW1 6562   1.799   0.411   2.548
 1440SOL    HW2 6563   1.853   0.295   2.446
 1441SOL     OW 6564   2.431   1.275   3.027
 1441SOL    HW1 6565   2.338   1.268   2.990
 1441SOL    HW2 6566   2.442   1.364   3.071
 1442SOL     OW 6567   3.417   1.511   2.565
 1442SOL    HW1 6568   3.360   1.495   2.646
 1442SOL    HW2 6569   3.358   1.521   2.485
 1443SOL     OW 6570   2.997   0.703   2.579
 1443SOL    HW1 6571   3.054   0.781   2.554
 1443SOL    HW2 6572   2.937   0.729   2.655
 1444SOL     OW 6573   2.630   1.144   2.885
 1444SOL    HW1 6574   2.552   1.161   2.945
 1444SOL    HW2 6575   2.664   1.231   2.849
 1445SOL     OW 6576   2.712   0.798   3.685
 1445SOL    HW1 6577   2.708   0.874   3.750
 1445SOL    HW2 6578   2.734   0.834   3.594
 1446SOL     OW 6579   2.547   1.012   2.527
 1446SOL    HW1 6580   2.616   0.996   2.597
 1446SOL    HW2 6581   2.474   1.069   2.565
 1447SOL     OW 6582   2.197   1.435   2.923
 1447SOL    HW1 6583   2.119   1.404   2.870
 1447SOL    HW2 6584   2.255   1.493   2.866
 1448SOL     OW 6585   3.465   0.447   2.599
 1448SOL    HW1 6586   3.391   0.493   2.549
 1448SOL    HW2 6587   3.516   0.515   2.652
 1449SOL     OW 6588   2.093   1.713   2.345
 1449SOL    HW1 6589   2.127   1.790   2.399
 1449SOL    HW2 6590   2.137   1.713   2.255
 1450SOL     OW 6591   2.092   1.434   2.400
 1450SOL    HW1 6592   2.066   1.530   2.400
 1450SOL    HW2 6593   2.021   1.380   2.445
 1451SOL     OW 6594   2.468   0.964   1.985
 1451SOL    HW1 6595   2.475   1.048   1.931
 1451SOL    HW2 6596   2.514   0.977   2.073
 1452SOL     OW 6597   3.456   0.114   3.342
 1452SOL    HW1 6598   3.438   0.181   3.270
 1452SOL    HW2 6599   3.453   0.160   3.431
 1453SOL     OW 6600   1.984   0.643   2.425
 1453SOL    HW1 6601   1.939   0.555   2.442
 1453SOL    HW2 6602   1.983   0.697   2.509
 1454SOL     OW 6603   3.704   1.767   2.221
 1454SOL    HW1 6604   3.758   1.738   2.301
 1454SOL    HW2 6605   3.734   1.857   2.192
 1455SOL     OW 6606   1.889   1.596   1.979
 1455SOL    HW1 6607   1.870   1.500   2.000
 1455SOL    HW2 6608   1.856   1.654   2.054
 1456SOL     OW 6609   1.975   0.737   3.459
 1456SOL    HW1 6610   2.063   0.724   3.504
 1456SOL    HW2 6611   1.962   0.834   3.437
 1457SOL     OW 6612   2.475   1.365   2.588
 1457SOL    HW1 6613   2.426   1.278   2.597
 1457SOL    HW2 6614   2.452   1.408   2.501
 1458SOL     OW 6615   2.059   0.976   3.126
 1458SOL    HW1 6616   2.148   0.931   3.112
 1458SOL    HW2 6617   1.986   0.911   3.107
 1459SOL     OW 6618   3.049   1.792   3.478
 1459SOL    HW1 6619   3.073   1.852   3.402
 1459SOL    HW2 6620   3.056   1.697   3.448
 1460SOL     OW 6621   3.328   1.417   2.815
 1460SOL    HW1 6622   3.269   1.423   2.895
 1460SOL    HW2 6623   3.313   1.329   2.769
 1461SOL     OW 6624   3.529   1.714   2.434
 1461SOL    HW1 6625   3.488   1.691   2.346
 1461SOL    HW2 6626   3.511   1.640   2.499
 1462SOL     OW 6627   3.438   1.662   2.169
 1462SOL    HW1 6628   3.527   1.708   2.172
 1462SOL    HW2 6629   3.417   1.638   2.074
 1463SOL     OW 6630   3.256   0.469   3.536
 1463SOL    HW1 6631   3.236   0.512   3.624
 1463SOL    HW2 6632   3.334   0.407   3.545
 1464SOL     OW 6633   2.835   0.890   3.434
 1464SOL    HW1 6634   2.881   0.806   3.405
 1464SOL    HW2 6635   2.779   0.924   3.359
 1465SOL     OW 6636   2.903   0.701   2.291
 1465SOL    HW1 6637   2.929   0.697   2.387
 1465SOL    HW2 6638   2.818   0.650   2.277
 1466SOL     OW 6639   1.938   0.811   2.651
 1466SOL    HW1 6640   2.037   0.799   2.660
 1466SOL    HW2 6641   1.914   0.906   2.672
 1467SOL     OW 6642   1.992   1.821   3.433
 1467SOL    HW1 6643   1.982   1.806   3.532
 1467SOL    HW2 6644   1.906   1.857   3.397
 1468SOL     OW 6645   2.412   0.196   2.747
 1468SOL    HW1 6646   2.407   0.191   2.847
 1468SOL    HW2 6647   2.414   0.292   2.718
 1469SOL     OW 6648   2.870   1.456   2.339
 1469SOL    HW1 6649   2.824   1.528   2.287
 1469SOL    HW2 6650   2.866   1.476   2.437
 1470SOL     OW 6651   3.657   1.066   2.735
 1470SOL    HW1 6652   3.595   1.051   2.659
 1470SOL    HW2 6653   3.605   1.077   2.820
 1471SOL     OW 6654   2.973   1.776   2.099
 1471SOL    HW1 6655   2.913   1.714   2.149
 1471SOL    HW2 6656   3.004   1.732   2.014
 1472SOL     OW 6657   2.064   0.285   3.360
 1472SOL    HW1 6658   1.984   0.345   3.347
 1472SOL    HW2 6659   2.054   0.236   3.446
 1473SOL     OW 6660   3.494   1.377   1.943
 1473SOL    HW1 6661   3.462   1.471   1.933
 1473SOL    HW2 6662   3.418   1.314   1.931
 1474SOL     OW 6663   2.326   1.743   2.185
 1474SOL    HW1 6664   2.359   1.782   2.271
 1474SOL    HW2 6665   2.402   1.736   2.120
 1475SOL     OW 6666   2.111   1.785   3.103
 1475SOL    HW1 6667   2.168   1.720   3.153
 1475SOL    HW2 6668   2.095   1.752   3.010
 1476SOL     OW 6669   2.802   1.698   2.766
 1476SOL    HW1 6670   2.882   1.641   2.787
 1476SOL    HW2 6671   2.753   1.658   2.689
 1477SOL     OW 6672   2.244   0.700   2.342
 1477SOL    HW1 6673   2.289   0.610   2.339
 1477SOL    HW2 6674   2.150   0.689   2.375
 1478SOL     OW 6675   3.409   0.222   3.591
 1478SOL    HW1 6676   3.404   0.259   3.683
 1478SOL    HW2 6677   3.337   0.153   3.579
 1479SOL     OW 6678   2.476   0.122   1.979
 1479SOL    HW1 6679   2.574   0.100   1.986
 1479SOL    HW2 6680   2.445   0.105   1.886
 1480SOL     OW 6681   2.643   0.264   3.611
 1480SOL    HW1 6682   2.710   0.203   3.654
 1480SOL    HW2 6683   2.570   0.283   3.676
 1481SOL     OW 6684   2.750   1.514   3.057
 1481SOL    HW1 6685   2.727   1.489   2.963
 1481SOL    HW2 6686   2.811   1.445   3.096
 1482SOL     OW 6687   2.665   1.402   2.786
 1482SOL    HW1 6688   2.755   1.416   2.744
 1482SOL    HW2 6689   2.594   1.404   2.715
 1483SOL     OW 6690   2.401   0.064   2.374
 1483SOL    HW1 6691   2.320   0.065   2.432
 1483SOL    HW2 6692   2.404   0.147   2.319
 1484SOL     OW 6693   3.296   1.188   1.903
 1484SOL    HW1 6694   3.328   1.112   1.960
 1484SOL    HW2 6695   3.204   1.215   1.933
 1485SOL     OW 6696   2.159   0.035   2.033
 1485SOL    HW1 6697   2.208   0.119   2.012
 1485SOL    HW2 6698   2.221  -0.030   2.078
 1486SOL     OW 6699   2.797   0.236   2.342
 1486SOL    HW1 6700   2.749   0.277   2.264
 1486SOL    HW2 6701   2.896   0.234   2.323
 1487SOL     OW 6702   2.938   0.683   3.326
 1487SOL    HW1 6703   2.858   0.622   3.329
 1487SOL    HW2 6704   3.019   0.630   3.302
 1488SOL     OW 6705   3.089   1.570   2.655
 1488SOL    HW1 6706   3.110   1.644   2.590
 1488SOL    HW2 6707   3.157   1.570   2.728
 1489SOL     OW 6708   3.133   1.797   2.453
 1489SOL    HW1 6709   3.177   1.861   2.389
 1489SOL    HW2 6710   3.083   1.849   2.523
 1490SOL     OW 6711   1.940   0.556   3.248
 1490SOL    HW1 6712   2.032   0.555   3.207
 1490SOL    HW2 6713   1.934   0.630   3.315
 1491SOL     OW 6714   2.728   0.454   2.504
 1491SOL    HW1 6715   2.696   0.526   2.442
 1491SOL    HW2 6716   2.752   0.373   2.451
 1492SOL     OW 6717   3.291   1.173   2.729
 1492SOL    HW1 6718   3.236   1.089   2.722
 1492SOL    HW2 6719   3.317   1.202   2.637
 1493SOL     OW 6720   3.719   0.833   2.239
 1493SOL    HW1 6721   3.761   0.769   2.303
 1493SOL    HW2 6722   3.681   0.782   2.161
 1494SOL     OW 6723   2.350   1.385   2.036
 1494SOL    HW1 6724   2.263   1.370   2.083
 1494SOL    HW2 6725   2.333   1.411   1.941
 1495SOL     OW 6726   2.926   1.347   3.202
 1495SOL    HW1 6727   2.846   1.324   3.257
 1495SOL    HW2 6728   3.009   1.321   3.251
 1496SOL     OW 6729   2.973   1.195   2.962
 1496SOL    HW1 6730   2.933   1.239   3.043
 1496SOL    HW2 6731   2.932   1.232   2.879
 1497SOL     OW 6732   3.500   1.099   2.941
 1497SOL    HW1 6733   3.505   1.180   3.000
 1497SOL    HW2 6734   3.414   1.101   2.890
 1498SOL     OW 6735   2.777   0.089   3.264
 1498SOL    HW1 6736   2.802   0.069   3.169
 1498SOL    HW2 6737   2.849   0.145   3.306
 1499SOL     OW 6738   2.842   1.116   3.581
 1499SOL    HW1 6739   2.743   1.122   3.591
 1499SOL    HW2 6740   2.865   1.036   3.525
 1500SOL     OW 6741   2.567   1.050   2.230
 1500SOL    HW1 6742   2.553   1.057   2.329
 1500SOL    HW2 6743   2.651   0.999   2.212
 1501SOL     OW 6744   2.272   0.813   3.113
 1501SOL    HW1 6745   2.358   0.825   3.163
 1501SOL    HW2 6746   2.230   0.726   3.140
 1502SOL     OW 6747   1.926   1.564   3.193
 1502SOL    HW1 6748   1.880   1.646   3.159
 1502SOL    HW2 6749   2.024   1.583   3.202
 1503SOL     OW 6750   3.114   1.348   2.250
 1503SOL    HW1 6751   3.164   1.425   2.290
 1503SOL    HW2 6752   3.019   1.350   2.282
 1504SOL     OW 6753   3.134   1.445   3.004
 1504SOL    HW1 6754   3.181   1.458   3.091
 1504SOL    HW2 6755   3.068   1.371   3.013
 1505SOL     OW 6756   3.444   0.639   2.334
 1505SOL    HW1 6757   3.413   0.700   2.407
 1505SOL    HW2 6758   3.494   0.691   2.265
 1506SOL     OW 6759   2.216   1.510   3.191
 1506SOL    HW1 6760   2.195   1.466   3.104
 1506SOL    HW2 6761   2.313   1.536   3.194
 1507SOL     OW 6762   2.264   0.751   3.460
 1507SOL    HW1 6763   2.332   0.806   3.413
 1507SOL    HW2 6764   2.304   0.663   3.487
 1508SOL     OW 6765   2.875   0.105   3.632
 1508SOL    HW1 6766   2.881   0.190   3.580
 1508SOL    HW2 6767   2.907   0.029   3.575
 1509SOL     OW 6768   3.222   0.862   2.907
 1509SOL    HW1 6769   3.147   0.862   2.841
 1509SOL    HW2 6770   3.259   0.770   2.916
 1510SOL     OW 6771   3.071   0.525   2.137
 1510SOL    HW1 6772   3.084   0.441   2.191
 1510SOL    HW2 6773   3.042   0.599   2.197
 1511SOL     OW 6774   2.169   0.213   3.093
 1511SOL    HW1 6775   2.146   0.250   3.183
 1511SOL    HW2 6776   2.139   0.118   3.087
 1512SOL     OW 6777   1.899   1.310   3.144
 1512SOL    HW1 6778   1.952   1.261   3.212
 1512SOL    HW2 6779   1.921   1.408   3.149
 1513SOL     OW 6780   2.594   0.634   2.926
 1513SOL    HW1 6781   2.653   0.608   2.850
 1513SOL    HW2 6782   2.566   0.730   2.915
 1514SOL     OW 6783   2.169   0.063   2.480
 1514SOL    HW1 6784   2.158   0.157   2.513
 1514SOL    HW2 6785   2.164   0.000   2.557
 1515SOL     OW 6786   2.212   0.898   3.666
 1515SOL    HW1 6787   2.288   0.942   3.714
 1515SOL    HW2 6788   2.247   0.851   3.584
 1516SOL     OW 6789   3.165   0.838   1.904
 1516SOL    HW1 6790   3.199   0.745   1.919
 1516SOL    HW2 6791   3.183   0.865   1.809
 1517SOL     OW 6792   2.930   1.333   2.711
 1517SOL    HW1 6793   2.937   1.249   2.656
 1517SOL    HW2 6794   2.992   1.402   2.675
 1518SOL     OW 6795   2.201   0.509   2.868
 1518SOL    HW1 6796   2.149   0.426   2.851
 1518SOL    HW2 6797   2.278   0.514   2.804
 1519SOL     OW 6798   3.000   0.380   3.540
 1519SOL    HW1 6799   2.955   0.443   3.604
 1519SOL    HW2 6800   3.093   0.411   3.523
 1520SOL     OW 6801   1.870   1.326   2.062
 1520SOL    HW1 6802   1.777   1.347   2.031
 1520SOL    HW2 6803   1.880   1.227   2.075
 1521SOL     OW 6804   1.950   1.801   2.789
 1521SOL    HW1 6805   1.908   1.715   2.762
 1521SOL    HW2 6806   2.044   1.804   2.755
 1522SOL     OW 6807   2.366   1.568   2.772
 1522SOL    HW1 6808   2.432   1.642   2.781
 1522SOL    HW2 6809   2.410   1.489   2.730
 1523SOL     OW 6810   1.902   0.544   2.976
 1523SOL    HW1 6811   1.987   0.511   2.935
 1523SOL    HW2 6812   1.915   0.559   3.074
 1524SOL     OW 6813   2.051   0.520   3.584
 1524SOL    HW1 6814   2.110   0.480   3.514
 1524SOL    HW2 6815   1.993   0.591   3.543
 1525SOL     OW 6816   2.792   1.678   3.327
 1525SOL    HW1 6817   2.768   1.660   3.232
 1525SOL    HW2 6818   2.822   1.772   3.337
 1526SOL     OW 6819   3.621   1.747   3.016
 1526SOL    HW1 6820   3.682   1.777   2.943
 1526SOL    HW2 6821   3.583   1.658   2.994
 1527SOL     OW 6822   3.114   1.731   2.990
 1527SOL    HW1 6823   3.198   1.736   2.936
 1527SOL    HW2 6824   3.091   1.635   3.008
 1528SOL     OW 6825   1.945   1.258   2.884
 1528SOL    HW1 6826   1.940   1.257   2.984
 1528SOL    HW2 6827   1.862   1.217   2.846
 1529SOL     OW 6828   2.550   1.662   3.578
 1529SOL    HW1 6829   2.494   1.743   3.587
 1529SOL    HW2 6830   2.602   1.666   3.492
 1530SOL     OW 6831   3.588   0.135   2.385
 1530SOL    HW1 6832   3.661   0.118   2.318
 1530SOL    HW2 6833   3.557   0.048   2.423
 1531SOL     OW 6834   3.250   1.573   2.339
 1531SOL    HW1 6835   3.317   1.585   2.265
 1531SOL    HW2 6836   3.210   1.662   2.362
 1532SOL     OW 6837   1.992   1.794   3.713
 1532SOL    HW1 6838   1.951   1.720   3.766
 1532SOL    HW2 6839   2.056   1.845   3.771
 1533SOL     OW 6840   2.692   1.273   3.284
 1533SOL    HW1 6841   2.687   1.306   3.379
 1533SOL    HW2 6842   2.606   1.292   3.238
 1534SOL     OW 6843   2.534   1.616   2.016
 1534SOL    HW1 6844   2.543   1.626   1.917
 1534SOL    HW2 6845   2.494   1.527   2.037
 1535SOL     OW 6846   3.512   1.720   3.256
 1535SOL    HW1 6847   3.565   1.730   3.172
 1535SOL    HW2 6848   3.485   1.810   3.290
 1536SOL     OW 6849   3.703   0.175   2.825
 1536SOL    HW1 6850   3.742   0.090   2.789
 1536SOL    HW2 6851   3.605   0.177   2.806
 1537SOL     OW 6852   2.125   0.326   2.582
 1537SOL    HW1 6853   2.046   0.377   2.548
 1537SOL    HW2 6854   2.116   0.311   2.680
 1538SOL     OW 6855   3.056   1.612   1.893
 1538SOL    HW1 6856   3.062   1.519   1.930
 1538SOL    HW2 6857   2.997   1.612   1.813
 1539SOL     OW 6858   2.684   1.002   3.234
 1539SOL    HW1 6859   2.724   1.001   3.142
 1539SOL    HW2 6860   2.694   1.094   3.274
 1540SOL     OW 6861   2.778   0.910   2.153
 1540SOL    HW1 6862   2.841   0.948   2.085
 1540SOL    HW2 6863   2.818   0.827   2.192
 1541SOL     OW 6864   3.366   1.607   1.906
 1541SOL    HW1 6865   3.274   1.644   1.913
 1541SOL    HW2 6866   3.404   1.627   1.816
 1542SOL     OW 6867   2.901   1.098   2.558
 1542SOL    HW1 6868   2.831   1.051   2.612
 1542SOL    HW2 6869   2.960   1.030   2.515
 1543SOL     OW 6870   2.452   1.487   2.353
 1543SOL    HW1 6871   2.494   1.429   2.283
 1543SOL    HW2 6872   2.408   1.566   2.309
 1544SOL     OW 6873   2.117   1.348   2.152
 1544SOL    HW1 6874   2.021   1.349   2.125
 1544SOL    HW2 6875   2.129   1.401   2.236
 1545SOL     OW 6876   1.967   1.013   3.588
 1545SOL    HW1 6877   1.890   0.980   3.642
 1545SOL    HW2 6878   2.052   0.983   3.630
 1546SOL     OW 6879   1.937   0.345   1.895
 1546SOL    HW1 6880   1.845   0.317   1.866
 1546SOL    HW2 6881   1.968   0.422   1.839
 1547SOL     OW 6882   1.934   0.166   2.180
 1547SOL    HW1 6883   1.917   0.249   2.126
 1547SOL    HW2 6884   2.024   0.129   2.158
 1548SOL     OW 6885   3.045   1.335   1.981
 1548SOL    HW1 6886   2.946   1.324   1.983
 1548SOL    HW2 6887   3.079   1.350   2.074
 1549SOL     OW 6888   2.475   0.842   3.293
 1549SOL    HW1 6889   2.531   0.923   3.276
 1549SOL    HW2 6890   2.534   0.762   3.296
 1550SOL     OW 6891   3.355   1.767   2.821
 1550SOL    HW1 6892   3.388   1.831   2.752
 1550SOL    HW2 6893   3.421   1.761   2.896
 1551SOL     OW 6894   2.578   0.565   3.570
 1551SOL    HW1 6895   2.597   0.630   3.644
 1551SOL    HW2 6896   2.638   0.485   3.579
 1552SOL     OW 6897   3.087   0.325   2.311
 1552SOL    HW1 6898   3.152   0.251   2.300
 1552SOL    HW2 6899   3.107   0.375   2.395
 1553SOL     OW 6900   3.639   0.342   3.504
 1553SOL    HW1 6901   3.622   0.373   3.410
 1553SOL    HW2 6902   3.555   0.305   3.542
 1554SOL     OW 6903   2.721   1.374   1.878
 1554SOL    HW1 6904   2.675   1.389   1.966
 1554SOL    HW2 6905   2.765   1.459   1.848
 1555SOL     OW 6906   2.945   0.984   1.949
 1555SOL    HW1 6907   2.922   1.037   1.867
 1555SOL    HW2 6908   3.026   0.928   1.930
 1556SOL     OW 6909   3.723   1.569   2.713
 1556SOL    HW1 6910   3.652   1.557   2.643
 1556SOL    HW2 6911   3.724   1.490   2.773
 1557SOL     OW 6912   2.534   1.391   3.486
 1557SOL    HW1 6913   2.456   1.341   3.524
 1557SOL    HW2 6914   2.531   1.486   3.517
 1558SOL     OW 6915   3.686   0.192   3.089
 1558SOL    HW1 6916   3.682   0.102   3.133
 1558SOL    HW2 6917   3.689   0.181   2.990
 1559SOL     OW 6918   2.290   0.424   2.382
 1559SOL    HW1 6919   2.320   0.352   2.320
 1559SOL    HW2 6920   2.251   0.384   2.465
 1560SOL     OW 6921   3.567   1.487   2.966
 1560SOL    HW1 6922   3.474   1.462   2.939
 1560SOL    HW2 6923   3.593   1.437   3.048
 1561SOL     OW 6924   2.179   0.547   3.142
 1561SOL    HW1 6925   2.217   0.488   3.214
 1561SOL    HW2 6926   2.219   0.521   3.054
 1562SOL     OW 6927   2.674   1.586   2.549
 1562SOL    HW1 6928   2.706   1.596   2.455
 1562SOL    HW2 6929   2.595   1.524   2.551
 1563SOL     OW 6930   2.632   1.330   2.163
 1563SOL    HW1 6931   2.586   1.243   2.180
 1563SOL    HW2 6932   2.723   1.327   2.204
 1564SOL     OW 6933   2.480   1.567   3.146
 1564SOL    HW1 6934   2.475   1.649   3.203
 1564SOL    HW2 6935   2.569   1.564   3.101
 1565SOL     OW 6936   3.455   0.221   2.744
 1565SOL    HW1 6937   3.371   0.220   2.798
 1565SOL    HW2 6938   3.457   0.304   2.688
 1566SOL     OW 6939   2.737   1.646   2.199
 1566SOL    HW1 6940   2.660   1.611   2.145
 1566SOL    HW2 6941   2.705   1.717   2.261
 1567SOL     OW 6942   2.092   0.628   3.837
 1567SOL    HW1 6943   1.999   0.626   3.874
 1567SOL    HW2 6944   2.093   0.589   3.745
 1568SOL     OW 6945   2.087   0.275   4.720
 1568SOL    HW1 6946   2.122   0.258   4.812
 1568SOL    HW2 6947   1.999   0.230   4.708
 1569SOL     OW 6948   1.881   0.368   4.371
 1569SOL    HW1 6949   1.799   0.411   4.410
 1569SOL    HW2 6950   1.853   0.295   4.308
 1570SOL     OW 6951   2.431   1.275   4.889
 1570SOL    HW1 6952   2.338   1.268   4.852
 1570SOL    HW2 6953   2.442   1.364   4.933
 1571SOL     OW 6954   3.417   1.511   4.427
 1571SOL    HW1 6955   3.360   1.495   4.508
 1571SOL    HW2 6956   3.358   1.521   4.347
 1572SOL     OW 6957   2.997   0.703   4.441
 1572SOL    HW1 6958   3.054   0.781   4.416
 1572SOL    HW2 6959   2.937   0.729   4.517
 1573SOL     OW 6960   2.630   1.144   4.747
 1573SOL    HW1 6961   2.552   1.161   4.807
 1573SOL    HW2 6962   2.664   1.231   4.711
 1574SOL     OW 6963   2.547   1.012   4.389
 1574SOL    HW1 6964   2.616   0.996   4.459
 1574SOL    HW2 6965   2.474   1.069   4.427
 1575SOL     OW 6966   2.197   1.435   4.785
 1575SOL    HW1 6967   2.119   1.404   4.732
 1575SOL    HW2 6968   2.255   1.493   4.728
 1576SOL     OW 6969   3.465   0.447   4.461
 1576SOL    HW1 6970   3.391   0.493   4.411
 1576SOL    HW2 6971   3.516   0.515   4.514
 1577SOL     OW 6972   2.093   1.713   4.207
 1577SOL    HW1 6973   2.127   1.790   4.261
 1577SOL    HW2 6974   2.137   1.713   4.117
 1578SOL     OW 6975   2.092   1.434   4.262
 1578SOL    HW1 6976   2.066   1.530   4.262
 1578SOL    HW2 6977   2.021   1.380   4.307
 1579SOL     OW 6978   2.102   1.091   4.610
 1579SOL    HW1 6979   2.116   1.007   4.662
 1579SOL    HW2 6980   2.047   1.155   4.665
 1580SOL     OW 6981   2.468   0.964   3.847
 1580SOL    HW1 6982   2.475   1.048   3.793
 1580SOL    HW2 6983   2.514   0.977   3.935
 1581SOL     OW 6984   1.984   0.643   4.287
 1581SOL    HW1 6985   1.939   0.555   4.304
 1581SOL    HW2 6986   1.983   0.697   4.371
 1582SOL     OW 6987   3.704   1.767   4.083
 1582SOL    HW1 6988   3.758   1.738   4.163
 1582SOL    HW2 6989   3.734   1.857   4.054
 1583SOL     OW 6990   1.889   1.596   3.841
 1583SOL    HW1 6991   1.870   1.500   3.862
 1583SOL    HW2 6992   1.856   1.654   3.916
 1584SOL     OW 6993   3.503   1.108   4.156
 1584SOL    HW1 6994   3.589   1.110   4.104
 1584SOL    HW2 6995   3.517   1.155   4.244
 1585SOL     OW 6996   2.475   1.365   4.450
 1585SOL    HW1 6997   2.426   1.278   4.459
 1585SOL    HW2 6998   2.452   1.408   4.363
 1586SOL     OW 6999   2.671   0.004   4.226
 1586SOL    HW1 7000   2.711   0.095   4.217
 1586SOL    HW2 7001   2.571   0.012   4.232
 1587SOL     OW 7002   2.460   0.729   3.994
 1587SOL    HW1 7003   2.484   0.798   3.926
 1587SOL    HW2 7004   2.382   0.762   4.048
 1588SOL     OW 7005   3.143   0.345   4.668
 1588SOL    HW1 7006   3.057   0.295   4.655
 1588SOL    HW2 7007   3.205   0.291   4.724
 1589SOL     OW 7008   3.438   1.662   4.031
 1589SOL    HW1 7009   3.527   1.708   4.034
 1589SOL    HW2 7010   3.417   1.638   3.936
 1590SOL     OW 7011   2.853   0.410   4.966
 1590SOL    HW1 7012   2.776   0.444   5.020
 1590SOL    HW2 7013   2.819   0.359   4.887
 1591SOL     OW 7014   2.903   0.701   4.153
 1591SOL    HW1 7015   2.929   0.697   4.249
 1591SOL    HW2 7016   2.818   0.650   4.139
 1592SOL     OW 7017   1.938   0.811   4.513
 1592SOL    HW1 7018   2.037   0.799   4.522
 1592SOL    HW2 7019   1.914   0.906   4.534
 1593SOL     OW 7020   2.727   0.348   3.919
 1593SOL    HW1 7021   2.786   0.411   3.870
 1593SOL    HW2 7022   2.746   0.254   3.890
 1594SOL     OW 7023   3.224   1.144   4.269
 1594SOL    HW1 7024   3.307   1.115   4.221
 1594SOL    HW2 7025   3.175   1.211   4.213
 1595SOL     OW 7026   2.870   1.456   4.201
 1595SOL    HW1 7027   2.824   1.528   4.149
 1595SOL    HW2 7028   2.866   1.476   4.299
 1596SOL     OW 7029   2.213   1.801   4.577
 1596SOL    HW1 7030   2.263   1.715   4.583
 1596SOL    HW2 7031   2.278   1.878   4.574
 1597SOL     OW 7032   3.657   1.066   4.597
 1597SOL    HW1 7033   3.595   1.051   4.521
 1597SOL    HW2 7034   3.605   1.077   4.682
 1598SOL     OW 7035   2.183   0.943   3.966
 1598SOL    HW1 7036   2.265   0.982   3.924
 1598SOL    HW2 7037   2.156   0.861   3.917
 1599SOL     OW 7038   3.320   0.735   4.452
 1599SOL    HW1 7039   3.315   0.670   4.527
 1599SOL    HW2 7040   3.400   0.794   4.465
 1600SOL     OW 7041   2.973   1.776   3.961
 1600SOL    HW1 7042   2.913   1.714   4.011
 1600SOL    HW2 7043   3.004   1.732   3.876
 1601SOL     OW 7044   3.494   1.377   3.805
 1601SOL    HW1 7045   3.462   1.471   3.795
 1601SOL    HW2 7046   3.418   1.314   3.793
 1602SOL     OW 7047   2.326   1.743   4.047
 1602SOL    HW1 7048   2.359   1.782   4.133
 1602SOL    HW2 7049   2.402   1.736   3.982
 1603SOL     OW 7050   3.262   0.107   4.150
 1603SOL    HW1 7051   3.238   0.070   4.060
 1603SOL    HW2 7052   3.361   0.123   4.154
 1604SOL     OW 7053   2.244   0.700   4.204
 1604SOL    HW1 7054   2.289   0.610   4.201
 1604SOL    HW2 7055   2.150   0.689   4.237
 1605SOL     OW 7056   2.476   0.122   3.841
 1605SOL    HW1 7057   2.574   0.100   3.848
 1605SOL    HW2 7058   2.445   0.105   3.748
 1606SOL     OW 7059   2.665   1.402   4.648
 1606SOL    HW1 7060   2.755   1.416   4.606
 1606SOL    HW2 7061   2.594   1.404   4.577
 1607SOL     OW 7062   2.784   0.503   4.623
 1607SOL    HW1 7063   2.759   0.494   4.527
 1607SOL    HW2 7064   2.832   0.421   4.654
 1608SOL     OW 7065   2.401   0.064   4.236
 1608SOL    HW1 7066   2.320   0.065   4.294
 1608SOL    HW2 7067   2.404   0.147   4.181
 1609SOL     OW 7068   2.159   0.035   3.895
 1609SOL    HW1 7069   2.208   0.119   3.874
 1609SOL    HW2 7070   2.221  -0.030   3.940
 1610SOL     OW 7071   2.797   0.236   4.204
 1610SOL    HW1 7072   2.749   0.277   4.126
 1610SOL    HW2 7073   2.896   0.234   4.185
 1611SOL     OW 7074   3.089   1.570   4.517
 1611SOL    HW1 7075   3.110   1.644   4.452
 1611SOL    HW2 7076   3.157   1.570   4.590
 1612SOL     OW 7077   2.321   1.152   4.465
 1612SOL    HW1 7078   2.250   1.125   4.530
 1612SOL    HW2 7079   2.295   1.124   4.372
 1613SOL     OW 7080   3.133   1.797   4.315
 1613SOL    HW1 7081   3.177   1.861   4.251
 1613SOL    HW2 7082   3.083   1.849   4.385
 1614SOL     OW 7083   2.894   0.549   3.740
 1614SOL    HW1 7084   2.853   0.631   3.701
 1614SOL    HW2 7085   2.958   0.575   3.813
 1615SOL     OW 7086   2.423   0.222   4.871
 1615SOL    HW1 7087   2.461   0.138   4.908
 1615SOL    HW2 7088   2.335   0.241   4.915
 1616SOL     OW 7089   2.728   0.454   4.366
 1616SOL    HW1 7090   2.696   0.526   4.304
 1616SOL    HW2 7091   2.752   0.373   4.313
 1617SOL     OW 7092   2.879   0.039   4.477
 1617SOL    HW1 7093   2.807   0.044   4.408
 1617SOL    HW2 7094   2.855  -0.030   4.546
 1618SOL     OW 7095   3.291   1.173   4.591
 1618SOL    HW1 7096   3.236   1.089   4.584
 1618SOL    HW2 7097   3.317   1.202   4.499
 1619SOL     OW 7098   3.328   0.590   4.716
 1619SOL    HW1 7099   3.298   0.495   4.723
 1619SOL    HW2 7100   3.401   0.606   4.782
 1620SOL     OW 7101   3.526   1.280   4.381
 1620SOL    HW1 7102   3.625   1.288   4.395
 1620SOL    HW2 7103   3.481   1.364   4.412
 1621SOL     OW 7104   3.252   0.575   3.802
 1621SOL    HW1 7105   3.198   0.554   3.883
 1621SOL    HW2 7106   3.343   0.534   3.811
 1622SOL     OW 7107   2.389   0.256   4.052
 1622SOL    HW1 7108   2.416   0.197   3.977
 1622SOL    HW2 7109   2.389   0.351   4.021
 1623SOL     OW 7110   2.973   1.195   4.824
 1623SOL    HW1 7111   2.933   1.239   4.905
 1623SOL    HW2 7112   2.932   1.232   4.741
 1624SOL     OW 7113   2.567   1.050   4.092
 1624SOL    HW1 7114   2.553   1.057   4.191
 1624SOL    HW2 7115   2.651   0.999   4.074
 1625SOL     OW 7116   3.136   0.386   4.986
 1625SOL    HW1 7117   3.157   0.460   5.050
 1625SOL    HW2 7118   3.047   0.403   4.943
 1626SOL     OW 7119   2.229   1.100   4.225
 1626SOL    HW1 7120   2.222   1.183   4.169
 1626SOL    HW2 7121   2.233   1.020   4.165
 1627SOL     OW 7122   2.428   0.537   4.589
 1627SOL    HW1 7123   2.440   0.603   4.515
 1627SOL    HW2 7124   2.474   0.571   4.672
 1628SOL     OW 7125   3.114   1.348   4.112
 1628SOL    HW1 7126   3.164   1.425   4.152
 1628SOL    HW2 7127   3.019   1.350   4.144
 1629SOL     OW 7128   2.216   1.510   5.053
 1629SOL    HW1 7129   2.195   1.466   4.966
 1629SOL    HW2 7130   2.313   1.536   5.056
 1630SOL     OW 7131   2.435   0.870   4.753
 1630SOL    HW1 7132   2.479   0.959   4.744
 1630SOL    HW2 7133   2.372   0.870   4.830
 1631SOL     OW 7134   3.222   0.862   4.769
 1631SOL    HW1 7135   3.147   0.862   4.703
 1631SOL    HW2 7136   3.259   0.770   4.778
 1632SOL     OW 7137   3.071   0.525   3.999
 1632SOL    HW1 7138   3.084   0.441   4.053
 1632SOL    HW2 7139   3.042   0.599   4.059
 1633SOL     OW 7140   1.899   1.310   5.006
 1633SOL    HW1 7141   1.952   1.261   5.074
 1633SOL    HW2 7142   1.921   1.408   5.011
 1634SOL     OW 7143   2.594   0.634   4.788
 1634SOL    HW1 7144   2.653   0.608   4.712
 1634SOL    HW2 7145   2.566   0.730   4.777
 1635SOL     OW 7146   2.169   0.063   4.342
 1635SOL    HW1 7147   2.158   0.157   4.375
 1635SOL    HW2 7148   2.164   0.000   4.419
 1636SOL     OW 7149   2.885   0.766   4.690
 1636SOL    HW1 7150   2.900   0.787   4.786
 1636SOL    HW2 7151   2.855   0.671   4.681
 1637SOL     OW 7152   3.402   0.274   3.849
 1637SOL    HW1 7153   3.341   0.199   3.872
 1637SOL    HW2 7154   3.424   0.326   3.932
 1638SOL     OW 7155   3.165   0.838   3.766
 1638SOL    HW1 7156   3.199   0.745   3.781
 1638SOL    HW2 7157   3.183   0.865   3.671
 1639SOL     OW 7158   2.930   1.333   4.573
 1639SOL    HW1 7159   2.937   1.249   4.518
 1639SOL    HW2 7160   2.992   1.402   4.537
 1640SOL     OW 7161   2.181   0.810   4.673
 1640SOL    HW1 7162   2.274   0.846   4.678
 1640SOL    HW2 7163   2.175   0.725   4.725
 1641SOL     OW 7164   2.201   0.509   4.730
 1641SOL    HW1 7165   2.149   0.426   4.713
 1641SOL    HW2 7166   2.278   0.514   4.666
 1642SOL     OW 7167   3.022   0.207   5.201
 1642SOL    HW1 7168   3.022   0.271   5.278
 1642SOL    HW2 7169   3.050   0.255   5.118
 1643SOL     OW 7170   1.950   1.801   4.651
 1643SOL    HW1 7171   1.908   1.715   4.624
 1643SOL    HW2 7172   2.044   1.804   4.617
 1644SOL     OW 7173   2.366   1.568   4.634
 1644SOL    HW1 7174   2.432   1.642   4.643
 1644SOL    HW2 7175   2.410   1.489   4.592
 1645SOL     OW 7176   2.864   0.796   4.962
 1645SOL    HW1 7177   2.905   0.764   5.048
 1645SOL    HW2 7178   2.768   0.769   4.959
 1646SOL     OW 7179   2.677   0.572   4.049
 1646SOL    HW1 7180   2.684   0.483   4.003
 1646SOL    HW2 7181   2.583   0.606   4.041
 1647SOL     OW 7182   3.519   0.604   4.930
 1647SOL    HW1 7183   3.481   0.535   4.992
 1647SOL    HW2 7184   3.601   0.568   4.886
 1648SOL     OW 7185   2.533   0.464   4.993
 1648SOL    HW1 7186   2.499   0.375   4.963
 1648SOL    HW2 7187   2.559   0.518   4.913
 1649SOL     OW 7188   2.792   1.678   5.189
 1649SOL    HW1 7189   2.768   1.660   5.094
 1649SOL    HW2 7190   2.822   1.772   5.199
 1650SOL     OW 7191   2.335   0.500   3.915
 1650SOL    HW1 7192   2.396   0.580   3.919
 1650SOL    HW2 7193   2.240   0.531   3.922
 1651SOL     OW 7194   3.209   1.059   4.958
 1651SOL    HW1 7195   3.233   0.996   4.884
 1651SOL    HW2 7196   3.119   1.099   4.940
 1652SOL     OW 7197   3.164   0.855   4.033
 1652SOL    HW1 7198   3.078   0.824   4.075
 1652SOL    HW2 7199   3.160   0.841   3.934
 1653SOL     OW 7200   3.114   1.731   4.852
 1653SOL    HW1 7201   3.198   1.736   4.798
 1653SOL    HW2 7202   3.091   1.635   4.870
 1654SOL     OW 7203   1.945   1.258   4.746
 1654SOL    HW1 7204   1.940   1.257   4.846
 1654SOL    HW2 7205   1.862   1.217   4.708
 1655SOL     OW 7206   3.588   0.135   4.247
 1655SOL    HW1 7207   3.661   0.118   4.180
 1655SOL    HW2 7208   3.557   0.048   4.285
 1656SOL     OW 7209   3.250   1.573   4.201
 1656SOL    HW1 7210   3.317   1.585   4.127
 1656SOL    HW2 7211   3.210   1.662   4.224
 1657SOL     OW 7212   3.142   0.927   4.396
 1657SOL    HW1 7213   3.202   0.846   4.398
 1657SOL    HW2 7214   3.182   0.996   4.336
 1658SOL     OW 7215   2.534   1.616   3.878
 1658SOL    HW1 7216   2.543   1.626   3.779
 1658SOL    HW2 7217   2.494   1.527   3.899
 1659SOL     OW 7218   3.512   1.720   5.118
 1659SOL    HW1 7219   3.565   1.730   5.034
 1659SOL    HW2 7220   3.485   1.810   5.152
 1660SOL     OW 7221   3.703   0.175   4.687
 1660SOL    HW1 7222   3.742   0.090   4.651
 1660SOL    HW2 7223   3.605   0.177   4.668
 1661SOL     OW 7224   2.125   0.326   4.444
 1661SOL    HW1 7225   2.046   0.377   4.410
 1661SOL    HW2 7226   2.116   0.311   4.542
 1662SOL     OW 7227   3.056   1.612   3.755
 1662SOL    HW1 7228   3.062   1.519   3.792
 1662SOL    HW2 7229   2.997   1.612   3.675
 1663SOL     OW 7230   2.684   1.002   5.096
 1663SOL    HW1 7231   2.724   1.001   5.004
 1663SOL    HW2 7232   2.694   1.094   5.136
 1664SOL     OW 7233   2.778   0.910   4.015
 1664SOL    HW1 7234   2.841   0.948   3.947
 1664SOL    HW2 7235   2.818   0.827   4.054
 1665SOL     OW 7236   3.366   1.607   3.768
 1665SOL    HW1 7237   3.274   1.644   3.775
 1665SOL    HW2 7238   3.404   1.627   3.678
 1666SOL     OW 7239   2.901   1.098   4.420
 1666SOL    HW1 7240   2.831   1.051   4.474
 1666SOL    HW2 7241   2.960   1.030   4.377
 1667SOL     OW 7242   2.876   0.236   4.695
 1667SOL    HW1 7243   2.868   0.200   4.602
 1667SOL    HW2 7244   2.874   0.160   4.760
 1668SOL     OW 7245   3.571   0.385   5.105
 1668SOL    HW1 7246   3.644   0.454   5.109
 1668SOL    HW2 7247   3.599   0.310   5.046
 1669SOL     OW 7248   1.937   0.345   3.757
 1669SOL    HW1 7249   1.845   0.317   3.728
 1669SOL    HW2 7250   1.968   0.422   3.701
 1670SOL     OW 7251   1.934   0.166   4.042
 1670SOL    HW1 7252   1.917   0.249   3.988
 1670SOL    HW2 7253   2.024   0.129   4.020
 1671SOL     OW 7254   3.045   1.335   3.843
 1671SOL    HW1 7255   2.946   1.324   3.845
 1671SOL    HW2 7256   3.079   1.350   3.936
 1672SOL     OW 7257   3.087   0.325   4.173
 1672SOL    HW1 7258   3.152   0.251   4.162
 1672SOL    HW2 7259   3.107   0.375   4.257
 1673SOL     OW 7260   2.456   0.745   4.376
 1673SOL    HW1 7261   2.506   0.830   4.357
 1673SOL    HW2 7262   2.368   0.747   4.328
 1674SOL     OW 7263   2.523   1.790   4.677
 1674SOL    HW1 7264   2.477   1.878   4.664
 1674SOL    HW2 7265   2.622   1.802   4.670
 1675SOL     OW 7266   2.721   0.956   4.585
 1675SOL    HW1 7267   2.775   0.887   4.633
 1675SOL    HW2 7268   2.689   1.025   4.651
 1676SOL     OW 7269   2.945   0.984   3.811
 1676SOL    HW1 7270   2.922   1.037   3.729
 1676SOL    HW2 7271   3.026   0.928   3.792
 1677SOL     OW 7272   3.723   1.569   4.575
 1677SOL    HW1 7273   3.652   1.557   4.505
 1677SOL    HW2 7274   3.724   1.490   4.635
 1678SOL     OW 7275   1.941   1.240   4.377
 1678SOL    HW1 7276   1.940   1.193   4.465
 1678SOL    HW2 7277   2.023   1.212   4.326
 1679SOL     OW 7278   3.686   0.192   4.951
 1679SOL    HW1 7279   3.682   0.102   4.995
 1679SOL    HW2 7280   3.689   0.181   4.852
 1680SOL     OW 7281   2.290   0.424   4.244
 1680SOL    HW1 7282   2.320   0.352   4.182
 1680SOL    HW2 7283   2.251   0.384   4.327
 1681SOL     OW 7284   3.567   1.487   4.828
 1681SOL    HW1 7285   3.474   1.462   4.801
 1681SOL    HW2 7286   3.593   1.437   4.910
 1682SOL     OW 7287   2.674   1.586   4.411
 1682SOL    HW1 7288   2.706   1.596   4.317
 1682SOL    HW2 7289   2.595   1.524   4.413
 1683SOL     OW 7290   3.286   0.214   4.836
 1683SOL    HW1 7291   3.338   0.149   4.891
 1683SOL    HW2 7292   3.237   0.277   4.897
 1684SOL     OW 7293   2.863   0.034   4.878
 1684SOL    HW1 7294   2.800  -0.038   4.847
 1684SOL    HW2 7295   2.956  -0.002   4.878
 1685SOL     OW 7296   3.214   0.052   3.892
 1685SOL    HW1 7297   3.249   0.011   3.808
 1685SOL    HW2 7298   3.124   0.014   3.912
 1686SOL     OW 7299   3.162   0.453   4.415
 1686SOL    HW1 7300   3.103   0.533   4.419
 1686SOL    HW2 7301   3.177   0.418   4.508
 1687SOL     OW 7302   3.455   0.221   4.606
 1687SOL    HW1 7303   3.371   0.220   4.660
 1687SOL    HW2 7304   3.457   0.304   4.550
 1688SOL     OW 7305   2.737   1.646   4.061
 1688SOL    HW1 7306   2.660   1.611   4.007
 1688SOL    HW2 7307   2.705   1.717   4.123
 1689SOL     OW 7308   2.092   2.490   0.113
 1689SOL    HW1 7309   1.999   2.488   0.150
 1689SOL    HW2 7310   2.093   2.451   0.021
 1690SOL     OW 7311   2.087   2.137   0.996
 1690SOL    HW1 7312   2.122   2.120   1.088
 1690SOL    HW2 7313   1.999   2.092   0.984
 1691SOL     OW 7314   1.881   2.230   0.647
 1691SOL    HW1 7315   1.799   2.273   0.686
 1691SOL    HW2 7316   1.853   2.157   0.584
 1692SOL     OW 7317   3.417   3.373   0.703
 1692SOL    HW1 7318   3.360   3.357   0.784
 1692SOL    HW2 7319   3.358   3.383   0.623
 1693SOL     OW 7320   2.630   3.006   1.023
 1693SOL    HW1 7321   2.552   3.023   1.083
 1693SOL    HW2 7322   2.664   3.093   0.987
 1694SOL     OW 7323   2.547   2.874   0.665
 1694SOL    HW1 7324   2.616   2.858   0.735
 1694SOL    HW2 7325   2.474   2.931   0.703
 1695SOL     OW 7326   3.322   3.367   1.339
 1695SOL    HW1 7327   3.346   3.461   1.365
 1695SOL    HW2 7328   3.306   3.313   1.421
 1696SOL     OW 7329   2.300   2.254   1.499
 1696SOL    HW1 7330   2.382   2.198   1.508
 1696SOL    HW2 7331   2.219   2.196   1.503
 1697SOL     OW 7332   2.989   3.203   1.690
 1697SOL    HW1 7333   3.036   3.203   1.778
 1697SOL    HW2 7334   2.941   3.116   1.679
 1698SOL     OW 7335   2.092   3.296   0.538
 1698SOL    HW1 7336   2.066   3.392   0.538
 1698SOL    HW2 7337   2.021   3.242   0.583
 1699SOL     OW 7338   2.102   2.953   0.886
 1699SOL    HW1 7339   2.116   2.869   0.938
 1699SOL    HW2 7340   2.047   3.017   0.941
 1700SOL     OW 7341   2.482   3.648   1.439
 1700SOL    HW1 7342   2.390   3.631   1.474
 1700SOL    HW2 7343   2.510   3.740   1.465
 1701SOL     OW 7344   2.468   2.826   0.123
 1701SOL    HW1 7345   2.475   2.910   0.069
 1701SOL    HW2 7346   2.514   2.839   0.211
 1702SOL     OW 7347   1.984   2.505   0.563
 1702SOL    HW1 7348   1.939   2.417   0.580
 1702SOL    HW2 7349   1.983   2.559   0.647
 1703SOL     OW 7350   3.704   3.629   0.359
 1703SOL    HW1 7351   3.758   3.600   0.439
 1703SOL    HW2 7352   3.734   3.719   0.330
 1704SOL     OW 7353   3.551   2.784   0.612
 1704SOL    HW1 7354   3.646   2.755   0.620
 1704SOL    HW2 7355   3.543   2.849   0.537
 1705SOL     OW 7356   3.503   2.970   0.432
 1705SOL    HW1 7357   3.589   2.972   0.380
 1705SOL    HW2 7358   3.517   3.017   0.520
 1706SOL     OW 7359   3.155   3.090   1.423
 1706SOL    HW1 7360   3.192   3.017   1.365
 1706SOL    HW2 7361   3.207   3.095   1.508
 1707SOL     OW 7362   2.671   1.866   0.502
 1707SOL    HW1 7363   2.711   1.957   0.493
 1707SOL    HW2 7364   2.571   1.874   0.508
 1708SOL     OW 7365   2.059   2.838   1.264
 1708SOL    HW1 7366   2.148   2.793   1.250
 1708SOL    HW2 7367   1.986   2.773   1.245
 1709SOL     OW 7368   3.387   2.861   0.190
 1709SOL    HW1 7369   3.324   2.785   0.203
 1709SOL    HW2 7370   3.435   2.879   0.276
 1710SOL     OW 7371   3.049   3.654   1.616
 1710SOL    HW1 7372   3.073   3.714   1.540
 1710SOL    HW2 7373   3.056   3.559   1.586
 1711SOL     OW 7374   3.328   3.279   0.953
 1711SOL    HW1 7375   3.269   3.285   1.033
 1711SOL    HW2 7376   3.313   3.191   0.907
 1712SOL     OW 7377   3.529   3.576   0.572
 1712SOL    HW1 7378   3.488   3.553   0.484
 1712SOL    HW2 7379   3.511   3.502   0.637
 1713SOL     OW 7380   2.460   2.591   0.270
 1713SOL    HW1 7381   2.484   2.660   0.202
 1713SOL    HW2 7382   2.382   2.624   0.324
 1714SOL     OW 7383   3.143   2.207   0.944
 1714SOL    HW1 7384   3.057   2.157   0.931
 1714SOL    HW2 7385   3.205   2.153   1.000
 1715SOL     OW 7386   3.438   3.524   0.307
 1715SOL    HW1 7387   3.527   3.570   0.310
 1715SOL    HW2 7388   3.417   3.500   0.212
 1716SOL     OW 7389   3.256   2.331   1.674
 1716SOL    HW1 7390   3.236   2.374   1.762
 1716SOL    HW2 7391   3.334   2.269   1.683
 1717SOL     OW 7392   2.835   2.752   1.572
 1717SOL    HW1 7393   2.881   2.668   1.543
 1717SOL    HW2 7394   2.779   2.786   1.497
 1718SOL     OW 7395   2.853   2.272   1.242
 1718SOL    HW1 7396   2.776   2.306   1.296
 1718SOL    HW2 7397   2.819   2.221   1.163
 1719SOL     OW 7398   1.938   2.673   0.789
 1719SOL    HW1 7399   2.037   2.661   0.798
 1719SOL    HW2 7400   1.914   2.768   0.810
 1720SOL     OW 7401   1.992   3.683   1.571
 1720SOL    HW1 7402   1.982   3.668   1.670
 1720SOL    HW2 7403   1.906   3.719   1.535
 1721SOL     OW 7404   2.727   2.210   0.195
 1721SOL    HW1 7405   2.786   2.273   0.146
 1721SOL    HW2 7406   2.746   2.116   0.166
 1722SOL     OW 7407   3.581   2.447   1.831
 1722SOL    HW1 7408   3.555   2.536   1.795
 1722SOL    HW2 7409   3.579   2.379   1.758
 1723SOL     OW 7410   2.412   2.058   0.885
 1723SOL    HW1 7411   2.407   2.053   0.985
 1723SOL    HW2 7412   2.414   2.154   0.856
 1724SOL     OW 7413   2.870   3.318   0.477
 1724SOL    HW1 7414   2.824   3.390   0.425
 1724SOL    HW2 7415   2.866   3.338   0.575
 1725SOL     OW 7416   2.213   3.663   0.853
 1725SOL    HW1 7417   2.263   3.577   0.859
 1725SOL    HW2 7418   2.278   3.740   0.850
 1726SOL     OW 7419   3.657   2.928   0.873
 1726SOL    HW1 7420   3.595   2.913   0.797
 1726SOL    HW2 7421   3.605   2.939   0.958
 1727SOL     OW 7422   3.089   3.412   1.506
 1727SOL    HW1 7423   3.095   3.335   1.570
 1727SOL    HW2 7424   3.037   3.386   1.426
 1728SOL     OW 7425   2.183   2.805   0.242
 1728SOL    HW1 7426   2.265   2.844   0.200
 1728SOL    HW2 7427   2.156   2.723   0.193
 1729SOL     OW 7428   2.973   3.638   0.237
 1729SOL    HW1 7429   2.913   3.576   0.287
 1729SOL    HW2 7430   3.004   3.594   0.152
 1730SOL     OW 7431   2.064   2.147   1.498
 1730SOL    HW1 7432   1.984   2.207   1.485
 1730SOL    HW2 7433   2.054   2.098   1.584
 1731SOL     OW 7434   3.494   3.239   0.081
 1731SOL    HW1 7435   3.462   3.333   0.071
 1731SOL    HW2 7436   3.418   3.176   0.069
 1732SOL     OW 7437   3.262   1.969   0.426
 1732SOL    HW1 7438   3.238   1.932   0.336
 1732SOL    HW2 7439   3.361   1.985   0.430
 1733SOL     OW 7440   2.111   3.647   1.241
 1733SOL    HW1 7441   2.168   3.582   1.291
 1733SOL    HW2 7442   2.095   3.614   1.148
 1734SOL     OW 7443   2.802   3.560   0.904
 1734SOL    HW1 7444   2.882   3.503   0.925
 1734SOL    HW2 7445   2.753   3.520   0.827
 1735SOL     OW 7446   2.244   2.562   0.480
 1735SOL    HW1 7447   2.289   2.472   0.477
 1735SOL    HW2 7448   2.150   2.551   0.513
 1736SOL     OW 7449   3.409   2.084   1.729
 1736SOL    HW1 7450   3.404   2.121   1.821
 1736SOL    HW2 7451   3.337   2.015   1.717
 1737SOL     OW 7452   2.643   2.126   1.749
 1737SOL    HW1 7453   2.710   2.065   1.792
 1737SOL    HW2 7454   2.570   2.145   1.814
 1738SOL     OW 7455   2.750   3.376   1.195
 1738SOL    HW1 7456   2.727   3.351   1.101
 1738SOL    HW2 7457   2.811   3.307   1.234
 1739SOL     OW 7458   3.213   2.452   1.433
 1739SOL    HW1 7459   3.241   2.409   1.518
 1739SOL    HW2 7460   3.238   2.548   1.434
 1740SOL     OW 7461   2.665   3.264   0.924
 1740SOL    HW1 7462   2.755   3.278   0.882
 1740SOL    HW2 7463   2.594   3.266   0.853
 1741SOL     OW 7464   2.784   2.365   0.899
 1741SOL    HW1 7465   2.759   2.356   0.803
 1741SOL    HW2 7466   2.832   2.283   0.930
 1742SOL     OW 7467   2.401   1.926   0.512
 1742SOL    HW1 7468   2.320   1.927   0.570
 1742SOL    HW2 7469   2.404   2.009   0.457
 1743SOL     OW 7470   3.296   3.050   0.041
 1743SOL    HW1 7471   3.328   2.974   0.098
 1743SOL    HW2 7472   3.204   3.077   0.071
 1744SOL     OW 7473   2.797   2.098   0.480
 1744SOL    HW1 7474   2.749   2.139   0.402
 1744SOL    HW2 7475   2.896   2.096   0.461
 1745SOL     OW 7476   3.089   3.432   0.793
 1745SOL    HW1 7477   3.110   3.506   0.728
 1745SOL    HW2 7478   3.157   3.432   0.866
 1746SOL     OW 7479   2.321   3.014   0.741
 1746SOL    HW1 7480   2.250   2.987   0.806
 1746SOL    HW2 7481   2.295   2.986   0.648
 1747SOL     OW 7482   3.133   3.659   0.591
 1747SOL    HW1 7483   3.177   3.723   0.527
 1747SOL    HW2 7484   3.083   3.711   0.661
 1748SOL     OW 7485   1.940   2.418   1.386
 1748SOL    HW1 7486   2.032   2.417   1.345
 1748SOL    HW2 7487   1.934   2.492   1.453
 1749SOL     OW 7488   2.423   2.084   1.147
 1749SOL    HW1 7489   2.461   2.000   1.184
 1749SOL    HW2 7490   2.335   2.103   1.191
 1750SOL     OW 7491   2.728   2.316   0.642
 1750SOL    HW1 7492   2.696   2.388   0.580
 1750SOL    HW2 7493   2.752   2.235   0.589
 1751SOL     OW 7494   2.879   1.901   0.753
 1751SOL    HW1 7495   2.807   1.906   0.684
 1751SOL    HW2 7496   2.855   1.832   0.822
 1752SOL     OW 7497   3.291   3.035   0.867
 1752SOL    HW1 7498   3.236   2.951   0.860
 1752SOL    HW2 7499   3.317   3.064   0.775
 1753SOL     OW 7500   3.526   3.142   0.657
 1753SOL    HW1 7501   3.625   3.150   0.671
 1753SOL    HW2 7502   3.481   3.226   0.688
 1754SOL     OW 7503   3.616   3.085   1.588
 1754SOL    HW1 7504   3.707   3.046   1.575
 1754SOL    HW2 7505   3.624   3.181   1.612
 1755SOL     OW 7506   2.926   3.209   1.340
 1755SOL    HW1 7507   2.846   3.186   1.395
 1755SOL    HW2 7508   3.009   3.183   1.389
 1756SOL     OW 7509   3.454   3.491   1.625
 1756SOL    HW1 7510   3.481   3.525   1.535
 1756SOL    HW2 7511   3.533   3.453   1.671
 1757SOL     OW 7512   3.500   2.961   1.079
 1757SOL    HW1 7513   3.505   3.042   1.138
 1757SOL    HW2 7514   3.414   2.963   1.028
 1758SOL     OW 7515   2.842   2.978   1.719
 1758SOL    HW1 7516   2.743   2.984   1.729
 1758SOL    HW2 7517   2.865   2.898   1.663
 1759SOL     OW 7518   2.567   2.912   0.368
 1759SOL    HW1 7519   2.553   2.919   0.467
 1759SOL    HW2 7520   2.651   2.861   0.350
 1760SOL     OW 7521   2.272   2.675   1.251
 1760SOL    HW1 7522   2.358   2.687   1.301
 1760SOL    HW2 7523   2.230   2.588   1.278
 1761SOL     OW 7524   3.136   2.248   1.262
 1761SOL    HW1 7525   3.157   2.322   1.326
 1761SOL    HW2 7526   3.047   2.265   1.219
 1762SOL     OW 7527   2.229   2.962   0.501
 1762SOL    HW1 7528   2.222   3.045   0.445
 1762SOL    HW2 7529   2.233   2.882   0.441
 1763SOL     OW 7530   2.428   2.399   0.865
 1763SOL    HW1 7531   2.440   2.465   0.791
 1763SOL    HW2 7532   2.474   2.433   0.948
 1764SOL     OW 7533   3.114   3.210   0.388
 1764SOL    HW1 7534   3.164   3.287   0.428
 1764SOL    HW2 7535   3.019   3.212   0.420
 1765SOL     OW 7536   3.134   3.307   1.142
 1765SOL    HW1 7537   3.181   3.320   1.229
 1765SOL    HW2 7538   3.068   3.233   1.151
 1766SOL     OW 7539   3.449   2.641   1.670
 1766SOL    HW1 7540   3.357   2.679   1.665
 1766SOL    HW2 7541   3.509   2.688   1.605
 1767SOL     OW 7542   2.875   1.967   1.770
 1767SOL    HW1 7543   2.881   2.052   1.718
 1767SOL    HW2 7544   2.907   1.891   1.713
 1768SOL     OW 7545   2.366   1.912   1.740
 1768SOL    HW1 7546   2.324   1.855   1.670
 1768SOL    HW2 7547   2.300   1.981   1.772
 1769SOL     OW 7548   2.435   2.732   1.029
 1769SOL    HW1 7549   2.479   2.821   1.020
 1769SOL    HW2 7550   2.372   2.732   1.106
 1770SOL     OW 7551   3.222   2.724   1.045
 1770SOL    HW1 7552   3.147   2.724   0.979
 1770SOL    HW2 7553   3.259   2.632   1.054
 1771SOL     OW 7554   2.169   2.075   1.231
 1771SOL    HW1 7555   2.146   2.112   1.321
 1771SOL    HW2 7556   2.139   1.980   1.225
 1772SOL     OW 7557   1.899   3.172   1.282
 1772SOL    HW1 7558   1.952   3.123   1.350
 1772SOL    HW2 7559   1.921   3.270   1.287
 1773SOL     OW 7560   2.594   2.496   1.064
 1773SOL    HW1 7561   2.653   2.470   0.988
 1773SOL    HW2 7562   2.566   2.592   1.053
 1774SOL     OW 7563   3.590   2.797   1.854
 1774SOL    HW1 7564   3.544   2.790   1.765
 1774SOL    HW2 7565   3.528   2.841   1.920
 1775SOL     OW 7566   2.169   1.925   0.618
 1775SOL    HW1 7567   2.158   2.019   0.651
 1775SOL    HW2 7568   2.164   1.862   0.695
 1776SOL     OW 7569   2.885   2.628   0.966
 1776SOL    HW1 7570   2.900   2.649   1.062
 1776SOL    HW2 7571   2.855   2.533   0.957
 1777SOL     OW 7572   2.842   3.435   1.700
 1777SOL    HW1 7573   2.822   3.479   1.612
 1777SOL    HW2 7574   2.881   3.344   1.684
 1778SOL     OW 7575   2.181   2.672   0.949
 1778SOL    HW1 7576   2.274   2.708   0.954
 1778SOL    HW2 7577   2.175   2.587   1.001
 1779SOL     OW 7578   2.201   2.371   1.006
 1779SOL    HW1 7579   2.149   2.288   0.989
 1779SOL    HW2 7580   2.278   2.376   0.942
 1780SOL     OW 7581   3.000   2.242   1.678
 1780SOL    HW1 7582   2.955   2.305   1.742
 1780SOL    HW2 7583   3.093   2.273   1.661
 1781SOL     OW 7584   1.950   3.663   0.927
 1781SOL    HW1 7585   1.908   3.577   0.900
 1781SOL    HW2 7586   2.044   3.666   0.893
 1782SOL     OW 7587   2.366   3.430   0.910
 1782SOL    HW1 7588   2.432   3.504   0.919
 1782SOL    HW2 7589   2.410   3.351   0.868
 1783SOL     OW 7590   2.864   2.658   1.238
 1783SOL    HW1 7591   2.905   2.626   1.324
 1783SOL    HW2 7592   2.768   2.631   1.235
 1784SOL     OW 7593   1.902   2.406   1.114
 1784SOL    HW1 7594   1.987   2.373   1.073
 1784SOL    HW2 7595   1.915   2.421   1.212
 1785SOL     OW 7596   2.051   2.382   1.722
 1785SOL    HW1 7597   2.110   2.342   1.652
 1785SOL    HW2 7598   1.993   2.453   1.681
 1786SOL     OW 7599   3.231   2.812   1.660
 1786SOL    HW1 7600   3.270   2.901   1.680
 1786SOL    HW2 7601   3.241   2.792   1.563
 1787SOL     OW 7602   2.677   2.434   0.325
 1787SOL    HW1 7603   2.684   2.345   0.279
 1787SOL    HW2 7604   2.583   2.468   0.317
 1788SOL     OW 7605   3.519   2.466   1.206
 1788SOL    HW1 7606   3.481   2.397   1.268
 1788SOL    HW2 7607   3.601   2.430   1.162
 1789SOL     OW 7608   2.533   2.326   1.269
 1789SOL    HW1 7609   2.499   2.237   1.239
 1789SOL    HW2 7610   2.559   2.380   1.189
 1790SOL     OW 7611   2.792   3.540   1.465
 1790SOL    HW1 7612   2.768   3.522   1.370
 1790SOL    HW2 7613   2.822   3.634   1.475
 1791SOL     OW 7614   2.335   2.362   0.191
 1791SOL    HW1 7615   2.396   2.442   0.195
 1791SOL    HW2 7616   2.240   2.393   0.198
 1792SOL     OW 7617   2.021   2.999   1.466
 1792SOL    HW1 7618   2.043   2.938   1.542
 1792SOL    HW2 7619   2.031   2.950   1.380
 1793SOL     OW 7620   3.209   2.921   1.234
 1793SOL    HW1 7621   3.233   2.858   1.160
 1793SOL    HW2 7622   3.119   2.961   1.216
 1794SOL     OW 7623   3.621   3.609   1.154
 1794SOL    HW1 7624   3.682   3.639   1.081
 1794SOL    HW2 7625   3.583   3.520   1.132
 1795SOL     OW 7626   3.114   3.593   1.128
 1795SOL    HW1 7627   3.198   3.598   1.074
 1795SOL    HW2 7628   3.091   3.497   1.146
 1796SOL     OW 7629   1.945   3.120   1.022
 1796SOL    HW1 7630   1.940   3.119   1.122
 1796SOL    HW2 7631   1.862   3.079   0.984
 1797SOL     OW 7632   2.550   3.524   1.716
 1797SOL    HW1 7633   2.494   3.605   1.725
 1797SOL    HW2 7634   2.602   3.528   1.630
 1798SOL     OW 7635   3.588   1.997   0.523
 1798SOL    HW1 7636   3.661   1.980   0.456
 1798SOL    HW2 7637   3.557   1.910   0.561
 1799SOL     OW 7638   3.250   3.435   0.477
 1799SOL    HW1 7639   3.317   3.447   0.403
 1799SOL    HW2 7640   3.210   3.524   0.500
 1800SOL     OW 7641   1.992   3.656   1.851
 1800SOL    HW1 7642   1.951   3.582   1.904
 1800SOL    HW2 7643   2.056   3.707   1.909
 1801SOL     OW 7644   2.692   3.135   1.422
 1801SOL    HW1 7645   2.687   3.168   1.517
 1801SOL    HW2 7646   2.606   3.154   1.376
 1802SOL     OW 7647   3.512   3.582   1.394
 1802SOL    HW1 7648   3.565   3.592   1.310
 1802SOL    HW2 7649   3.485   3.672   1.428
 1803SOL     OW 7650   3.703   2.037   0.963
 1803SOL    HW1 7651   3.742   1.952   0.927
 1803SOL    HW2 7652   3.605   2.039   0.944
 1804SOL     OW 7653   2.125   2.188   0.720
 1804SOL    HW1 7654   2.046   2.239   0.686
 1804SOL    HW2 7655   2.116   2.173   0.818
 1805SOL     OW 7656   3.056   3.474   0.031
 1805SOL    HW1 7657   3.062   3.381   0.068
 1805SOL    HW2 7658   2.997   3.474  -0.049
 1806SOL     OW 7659   2.684   2.864   1.372
 1806SOL    HW1 7660   2.724   2.863   1.280
 1806SOL    HW2 7661   2.694   2.956   1.412
 1807SOL     OW 7662   3.366   3.469   0.044
 1807SOL    HW1 7663   3.274   3.506   0.051
 1807SOL    HW2 7664   3.404   3.489  -0.046
 1808SOL     OW 7665   3.476   3.154   1.289
 1808SOL    HW1 7666   3.536   3.157   1.369
 1808SOL    HW2 7667   3.401   3.218   1.302
 1809SOL     OW 7668   2.876   2.098   0.971
 1809SOL    HW1 7669   2.868   2.062   0.878
 1809SOL    HW2 7670   2.874   2.022   1.036
 1810SOL     OW 7671   3.571   2.247   1.381
 1810SOL    HW1 7672   3.644   2.316   1.385
 1810SOL    HW2 7673   3.599   2.172   1.322
 1811SOL     OW 7674   2.117   3.210   0.290
 1811SOL    HW1 7675   2.021   3.211   0.263
 1811SOL    HW2 7676   2.129   3.263   0.374
 1812SOL     OW 7677   1.967   2.875   1.726
 1812SOL    HW1 7678   1.890   2.842   1.780
 1812SOL    HW2 7679   2.052   2.845   1.768
 1813SOL     OW 7680   3.302   2.718   1.398
 1813SOL    HW1 7681   3.245   2.770   1.335
 1813SOL    HW2 7682   3.398   2.730   1.374
 1814SOL     OW 7683   3.045   3.197   0.119
 1814SOL    HW1 7684   2.946   3.186   0.121
 1814SOL    HW2 7685   3.079   3.212   0.212
 1815SOL     OW 7686   2.475   2.704   1.431
 1815SOL    HW1 7687   2.531   2.785   1.414
 1815SOL    HW2 7688   2.534   2.624   1.434
 1816SOL     OW 7689   3.355   3.629   0.959
 1816SOL    HW1 7690   3.388   3.693   0.890
 1816SOL    HW2 7691   3.421   3.623   1.034
 1817SOL     OW 7692   3.312   3.082   1.633
 1817SOL    HW1 7693   3.303   3.072   1.732
 1817SOL    HW2 7694   3.408   3.075   1.607
 1818SOL     OW 7695   2.252   3.603   1.560
 1818SOL    HW1 7696   2.161   3.644   1.558
 1818SOL    HW2 7697   2.245   3.509   1.592
 1819SOL     OW 7698   3.536   2.745   1.254
 1819SOL    HW1 7699   3.509   2.656   1.217
 1819SOL    HW2 7700   3.537   2.813   1.181
 1820SOL     OW 7701   2.456   2.607   0.652
 1820SOL    HW1 7702   2.506   2.692   0.633
 1820SOL    HW2 7703   2.368   2.609   0.604
 1821SOL     OW 7704   3.639   2.204   1.642
 1821SOL    HW1 7705   3.622   2.235   1.548
 1821SOL    HW2 7706   3.555   2.167   1.680
 1822SOL     OW 7707   3.592   2.796   1.517
 1822SOL    HW1 7708   3.630   2.887   1.532
 1822SOL    HW2 7709   3.584   2.779   1.418
 1823SOL     OW 7710   2.523   3.652   0.953
 1823SOL    HW1 7711   2.477   3.740   0.940
 1823SOL    HW2 7712   2.622   3.664   0.946
 1824SOL     OW 7713   2.721   2.818   0.861
 1824SOL    HW1 7714   2.775   2.749   0.909
 1824SOL    HW2 7715   2.689   2.887   0.927
 1825SOL     OW 7716   3.723   3.431   0.851
 1825SOL    HW1 7717   3.652   3.419   0.781
 1825SOL    HW2 7718   3.724   3.352   0.911
 1826SOL     OW 7719   1.941   3.102   0.653
 1826SOL    HW1 7720   1.940   3.055   0.741
 1826SOL    HW2 7721   2.023   3.074   0.602
 1827SOL     OW 7722   3.686   2.054   1.227
 1827SOL    HW1 7723   3.682   1.964   1.271
 1827SOL    HW2 7724   3.689   2.043   1.128
 1828SOL     OW 7725   2.290   2.286   0.520
 1828SOL    HW1 7726   2.320   2.214   0.458
 1828SOL    HW2 7727   2.251   2.246   0.603
 1829SOL     OW 7728   3.567   3.349   1.104
 1829SOL    HW1 7729   3.474   3.324   1.077
 1829SOL    HW2 7730   3.593   3.299   1.186
 1830SOL     OW 7731   2.179   2.409   1.280
 1830SOL    HW1 7732   2.217   2.350   1.352
 1830SOL    HW2 7733   2.219   2.383   1.192
 1831SOL     OW 7734   2.674   3.448   0.687
 1831SOL    HW1 7735   2.706   3.458   0.593
 1831SOL    HW2 7736   2.595   3.386   0.689
 1832SOL     OW 7737   3.286   2.076   1.112
 1832SOL    HW1 7738   3.338   2.011   1.167
 1832SOL    HW2 7739   3.237   2.139   1.173
 1833SOL     OW 7740   2.480   3.429   1.284
 1833SOL    HW1 7741   2.475   3.511   1.341
 1833SOL    HW2 7742   2.569   3.426   1.239
 1834SOL     OW 7743   3.214   1.914   0.168
 1834SOL    HW1 7744   3.249   1.873   0.084
 1834SOL    HW2 7745   3.124   1.876   0.188
 1835SOL     OW 7746   3.162   2.315   0.691
 1835SOL    HW1 7747   3.103   2.395   0.695
 1835SOL    HW2 7748   3.177   2.280   0.784
 1836SOL     OW 7749   3.455   2.083   0.882
 1836SOL    HW1 7750   3.371   2.082   0.936
 1836SOL    HW2 7751   3.457   2.166   0.826
 1837SOL     OW 7752   1.901   2.939   0.300
 1837SOL    HW1 7753   2.000   2.928   0.291
 1837SOL    HW2 7754   1.861   2.853   0.332
 1838SOL     OW 7755   2.737   3.508   0.337
 1838SOL    HW1 7756   2.660   3.473   0.283
 1838SOL    HW2 7757   2.705   3.579   0.399
 1839SOL     OW 7758   2.087   2.137   2.858
 1839SOL    HW1 7759   2.122   2.120   2.950
 1839SOL    HW2 7760   1.999   2.092   2.846
 1840SOL     OW 7761   1.881   2.230   2.509
 1840SOL    HW1 7762   1.799   2.273   2.548
 1840SOL    HW2 7763   1.853   2.157   2.446
 1841SOL     OW 7764   2.431   3.137   3.027
 1841SOL    HW1 7765   2.338   3.130   2.990
 1841SOL    HW2 7766   2.442   3.226   3.071
 1842SOL     OW 7767   3.417   3.373   2.565
 1842SOL    HW1 7768   3.360   3.357   2.646
 1842SOL    HW2 7769   3.358   3.383   2.485
 1843SOL     OW 7770   2.630   3.006   2.885
 1843SOL    HW1 7771   2.552   3.023   2.945
 1843SOL    HW2 7772   2.664   3.093   2.849
 1844SOL     OW 7773   2.548   3.023   3.665
 1844SOL    HW1 7774   2.608   3.102   3.679
 1844SOL    HW2 7775   2.462   3.054   3.624
 1845SOL     OW 7776   2.197   3.297   2.923
 1845SOL    HW1 7777   2.119   3.266   2.870
 1845SOL    HW2 7778   2.255   3.355   2.866
 1846SOL     OW 7779   3.322   3.367   3.201
 1846SOL    HW1 7780   3.346   3.461   3.227
 1846SOL    HW2 7781   3.306   3.313   3.283
 1847SOL     OW 7782   3.465   2.309   2.599
 1847SOL    HW1 7783   3.391   2.355   2.549
 1847SOL    HW2 7784   3.516   2.377   2.652
 1848SOL     OW 7785   2.093   3.575   2.345
 1848SOL    HW1 7786   2.127   3.652   2.399
 1848SOL    HW2 7787   2.137   3.575   2.255
 1849SOL     OW 7788   2.989   3.203   3.552
 1849SOL    HW1 7789   3.036   3.203   3.640
 1849SOL    HW2 7790   2.941   3.116   3.541
 1850SOL     OW 7791   2.482   3.648   3.301
 1850SOL    HW1 7792   2.390   3.631   3.336
 1850SOL    HW2 7793   2.510   3.740   3.327
 1851SOL     OW 7794   3.456   1.976   3.342
 1851SOL    HW1 7795   3.438   2.043   3.270
 1851SOL    HW2 7796   3.453   2.022   3.431
 1852SOL     OW 7797   3.704   3.629   2.221
 1852SOL    HW1 7798   3.758   3.600   2.301
 1852SOL    HW2 7799   3.734   3.719   2.192
 1853SOL     OW 7800   1.889   3.458   1.979
 1853SOL    HW1 7801   1.870   3.362   2.000
 1853SOL    HW2 7802   1.856   3.516   2.054
 1854SOL     OW 7803   3.551   2.784   2.474
 1854SOL    HW1 7804   3.646   2.755   2.482
 1854SOL    HW2 7805   3.543   2.849   2.399
 1855SOL     OW 7806   3.503   2.970   2.294
 1855SOL    HW1 7807   3.589   2.972   2.242
 1855SOL    HW2 7808   3.517   3.017   2.382
 1856SOL     OW 7809   2.475   3.227   2.588
 1856SOL    HW1 7810   2.426   3.140   2.597
 1856SOL    HW2 7811   2.452   3.270   2.501
 1857SOL     OW 7812   3.155   3.090   3.285
 1857SOL    HW1 7813   3.192   3.017   3.227
 1857SOL    HW2 7814   3.207   3.095   3.370
 1858SOL     OW 7815   2.671   1.866   2.364
 1858SOL    HW1 7816   2.711   1.957   2.355
 1858SOL    HW2 7817   2.571   1.874   2.370
 1859SOL     OW 7818   3.049   3.654   3.478
 1859SOL    HW1 7819   3.073   3.714   3.402
 1859SOL    HW2 7820   3.056   3.559   3.448
 1860SOL     OW 7821   2.179   2.113   3.663
 1860SOL    HW1 7822   2.250   2.184   3.669
 1860SOL    HW2 7823   2.091   2.152   3.691
 1861SOL     OW 7824   3.328   3.279   2.815
 1861SOL    HW1 7825   3.269   3.285   2.895
 1861SOL    HW2 7826   3.313   3.191   2.769
 1862SOL     OW 7827   3.529   3.576   2.434
 1862SOL    HW1 7828   3.488   3.553   2.346
 1862SOL    HW2 7829   3.511   3.502   2.499
 1863SOL     OW 7830   3.143   2.207   2.806
 1863SOL    HW1 7831   3.057   2.157   2.793
 1863SOL    HW2 7832   3.205   2.153   2.862
 1864SOL     OW 7833   3.256   2.331   3.536
 1864SOL    HW1 7834   3.236   2.374   3.624
 1864SOL    HW2 7835   3.334   2.269   3.545
 1865SOL     OW 7836   2.835   2.752   3.434
 1865SOL    HW1 7837   2.881   2.668   3.405
 1865SOL    HW2 7838   2.779   2.786   3.359
 1866SOL     OW 7839   2.853   2.272   3.104
 1866SOL    HW1 7840   2.776   2.306   3.158
 1866SOL    HW2 7841   2.819   2.221   3.025
 1867SOL     OW 7842   1.938   2.673   2.651
 1867SOL    HW1 7843   2.037   2.661   2.660
 1867SOL    HW2 7844   1.914   2.768   2.672
 1868SOL     OW 7845   1.992   3.683   3.433
 1868SOL    HW1 7846   1.982   3.668   3.532
 1868SOL    HW2 7847   1.906   3.719   3.397
 1869SOL     OW 7848   3.581   2.447   3.693
 1869SOL    HW1 7849   3.555   2.536   3.657
 1869SOL    HW2 7850   3.579   2.379   3.620
 1870SOL     OW 7851   3.224   3.006   2.407
 1870SOL    HW1 7852   3.307   2.977   2.359
 1870SOL    HW2 7853   3.175   3.073   2.351
 1871SOL     OW 7854   2.870   3.318   2.339
 1871SOL    HW1 7855   2.824   3.390   2.287
 1871SOL    HW2 7856   2.866   3.338   2.437
 1872SOL     OW 7857   2.213   3.663   2.715
 1872SOL    HW1 7858   2.263   3.577   2.721
 1872SOL    HW2 7859   2.278   3.740   2.712
 1873SOL     OW 7860   3.657   2.928   2.735
 1873SOL    HW1 7861   3.595   2.913   2.659
 1873SOL    HW2 7862   3.605   2.939   2.820
 1874SOL     OW 7863   3.089   3.412   3.368
 1874SOL    HW1 7864   3.095   3.335   3.432
 1874SOL    HW2 7865   3.037   3.386   3.288
 1875SOL     OW 7866   2.183   2.805   2.104
 1875SOL    HW1 7867   2.265   2.844   2.062
 1875SOL    HW2 7868   2.156   2.723   2.055
 1876SOL     OW 7869   3.320   2.597   2.590
 1876SOL    HW1 7870   3.315   2.532   2.665
 1876SOL    HW2 7871   3.400   2.656   2.603
 1877SOL     OW 7872   2.323   3.128   3.589
 1877SOL    HW1 7873   2.273   3.129   3.503
 1877SOL    HW2 7874   2.260   3.110   3.665
 1878SOL     OW 7875   2.064   2.147   3.360
 1878SOL    HW1 7876   1.984   2.207   3.347
 1878SOL    HW2 7877   2.054   2.098   3.446
 1879SOL     OW 7878   2.326   3.605   2.185
 1879SOL    HW1 7879   2.359   3.644   2.271
 1879SOL    HW2 7880   2.402   3.598   2.120
 1880SOL     OW 7881   3.262   1.969   2.288
 1880SOL    HW1 7882   3.238   1.932   2.198
 1880SOL    HW2 7883   3.361   1.985   2.292
 1881SOL     OW 7884   2.802   3.560   2.766
 1881SOL    HW1 7885   2.882   3.503   2.787
 1881SOL    HW2 7886   2.753   3.520   2.689
 1882SOL     OW 7887   2.244   2.562   2.342
 1882SOL    HW1 7888   2.289   2.472   2.339
 1882SOL    HW2 7889   2.150   2.551   2.375
 1883SOL     OW 7890   3.409   2.084   3.591
 1883SOL    HW1 7891   3.404   2.121   3.683
 1883SOL    HW2 7892   3.337   2.015   3.579
 1884SOL     OW 7893   2.476   1.984   1.979
 1884SOL    HW1 7894   2.574   1.962   1.986
 1884SOL    HW2 7895   2.445   1.967   1.886
 1885SOL     OW 7896   2.643   2.126   3.611
 1885SOL    HW1 7897   2.710   2.065   3.654
 1885SOL    HW2 7898   2.570   2.145   3.676
 1886SOL     OW 7899   2.750   3.376   3.057
 1886SOL    HW1 7900   2.727   3.351   2.963
 1886SOL    HW2 7901   2.811   3.307   3.096
 1887SOL     OW 7902   3.213   2.452   3.295
 1887SOL    HW1 7903   3.241   2.409   3.380
 1887SOL    HW2 7904   3.238   2.548   3.296
 1888SOL     OW 7905   2.665   3.264   2.786
 1888SOL    HW1 7906   2.755   3.278   2.744
 1888SOL    HW2 7907   2.594   3.266   2.715
 1889SOL     OW 7908   2.401   1.926   2.374
 1889SOL    HW1 7909   2.320   1.927   2.432
 1889SOL    HW2 7910   2.404   2.009   2.319
 1890SOL     OW 7911   3.296   3.050   1.903
 1890SOL    HW1 7912   3.328   2.974   1.960
 1890SOL    HW2 7913   3.204   3.077   1.933
 1891SOL     OW 7914   2.159   1.897   2.033
 1891SOL    HW1 7915   2.208   1.981   2.012
 1891SOL    HW2 7916   2.221   1.832   2.078
 1892SOL     OW 7917   2.938   2.545   3.326
 1892SOL    HW1 7918   2.858   2.484   3.329
 1892SOL    HW2 7919   3.019   2.492   3.302
 1893SOL     OW 7920   3.089   3.432   2.655
 1893SOL    HW1 7921   3.110   3.506   2.590
 1893SOL    HW2 7922   3.157   3.432   2.728
 1894SOL     OW 7923   2.321   3.014   2.603
 1894SOL    HW1 7924   2.250   2.987   2.668
 1894SOL    HW2 7925   2.295   2.986   2.510
 1895SOL     OW 7926   2.894   2.411   1.878
 1895SOL    HW1 7927   2.853   2.493   1.839
 1895SOL    HW2 7928   2.958   2.437   1.951
 1896SOL     OW 7929   2.879   1.901   2.615
 1896SOL    HW1 7930   2.807   1.906   2.546
 1896SOL    HW2 7931   2.855   1.832   2.684
 1897SOL     OW 7932   3.291   3.035   2.729
 1897SOL    HW1 7933   3.236   2.951   2.722
 1897SOL    HW2 7934   3.317   3.064   2.637
 1898SOL     OW 7935   3.328   2.452   2.854
 1898SOL    HW1 7936   3.298   2.357   2.861
 1898SOL    HW2 7937   3.401   2.468   2.920
 1899SOL     OW 7938   3.719   2.695   2.239
 1899SOL    HW1 7939   3.761   2.631   2.303
 1899SOL    HW2 7940   3.681   2.644   2.161
 1900SOL     OW 7941   2.389   2.118   2.190
 1900SOL    HW1 7942   2.416   2.059   2.115
 1900SOL    HW2 7943   2.389   2.213   2.159
 1901SOL     OW 7944   2.926   3.209   3.202
 1901SOL    HW1 7945   2.846   3.186   3.257
 1901SOL    HW2 7946   3.009   3.183   3.251
 1902SOL     OW 7947   2.973   3.057   2.962
 1902SOL    HW1 7948   2.933   3.101   3.043
 1902SOL    HW2 7949   2.932   3.094   2.879
 1903SOL     OW 7950   3.500   2.961   2.941
 1903SOL    HW1 7951   3.505   3.042   3.000
 1903SOL    HW2 7952   3.414   2.963   2.890
 1904SOL     OW 7953   2.777   1.951   3.264
 1904SOL    HW1 7954   2.802   1.931   3.169
 1904SOL    HW2 7955   2.849   2.007   3.306
 1905SOL     OW 7956   3.136   2.248   3.124
 1905SOL    HW1 7957   3.157   2.322   3.188
 1905SOL    HW2 7958   3.047   2.265   3.081
 1906SOL     OW 7959   2.229   2.962   2.363
 1906SOL    HW1 7960   2.222   3.045   2.307
 1906SOL    HW2 7961   2.233   2.882   2.303
 1907SOL     OW 7962   3.134   3.307   3.004
 1907SOL    HW1 7963   3.181   3.320   3.091
 1907SOL    HW2 7964   3.068   3.233   3.013
 1908SOL     OW 7965   3.444   2.501   2.334
 1908SOL    HW1 7966   3.413   2.562   2.407
 1908SOL    HW2 7967   3.494   2.553   2.265
 1909SOL     OW 7968   2.216   3.372   3.191
 1909SOL    HW1 7969   2.195   3.328   3.104
 1909SOL    HW2 7970   2.313   3.398   3.194
 1910SOL     OW 7971   2.264   2.613   3.460
 1910SOL    HW1 7972   2.332   2.668   3.413
 1910SOL    HW2 7973   2.304   2.525   3.487
 1911SOL     OW 7974   3.449   2.641   3.532
 1911SOL    HW1 7975   3.357   2.679   3.527
 1911SOL    HW2 7976   3.509   2.688   3.467
 1912SOL     OW 7977   2.875   1.967   3.632
 1912SOL    HW1 7978   2.881   2.052   3.580
 1912SOL    HW2 7979   2.907   1.891   3.575
 1913SOL     OW 7980   2.435   2.732   2.891
 1913SOL    HW1 7981   2.479   2.821   2.882
 1913SOL    HW2 7982   2.372   2.732   2.968
 1914SOL     OW 7983   3.222   2.724   2.907
 1914SOL    HW1 7984   3.147   2.724   2.841
 1914SOL    HW2 7985   3.259   2.632   2.916
 1915SOL     OW 7986   1.899   3.172   3.144
 1915SOL    HW1 7987   1.952   3.123   3.212
 1915SOL    HW2 7988   1.921   3.270   3.149
 1916SOL     OW 7989   2.169   1.925   2.480
 1916SOL    HW1 7990   2.158   2.019   2.513
 1916SOL    HW2 7991   2.164   1.862   2.557
 1917SOL     OW 7992   2.885   2.628   2.828
 1917SOL    HW1 7993   2.900   2.649   2.924
 1917SOL    HW2 7994   2.855   2.533   2.819
 1918SOL     OW 7995   2.842   3.435   3.562
 1918SOL    HW1 7996   2.822   3.479   3.474
 1918SOL    HW2 7997   2.881   3.344   3.546
 1919SOL     OW 7998   3.721   3.380   3.467
 1919SOL    HW1 7999   3.735   3.407   3.372
 1919SOL    HW2 8000   3.804   3.402   3.520
 1920SOL     OW 8001   3.165   2.700   1.904
 1920SOL    HW1 8002   3.199   2.607   1.919
 1920SOL    HW2 8003   3.183   2.727   1.809
 1921SOL     OW 8004   2.930   3.195   2.711
 1921SOL    HW1 8005   2.937   3.111   2.656
 1921SOL    HW2 8006   2.992   3.264   2.675
 1922SOL     OW 8007   2.181   2.672   2.811
 1922SOL    HW1 8008   2.274   2.708   2.816
 1922SOL    HW2 8009   2.175   2.587   2.863
 1923SOL     OW 8010   2.201   2.371   2.868
 1923SOL    HW1 8011   2.149   2.288   2.851
 1923SOL    HW2 8012   2.278   2.376   2.804
 1924SOL     OW 8013   3.000   2.242   3.540
 1924SOL    HW1 8014   2.955   2.305   3.604
 1924SOL    HW2 8015   3.093   2.273   3.523
 1925SOL     OW 8016   3.022   2.069   3.339
 1925SOL    HW1 8017   3.022   2.133   3.416
 1925SOL    HW2 8018   3.050   2.117   3.256
 1926SOL     OW 8019   1.870   3.188   2.062
 1926SOL    HW1 8020   1.777   3.209   2.031
 1926SOL    HW2 8021   1.880   3.089   2.075
 1927SOL     OW 8022   1.950   3.663   2.789
 1927SOL    HW1 8023   1.908   3.577   2.762
 1927SOL    HW2 8024   2.044   3.666   2.755
 1928SOL     OW 8025   2.366   3.430   2.772
 1928SOL    HW1 8026   2.432   3.504   2.781
 1928SOL    HW2 8027   2.410   3.351   2.730
 1929SOL     OW 8028   2.864   2.658   3.100
 1929SOL    HW1 8029   2.905   2.626   3.186
 1929SOL    HW2 8030   2.768   2.631   3.097
 1930SOL     OW 8031   1.902   2.406   2.976
 1930SOL    HW1 8032   1.987   2.373   2.935
 1930SOL    HW2 8033   1.915   2.421   3.074
 1931SOL     OW 8034   2.051   2.382   3.584
 1931SOL    HW1 8035   2.110   2.342   3.514
 1931SOL    HW2 8036   1.993   2.453   3.543
 1932SOL     OW 8037   3.231   2.812   3.522
 1932SOL    HW1 8038   3.270   2.901   3.542
 1932SOL    HW2 8039   3.241   2.792   3.425
 1933SOL     OW 8040   3.519   2.466   3.068
 1933SOL    HW1 8041   3.481   2.397   3.130
 1933SOL    HW2 8042   3.601   2.430   3.024
 1934SOL     OW 8043   2.114   3.426   3.606
 1934SOL    HW1 8044   2.084   3.483   3.682
 1934SOL    HW2 8045   2.107   3.329   3.632
 1935SOL     OW 8046   2.792   3.540   3.327
 1935SOL    HW1 8047   2.768   3.522   3.232
 1935SOL    HW2 8048   2.822   3.634   3.337
 1936SOL     OW 8049   3.209   2.921   3.096
 1936SOL    HW1 8050   3.233   2.858   3.022
 1936SOL    HW2 8051   3.119   2.961   3.078
 1937SOL     OW 8052   3.621   3.609   3.016
 1937SOL    HW1 8053   3.682   3.639   2.943
 1937SOL    HW2 8054   3.583   3.520   2.994
 1938SOL     OW 8055   3.114   3.593   2.990
 1938SOL    HW1 8056   3.198   3.598   2.936
 1938SOL    HW2 8057   3.091   3.497   3.008
 1939SOL     OW 8058   2.550   3.524   3.578
 1939SOL    HW1 8059   2.494   3.605   3.587
 1939SOL    HW2 8060   2.602   3.528   3.492
 1940SOL     OW 8061   3.588   1.997   2.385
 1940SOL    HW1 8062   3.661   1.980   2.318
 1940SOL    HW2 8063   3.557   1.910   2.423
 1941SOL     OW 8064   1.992   3.656   3.713
 1941SOL    HW1 8065   1.951   3.582   3.766
 1941SOL    HW2 8066   2.056   3.707   3.771
 1942SOL     OW 8067   3.142   2.789   2.534
 1942SOL    HW1 8068   3.202   2.708   2.536
 1942SOL    HW2 8069   3.182   2.858   2.474
 1943SOL     OW 8070   2.692   3.135   3.284
 1943SOL    HW1 8071   2.687   3.168   3.379
 1943SOL    HW2 8072   2.606   3.154   3.238
 1944SOL     OW 8073   2.534   3.478   2.016
 1944SOL    HW1 8074   2.543   3.488   1.917
 1944SOL    HW2 8075   2.494   3.389   2.037
 1945SOL     OW 8076   3.512   3.582   3.256
 1945SOL    HW1 8077   3.565   3.592   3.172
 1945SOL    HW2 8078   3.485   3.672   3.290
 1946SOL     OW 8079   3.703   2.037   2.825
 1946SOL    HW1 8080   3.742   1.952   2.789
 1946SOL    HW2 8081   3.605   2.039   2.806
 1947SOL     OW 8082   3.056   3.474   1.893
 1947SOL    HW1 8083   3.062   3.381   1.930
 1947SOL    HW2 8084   2.997   3.474   1.813
 1948SOL     OW 8085   2.778   2.772   2.153
 1948SOL    HW1 8086   2.841   2.810   2.085
 1948SOL    HW2 8087   2.818   2.689   2.192
 1949SOL     OW 8088   3.366   3.469   1.906
 1949SOL    HW1 8089   3.274   3.506   1.913
 1949SOL    HW2 8090   3.404   3.489   1.816
 1950SOL     OW 8091   2.234   3.150   3.352
 1950SOL    HW1 8092   2.221   3.243   3.318
 1950SOL    HW2 8093   2.150   3.098   3.339
 1951SOL     OW 8094   2.901   2.960   2.558
 1951SOL    HW1 8095   2.831   2.913   2.612
 1951SOL    HW2 8096   2.960   2.892   2.515
 1952SOL     OW 8097   2.876   2.098   2.833
 1952SOL    HW1 8098   2.868   2.062   2.740
 1952SOL    HW2 8099   2.874   2.022   2.898
 1953SOL     OW 8100   2.452   3.349   2.353
 1953SOL    HW1 8101   2.494   3.291   2.283
 1953SOL    HW2 8102   2.408   3.428   2.309
 1954SOL     OW 8103   3.571   2.247   3.243
 1954SOL    HW1 8104   3.644   2.316   3.247
 1954SOL    HW2 8105   3.599   2.172   3.184
 1955SOL     OW 8106   2.117   3.210   2.152
 1955SOL    HW1 8107   2.021   3.211   2.125
 1955SOL    HW2 8108   2.129   3.263   2.236
 1956SOL     OW 8109   3.302   2.718   3.260
 1956SOL    HW1 8110   3.245   2.770   3.197
 1956SOL    HW2 8111   3.398   2.730   3.236
 1957SOL     OW 8112   2.475   2.704   3.293
 1957SOL    HW1 8113   2.531   2.785   3.276
 1957SOL    HW2 8114   2.534   2.624   3.296
 1958SOL     OW 8115   3.355   3.629   2.821
 1958SOL    HW1 8116   3.388   3.693   2.752
 1958SOL    HW2 8117   3.421   3.623   2.896
 1959SOL     OW 8118   2.578   2.427   3.570
 1959SOL    HW1 8119   2.597   2.492   3.644
 1959SOL    HW2 8120   2.638   2.347   3.579
 1960SOL     OW 8121   3.312   3.082   3.495
 1960SOL    HW1 8122   3.303   3.072   3.594
 1960SOL    HW2 8123   3.408   3.075   3.469
 1961SOL     OW 8124   2.252   3.603   3.422
 1961SOL    HW1 8125   2.161   3.644   3.420
 1961SOL    HW2 8126   2.245   3.509   3.454
 1962SOL     OW 8127   3.536   2.745   3.116
 1962SOL    HW1 8128   3.509   2.656   3.079
 1962SOL    HW2 8129   3.537   2.813   3.043
 1963SOL     OW 8130   3.639   2.204   3.504
 1963SOL    HW1 8131   3.622   2.235   3.410
 1963SOL    HW2 8132   3.555   2.167   3.542
 1964SOL     OW 8133   3.592   2.796   3.379
 1964SOL    HW1 8134   3.630   2.887   3.394
 1964SOL    HW2 8135   3.584   2.779   3.280
 1965SOL     OW 8136   2.721   3.236   1.878
 1965SOL    HW1 8137   2.675   3.251   1.966
 1965SOL    HW2 8138   2.765   3.321   1.848
 1966SOL     OW 8139   2.523   3.652   2.815
 1966SOL    HW1 8140   2.477   3.740   2.802
 1966SOL    HW2 8141   2.622   3.664   2.808
 1967SOL     OW 8142   2.945   2.846   1.949
 1967SOL    HW1 8143   2.922   2.899   1.867
 1967SOL    HW2 8144   3.026   2.790   1.930
 1968SOL     OW 8145   3.723   3.431   2.713
 1968SOL    HW1 8146   3.652   3.419   2.643
 1968SOL    HW2 8147   3.724   3.352   2.773
 1969SOL     OW 8148   2.083   3.176   3.706
 1969SOL    HW1 8149   2.018   3.103   3.685
 1969SOL    HW2 8150   2.087   3.190   3.804
 1970SOL     OW 8151   2.534   3.253   3.486
 1970SOL    HW1 8152   2.456   3.203   3.524
 1970SOL    HW2 8153   2.531   3.348   3.517
 1971SOL     OW 8154   3.686   2.054   3.089
 1971SOL    HW1 8155   3.682   1.964   3.133
 1971SOL    HW2 8156   3.689   2.043   2.990
 1972SOL     OW 8157   2.674   3.448   2.549
 1972SOL    HW1 8158   2.706   3.458   2.455
 1972SOL    HW2 8159   2.595   3.386   2.551
 1973SOL     OW 8160   3.286   2.076   2.974
 1973SOL    HW1 8161   3.338   2.011   3.029
 1973SOL    HW2 8162   3.237   2.139   3.035
 1974SOL     OW 8163   2.863   1.896   3.016
 1974SOL    HW1 8164   2.800   1.824   2.985
 1974SOL    HW2 8165   2.956   1.860   3.016
 1975SOL     OW 8166   2.480   3.429   3.146
 1975SOL    HW1 8167   2.475   3.511   3.203
 1975SOL    HW2 8168   2.569   3.426   3.101
 1976SOL     OW 8169   3.455   2.083   2.744
 1976SOL    HW1 8170   3.371   2.082   2.798
 1976SOL    HW2 8171   3.457   2.166   2.688
 1977SOL     OW 8172   1.901   2.939   2.162
 1977SOL    HW1 8173   2.000   2.928   2.153
 1977SOL    HW2 8174   1.861   2.853   2.194
 1978SOL     OW 8175   2.737   3.508   2.199
 1978SOL    HW1 8176   2.660   3.473   2.145
 1978SOL    HW2 8177   2.705   3.579   2.261
 1979SOL     OW 8178   2.092   2.490   3.837
 1979SOL    HW1 8179   1.999   2.488   3.874
 1979SOL    HW2 8180   2.093   2.451   3.745
 1980SOL     OW 8181   1.881   2.230   4.371
 1980SOL    HW1 8182   1.799   2.273   4.410
 1980SOL    HW2 8183   1.853   2.157   4.308
 1981SOL     OW 8184   3.417   3.373   4.427
 1981SOL    HW1 8185   3.360   3.357   4.508
 1981SOL    HW2 8186   3.358   3.383   4.347
 1982SOL     OW 8187   2.997   2.565   4.441
 1982SOL    HW1 8188   3.054   2.643   4.416
 1982SOL    HW2 8189   2.937   2.591   4.517
 1983SOL     OW 8190   3.617   2.469   3.955
 1983SOL    HW1 8191   3.605   2.456   3.856
 1983SOL    HW2 8192   3.587   2.388   4.004
 1984SOL     OW 8193   2.630   3.006   4.747
 1984SOL    HW1 8194   2.552   3.023   4.807
 1984SOL    HW2 8195   2.664   3.093   4.711
 1985SOL     OW 8196   2.547   2.874   4.389
 1985SOL    HW1 8197   2.616   2.858   4.459
 1985SOL    HW2 8198   2.474   2.931   4.427
 1986SOL     OW 8199   2.093   3.575   4.207
 1986SOL    HW1 8200   2.127   3.652   4.261
 1986SOL    HW2 8201   2.137   3.575   4.117
 1987SOL     OW 8202   2.092   3.296   4.262
 1987SOL    HW1 8203   2.066   3.392   4.262
 1987SOL    HW2 8204   2.021   3.242   4.307
 1988SOL     OW 8205   2.102   2.953   4.610
 1988SOL    HW1 8206   2.116   2.869   4.662
 1988SOL    HW2 8207   2.047   3.017   4.665
 1989SOL     OW 8208   2.468   2.826   3.847
 1989SOL    HW1 8209   2.475   2.910   3.793
 1989SOL    HW2 8210   2.514   2.839   3.935
 1990SOL     OW 8211   1.984   2.505   4.287
 1990SOL    HW1 8212   1.939   2.417   4.304
 1990SOL    HW2 8213   1.983   2.559   4.371
 1991SOL     OW 8214   3.704   3.629   4.083
 1991SOL    HW1 8215   3.758   3.600   4.163
 1991SOL    HW2 8216   3.734   3.719   4.054
 1992SOL     OW 8217   1.889   3.458   3.841
 1992SOL    HW1 8218   1.870   3.362   3.862
 1992SOL    HW2 8219   1.856   3.516   3.916
 1993SOL     OW 8220   3.551   2.784   4.336
 1993SOL    HW1 8221   3.646   2.755   4.344
 1993SOL    HW2 8222   3.543   2.849   4.261
 1994SOL     OW 8223   3.503   2.970   4.156
 1994SOL    HW1 8224   3.589   2.972   4.104
 1994SOL    HW2 8225   3.517   3.017   4.244
 1995SOL     OW 8226   2.475   3.227   4.450
 1995SOL    HW1 8227   2.426   3.140   4.459
 1995SOL    HW2 8228   2.452   3.270   4.363
 1996SOL     OW 8229   2.671   1.866   4.226
 1996SOL    HW1 8230   2.711   1.957   4.217
 1996SOL    HW2 8231   2.571   1.874   4.232
 1997SOL     OW 8232   2.059   2.838   4.988
 1997SOL    HW1 8233   2.148   2.793   4.974
 1997SOL    HW2 8234   1.986   2.773   4.969
 1998SOL     OW 8235   3.387   2.861   3.914
 1998SOL    HW1 8236   3.324   2.785   3.927
 1998SOL    HW2 8237   3.435   2.879   4.000
 1999SOL     OW 8238   3.328   3.279   4.677
 1999SOL    HW1 8239   3.269   3.285   4.757
 1999SOL    HW2 8240   3.313   3.191   4.631
 2000SOL     OW 8241   3.529   3.576   4.296
 2000SOL    HW1 8242   3.488   3.553   4.208
 2000SOL    HW2 8243   3.511   3.502   4.361
 2001SOL     OW 8244   2.460   2.591   3.994
 2001SOL    HW1 8245   2.484   2.660   3.926
 2001SOL    HW2 8246   2.382   2.624   4.048
 2002SOL     OW 8247   3.438   3.524   4.031
 2002SOL    HW1 8248   3.527   3.570   4.034
 2002SOL    HW2 8249   3.417   3.500   3.936
 2003SOL     OW 8250   2.903   2.563   4.153
 2003SOL    HW1 8251   2.929   2.559   4.249
 2003SOL    HW2 8252   2.818   2.512   4.139
 2004SOL     OW 8253   1.938   2.673   4.513
 2004SOL    HW1 8254   2.037   2.661   4.522
 2004SOL    HW2 8255   1.914   2.768   4.534
 2005SOL     OW 8256   2.727   2.210   3.919
 2005SOL    HW1 8257   2.786   2.273   3.870
 2005SOL    HW2 8258   2.746   2.116   3.890
 2006SOL     OW 8259   3.224   3.006   4.269
 2006SOL    HW1 8260   3.307   2.977   4.221
 2006SOL    HW2 8261   3.175   3.073   4.213
 2007SOL     OW 8262   2.412   2.058   4.609
 2007SOL    HW1 8263   2.407   2.053   4.709
 2007SOL    HW2 8264   2.414   2.154   4.580
 2008SOL     OW 8265   2.870   3.318   4.201
 2008SOL    HW1 8266   2.824   3.390   4.149
 2008SOL    HW2 8267   2.866   3.338   4.299
 2009SOL     OW 8268   2.213   3.663   4.577
 2009SOL    HW1 8269   2.263   3.577   4.583
 2009SOL    HW2 8270   2.278   3.740   4.574
 2010SOL     OW 8271   3.657   2.928   4.597
 2010SOL    HW1 8272   3.595   2.913   4.521
 2010SOL    HW2 8273   3.605   2.939   4.682
 2011SOL     OW 8274   2.183   2.805   3.966
 2011SOL    HW1 8275   2.265   2.844   3.924
 2011SOL    HW2 8276   2.156   2.723   3.917
 2012SOL     OW 8277   3.320   2.597   4.452
 2012SOL    HW1 8278   3.315   2.532   4.527
 2012SOL    HW2 8279   3.400   2.656   4.465
 2013SOL     OW 8280   2.973   3.638   3.961
 2013SOL    HW1 8281   2.913   3.576   4.011
 2013SOL    HW2 8282   3.004   3.594   3.876
 2014SOL     OW 8283   2.326   3.605   4.047
 2014SOL    HW1 8284   2.359   3.644   4.133
 2014SOL    HW2 8285   2.402   3.598   3.982
 2015SOL     OW 8286   3.262   1.969   4.150
 2015SOL    HW1 8287   3.238   1.932   4.060
 2015SOL    HW2 8288   3.361   1.985   4.154
 2016SOL     OW 8289   2.244   2.562   4.204
 2016SOL    HW1 8290   2.289   2.472   4.201
 2016SOL    HW2 8291   2.150   2.551   4.237
 2017SOL     OW 8292   2.401   1.926   4.236
 2017SOL    HW1 8293   2.320   1.927   4.294
 2017SOL    HW2 8294   2.404   2.009   4.181
 2018SOL     OW 8295   3.296   3.050   3.765
 2018SOL    HW1 8296   3.328   2.974   3.822
 2018SOL    HW2 8297   3.204   3.077   3.795
 2019SOL     OW 8298   2.159   1.897   3.895
 2019SOL    HW1 8299   2.208   1.981   3.874
 2019SOL    HW2 8300   2.221   1.832   3.940
 2020SOL     OW 8301   2.797   2.098   4.204
 2020SOL    HW1 8302   2.749   2.139   4.126
 2020SOL    HW2 8303   2.896   2.096   4.185
 2021SOL     OW 8304   3.089   3.432   4.517
 2021SOL    HW1 8305   3.110   3.506   4.452
 2021SOL    HW2 8306   3.157   3.432   4.590
 2022SOL     OW 8307   2.321   3.014   4.465
 2022SOL    HW1 8308   2.250   2.987   4.530
 2022SOL    HW2 8309   2.295   2.986   4.372
 2023SOL     OW 8310   3.133   3.659   4.315
 2023SOL    HW1 8311   3.177   3.723   4.251
 2023SOL    HW2 8312   3.083   3.711   4.385
 2024SOL     OW 8313   2.894   2.411   3.740
 2024SOL    HW1 8314   2.853   2.493   3.701
 2024SOL    HW2 8315   2.958   2.437   3.813
 2025SOL     OW 8316   2.728   2.316   4.366
 2025SOL    HW1 8317   2.696   2.388   4.304
 2025SOL    HW2 8318   2.752   2.235   4.313
 2026SOL     OW 8319   2.879   1.901   4.477
 2026SOL    HW1 8320   2.807   1.906   4.408
 2026SOL    HW2 8321   2.855   1.832   4.546
 2027SOL     OW 8322   3.291   3.035   4.591
 2027SOL    HW1 8323   3.236   2.951   4.584
 2027SOL    HW2 8324   3.317   3.064   4.499
 2028SOL     OW 8325   3.328   2.452   4.716
 2028SOL    HW1 8326   3.298   2.357   4.723
 2028SOL    HW2 8327   3.401   2.468   4.782
 2029SOL     OW 8328   3.719   2.695   4.101
 2029SOL    HW1 8329   3.761   2.631   4.165
 2029SOL    HW2 8330   3.681   2.644   4.023
 2030SOL     OW 8331   2.350   3.247   3.898
 2030SOL    HW1 8332   2.263   3.232   3.945
 2030SOL    HW2 8333   2.333   3.273   3.803
 2031SOL     OW 8334   3.526   3.142   4.381
 2031SOL    HW1 8335   3.625   3.150   4.395
 2031SOL    HW2 8336   3.481   3.226   4.412
 2032SOL     OW 8337   3.252   2.437   3.802
 2032SOL    HW1 8338   3.198   2.416   3.883
 2032SOL    HW2 8339   3.343   2.396   3.811
 2033SOL     OW 8340   2.389   2.118   4.052
 2033SOL    HW1 8341   2.416   2.059   3.977
 2033SOL    HW2 8342   2.389   2.213   4.021
 2034SOL     OW 8343   2.973   3.057   4.824
 2034SOL    HW1 8344   2.933   3.101   4.905
 2034SOL    HW2 8345   2.932   3.094   4.741
 2035SOL     OW 8346   3.500   2.961   4.803
 2035SOL    HW1 8347   3.505   3.042   4.862
 2035SOL    HW2 8348   3.414   2.963   4.752
 2036SOL     OW 8349   2.567   2.912   4.092
 2036SOL    HW1 8350   2.553   2.919   4.191
 2036SOL    HW2 8351   2.651   2.861   4.074
 2037SOL     OW 8352   2.272   2.675   4.975
 2037SOL    HW1 8353   2.358   2.687   5.025
 2037SOL    HW2 8354   2.230   2.588   5.002
 2038SOL     OW 8355   2.229   2.962   4.225
 2038SOL    HW1 8356   2.222   3.045   4.169
 2038SOL    HW2 8357   2.233   2.882   4.165
 2039SOL     OW 8358   3.114   3.210   4.112
 2039SOL    HW1 8359   3.164   3.287   4.152
 2039SOL    HW2 8360   3.019   3.212   4.144
 2040SOL     OW 8361   3.134   3.307   4.866
 2040SOL    HW1 8362   3.181   3.320   4.953
 2040SOL    HW2 8363   3.068   3.233   4.875
 2041SOL     OW 8364   3.444   2.501   4.196
 2041SOL    HW1 8365   3.413   2.562   4.269
 2041SOL    HW2 8366   3.494   2.553   4.127
 2042SOL     OW 8367   2.435   2.732   4.753
 2042SOL    HW1 8368   2.479   2.821   4.744
 2042SOL    HW2 8369   2.372   2.732   4.830
 2043SOL     OW 8370   3.222   2.724   4.769
 2043SOL    HW1 8371   3.147   2.724   4.703
 2043SOL    HW2 8372   3.259   2.632   4.778
 2044SOL     OW 8373   3.071   2.387   3.999
 2044SOL    HW1 8374   3.084   2.303   4.053
 2044SOL    HW2 8375   3.042   2.461   4.059
 2045SOL     OW 8376   1.899   3.172   5.006
 2045SOL    HW1 8377   1.952   3.123   5.074
 2045SOL    HW2 8378   1.921   3.270   5.011
 2046SOL     OW 8379   2.169   1.925   4.342
 2046SOL    HW1 8380   2.158   2.019   4.375
 2046SOL    HW2 8381   2.164   1.862   4.419
 2047SOL     OW 8382   3.484   2.229   4.098
 2047SOL    HW1 8383   3.486   2.153   4.162
 2047SOL    HW2 8384   3.436   2.306   4.138
 2048SOL     OW 8385   2.885   2.628   4.690
 2048SOL    HW1 8386   2.900   2.649   4.786
 2048SOL    HW2 8387   2.855   2.533   4.681
 2049SOL     OW 8388   3.402   2.136   3.849
 2049SOL    HW1 8389   3.341   2.061   3.872
 2049SOL    HW2 8390   3.424   2.188   3.932
 2050SOL     OW 8391   3.165   2.700   3.766
 2050SOL    HW1 8392   3.199   2.607   3.781
 2050SOL    HW2 8393   3.183   2.727   3.671
 2051SOL     OW 8394   2.930   3.195   4.573
 2051SOL    HW1 8395   2.937   3.111   4.518
 2051SOL    HW2 8396   2.992   3.264   4.537
 2052SOL     OW 8397   2.181   2.672   4.673
 2052SOL    HW1 8398   2.274   2.708   4.678
 2052SOL    HW2 8399   2.175   2.587   4.725
 2053SOL     OW 8400   1.870   3.188   3.924
 2053SOL    HW1 8401   1.777   3.209   3.893
 2053SOL    HW2 8402   1.880   3.089   3.937
 2054SOL     OW 8403   2.864   2.658   4.962
 2054SOL    HW1 8404   2.905   2.626   5.048
 2054SOL    HW2 8405   2.768   2.631   4.959
 2055SOL     OW 8406   2.677   2.434   4.049
 2055SOL    HW1 8407   2.684   2.345   4.003
 2055SOL    HW2 8408   2.583   2.468   4.041
 2056SOL     OW 8409   2.792   3.540   5.189
 2056SOL    HW1 8410   2.768   3.522   5.094
 2056SOL    HW2 8411   2.822   3.634   5.199
 2057SOL     OW 8412   2.335   2.362   3.915
 2057SOL    HW1 8413   2.396   2.442   3.919
 2057SOL    HW2 8414   2.240   2.393   3.922
 2058SOL     OW 8415   3.209   2.921   4.958
 2058SOL    HW1 8416   3.233   2.858   4.884
 2058SOL    HW2 8417   3.119   2.961   4.940
 2059SOL     OW 8418   3.164   2.717   4.033
 2059SOL    HW1 8419   3.078   2.686   4.075
 2059SOL    HW2 8420   3.160   2.703   3.934
 2060SOL     OW 8421   3.621   3.609   4.878
 2060SOL    HW1 8422   3.682   3.639   4.805
 2060SOL    HW2 8423   3.583   3.520   4.856
 2061SOL     OW 8424   3.114   3.593   4.852
 2061SOL    HW1 8425   3.198   3.598   4.798
 2061SOL    HW2 8426   3.091   3.497   4.870
 2062SOL     OW 8427   1.945   3.120   4.746
 2062SOL    HW1 8428   1.940   3.119   4.846
 2062SOL    HW2 8429   1.862   3.079   4.708
 2063SOL     OW 8430   3.250   3.435   4.201
 2063SOL    HW1 8431   3.317   3.447   4.127
 2063SOL    HW2 8432   3.210   3.524   4.224
 2064SOL     OW 8433   3.142   2.789   4.396
 2064SOL    HW1 8434   3.202   2.708   4.398
 2064SOL    HW2 8435   3.182   2.858   4.336
 2065SOL     OW 8436   2.534   3.478   3.878
 2065SOL    HW1 8437   2.543   3.488   3.779
 2065SOL    HW2 8438   2.494   3.389   3.899
 2066SOL     OW 8439   3.512   3.582   5.118
 2066SOL    HW1 8440   3.565   3.592   5.034
 2066SOL    HW2 8441   3.485   3.672   5.152
 2067SOL     OW 8442   2.125   2.188   4.444
 2067SOL    HW1 8443   2.046   2.239   4.410
 2067SOL    HW2 8444   2.116   2.173   4.542
 2068SOL     OW 8445   3.056   3.474   3.755
 2068SOL    HW1 8446   3.062   3.381   3.792
 2068SOL    HW2 8447   2.997   3.474   3.675
 2069SOL     OW 8448   2.778   2.772   4.015
 2069SOL    HW1 8449   2.841   2.810   3.947
 2069SOL    HW2 8450   2.818   2.689   4.054
 2070SOL     OW 8451   2.901   2.960   4.420
 2070SOL    HW1 8452   2.831   2.913   4.474
 2070SOL    HW2 8453   2.960   2.892   4.377
 2071SOL     OW 8454   2.452   3.349   4.215
 2071SOL    HW1 8455   2.494   3.291   4.145
 2071SOL    HW2 8456   2.408   3.428   4.171
 2072SOL     OW 8457   2.117   3.210   4.014
 2072SOL    HW1 8458   2.021   3.211   3.987
 2072SOL    HW2 8459   2.129   3.263   4.098
 2073SOL     OW 8460   1.937   2.207   3.757
 2073SOL    HW1 8461   1.845   2.179   3.728
 2073SOL    HW2 8462   1.968   2.284   3.701
 2074SOL     OW 8463   1.934   2.028   4.042
 2074SOL    HW1 8464   1.917   2.111   3.988
 2074SOL    HW2 8465   2.024   1.991   4.020
 2075SOL     OW 8466   3.045   3.197   3.843
 2075SOL    HW1 8467   2.946   3.186   3.845
 2075SOL    HW2 8468   3.079   3.212   3.936
 2076SOL     OW 8469   3.355   3.629   4.683
 2076SOL    HW1 8470   3.388   3.693   4.614
 2076SOL    HW2 8471   3.421   3.623   4.758
 2077SOL     OW 8472   3.536   2.745   4.978
 2077SOL    HW1 8473   3.509   2.656   4.941
 2077SOL    HW2 8474   3.537   2.813   4.905
 2078SOL     OW 8475   3.087   2.187   4.173
 2078SOL    HW1 8476   3.152   2.113   4.162
 2078SOL    HW2 8477   3.107   2.237   4.257
 2079SOL     OW 8478   2.456   2.607   4.376
 2079SOL    HW1 8479   2.506   2.692   4.357
 2079SOL    HW2 8480   2.368   2.609   4.328
 2080SOL     OW 8481   3.592   2.796   5.241
 2080SOL    HW1 8482   3.630   2.887   5.256
 2080SOL    HW2 8483   3.584   2.779   5.142
 2081SOL     OW 8484   2.721   3.236   3.740
 2081SOL    HW1 8485   2.675   3.251   3.828
 2081SOL    HW2 8486   2.765   3.321   3.710
 2082SOL     OW 8487   2.721   2.818   4.585
 2082SOL    HW1 8488   2.775   2.749   4.633
 2082SOL    HW2 8489   2.689   2.887   4.651
 2083SOL     OW 8490   2.945   2.846   3.811
 2083SOL    HW1 8491   2.922   2.899   3.729
 2083SOL    HW2 8492   3.026   2.790   3.792
 2084SOL     OW 8493   3.723   3.431   4.575
 2084SOL    HW1 8494   3.652   3.419   4.505
 2084SOL    HW2 8495   3.724   3.352   4.635
 2085SOL     OW 8496   1.941   3.102   4.377
 2085SOL    HW1 8497   1.940   3.055   4.465
 2085SOL    HW2 8498   2.023   3.074   4.326
 2086SOL     OW 8499   2.290   2.286   4.244
 2086SOL    HW1 8500   2.320   2.214   4.182
 2086SOL    HW2 8501   2.251   2.246   4.327
 2087SOL     OW 8502   3.567   3.349   4.828
 2087SOL    HW1 8503   3.474   3.324   4.801
 2087SOL    HW2 8504   3.593   3.299   4.910
 2088SOL     OW 8505   2.674   3.448   4.411
 2088SOL    HW1 8506   2.706   3.458   4.317
 2088SOL    HW2 8507   2.595   3.386   4.413
 2089SOL     OW 8508   2.632   3.192   4.025
 2089SOL    HW1 8509   2.586   3.105   4.042
 2089SOL    HW2 8510   2.723   3.189   4.066
 2090SOL     OW 8511   3.214   1.914   3.892
 2090SOL    HW1 8512   3.249   1.873   3.808
 2090SOL    HW2 8513   3.124   1.876   3.912
 2091SOL     OW 8514   3.162   2.315   4.415
 2091SOL    HW1 8515   3.103   2.395   4.419
 2091SOL    HW2 8516   3.177   2.280   4.508
 2092SOL     OW 8517   1.901   2.939   4.024
 2092SOL    HW1 8518   2.000   2.928   4.015
 2092SOL    HW2 8519   1.861   2.853   4.056
 2093SOL     OW 8520   2.737   3.508   4.061
 2093SOL    HW1 8521   2.660   3.473   4.007
 2093SOL    HW2 8522   2.705   3.579   4.123
 2094SOL     OW 8523   2.092   4.352   0.113
 2094SOL    HW1 8524   1.999   4.350   0.150
 2094SOL    HW2 8525   2.093   4.313   0.021
 2095SOL     OW 8526   2.087   3.999   0.996
 2095SOL    HW1 8527   2.122   3.982   1.088
 2095SOL    HW2 8528   1.999   3.954   0.984
 2096SOL     OW 8529   1.881   4.092   0.647
 2096SOL    HW1 8530   1.799   4.135   0.686
 2096SOL    HW2 8531   1.853   4.019   0.584
 2097SOL     OW 8532   2.431   4.999   1.165
 2097SOL    HW1 8533   2.338   4.992   1.128
 2097SOL    HW2 8534   2.442   5.088   1.209
 2098SOL     OW 8535   3.417   5.235   0.703
 2098SOL    HW1 8536   3.360   5.219   0.784
 2098SOL    HW2 8537   3.358   5.245   0.623
 2099SOL     OW 8538   2.997   4.427   0.717
 2099SOL    HW1 8539   3.054   4.505   0.692
 2099SOL    HW2 8540   2.937   4.453   0.793
 2100SOL     OW 8541   3.617   4.331   0.231
 2100SOL    HW1 8542   3.605   4.318   0.132
 2100SOL    HW2 8543   3.587   4.250   0.280
 2101SOL     OW 8544   2.630   4.868   1.023
 2101SOL    HW1 8545   2.552   4.885   1.083
 2101SOL    HW2 8546   2.664   4.955   0.987
 2102SOL     OW 8547   2.712   4.522   1.823
 2102SOL    HW1 8548   2.708   4.598   1.888
 2102SOL    HW2 8549   2.734   4.558   1.732
 2103SOL     OW 8550   2.547   4.736   0.665
 2103SOL    HW1 8551   2.616   4.720   0.735
 2103SOL    HW2 8552   2.474   4.793   0.703
 2104SOL     OW 8553   2.197   5.159   1.061
 2104SOL    HW1 8554   2.119   5.128   1.008
 2104SOL    HW2 8555   2.255   5.217   1.004
 2105SOL     OW 8556   2.300   4.116   1.499
 2105SOL    HW1 8557   2.382   4.060   1.508
 2105SOL    HW2 8558   2.219   4.058   1.503
 2106SOL     OW 8559   3.465   4.171   0.737
 2106SOL    HW1 8560   3.391   4.217   0.687
 2106SOL    HW2 8561   3.516   4.239   0.790
 2107SOL     OW 8562   2.102   4.815   0.886
 2107SOL    HW1 8563   2.116   4.731   0.938
 2107SOL    HW2 8564   2.047   4.879   0.941
 2108SOL     OW 8565   3.456   3.838   1.480
 2108SOL    HW1 8566   3.438   3.905   1.408
 2108SOL    HW2 8567   3.453   3.884   1.569
 2109SOL     OW 8568   1.984   4.367   0.563
 2109SOL    HW1 8569   1.939   4.279   0.580
 2109SOL    HW2 8570   1.983   4.421   0.647
 2110SOL     OW 8571   3.551   4.646   0.612
 2110SOL    HW1 8572   3.646   4.617   0.620
 2110SOL    HW2 8573   3.543   4.711   0.537
 2111SOL     OW 8574   3.503   4.832   0.432
 2111SOL    HW1 8575   3.589   4.834   0.380
 2111SOL    HW2 8576   3.517   4.879   0.520
 2112SOL     OW 8577   2.671   3.728   0.502
 2112SOL    HW1 8578   2.711   3.819   0.493
 2112SOL    HW2 8579   2.571   3.736   0.508
 2113SOL     OW 8580   2.059   4.700   1.264
 2113SOL    HW1 8581   2.148   4.655   1.250
 2113SOL    HW2 8582   1.986   4.635   1.245
 2114SOL     OW 8583   3.328   5.141   0.953
 2114SOL    HW1 8584   3.269   5.147   1.033
 2114SOL    HW2 8585   3.313   5.053   0.907
 2115SOL     OW 8586   2.460   4.453   0.270
 2115SOL    HW1 8587   2.484   4.522   0.202
 2115SOL    HW2 8588   2.382   4.486   0.324
 2116SOL     OW 8589   3.143   4.069   0.944
 2116SOL    HW1 8590   3.057   4.019   0.931
 2116SOL    HW2 8591   3.205   4.015   1.000
 2117SOL     OW 8592   2.669   4.329   1.465
 2117SOL    HW1 8593   2.622   4.326   1.554
 2117SOL    HW2 8594   2.618   4.274   1.399
 2118SOL     OW 8595   3.256   4.193   1.674
 2118SOL    HW1 8596   3.236   4.236   1.762
 2118SOL    HW2 8597   3.334   4.131   1.683
 2119SOL     OW 8598   2.853   4.134   1.242
 2119SOL    HW1 8599   2.776   4.168   1.296
 2119SOL    HW2 8600   2.819   4.083   1.163
 2120SOL     OW 8601   2.903   4.425   0.429
 2120SOL    HW1 8602   2.929   4.421   0.525
 2120SOL    HW2 8603   2.818   4.374   0.415
 2121SOL     OW 8604   1.938   4.535   0.789
 2121SOL    HW1 8605   2.037   4.523   0.798
 2121SOL    HW2 8606   1.914   4.630   0.810
 2122SOL     OW 8607   2.727   4.072   0.195
 2122SOL    HW1 8608   2.786   4.135   0.146
 2122SOL    HW2 8609   2.746   3.978   0.166
 2123SOL     OW 8610   3.581   4.309   1.831
 2123SOL    HW1 8611   3.555   4.398   1.795
 2123SOL    HW2 8612   3.579   4.241   1.758
 2124SOL     OW 8613   2.412   3.920   0.885
 2124SOL    HW1 8614   2.407   3.915   0.985
 2124SOL    HW2 8615   2.414   4.016   0.856
 2125SOL     OW 8616   3.657   4.790   0.873
 2125SOL    HW1 8617   3.595   4.775   0.797
 2125SOL    HW2 8618   3.605   4.801   0.958
 2126SOL     OW 8619   3.320   4.459   0.728
 2126SOL    HW1 8620   3.315   4.394   0.803
 2126SOL    HW2 8621   3.400   4.518   0.741
 2127SOL     OW 8622   3.494   5.101   0.081
 2127SOL    HW1 8623   3.462   5.195   0.071
 2127SOL    HW2 8624   3.418   5.038   0.069
 2128SOL     OW 8625   3.262   3.831   0.426
 2128SOL    HW1 8626   3.238   3.794   0.336
 2128SOL    HW2 8627   3.361   3.847   0.430
 2129SOL     OW 8628   2.244   4.424   0.480
 2129SOL    HW1 8629   2.289   4.334   0.477
 2129SOL    HW2 8630   2.150   4.413   0.513
 2130SOL     OW 8631   3.409   3.946   1.729
 2130SOL    HW1 8632   3.404   3.983   1.821
 2130SOL    HW2 8633   3.337   3.877   1.717
 2131SOL     OW 8634   3.213   4.314   1.433
 2131SOL    HW1 8635   3.241   4.271   1.518
 2131SOL    HW2 8636   3.238   4.410   1.434
 2132SOL     OW 8637   2.665   5.126   0.924
 2132SOL    HW1 8638   2.755   5.140   0.882
 2132SOL    HW2 8639   2.594   5.128   0.853
 2133SOL     OW 8640   2.784   4.227   0.899
 2133SOL    HW1 8641   2.759   4.218   0.803
 2133SOL    HW2 8642   2.832   4.145   0.930
 2134SOL     OW 8643   2.401   3.788   0.512
 2134SOL    HW1 8644   2.320   3.789   0.570
 2134SOL    HW2 8645   2.404   3.871   0.457
 2135SOL     OW 8646   3.296   4.912   0.041
 2135SOL    HW1 8647   3.328   4.836   0.098
 2135SOL    HW2 8648   3.204   4.939   0.071
 2136SOL     OW 8649   2.797   3.960   0.480
 2136SOL    HW1 8650   2.749   4.001   0.402
 2136SOL    HW2 8651   2.896   3.958   0.461
 2137SOL     OW 8652   2.938   4.407   1.464
 2137SOL    HW1 8653   2.858   4.346   1.467
 2137SOL    HW2 8654   3.019   4.354   1.440
 2138SOL     OW 8655   3.089   5.294   0.793
 2138SOL    HW1 8656   3.110   5.368   0.728
 2138SOL    HW2 8657   3.157   5.294   0.866
 2139SOL     OW 8658   2.321   4.876   0.741
 2139SOL    HW1 8659   2.250   4.849   0.806
 2139SOL    HW2 8660   2.295   4.848   0.648
 2140SOL     OW 8661   1.940   4.280   1.386
 2140SOL    HW1 8662   2.032   4.279   1.345
 2140SOL    HW2 8663   1.934   4.354   1.453
 2141SOL     OW 8664   2.423   3.946   1.147
 2141SOL    HW1 8665   2.461   3.862   1.184
 2141SOL    HW2 8666   2.335   3.965   1.191
 2142SOL     OW 8667   2.728   4.178   0.642
 2142SOL    HW1 8668   2.696   4.250   0.580
 2142SOL    HW2 8669   2.752   4.097   0.589
 2143SOL     OW 8670   2.879   3.763   0.753
 2143SOL    HW1 8671   2.807   3.768   0.684
 2143SOL    HW2 8672   2.855   3.694   0.822
 2144SOL     OW 8673   3.291   4.897   0.867
 2144SOL    HW1 8674   3.236   4.813   0.860
 2144SOL    HW2 8675   3.317   4.926   0.775
 2145SOL     OW 8676   3.328   4.314   0.992
 2145SOL    HW1 8677   3.298   4.219   0.999
 2145SOL    HW2 8678   3.401   4.330   1.058
 2146SOL     OW 8679   3.719   4.557   0.377
 2146SOL    HW1 8680   3.761   4.493   0.441
 2146SOL    HW2 8681   3.681   4.506   0.299
 2147SOL     OW 8682   3.526   5.004   0.657
 2147SOL    HW1 8683   3.625   5.012   0.671
 2147SOL    HW2 8684   3.481   5.088   0.688
 2148SOL     OW 8685   3.252   4.299   0.078
 2148SOL    HW1 8686   3.198   4.278   0.159
 2148SOL    HW2 8687   3.343   4.258   0.087
 2149SOL     OW 8688   2.389   3.980   0.328
 2149SOL    HW1 8689   2.416   3.921   0.253
 2149SOL    HW2 8690   2.389   4.075   0.297
 2150SOL     OW 8691   3.500   4.823   1.079
 2150SOL    HW1 8692   3.505   4.904   1.138
 2150SOL    HW2 8693   3.414   4.825   1.028
 2151SOL     OW 8694   2.777   3.813   1.402
 2151SOL    HW1 8695   2.802   3.793   1.307
 2151SOL    HW2 8696   2.849   3.869   1.444
 2152SOL     OW 8697   2.567   4.774   0.368
 2152SOL    HW1 8698   2.553   4.781   0.467
 2152SOL    HW2 8699   2.651   4.723   0.350
 2153SOL     OW 8700   2.272   4.537   1.251
 2153SOL    HW1 8701   2.358   4.549   1.301
 2153SOL    HW2 8702   2.230   4.450   1.278
 2154SOL     OW 8703   3.136   4.110   1.262
 2154SOL    HW1 8704   3.157   4.184   1.326
 2154SOL    HW2 8705   3.047   4.127   1.219
 2155SOL     OW 8706   2.229   4.824   0.501
 2155SOL    HW1 8707   2.222   4.907   0.445
 2155SOL    HW2 8708   2.233   4.744   0.441
 2156SOL     OW 8709   2.428   4.261   0.865
 2156SOL    HW1 8710   2.440   4.327   0.791
 2156SOL    HW2 8711   2.474   4.295   0.948
 2157SOL     OW 8712   3.444   4.363   0.472
 2157SOL    HW1 8713   3.413   4.424   0.545
 2157SOL    HW2 8714   3.494   4.415   0.403
 2158SOL     OW 8715   3.449   4.503   1.670
 2158SOL    HW1 8716   3.357   4.541   1.665
 2158SOL    HW2 8717   3.509   4.550   1.605
 2159SOL     OW 8718   2.875   3.829   1.770
 2159SOL    HW1 8719   2.881   3.914   1.718
 2159SOL    HW2 8720   2.907   3.753   1.713
 2160SOL     OW 8721   2.435   4.594   1.029
 2160SOL    HW1 8722   2.479   4.683   1.020
 2160SOL    HW2 8723   2.372   4.594   1.106
 2161SOL     OW 8724   3.222   4.586   1.045
 2161SOL    HW1 8725   3.147   4.586   0.979
 2161SOL    HW2 8726   3.259   4.494   1.054
 2162SOL     OW 8727   3.071   4.249   0.275
 2162SOL    HW1 8728   3.084   4.165   0.329
 2162SOL    HW2 8729   3.042   4.323   0.335
 2163SOL     OW 8730   2.169   3.937   1.231
 2163SOL    HW1 8731   2.146   3.974   1.321
 2163SOL    HW2 8732   2.139   3.842   1.225
 2164SOL     OW 8733   3.590   4.659   1.854
 2164SOL    HW1 8734   3.544   4.652   1.765
 2164SOL    HW2 8735   3.528   4.703   1.920
 2165SOL     OW 8736   2.169   3.787   0.618
 2165SOL    HW1 8737   2.158   3.881   0.651
 2165SOL    HW2 8738   2.164   3.724   0.695
 2166SOL     OW 8739   3.484   4.091   0.374
 2166SOL    HW1 8740   3.486   4.015   0.438
 2166SOL    HW2 8741   3.436   4.168   0.414
 2167SOL     OW 8742   2.885   4.490   0.966
 2167SOL    HW1 8743   2.900   4.511   1.062
 2167SOL    HW2 8744   2.855   4.395   0.957
 2168SOL     OW 8745   3.402   3.998   0.125
 2168SOL    HW1 8746   3.341   3.923   0.148
 2168SOL    HW2 8747   3.424   4.050   0.208
 2169SOL     OW 8748   2.181   4.534   0.949
 2169SOL    HW1 8749   2.274   4.570   0.954
 2169SOL    HW2 8750   2.175   4.449   1.001
 2170SOL     OW 8751   2.201   4.233   1.006
 2170SOL    HW1 8752   2.149   4.150   0.989
 2170SOL    HW2 8753   2.278   4.238   0.942
 2171SOL     OW 8754   3.000   4.104   1.678
 2171SOL    HW1 8755   2.955   4.167   1.742
 2171SOL    HW2 8756   3.093   4.135   1.661
 2172SOL     OW 8757   3.022   3.931   1.477
 2172SOL    HW1 8758   3.022   3.995   1.554
 2172SOL    HW2 8759   3.050   3.979   1.394
 2173SOL     OW 8760   1.902   4.268   1.114
 2173SOL    HW1 8761   1.987   4.235   1.073
 2173SOL    HW2 8762   1.915   4.283   1.212
 2174SOL     OW 8763   2.677   4.296   0.325
 2174SOL    HW1 8764   2.684   4.207   0.279
 2174SOL    HW2 8765   2.583   4.330   0.317
 2175SOL     OW 8766   3.519   4.328   1.206
 2175SOL    HW1 8767   3.481   4.259   1.268
 2175SOL    HW2 8768   3.601   4.292   1.162
 2176SOL     OW 8769   2.533   4.188   1.269
 2176SOL    HW1 8770   2.499   4.099   1.239
 2176SOL    HW2 8771   2.559   4.242   1.189
 2177SOL     OW 8772   2.335   4.224   0.191
 2177SOL    HW1 8773   2.396   4.304   0.195
 2177SOL    HW2 8774   2.240   4.255   0.198
 2178SOL     OW 8775   1.945   4.982   1.022
 2178SOL    HW1 8776   1.940   4.981   1.122
 2178SOL    HW2 8777   1.862   4.941   0.984
 2179SOL     OW 8778   2.765   3.810   0.133
 2179SOL    HW1 8779   2.816   3.811   0.047
 2179SOL    HW2 8780   2.821   3.768   0.204
 2180SOL     OW 8781   3.588   3.859   0.523
 2180SOL    HW1 8782   3.661   3.842   0.456
 2180SOL    HW2 8783   3.557   3.772   0.561
 2181SOL     OW 8784   3.703   3.899   0.963
 2181SOL    HW1 8785   3.742   3.814   0.927
 2181SOL    HW2 8786   3.605   3.901   0.944
 2182SOL     OW 8787   2.125   4.050   0.720
 2182SOL    HW1 8788   2.046   4.101   0.686
 2182SOL    HW2 8789   2.116   4.035   0.818
 2183SOL     OW 8790   2.876   3.960   0.971
 2183SOL    HW1 8791   2.868   3.924   0.878
 2183SOL    HW2 8792   2.874   3.884   1.036
 2184SOL     OW 8793   3.571   4.109   1.381
 2184SOL    HW1 8794   3.644   4.178   1.385
 2184SOL    HW2 8795   3.599   4.034   1.322
 2185SOL     OW 8796   1.934   3.890   0.318
 2185SOL    HW1 8797   1.917   3.973   0.264
 2185SOL    HW2 8798   2.024   3.853   0.296
 2186SOL     OW 8799   2.475   4.566   1.431
 2186SOL    HW1 8800   2.531   4.647   1.414
 2186SOL    HW2 8801   2.534   4.486   1.434
 2187SOL     OW 8802   2.578   4.289   1.708
 2187SOL    HW1 8803   2.597   4.354   1.782
 2187SOL    HW2 8804   2.638   4.209   1.717
 2188SOL     OW 8805   3.536   4.607   1.254
 2188SOL    HW1 8806   3.509   4.518   1.217
 2188SOL    HW2 8807   3.537   4.675   1.181
 2189SOL     OW 8808   3.087   4.049   0.449
 2189SOL    HW1 8809   3.152   3.975   0.438
 2189SOL    HW2 8810   3.107   4.099   0.533
 2190SOL     OW 8811   2.456   4.469   0.652
 2190SOL    HW1 8812   2.506   4.554   0.633
 2190SOL    HW2 8813   2.368   4.471   0.604
 2191SOL     OW 8814   3.639   4.066   1.642
 2191SOL    HW1 8815   3.622   4.097   1.548
 2191SOL    HW2 8816   3.555   4.029   1.680
 2192SOL     OW 8817   3.592   4.658   1.517
 2192SOL    HW1 8818   3.630   4.749   1.532
 2192SOL    HW2 8819   3.584   4.641   1.418
 2193SOL     OW 8820   2.721   4.680   0.861
 2193SOL    HW1 8821   2.775   4.611   0.909
 2193SOL    HW2 8822   2.689   4.749   0.927
 2194SOL     OW 8823   1.941   4.964   0.653
 2194SOL    HW1 8824   1.940   4.917   0.741
 2194SOL    HW2 8825   2.023   4.936   0.602
 2195SOL     OW 8826   3.686   3.916   1.227
 2195SOL    HW1 8827   3.682   3.826   1.271
 2195SOL    HW2 8828   3.689   3.905   1.128
 2196SOL     OW 8829   2.290   4.148   0.520
 2196SOL    HW1 8830   2.320   4.076   0.458
 2196SOL    HW2 8831   2.251   4.108   0.603
 2197SOL     OW 8832   2.179   4.271   1.280
 2197SOL    HW1 8833   2.217   4.212   1.352
 2197SOL    HW2 8834   2.219   4.245   1.192
 2198SOL     OW 8835   3.286   3.938   1.112
 2198SOL    HW1 8836   3.338   3.873   1.167
 2198SOL    HW2 8837   3.237   4.001   1.173
 2199SOL     OW 8838   2.863   3.758   1.154
 2199SOL    HW1 8839   2.800   3.686   1.123
 2199SOL    HW2 8840   2.956   3.722   1.154
 2200SOL     OW 8841   2.632   5.054   0.301
 2200SOL    HW1 8842   2.586   4.967   0.318
 2200SOL    HW2 8843   2.723   5.051   0.342
 2201SOL     OW 8844   3.214   3.776   0.168
 2201SOL    HW1 8845   3.249   3.735   0.084
 2201SOL    HW2 8846   3.124   3.738   0.188
 2202SOL     OW 8847   3.162   4.177   0.691
 2202SOL    HW1 8848   3.103   4.257   0.695
 2202SOL    HW2 8849   3.177   4.142   0.784
 2203SOL     OW 8850   3.455   3.945   0.882
 2203SOL    HW1 8851   3.371   3.944   0.936
 2203SOL    HW2 8852   3.457   4.028   0.826
 2204SOL     OW 8853   1.901   4.801   0.300
 2204SOL    HW1 8854   2.000   4.790   0.291
 2204SOL    HW2 8855   1.861   4.715   0.332
 2205SOL     OW 8856   1.881   4.092   2.509
 2205SOL    HW1 8857   1.799   4.135   2.548
 2205SOL    HW2 8858   1.853   4.019   2.446
 2206SOL     OW 8859   2.431   4.999   3.027
 2206SOL    HW1 8860   2.338   4.992   2.990
 2206SOL    HW2 8861   2.442   5.088   3.071
 2207SOL     OW 8862   3.417   5.235   2.565
 2207SOL    HW1 8863   3.360   5.219   2.646
 2207SOL    HW2 8864   3.358   5.245   2.485
 2208SOL     OW 8865   2.997   4.427   2.579
 2208SOL    HW1 8866   3.054   4.505   2.554
 2208SOL    HW2 8867   2.937   4.453   2.655
 2209SOL     OW 8868   3.617   4.331   2.093
 2209SOL    HW1 8869   3.605   4.318   1.994
 2209SOL    HW2 8870   3.587   4.250   2.142
 2210SOL     OW 8871   2.630   4.868   2.885
 2210SOL    HW1 8872   2.552   4.885   2.945
 2210SOL    HW2 8873   2.664   4.955   2.849
 2211SOL     OW 8874   2.712   4.522   3.685
 2211SOL    HW1 8875   2.708   4.598   3.750
 2211SOL    HW2 8876   2.734   4.558   3.594
 2212SOL     OW 8877   2.547   4.736   2.527
 2212SOL    HW1 8878   2.616   4.720   2.597
 2212SOL    HW2 8879   2.474   4.793   2.565
 2213SOL     OW 8880   2.548   4.885   3.665
 2213SOL    HW1 8881   2.608   4.964   3.679
 2213SOL    HW2 8882   2.462   4.916   3.624
 2214SOL     OW 8883   2.197   5.159   2.923
 2214SOL    HW1 8884   2.119   5.128   2.870
 2214SOL    HW2 8885   2.255   5.217   2.866
 2215SOL     OW 8886   2.300   4.116   3.361
 2215SOL    HW1 8887   2.382   4.060   3.370
 2215SOL    HW2 8888   2.219   4.058   3.365
 2216SOL     OW 8889   3.465   4.171   2.599
 2216SOL    HW1 8890   3.391   4.217   2.549
 2216SOL    HW2 8891   3.516   4.239   2.652
 2217SOL     OW 8892   2.102   4.815   2.748
 2217SOL    HW1 8893   2.116   4.731   2.800
 2217SOL    HW2 8894   2.047   4.879   2.803
 2218SOL     OW 8895   3.456   3.838   3.342
 2218SOL    HW1 8896   3.438   3.905   3.270
 2218SOL    HW2 8897   3.453   3.884   3.431
 2219SOL     OW 8898   1.984   4.367   2.425
 2219SOL    HW1 8899   1.939   4.279   2.442
 2219SOL    HW2 8900   1.983   4.421   2.509
 2220SOL     OW 8901   3.551   4.646   2.474
 2220SOL    HW1 8902   3.646   4.617   2.482
 2220SOL    HW2 8903   3.543   4.711   2.399
 2221SOL     OW 8904   1.975   4.461   3.459
 2221SOL    HW1 8905   2.063   4.448   3.504
 2221SOL    HW2 8906   1.962   4.558   3.437
 2222SOL     OW 8907   3.155   4.952   3.285
 2222SOL    HW1 8908   3.192   4.879   3.227
 2222SOL    HW2 8909   3.207   4.957   3.370
 2223SOL     OW 8910   2.671   3.728   2.364
 2223SOL    HW1 8911   2.711   3.819   2.355
 2223SOL    HW2 8912   2.571   3.736   2.370
 2224SOL     OW 8913   2.059   4.700   3.126
 2224SOL    HW1 8914   2.148   4.655   3.112
 2224SOL    HW2 8915   1.986   4.635   3.107
 2225SOL     OW 8916   2.179   3.975   3.663
 2225SOL    HW1 8917   2.250   4.046   3.669
 2225SOL    HW2 8918   2.091   4.014   3.691
 2226SOL     OW 8919   3.328   5.141   2.815
 2226SOL    HW1 8920   3.269   5.147   2.895
 2226SOL    HW2 8921   3.313   5.053   2.769
 2227SOL     OW 8922   2.460   4.453   2.132
 2227SOL    HW1 8923   2.484   4.522   2.064
 2227SOL    HW2 8924   2.382   4.486   2.186
 2228SOL     OW 8925   3.143   4.069   2.806
 2228SOL    HW1 8926   3.057   4.019   2.793
 2228SOL    HW2 8927   3.205   4.015   2.862
 2229SOL     OW 8928   2.669   4.329   3.327
 2229SOL    HW1 8929   2.622   4.326   3.416
 2229SOL    HW2 8930   2.618   4.274   3.261
 2230SOL     OW 8931   3.256   4.193   3.536
 2230SOL    HW1 8932   3.236   4.236   3.624
 2230SOL    HW2 8933   3.334   4.131   3.545
 2231SOL     OW 8934   2.835   4.614   3.434
 2231SOL    HW1 8935   2.881   4.530   3.405
 2231SOL    HW2 8936   2.779   4.648   3.359
 2232SOL     OW 8937   2.853   4.134   3.104
 2232SOL    HW1 8938   2.776   4.168   3.158
 2232SOL    HW2 8939   2.819   4.083   3.025
 2233SOL     OW 8940   2.903   4.425   2.291
 2233SOL    HW1 8941   2.929   4.421   2.387
 2233SOL    HW2 8942   2.818   4.374   2.277
 2234SOL     OW 8943   3.581   4.309   3.693
 2234SOL    HW1 8944   3.555   4.398   3.657
 2234SOL    HW2 8945   3.579   4.241   3.620
 2235SOL     OW 8946   3.320   4.459   2.590
 2235SOL    HW1 8947   3.315   4.394   2.665
 2235SOL    HW2 8948   3.400   4.518   2.603
 2236SOL     OW 8949   2.064   4.009   3.360
 2236SOL    HW1 8950   1.984   4.069   3.347
 2236SOL    HW2 8951   2.054   3.960   3.446
 2237SOL     OW 8952   2.244   4.424   2.342
 2237SOL    HW1 8953   2.289   4.334   2.339
 2237SOL    HW2 8954   2.150   4.413   2.375
 2238SOL     OW 8955   3.409   3.946   3.591
 2238SOL    HW1 8956   3.404   3.983   3.683
 2238SOL    HW2 8957   3.337   3.877   3.579
 2239SOL     OW 8958   2.643   3.988   3.611
 2239SOL    HW1 8959   2.710   3.927   3.654
 2239SOL    HW2 8960   2.570   4.007   3.676
 2240SOL     OW 8961   3.213   4.314   3.295
 2240SOL    HW1 8962   3.241   4.271   3.380
 2240SOL    HW2 8963   3.238   4.410   3.296
 2241SOL     OW 8964   2.665   5.126   2.786
 2241SOL    HW1 8965   2.755   5.140   2.744
 2241SOL    HW2 8966   2.594   5.128   2.715
 2242SOL     OW 8967   2.401   3.788   2.374
 2242SOL    HW1 8968   2.320   3.789   2.432
 2242SOL    HW2 8969   2.404   3.871   2.319
 2243SOL     OW 8970   2.159   3.759   2.033
 2243SOL    HW1 8971   2.208   3.843   2.012
 2243SOL    HW2 8972   2.221   3.694   2.078
 2244SOL     OW 8973   2.797   3.960   2.342
 2244SOL    HW1 8974   2.749   4.001   2.264
 2244SOL    HW2 8975   2.896   3.958   2.323
 2245SOL     OW 8976   2.938   4.407   3.326
 2245SOL    HW1 8977   2.858   4.346   3.329
 2245SOL    HW2 8978   3.019   4.354   3.302
 2246SOL     OW 8979   3.089   5.294   2.655
 2246SOL    HW1 8980   3.110   5.368   2.590
 2246SOL    HW2 8981   3.157   5.294   2.728
 2247SOL     OW 8982   2.321   4.876   2.603
 2247SOL    HW1 8983   2.250   4.849   2.668
 2247SOL    HW2 8984   2.295   4.848   2.510
 2248SOL     OW 8985   1.940   4.280   3.248
 2248SOL    HW1 8986   2.032   4.279   3.207
 2248SOL    HW2 8987   1.934   4.354   3.315
 2249SOL     OW 8988   2.879   3.763   2.615
 2249SOL    HW1 8989   2.807   3.768   2.546
 2249SOL    HW2 8990   2.855   3.694   2.684
 2250SOL     OW 8991   3.291   4.897   2.729
 2250SOL    HW1 8992   3.236   4.813   2.722
 2250SOL    HW2 8993   3.317   4.926   2.637
 2251SOL     OW 8994   3.328   4.314   2.854
 2251SOL    HW1 8995   3.298   4.219   2.861
 2251SOL    HW2 8996   3.401   4.330   2.920
 2252SOL     OW 8997   3.719   4.557   2.239
 2252SOL    HW1 8998   3.761   4.493   2.303
 2252SOL    HW2 8999   3.681   4.506   2.161
 2253SOL     OW 9000   3.526   5.004   2.519
 2253SOL    HW1 9001   3.625   5.012   2.533
 2253SOL    HW2 9002   3.481   5.088   2.550
 2254SOL     OW 9003   3.252   4.299   1.940
 2254SOL    HW1 9004   3.198   4.278   2.021
 2254SOL    HW2 9005   3.343   4.258   1.949
 2255SOL     OW 9006   2.389   3.980   2.190
 2255SOL    HW1 9007   2.416   3.921   2.115
 2255SOL    HW2 9008   2.389   4.075   2.159
 2256SOL     OW 9009   3.500   4.823   2.941
 2256SOL    HW1 9010   3.505   4.904   3.000
 2256SOL    HW2 9011   3.414   4.825   2.890
 2257SOL     OW 9012   2.777   3.813   3.264
 2257SOL    HW1 9013   2.802   3.793   3.169
 2257SOL    HW2 9014   2.849   3.869   3.306
 2258SOL     OW 9015   2.842   4.840   3.581
 2258SOL    HW1 9016   2.743   4.846   3.591
 2258SOL    HW2 9017   2.865   4.760   3.525
 2259SOL     OW 9018   2.272   4.537   3.113
 2259SOL    HW1 9019   2.358   4.549   3.163
 2259SOL    HW2 9020   2.230   4.450   3.140
 2260SOL     OW 9021   3.136   4.110   3.124
 2260SOL    HW1 9022   3.157   4.184   3.188
 2260SOL    HW2 9023   3.047   4.127   3.081
 2261SOL     OW 9024   2.229   4.824   2.363
 2261SOL    HW1 9025   2.222   4.907   2.307
 2261SOL    HW2 9026   2.233   4.744   2.303
 2262SOL     OW 9027   3.444   4.363   2.334
 2262SOL    HW1 9028   3.413   4.424   2.407
 2262SOL    HW2 9029   3.494   4.415   2.265
 2263SOL     OW 9030   2.264   4.475   3.460
 2263SOL    HW1 9031   2.332   4.530   3.413
 2263SOL    HW2 9032   2.304   4.387   3.487
 2264SOL     OW 9033   3.449   4.503   3.532
 2264SOL    HW1 9034   3.357   4.541   3.527
 2264SOL    HW2 9035   3.509   4.550   3.467
 2265SOL     OW 9036   2.875   3.829   3.632
 2265SOL    HW1 9037   2.881   3.914   3.580
 2265SOL    HW2 9038   2.907   3.753   3.575
 2266SOL     OW 9039   2.366   3.774   3.602
 2266SOL    HW1 9040   2.324   3.717   3.532
 2266SOL    HW2 9041   2.300   3.843   3.634
 2267SOL     OW 9042   2.435   4.594   2.891
 2267SOL    HW1 9043   2.479   4.683   2.882
 2267SOL    HW2 9044   2.372   4.594   2.968
 2268SOL     OW 9045   3.222   4.586   2.907
 2268SOL    HW1 9046   3.147   4.586   2.841
 2268SOL    HW2 9047   3.259   4.494   2.916
 2269SOL     OW 9048   3.590   4.659   3.716
 2269SOL    HW1 9049   3.544   4.652   3.627
 2269SOL    HW2 9050   3.528   4.703   3.782
 2270SOL     OW 9051   2.169   3.787   2.480
 2270SOL    HW1 9052   2.158   3.881   2.513
 2270SOL    HW2 9053   2.164   3.724   2.557
 2271SOL     OW 9054   3.484   4.091   2.236
 2271SOL    HW1 9055   3.486   4.015   2.300
 2271SOL    HW2 9056   3.436   4.168   2.276
 2272SOL     OW 9057   2.885   4.490   2.828
 2272SOL    HW1 9058   2.900   4.511   2.924
 2272SOL    HW2 9059   2.855   4.395   2.819
 2273SOL     OW 9060   3.721   5.242   3.467
 2273SOL    HW1 9061   3.735   5.269   3.372
 2273SOL    HW2 9062   3.804   5.264   3.520
 2274SOL     OW 9063   2.212   4.622   3.666
 2274SOL    HW1 9064   2.288   4.666   3.714
 2274SOL    HW2 9065   2.247   4.575   3.584
 2275SOL     OW 9066   3.000   4.104   3.540
 2275SOL    HW1 9067   2.955   4.167   3.604
 2275SOL    HW2 9068   3.093   4.135   3.523
 2276SOL     OW 9069   3.022   3.931   3.339
 2276SOL    HW1 9070   3.022   3.995   3.416
 2276SOL    HW2 9071   3.050   3.979   3.256
 2277SOL     OW 9072   1.870   5.050   2.062
 2277SOL    HW1 9073   1.777   5.071   2.031
 2277SOL    HW2 9074   1.880   4.951   2.075
 2278SOL     OW 9075   2.864   4.520   3.100
 2278SOL    HW1 9076   2.905   4.488   3.186
 2278SOL    HW2 9077   2.768   4.493   3.097
 2279SOL     OW 9078   2.051   4.244   3.584
 2279SOL    HW1 9079   2.110   4.204   3.514
 2279SOL    HW2 9080   1.993   4.315   3.543
 2280SOL     OW 9081   3.231   4.674   3.522
 2280SOL    HW1 9082   3.270   4.763   3.542
 2280SOL    HW2 9083   3.241   4.654   3.425
 2281SOL     OW 9084   2.677   4.296   2.187
 2281SOL    HW1 9085   2.684   4.207   2.141
 2281SOL    HW2 9086   2.583   4.330   2.179
 2282SOL     OW 9087   3.519   4.328   3.068
 2282SOL    HW1 9088   3.481   4.259   3.130
 2282SOL    HW2 9089   3.601   4.292   3.024
 2283SOL     OW 9090   2.533   4.188   3.131
 2283SOL    HW1 9091   2.499   4.099   3.101
 2283SOL    HW2 9092   2.559   4.242   3.051
 2284SOL     OW 9093   2.335   4.224   2.053
 2284SOL    HW1 9094   2.396   4.304   2.057
 2284SOL    HW2 9095   2.240   4.255   2.060
 2285SOL     OW 9096   2.021   4.861   3.328
 2285SOL    HW1 9097   2.043   4.800   3.404
 2285SOL    HW2 9098   2.031   4.812   3.242
 2286SOL     OW 9099   3.209   4.783   3.096
 2286SOL    HW1 9100   3.233   4.720   3.022
 2286SOL    HW2 9101   3.119   4.823   3.078
 2287SOL     OW 9102   1.945   4.982   2.884
 2287SOL    HW1 9103   1.940   4.981   2.984
 2287SOL    HW2 9104   1.862   4.941   2.846
 2288SOL     OW 9105   3.588   3.859   2.385
 2288SOL    HW1 9106   3.661   3.842   2.318
 2288SOL    HW2 9107   3.557   3.772   2.423
 2289SOL     OW 9108   2.692   4.997   3.284
 2289SOL    HW1 9109   2.687   5.030   3.379
 2289SOL    HW2 9110   2.606   5.016   3.238
 2290SOL     OW 9111   3.703   3.899   2.825
 2290SOL    HW1 9112   3.742   3.814   2.789
 2290SOL    HW2 9113   3.605   3.901   2.806
 2291SOL     OW 9114   2.125   4.050   2.582
 2291SOL    HW1 9115   2.046   4.101   2.548
 2291SOL    HW2 9116   2.116   4.035   2.680
 2292SOL     OW 9117   2.684   4.726   3.234
 2292SOL    HW1 9118   2.724   4.725   3.142
 2292SOL    HW2 9119   2.694   4.818   3.274
 2293SOL     OW 9120   2.234   5.012   3.352
 2293SOL    HW1 9121   2.221   5.105   3.318
 2293SOL    HW2 9122   2.150   4.960   3.339
 2294SOL     OW 9123   3.476   5.016   3.151
 2294SOL    HW1 9124   3.536   5.019   3.231
 2294SOL    HW2 9125   3.401   5.080   3.164
 2295SOL     OW 9126   2.876   3.960   2.833
 2295SOL    HW1 9127   2.868   3.924   2.740
 2295SOL    HW2 9128   2.874   3.884   2.898
 2296SOL     OW 9129   3.571   4.109   3.243
 2296SOL    HW1 9130   3.644   4.178   3.247
 2296SOL    HW2 9131   3.599   4.034   3.184
 2297SOL     OW 9132   1.967   4.737   3.588
 2297SOL    HW1 9133   1.890   4.704   3.642
 2297SOL    HW2 9134   2.052   4.707   3.630
 2298SOL     OW 9135   2.534   3.927   3.351
 2298SOL    HW1 9136   2.624   3.911   3.311
 2298SOL    HW2 9137   2.542   3.932   3.450
 2299SOL     OW 9138   3.302   4.580   3.260
 2299SOL    HW1 9139   3.245   4.632   3.197
 2299SOL    HW2 9140   3.398   4.592   3.236
 2300SOL     OW 9141   2.475   4.566   3.293
 2300SOL    HW1 9142   2.531   4.647   3.276
 2300SOL    HW2 9143   2.534   4.486   3.296
 2301SOL     OW 9144   2.578   4.289   3.570
 2301SOL    HW1 9145   2.597   4.354   3.644
 2301SOL    HW2 9146   2.638   4.209   3.579
 2302SOL     OW 9147   3.312   4.944   3.495
 2302SOL    HW1 9148   3.303   4.934   3.594
 2302SOL    HW2 9149   3.408   4.937   3.469
 2303SOL     OW 9150   3.536   4.607   3.116
 2303SOL    HW1 9151   3.509   4.518   3.079
 2303SOL    HW2 9152   3.537   4.675   3.043
 2304SOL     OW 9153   2.456   4.469   2.514
 2304SOL    HW1 9154   2.506   4.554   2.495
 2304SOL    HW2 9155   2.368   4.471   2.466
 2305SOL     OW 9156   3.639   4.066   3.504
 2305SOL    HW1 9157   3.622   4.097   3.410
 2305SOL    HW2 9158   3.555   4.029   3.542
 2306SOL     OW 9159   3.592   4.658   3.379
 2306SOL    HW1 9160   3.630   4.749   3.394
 2306SOL    HW2 9161   3.584   4.641   3.280
 2307SOL     OW 9162   2.721   4.680   2.723
 2307SOL    HW1 9163   2.775   4.611   2.771
 2307SOL    HW2 9164   2.689   4.749   2.789
 2308SOL     OW 9165   2.945   4.708   1.949
 2308SOL    HW1 9166   2.922   4.761   1.867
 2308SOL    HW2 9167   3.026   4.652   1.930
 2309SOL     OW 9168   1.941   4.964   2.515
 2309SOL    HW1 9169   1.940   4.917   2.603
 2309SOL    HW2 9170   2.023   4.936   2.464
 2310SOL     OW 9171   3.686   3.916   3.089
 2310SOL    HW1 9172   3.682   3.826   3.133
 2310SOL    HW2 9173   3.689   3.905   2.990
 2311SOL     OW 9174   2.290   4.148   2.382
 2311SOL    HW1 9175   2.320   4.076   2.320
 2311SOL    HW2 9176   2.251   4.108   2.465
 2312SOL     OW 9177   3.286   3.938   2.974
 2312SOL    HW1 9178   3.338   3.873   3.029
 2312SOL    HW2 9179   3.237   4.001   3.035
 2313SOL     OW 9180   2.863   3.758   3.016
 2313SOL    HW1 9181   2.800   3.686   2.985
 2313SOL    HW2 9182   2.956   3.722   3.016
 2314SOL     OW 9183   2.632   5.054   2.163
 2314SOL    HW1 9184   2.586   4.967   2.180
 2314SOL    HW2 9185   2.723   5.051   2.204
 2315SOL     OW 9186   3.162   4.177   2.553
 2315SOL    HW1 9187   3.103   4.257   2.557
 2315SOL    HW2 9188   3.177   4.142   2.646
 2316SOL     OW 9189   3.455   3.945   2.744
 2316SOL    HW1 9190   3.371   3.944   2.798
 2316SOL    HW2 9191   3.457   4.028   2.688
 2317SOL     OW 9192   2.092   4.352   3.837
 2317SOL    HW1 9193   1.999   4.350   3.874
 2317SOL    HW2 9194   2.093   4.313   3.745
 2318SOL     OW 9195   2.087   3.999   4.720
 2318SOL    HW1 9196   2.122   3.982   4.812
 2318SOL    HW2 9197   1.999   3.954   4.708
 2319SOL     OW 9198   1.881   4.092   4.371
 2319SOL    HW1 9199   1.799   4.135   4.410
 2319SOL    HW2 9200   1.853   4.019   4.308
 2320SOL     OW 9201   3.417   5.235   4.427
 2320SOL    HW1 9202   3.360   5.219   4.508
 2320SOL    HW2 9203   3.358   5.245   4.347
 2321SOL     OW 9204   2.997   4.427   4.441
 2321SOL    HW1 9205   3.054   4.505   4.416
 2321SOL    HW2 9206   2.937   4.453   4.517
 2322SOL     OW 9207   3.617   4.331   3.955
 2322SOL    HW1 9208   3.605   4.318   3.856
 2322SOL    HW2 9209   3.587   4.250   4.004
 2323SOL     OW 9210   2.547   4.736   4.389
 2323SOL    HW1 9211   2.616   4.720   4.459
 2323SOL    HW2 9212   2.474   4.793   4.427
 2324SOL     OW 9213   3.465   4.171   4.461
 2324SOL    HW1 9214   3.391   4.217   4.411
 2324SOL    HW2 9215   3.516   4.239   4.514
 2325SOL     OW 9216   2.468   4.688   3.847
 2325SOL    HW1 9217   2.475   4.772   3.793
 2325SOL    HW2 9218   2.514   4.701   3.935
 2326SOL     OW 9219   3.551   4.646   4.336
 2326SOL    HW1 9220   3.646   4.617   4.344
 2326SOL    HW2 9221   3.543   4.711   4.261
 2327SOL     OW 9222   3.503   4.832   4.156
 2327SOL    HW1 9223   3.589   4.834   4.104
 2327SOL    HW2 9224   3.517   4.879   4.244
 2328SOL     OW 9225   3.387   4.723   3.914
 2328SOL    HW1 9226   3.324   4.647   3.927
 2328SOL    HW2 9227   3.435   4.741   4.000
 2329SOL     OW 9228   3.328   5.141   4.677
 2329SOL    HW1 9229   3.269   5.147   4.757
 2329SOL    HW2 9230   3.313   5.053   4.631
 2330SOL     OW 9231   2.460   4.453   3.994
 2330SOL    HW1 9232   2.484   4.522   3.926
 2330SOL    HW2 9233   2.382   4.486   4.048
 2331SOL     OW 9234   3.143   4.069   4.668
 2331SOL    HW1 9235   3.057   4.019   4.655
 2331SOL    HW2 9236   3.205   4.015   4.724
 2332SOL     OW 9237   2.903   4.425   4.153
 2332SOL    HW1 9238   2.929   4.421   4.249
 2332SOL    HW2 9239   2.818   4.374   4.139
 2333SOL     OW 9240   2.727   4.072   3.919
 2333SOL    HW1 9241   2.786   4.135   3.870
 2333SOL    HW2 9242   2.746   3.978   3.890
 2334SOL     OW 9243   3.224   4.868   4.269
 2334SOL    HW1 9244   3.307   4.839   4.221
 2334SOL    HW2 9245   3.175   4.935   4.213
 2335SOL     OW 9246   2.412   3.920   4.609
 2335SOL    HW1 9247   2.407   3.915   4.709
 2335SOL    HW2 9248   2.414   4.016   4.580
 2336SOL     OW 9249   3.657   4.790   4.597
 2336SOL    HW1 9250   3.595   4.775   4.521
 2336SOL    HW2 9251   3.605   4.801   4.682
 2337SOL     OW 9252   2.183   4.667   3.966
 2337SOL    HW1 9253   2.265   4.706   3.924
 2337SOL    HW2 9254   2.156   4.585   3.917
 2338SOL     OW 9255   3.320   4.459   4.452
 2338SOL    HW1 9256   3.315   4.394   4.527
 2338SOL    HW2 9257   3.400   4.518   4.465
 2339SOL     OW 9258   3.494   5.101   3.805
 2339SOL    HW1 9259   3.462   5.195   3.795
 2339SOL    HW2 9260   3.418   5.038   3.793
 2340SOL     OW 9261   3.262   3.831   4.150
 2340SOL    HW1 9262   3.238   3.794   4.060
 2340SOL    HW2 9263   3.361   3.847   4.154
 2341SOL     OW 9264   2.244   4.424   4.204
 2341SOL    HW1 9265   2.289   4.334   4.201
 2341SOL    HW2 9266   2.150   4.413   4.237
 2342SOL     OW 9267   2.476   3.846   3.841
 2342SOL    HW1 9268   2.574   3.824   3.848
 2342SOL    HW2 9269   2.445   3.829   3.748
 2343SOL     OW 9270   2.401   3.788   4.236
 2343SOL    HW1 9271   2.320   3.789   4.294
 2343SOL    HW2 9272   2.404   3.871   4.181
 2344SOL     OW 9273   3.296   4.912   3.765
 2344SOL    HW1 9274   3.328   4.836   3.822
 2344SOL    HW2 9275   3.204   4.939   3.795
 2345SOL     OW 9276   2.159   3.759   3.895
 2345SOL    HW1 9277   2.208   3.843   3.874
 2345SOL    HW2 9278   2.221   3.694   3.940
 2346SOL     OW 9279   2.797   3.960   4.204
 2346SOL    HW1 9280   2.749   4.001   4.126
 2346SOL    HW2 9281   2.896   3.958   4.185
 2347SOL     OW 9282   3.089   5.294   4.517
 2347SOL    HW1 9283   3.110   5.368   4.452
 2347SOL    HW2 9284   3.157   5.294   4.590
 2348SOL     OW 9285   2.321   4.876   4.465
 2348SOL    HW1 9286   2.250   4.849   4.530
 2348SOL    HW2 9287   2.295   4.848   4.372
 2349SOL     OW 9288   2.894   4.273   3.740
 2349SOL    HW1 9289   2.853   4.355   3.701
 2349SOL    HW2 9290   2.958   4.299   3.813
 2350SOL     OW 9291   2.423   3.946   4.871
 2350SOL    HW1 9292   2.461   3.862   4.908
 2350SOL    HW2 9293   2.335   3.965   4.915
 2351SOL     OW 9294   3.291   4.897   4.591
 2351SOL    HW1 9295   3.236   4.813   4.584
 2351SOL    HW2 9296   3.317   4.926   4.499
 2352SOL     OW 9297   3.328   4.314   4.716
 2352SOL    HW1 9298   3.298   4.219   4.723
 2352SOL    HW2 9299   3.401   4.330   4.782
 2353SOL     OW 9300   3.719   4.557   4.101
 2353SOL    HW1 9301   3.761   4.493   4.165
 2353SOL    HW2 9302   3.681   4.506   4.023
 2354SOL     OW 9303   3.526   5.004   4.381
 2354SOL    HW1 9304   3.625   5.012   4.395
 2354SOL    HW2 9305   3.481   5.088   4.412
 2355SOL     OW 9306   3.252   4.299   3.802
 2355SOL    HW1 9307   3.198   4.278   3.883
 2355SOL    HW2 9308   3.343   4.258   3.811
 2356SOL     OW 9309   2.389   3.980   4.052
 2356SOL    HW1 9310   2.416   3.921   3.977
 2356SOL    HW2 9311   2.389   4.075   4.021
 2357SOL     OW 9312   3.500   4.823   4.803
 2357SOL    HW1 9313   3.505   4.904   4.862
 2357SOL    HW2 9314   3.414   4.825   4.752
 2358SOL     OW 9315   2.567   4.774   4.092
 2358SOL    HW1 9316   2.553   4.781   4.191
 2358SOL    HW2 9317   2.651   4.723   4.074
 2359SOL     OW 9318   3.136   4.110   4.986
 2359SOL    HW1 9319   3.157   4.184   5.050
 2359SOL    HW2 9320   3.047   4.127   4.943
 2360SOL     OW 9321   2.229   4.824   4.225
 2360SOL    HW1 9322   2.222   4.907   4.169
 2360SOL    HW2 9323   2.233   4.744   4.165
 2361SOL     OW 9324   2.428   4.261   4.589
 2361SOL    HW1 9325   2.440   4.327   4.515
 2361SOL    HW2 9326   2.474   4.295   4.672
 2362SOL     OW 9327   3.444   4.363   4.196
 2362SOL    HW1 9328   3.413   4.424   4.269
 2362SOL    HW2 9329   3.494   4.415   4.127
 2363SOL     OW 9330   2.435   4.594   4.753
 2363SOL    HW1 9331   2.479   4.683   4.744
 2363SOL    HW2 9332   2.372   4.594   4.830
 2364SOL     OW 9333   3.222   4.586   4.769
 2364SOL    HW1 9334   3.147   4.586   4.703
 2364SOL    HW2 9335   3.259   4.494   4.778
 2365SOL     OW 9336   3.071   4.249   3.999
 2365SOL    HW1 9337   3.084   4.165   4.053
 2365SOL    HW2 9338   3.042   4.323   4.059
 2366SOL     OW 9339   2.169   3.937   4.955
 2366SOL    HW1 9340   2.146   3.974   5.045
 2366SOL    HW2 9341   2.139   3.842   4.949
 2367SOL     OW 9342   2.169   3.787   4.342
 2367SOL    HW1 9343   2.158   3.881   4.375
 2367SOL    HW2 9344   2.164   3.724   4.419
 2368SOL     OW 9345   3.484   4.091   4.098
 2368SOL    HW1 9346   3.486   4.015   4.162
 2368SOL    HW2 9347   3.436   4.168   4.138
 2369SOL     OW 9348   3.402   3.998   3.849
 2369SOL    HW1 9349   3.341   3.923   3.872
 2369SOL    HW2 9350   3.424   4.050   3.932
 2370SOL     OW 9351   3.165   4.562   3.766
 2370SOL    HW1 9352   3.199   4.469   3.781
 2370SOL    HW2 9353   3.183   4.589   3.671
 2371SOL     OW 9354   2.201   4.233   4.730
 2371SOL    HW1 9355   2.149   4.150   4.713
 2371SOL    HW2 9356   2.278   4.238   4.666
 2372SOL     OW 9357   3.022   3.931   5.201
 2372SOL    HW1 9358   3.022   3.995   5.278
 2372SOL    HW2 9359   3.050   3.979   5.118
 2373SOL     OW 9360   1.902   4.268   4.838
 2373SOL    HW1 9361   1.987   4.235   4.797
 2373SOL    HW2 9362   1.915   4.283   4.936
 2374SOL     OW 9363   2.677   4.296   4.049
 2374SOL    HW1 9364   2.684   4.207   4.003
 2374SOL    HW2 9365   2.583   4.330   4.041
 2375SOL     OW 9366   3.519   4.328   4.930
 2375SOL    HW1 9367   3.481   4.259   4.992
 2375SOL    HW2 9368   3.601   4.292   4.886
 2376SOL     OW 9369   2.533   4.188   4.993
 2376SOL    HW1 9370   2.499   4.099   4.963
 2376SOL    HW2 9371   2.559   4.242   4.913
 2377SOL     OW 9372   2.335   4.224   3.915
 2377SOL    HW1 9373   2.396   4.304   3.919
 2377SOL    HW2 9374   2.240   4.255   3.922
 2378SOL     OW 9375   3.164   4.579   4.033
 2378SOL    HW1 9376   3.078   4.548   4.075
 2378SOL    HW2 9377   3.160   4.565   3.934
 2379SOL     OW 9378   1.945   4.982   4.746
 2379SOL    HW1 9379   1.940   4.981   4.846
 2379SOL    HW2 9380   1.862   4.941   4.708
 2380SOL     OW 9381   3.588   3.859   4.247
 2380SOL    HW1 9382   3.661   3.842   4.180
 2380SOL    HW2 9383   3.557   3.772   4.285
 2381SOL     OW 9384   3.142   4.651   4.396
 2381SOL    HW1 9385   3.202   4.570   4.398
 2381SOL    HW2 9386   3.182   4.720   4.336
 2382SOL     OW 9387   3.703   3.899   4.687
 2382SOL    HW1 9388   3.742   3.814   4.651
 2382SOL    HW2 9389   3.605   3.901   4.668
 2383SOL     OW 9390   2.125   4.050   4.444
 2383SOL    HW1 9391   2.046   4.101   4.410
 2383SOL    HW2 9392   2.116   4.035   4.542
 2384SOL     OW 9393   3.056   5.336   3.755
 2384SOL    HW1 9394   3.062   5.243   3.792
 2384SOL    HW2 9395   2.997   5.336   3.675
 2385SOL     OW 9396   2.778   4.634   4.015
 2385SOL    HW1 9397   2.841   4.672   3.947
 2385SOL    HW2 9398   2.818   4.551   4.054
 2386SOL     OW 9399   2.901   4.822   4.420
 2386SOL    HW1 9400   2.831   4.775   4.474
 2386SOL    HW2 9401   2.960   4.754   4.377
 2387SOL     OW 9402   3.571   4.109   5.105
 2387SOL    HW1 9403   3.644   4.178   5.109
 2387SOL    HW2 9404   3.599   4.034   5.046
 2388SOL     OW 9405   1.937   4.069   3.757
 2388SOL    HW1 9406   1.845   4.041   3.728
 2388SOL    HW2 9407   1.968   4.146   3.701
 2389SOL     OW 9408   3.312   4.944   5.357
 2389SOL    HW1 9409   3.303   4.934   5.456
 2389SOL    HW2 9410   3.408   4.937   5.331
 2390SOL     OW 9411   3.087   4.049   4.173
 2390SOL    HW1 9412   3.152   3.975   4.162
 2390SOL    HW2 9413   3.107   4.099   4.257
 2391SOL     OW 9414   2.456   4.469   4.376
 2391SOL    HW1 9415   2.506   4.554   4.357
 2391SOL    HW2 9416   2.368   4.471   4.328
 2392SOL     OW 9417   2.945   4.708   3.811
 2392SOL    HW1 9418   2.922   4.761   3.729
 2392SOL    HW2 9419   3.026   4.652   3.792
 2393SOL     OW 9420   3.686   3.916   4.951
 2393SOL    HW1 9421   3.682   3.826   4.995
 2393SOL    HW2 9422   3.689   3.905   4.852
 2394SOL     OW 9423   2.290   4.148   4.244
 2394SOL    HW1 9424   2.320   4.076   4.182
 2394SOL    HW2 9425   2.251   4.108   4.327
 2395SOL     OW 9426   3.286   3.938   4.836
 2395SOL    HW1 9427   3.338   3.873   4.891
 2395SOL    HW2 9428   3.237   4.001   4.897
 2396SOL     OW 9429   2.632   5.054   4.025
 2396SOL    HW1 9430   2.586   4.967   4.042
 2396SOL    HW2 9431   2.723   5.051   4.066
 2397SOL     OW 9432   3.214   3.776   3.892
 2397SOL    HW1 9433   3.249   3.735   3.808
 2397SOL    HW2 9434   3.124   3.738   3.912
 2398SOL     OW 9435   3.162   4.177   4.415
 2398SOL    HW1 9436   3.103   4.257   4.419
 2398SOL    HW2 9437   3.177   4.142   4.508
 2399SOL     OW 9438   3.455   3.945   4.606
 2399SOL    HW1 9439   3.371   3.944   4.660
 2399SOL    HW2 9440   3.457   4.028   4.550
 2400SOL     OW 9441   3.954   0.628   0.113
 2400SOL    HW1 9442   3.861   0.626   0.150
 2400SOL    HW2 9443   3.955   0.589   0.021
 2401SOL     OW 9444   3.949   0.275   0.996
 2401SOL    HW1 9445   3.984   0.258   1.088
 2401SOL    HW2 9446   3.861   0.230   0.984
 2402SOL     OW 9447   4.293   1.275   1.165
 2402SOL    HW1 9448   4.200   1.268   1.128
 2402SOL    HW2 9449   4.304   1.364   1.209
 2403SOL     OW 9450   4.859   0.703   0.717
 2403SOL    HW1 9451   4.916   0.781   0.692
 2403SOL    HW2 9452   4.799   0.729   0.793
 2404SOL     OW 9453   4.492   1.144   1.023
 2404SOL    HW1 9454   4.414   1.161   1.083
 2404SOL    HW2 9455   4.526   1.231   0.987
 2405SOL     OW 9456   4.409   1.012   0.665
 2405SOL    HW1 9457   4.478   0.996   0.735
 2405SOL    HW2 9458   4.336   1.069   0.703
 2406SOL     OW 9459   4.410   1.161   1.803
 2406SOL    HW1 9460   4.470   1.240   1.817
 2406SOL    HW2 9461   4.324   1.192   1.762
 2407SOL     OW 9462   4.059   1.435   1.061
 2407SOL    HW1 9463   3.981   1.404   1.008
 2407SOL    HW2 9464   4.117   1.493   1.004
 2408SOL     OW 9465   4.162   0.392   1.499
 2408SOL    HW1 9466   4.244   0.336   1.508
 2408SOL    HW2 9467   4.081   0.334   1.503
 2409SOL     OW 9468   3.955   1.713   0.483
 2409SOL    HW1 9469   3.989   1.790   0.537
 2409SOL    HW2 9470   3.999   1.713   0.393
 2410SOL     OW 9471   4.851   1.341   1.690
 2410SOL    HW1 9472   4.898   1.341   1.778
 2410SOL    HW2 9473   4.803   1.254   1.679
 2411SOL     OW 9474   3.954   1.434   0.538
 2411SOL    HW1 9475   3.928   1.530   0.538
 2411SOL    HW2 9476   3.883   1.380   0.583
 2412SOL     OW 9477   3.964   1.091   0.886
 2412SOL    HW1 9478   3.978   1.007   0.938
 2412SOL    HW2 9479   3.909   1.155   0.941
 2413SOL     OW 9480   4.330   0.964   0.123
 2413SOL    HW1 9481   4.337   1.048   0.069
 2413SOL    HW2 9482   4.376   0.977   0.211
 2414SOL     OW 9483   3.751   1.596   0.117
 2414SOL    HW1 9484   3.732   1.500   0.138
 2414SOL    HW2 9485   3.718   1.654   0.192
 2415SOL     OW 9486   4.337   1.365   0.726
 2415SOL    HW1 9487   4.288   1.278   0.735
 2415SOL    HW2 9488   4.314   1.408   0.639
 2416SOL     OW 9489   5.017   1.228   1.423
 2416SOL    HW1 9490   5.054   1.155   1.365
 2416SOL    HW2 9491   5.069   1.233   1.508
 2417SOL     OW 9492   4.533   0.004   0.502
 2417SOL    HW1 9493   4.573   0.095   0.493
 2417SOL    HW2 9494   4.433   0.012   0.508
 2418SOL     OW 9495   3.921   0.976   1.264
 2418SOL    HW1 9496   4.010   0.931   1.250
 2418SOL    HW2 9497   3.848   0.911   1.245
 2419SOL     OW 9498   4.911   1.792   1.616
 2419SOL    HW1 9499   4.935   1.852   1.540
 2419SOL    HW2 9500   4.918   1.697   1.586
 2420SOL     OW 9501   4.041   0.251   1.801
 2420SOL    HW1 9502   4.112   0.322   1.807
 2420SOL    HW2 9503   3.953   0.290   1.829
 2421SOL     OW 9504   4.322   0.729   0.270
 2421SOL    HW1 9505   4.346   0.798   0.202
 2421SOL    HW2 9506   4.244   0.762   0.324
 2422SOL     OW 9507   5.005   0.345   0.944
 2422SOL    HW1 9508   4.919   0.295   0.931
 2422SOL    HW2 9509   5.067   0.291   1.000
 2423SOL     OW 9510   4.531   0.605   1.465
 2423SOL    HW1 9511   4.484   0.602   1.554
 2423SOL    HW2 9512   4.480   0.550   1.399
 2424SOL     OW 9513   4.697   0.890   1.572
 2424SOL    HW1 9514   4.743   0.806   1.543
 2424SOL    HW2 9515   4.641   0.924   1.497
 2425SOL     OW 9516   4.715   0.410   1.242
 2425SOL    HW1 9517   4.638   0.444   1.296
 2425SOL    HW2 9518   4.681   0.359   1.163
 2426SOL     OW 9519   4.765   0.701   0.429
 2426SOL    HW1 9520   4.791   0.697   0.525
 2426SOL    HW2 9521   4.680   0.650   0.415
 2427SOL     OW 9522   4.589   0.348   0.195
 2427SOL    HW1 9523   4.648   0.411   0.146
 2427SOL    HW2 9524   4.608   0.254   0.166
 2428SOL     OW 9525   4.274   0.196   0.885
 2428SOL    HW1 9526   4.269   0.191   0.985
 2428SOL    HW2 9527   4.276   0.292   0.856
 2429SOL     OW 9528   4.075   1.801   0.853
 2429SOL    HW1 9529   4.125   1.715   0.859
 2429SOL    HW2 9530   4.140   1.878   0.850
 2430SOL     OW 9531   4.951   1.550   1.506
 2430SOL    HW1 9532   4.957   1.473   1.570
 2430SOL    HW2 9533   4.899   1.524   1.426
 2431SOL     OW 9534   4.045   0.943   0.242
 2431SOL    HW1 9535   4.127   0.982   0.200
 2431SOL    HW2 9536   4.018   0.861   0.193
 2432SOL     OW 9537   4.185   1.266   1.727
 2432SOL    HW1 9538   4.135   1.267   1.641
 2432SOL    HW2 9539   4.122   1.248   1.803
 2433SOL     OW 9540   4.835   1.776   0.237
 2433SOL    HW1 9541   4.775   1.714   0.287
 2433SOL    HW2 9542   4.866   1.732   0.152
 2434SOL     OW 9543   3.926   0.285   1.498
 2434SOL    HW1 9544   3.846   0.345   1.485
 2434SOL    HW2 9545   3.916   0.236   1.584
 2435SOL     OW 9546   5.356   1.377   0.081
 2435SOL    HW1 9547   5.324   1.471   0.071
 2435SOL    HW2 9548   5.280   1.314   0.069
 2436SOL     OW 9549   4.188   1.743   0.323
 2436SOL    HW1 9550   4.221   1.782   0.409
 2436SOL    HW2 9551   4.264   1.736   0.258
 2437SOL     OW 9552   3.973   1.785   1.241
 2437SOL    HW1 9553   4.030   1.720   1.291
 2437SOL    HW2 9554   3.957   1.752   1.148
 2438SOL     OW 9555   4.664   1.698   0.904
 2438SOL    HW1 9556   4.744   1.641   0.925
 2438SOL    HW2 9557   4.615   1.658   0.827
 2439SOL     OW 9558   4.106   0.700   0.480
 2439SOL    HW1 9559   4.151   0.610   0.477
 2439SOL    HW2 9560   4.012   0.689   0.513
 2440SOL     OW 9561   4.338   0.122   0.117
 2440SOL    HW1 9562   4.436   0.100   0.124
 2440SOL    HW2 9563   4.307   0.105   0.024
 2441SOL     OW 9564   4.505   0.264   1.749
 2441SOL    HW1 9565   4.572   0.203   1.792
 2441SOL    HW2 9566   4.432   0.283   1.814
 2442SOL     OW 9567   4.527   1.402   0.924
 2442SOL    HW1 9568   4.617   1.416   0.882
 2442SOL    HW2 9569   4.456   1.404   0.853
 2443SOL     OW 9570   4.646   0.503   0.899
 2443SOL    HW1 9571   4.621   0.494   0.803
 2443SOL    HW2 9572   4.694   0.421   0.930
 2444SOL     OW 9573   4.263   0.064   0.512
 2444SOL    HW1 9574   4.182   0.065   0.570
 2444SOL    HW2 9575   4.266   0.147   0.457
 2445SOL     OW 9576   4.021   0.035   0.171
 2445SOL    HW1 9577   4.070   0.119   0.150
 2445SOL    HW2 9578   4.083  -0.030   0.216
 2446SOL     OW 9579   4.659   0.236   0.480
 2446SOL    HW1 9580   4.611   0.277   0.402
 2446SOL    HW2 9581   4.758   0.234   0.461
 2447SOL     OW 9582   4.800   0.683   1.464
 2447SOL    HW1 9583   4.720   0.622   1.467
 2447SOL    HW2 9584   4.881   0.630   1.440
 2448SOL     OW 9585   4.951   1.570   0.793
 2448SOL    HW1 9586   4.972   1.644   0.728
 2448SOL    HW2 9587   5.019   1.570   0.866
 2449SOL     OW 9588   4.183   1.152   0.741
 2449SOL    HW1 9589   4.112   1.125   0.806
 2449SOL    HW2 9590   4.157   1.124   0.648
 2450SOL     OW 9591   4.995   1.797   0.591
 2450SOL    HW1 9592   5.039   1.861   0.527
 2450SOL    HW2 9593   4.945   1.849   0.661
 2451SOL     OW 9594   4.756   0.549   0.016
 2451SOL    HW1 9595   4.715   0.631  -0.023
 2451SOL    HW2 9596   4.820   0.575   0.089
 2452SOL     OW 9597   3.802   0.556   1.386
 2452SOL    HW1 9598   3.894   0.555   1.345
 2452SOL    HW2 9599   3.796   0.630   1.453
 2453SOL     OW 9600   4.285   0.222   1.147
 2453SOL    HW1 9601   4.323   0.138   1.184
 2453SOL    HW2 9602   4.197   0.241   1.191
 2454SOL     OW 9603   4.590   0.454   0.642
 2454SOL    HW1 9604   4.558   0.526   0.580
 2454SOL    HW2 9605   4.614   0.373   0.589
 2455SOL     OW 9606   4.212   1.385   0.174
 2455SOL    HW1 9607   4.125   1.370   0.221
 2455SOL    HW2 9608   4.195   1.411   0.079
 2456SOL     OW 9609   5.388   1.280   0.657
 2456SOL    HW1 9610   5.487   1.288   0.671
 2456SOL    HW2 9611   5.343   1.364   0.688
 2457SOL     OW 9612   4.835   1.195   1.100
 2457SOL    HW1 9613   4.795   1.239   1.181
 2457SOL    HW2 9614   4.794   1.232   1.017
 2458SOL     OW 9615   4.639   0.089   1.402
 2458SOL    HW1 9616   4.664   0.069   1.307
 2458SOL    HW2 9617   4.711   0.145   1.444
 2459SOL     OW 9618   4.704   1.116   1.719
 2459SOL    HW1 9619   4.605   1.122   1.729
 2459SOL    HW2 9620   4.727   1.036   1.663
 2460SOL     OW 9621   4.429   1.050   0.368
 2460SOL    HW1 9622   4.415   1.057   0.467
 2460SOL    HW2 9623   4.513   0.999   0.350
 2461SOL     OW 9624   4.134   0.813   1.251
 2461SOL    HW1 9625   4.220   0.825   1.301
 2461SOL    HW2 9626   4.092   0.726   1.278
 2462SOL     OW 9627   3.788   1.564   1.331
 2462SOL    HW1 9628   3.742   1.646   1.297
 2462SOL    HW2 9629   3.886   1.583   1.340
 2463SOL     OW 9630   4.091   1.100   0.501
 2463SOL    HW1 9631   4.084   1.183   0.445
 2463SOL    HW2 9632   4.095   1.020   0.441
 2464SOL     OW 9633   4.290   0.537   0.865
 2464SOL    HW1 9634   4.302   0.603   0.791
 2464SOL    HW2 9635   4.336   0.571   0.948
 2465SOL     OW 9636   4.078   1.510   1.329
 2465SOL    HW1 9637   4.057   1.466   1.242
 2465SOL    HW2 9638   4.175   1.536   1.332
 2466SOL     OW 9639   4.737   0.105   1.770
 2466SOL    HW1 9640   4.743   0.190   1.718
 2466SOL    HW2 9641   4.769   0.029   1.713
 2467SOL     OW 9642   4.228   0.050   1.740
 2467SOL    HW1 9643   4.186  -0.007   1.670
 2467SOL    HW2 9644   4.162   0.119   1.772
 2468SOL     OW 9645   4.297   0.870   1.029
 2468SOL    HW1 9646   4.341   0.959   1.020
 2468SOL    HW2 9647   4.234   0.870   1.106
 2469SOL     OW 9648   5.084   0.862   1.045
 2469SOL    HW1 9649   5.009   0.862   0.979
 2469SOL    HW2 9650   5.121   0.770   1.054
 2470SOL     OW 9651   4.933   0.525   0.275
 2470SOL    HW1 9652   4.946   0.441   0.329
 2470SOL    HW2 9653   4.904   0.599   0.335
 2471SOL     OW 9654   4.031   0.213   1.231
 2471SOL    HW1 9655   4.008   0.250   1.321
 2471SOL    HW2 9656   4.001   0.118   1.225
 2472SOL     OW 9657   3.761   1.310   1.282
 2472SOL    HW1 9658   3.814   1.261   1.350
 2472SOL    HW2 9659   3.783   1.408   1.287
 2473SOL     OW 9660   4.456   0.634   1.064
 2473SOL    HW1 9661   4.515   0.608   0.988
 2473SOL    HW2 9662   4.428   0.730   1.053
 2474SOL     OW 9663   4.031   0.063   0.618
 2474SOL    HW1 9664   4.020   0.157   0.651
 2474SOL    HW2 9665   4.026   0.000   0.695
 2475SOL     OW 9666   5.346   0.367   0.374
 2475SOL    HW1 9667   5.348   0.291   0.438
 2475SOL    HW2 9668   5.298   0.444   0.414
 2476SOL     OW 9669   4.747   0.766   0.966
 2476SOL    HW1 9670   4.762   0.787   1.062
 2476SOL    HW2 9671   4.717   0.671   0.957
 2477SOL     OW 9672   4.704   1.573   1.700
 2477SOL    HW1 9673   4.684   1.617   1.612
 2477SOL    HW2 9674   4.743   1.482   1.684
 2478SOL     OW 9675   4.074   0.898   1.804
 2478SOL    HW1 9676   4.150   0.942   1.852
 2478SOL    HW2 9677   4.109   0.851   1.722
 2479SOL     OW 9678   4.063   0.509   1.006
 2479SOL    HW1 9679   4.011   0.426   0.989
 2479SOL    HW2 9680   4.140   0.514   0.942
 2480SOL     OW 9681   3.812   1.801   0.927
 2480SOL    HW1 9682   3.770   1.715   0.900
 2480SOL    HW2 9683   3.906   1.804   0.893
 2481SOL     OW 9684   4.228   1.568   0.910
 2481SOL    HW1 9685   4.294   1.642   0.919
 2481SOL    HW2 9686   4.272   1.489   0.868
 2482SOL     OW 9687   4.726   0.796   1.238
 2482SOL    HW1 9688   4.767   0.764   1.324
 2482SOL    HW2 9689   4.630   0.769   1.235
 2483SOL     OW 9690   3.764   0.544   1.114
 2483SOL    HW1 9691   3.849   0.511   1.073
 2483SOL    HW2 9692   3.777   0.559   1.212
 2484SOL     OW 9693   3.913   0.520   1.722
 2484SOL    HW1 9694   3.972   0.480   1.652
 2484SOL    HW2 9695   3.855   0.591   1.681
 2485SOL     OW 9696   4.539   0.572   0.325
 2485SOL    HW1 9697   4.546   0.483   0.279
 2485SOL    HW2 9698   4.445   0.606   0.317
 2486SOL     OW 9699   3.976   1.564   1.744
 2486SOL    HW1 9700   3.946   1.621   1.820
 2486SOL    HW2 9701   3.969   1.467   1.770
 2487SOL     OW 9702   4.395   0.464   1.269
 2487SOL    HW1 9703   4.361   0.375   1.239
 2487SOL    HW2 9704   4.421   0.518   1.189
 2488SOL     OW 9705   4.654   1.678   1.465
 2488SOL    HW1 9706   4.630   1.660   1.370
 2488SOL    HW2 9707   4.684   1.772   1.475
 2489SOL     OW 9708   4.197   0.500   0.191
 2489SOL    HW1 9709   4.258   0.580   0.195
 2489SOL    HW2 9710   4.102   0.531   0.198
 2490SOL     OW 9711   3.883   1.137   1.466
 2490SOL    HW1 9712   3.905   1.076   1.542
 2490SOL    HW2 9713   3.893   1.088   1.380
 2491SOL     OW 9714   5.071   1.059   1.234
 2491SOL    HW1 9715   5.095   0.996   1.160
 2491SOL    HW2 9716   4.981   1.099   1.216
 2492SOL     OW 9717   4.976   1.731   1.128
 2492SOL    HW1 9718   5.060   1.736   1.074
 2492SOL    HW2 9719   4.953   1.635   1.146
 2493SOL     OW 9720   3.807   1.258   1.022
 2493SOL    HW1 9721   3.802   1.257   1.122
 2493SOL    HW2 9722   3.724   1.217   0.984
 2494SOL     OW 9723   3.854   1.794   1.851
 2494SOL    HW1 9724   3.813   1.720   1.904
 2494SOL    HW2 9725   3.918   1.845   1.909
 2495SOL     OW 9726   5.004   0.927   0.672
 2495SOL    HW1 9727   5.064   0.846   0.674
 2495SOL    HW2 9728   5.044   0.996   0.612
 2496SOL     OW 9729   4.554   1.273   1.422
 2496SOL    HW1 9730   4.549   1.306   1.517
 2496SOL    HW2 9731   4.468   1.292   1.376
 2497SOL     OW 9732   4.396   1.616   0.154
 2497SOL    HW1 9733   4.405   1.626   0.055
 2497SOL    HW2 9734   4.356   1.527   0.175
 2498SOL     OW 9735   4.640   0.910   0.291
 2498SOL    HW1 9736   4.703   0.948   0.223
 2498SOL    HW2 9737   4.680   0.827   0.330
 2499SOL     OW 9738   4.096   1.288   1.490
 2499SOL    HW1 9739   4.083   1.381   1.456
 2499SOL    HW2 9740   4.012   1.236   1.477
 2500SOL     OW 9741   4.738   0.236   0.971
 2500SOL    HW1 9742   4.730   0.200   0.878
 2500SOL    HW2 9743   4.736   0.160   1.036
 2501SOL     OW 9744   4.314   1.487   0.491
 2501SOL    HW1 9745   4.356   1.429   0.421
 2501SOL    HW2 9746   4.270   1.566   0.447
 2502SOL     OW 9747   3.979   1.348   0.290
 2502SOL    HW1 9748   3.883   1.349   0.263
 2502SOL    HW2 9749   3.991   1.401   0.374
 2503SOL     OW 9750   4.396   0.203   1.489
 2503SOL    HW1 9751   4.486   0.187   1.449
 2503SOL    HW2 9752   4.404   0.208   1.588
 2504SOL     OW 9753   5.164   0.856   1.398
 2504SOL    HW1 9754   5.107   0.908   1.335
 2504SOL    HW2 9755   5.260   0.868   1.374
 2505SOL     OW 9756   4.949   0.325   0.449
 2505SOL    HW1 9757   5.014   0.251   0.438
 2505SOL    HW2 9758   4.969   0.375   0.533
 2506SOL     OW 9759   4.318   0.745   0.652
 2506SOL    HW1 9760   4.368   0.830   0.633
 2506SOL    HW2 9761   4.230   0.747   0.604
 2507SOL     OW 9762   4.583   1.374   0.016
 2507SOL    HW1 9763   4.537   1.389   0.104
 2507SOL    HW2 9764   4.627   1.459  -0.014
 2508SOL     OW 9765   4.385   1.790   0.953
 2508SOL    HW1 9766   4.339   1.878   0.940
 2508SOL    HW2 9767   4.484   1.802   0.946
 2509SOL     OW 9768   4.583   0.956   0.861
 2509SOL    HW1 9769   4.637   0.887   0.909
 2509SOL    HW2 9770   4.551   1.025   0.927
 2510SOL     OW 9771   3.945   1.314   1.844
 2510SOL    HW1 9772   3.880   1.241   1.823
 2510SOL    HW2 9773   3.949   1.328   1.942
 2511SOL     OW 9774   3.803   1.240   0.653
 2511SOL    HW1 9775   3.802   1.193   0.741
 2511SOL    HW2 9776   3.885   1.212   0.602
 2512SOL     OW 9777   4.041   0.547   1.280
 2512SOL    HW1 9778   4.079   0.488   1.352
 2512SOL    HW2 9779   4.081   0.521   1.192
 2513SOL     OW 9780   4.536   1.586   0.687
 2513SOL    HW1 9781   4.568   1.596   0.593
 2513SOL    HW2 9782   4.457   1.524   0.689
 2514SOL     OW 9783   4.725   0.034   1.154
 2514SOL    HW1 9784   4.662  -0.038   1.123
 2514SOL    HW2 9785   4.818  -0.002   1.154
 2515SOL     OW 9786   4.599   1.646   0.337
 2515SOL    HW1 9787   4.522   1.611   0.283
 2515SOL    HW2 9788   4.567   1.717   0.399
 2516SOL     OW 9789   3.954   0.628   1.975
 2516SOL    HW1 9790   3.861   0.626   2.012
 2516SOL    HW2 9791   3.955   0.589   1.883
 2517SOL     OW 9792   3.743   0.368   2.509
 2517SOL    HW1 9793   3.661   0.411   2.548
 2517SOL    HW2 9794   3.715   0.295   2.446
 2518SOL     OW 9795   4.293   1.275   3.027
 2518SOL    HW1 9796   4.200   1.268   2.990
 2518SOL    HW2 9797   4.304   1.364   3.071
 2519SOL     OW 9798   4.492   1.144   2.885
 2519SOL    HW1 9799   4.414   1.161   2.945
 2519SOL    HW2 9800   4.526   1.231   2.849
 2520SOL     OW 9801   4.574   0.798   3.685
 2520SOL    HW1 9802   4.570   0.874   3.750
 2520SOL    HW2 9803   4.596   0.834   3.594
 2521SOL     OW 9804   4.410   1.161   3.665
 2521SOL    HW1 9805   4.470   1.240   3.679
 2521SOL    HW2 9806   4.324   1.192   3.624
 2522SOL     OW 9807   4.059   1.435   2.923
 2522SOL    HW1 9808   3.981   1.404   2.870
 2522SOL    HW2 9809   4.117   1.493   2.866
 2523SOL     OW 9810   4.162   0.392   3.361
 2523SOL    HW1 9811   4.244   0.336   3.370
 2523SOL    HW2 9812   4.081   0.334   3.365
 2524SOL     OW 9813   3.955   1.713   2.345
 2524SOL    HW1 9814   3.989   1.790   2.399
 2524SOL    HW2 9815   3.999   1.713   2.255
 2525SOL     OW 9816   3.954   1.434   2.400
 2525SOL    HW1 9817   3.928   1.530   2.400
 2525SOL    HW2 9818   3.883   1.380   2.445
 2526SOL     OW 9819   3.964   1.091   2.748
 2526SOL    HW1 9820   3.978   1.007   2.800
 2526SOL    HW2 9821   3.909   1.155   2.803
 2527SOL     OW 9822   4.344   1.786   3.301
 2527SOL    HW1 9823   4.252   1.769   3.336
 2527SOL    HW2 9824   4.372   1.878   3.327
 2528SOL     OW 9825   3.846   0.643   2.425
 2528SOL    HW1 9826   3.801   0.555   2.442
 2528SOL    HW2 9827   3.845   0.697   2.509
 2529SOL     OW 9828   3.751   1.596   1.979
 2529SOL    HW1 9829   3.732   1.500   2.000
 2529SOL    HW2 9830   3.718   1.654   2.054
 2530SOL     OW 9831   3.837   0.737   3.459
 2530SOL    HW1 9832   3.925   0.724   3.504
 2530SOL    HW2 9833   3.824   0.834   3.437
 2531SOL     OW 9834   4.337   1.365   2.588
 2531SOL    HW1 9835   4.288   1.278   2.597
 2531SOL    HW2 9836   4.314   1.408   2.501
 2532SOL     OW 9837   5.017   1.228   3.285
 2532SOL    HW1 9838   5.054   1.155   3.227
 2532SOL    HW2 9839   5.069   1.233   3.370
 2533SOL     OW 9840   4.533   0.004   2.364
 2533SOL    HW1 9841   4.573   0.095   2.355
 2533SOL    HW2 9842   4.433   0.012   2.370
 2534SOL     OW 9843   3.921   0.976   3.126
 2534SOL    HW1 9844   4.010   0.931   3.112
 2534SOL    HW2 9845   3.848   0.911   3.107
 2535SOL     OW 9846   4.531   0.605   3.327
 2535SOL    HW1 9847   4.484   0.602   3.416
 2535SOL    HW2 9848   4.480   0.550   3.261
 2536SOL     OW 9849   4.697   0.890   3.434
 2536SOL    HW1 9850   4.743   0.806   3.405
 2536SOL    HW2 9851   4.641   0.924   3.359
 2537SOL     OW 9852   4.715   0.410   3.104
 2537SOL    HW1 9853   4.638   0.444   3.158
 2537SOL    HW2 9854   4.681   0.359   3.025
 2538SOL     OW 9855   3.800   0.811   2.651
 2538SOL    HW1 9856   3.899   0.799   2.660
 2538SOL    HW2 9857   3.776   0.906   2.672
 2539SOL     OW 9858   3.854   1.821   3.433
 2539SOL    HW1 9859   3.844   1.806   3.532
 2539SOL    HW2 9860   3.768   1.857   3.397
 2540SOL     OW 9861   4.274   0.196   2.747
 2540SOL    HW1 9862   4.269   0.191   2.847
 2540SOL    HW2 9863   4.276   0.292   2.718
 2541SOL     OW 9864   4.732   1.456   2.339
 2541SOL    HW1 9865   4.686   1.528   2.287
 2541SOL    HW2 9866   4.728   1.476   2.437
 2542SOL     OW 9867   4.075   1.801   2.715
 2542SOL    HW1 9868   4.125   1.715   2.721
 2542SOL    HW2 9869   4.140   1.878   2.712
 2543SOL     OW 9870   4.045   0.943   2.104
 2543SOL    HW1 9871   4.127   0.982   2.062
 2543SOL    HW2 9872   4.018   0.861   2.055
 2544SOL     OW 9873   4.185   1.266   3.589
 2544SOL    HW1 9874   4.135   1.267   3.503
 2544SOL    HW2 9875   4.122   1.248   3.665
 2545SOL     OW 9876   4.835   1.776   2.099
 2545SOL    HW1 9877   4.775   1.714   2.149
 2545SOL    HW2 9878   4.866   1.732   2.014
 2546SOL     OW 9879   3.926   0.285   3.360
 2546SOL    HW1 9880   3.846   0.345   3.347
 2546SOL    HW2 9881   3.916   0.236   3.446
 2547SOL     OW 9882   4.188   1.743   2.185
 2547SOL    HW1 9883   4.221   1.782   2.271
 2547SOL    HW2 9884   4.264   1.736   2.120
 2548SOL     OW 9885   3.973   1.785   3.103
 2548SOL    HW1 9886   4.030   1.720   3.153
 2548SOL    HW2 9887   3.957   1.752   3.010
 2549SOL     OW 9888   4.664   1.698   2.766
 2549SOL    HW1 9889   4.744   1.641   2.787
 2549SOL    HW2 9890   4.615   1.658   2.689
 2550SOL     OW 9891   4.106   0.700   2.342
 2550SOL    HW1 9892   4.151   0.610   2.339
 2550SOL    HW2 9893   4.012   0.689   2.375
 2551SOL     OW 9894   4.338   0.122   1.979
 2551SOL    HW1 9895   4.436   0.100   1.986
 2551SOL    HW2 9896   4.307   0.105   1.886
 2552SOL     OW 9897   4.505   0.264   3.611
 2552SOL    HW1 9898   4.572   0.203   3.654
 2552SOL    HW2 9899   4.432   0.283   3.676
 2553SOL     OW 9900   4.612   1.514   3.057
 2553SOL    HW1 9901   4.589   1.489   2.963
 2553SOL    HW2 9902   4.673   1.445   3.096
 2554SOL     OW 9903   4.527   1.402   2.786
 2554SOL    HW1 9904   4.617   1.416   2.744
 2554SOL    HW2 9905   4.456   1.404   2.715
 2555SOL     OW 9906   4.646   0.503   2.761
 2555SOL    HW1 9907   4.621   0.494   2.665
 2555SOL    HW2 9908   4.694   0.421   2.792
 2556SOL     OW 9909   4.263   0.064   2.374
 2556SOL    HW1 9910   4.182   0.065   2.432
 2556SOL    HW2 9911   4.266   0.147   2.319
 2557SOL     OW 9912   4.021   0.035   2.033
 2557SOL    HW1 9913   4.070   0.119   2.012
 2557SOL    HW2 9914   4.083  -0.030   2.078
 2558SOL     OW 9915   4.659   0.236   2.342
 2558SOL    HW1 9916   4.611   0.277   2.264
 2558SOL    HW2 9917   4.758   0.234   2.323
 2559SOL     OW 9918   4.800   0.683   3.326
 2559SOL    HW1 9919   4.720   0.622   3.329
 2559SOL    HW2 9920   4.881   0.630   3.302
 2560SOL     OW 9921   4.951   1.570   2.655
 2560SOL    HW1 9922   4.972   1.644   2.590
 2560SOL    HW2 9923   5.019   1.570   2.728
 2561SOL     OW 9924   4.183   1.152   2.603
 2561SOL    HW1 9925   4.112   1.125   2.668
 2561SOL    HW2 9926   4.157   1.124   2.510
 2562SOL     OW 9927   4.995   1.797   2.453
 2562SOL    HW1 9928   5.039   1.861   2.389
 2562SOL    HW2 9929   4.945   1.849   2.523
 2563SOL     OW 9930   3.802   0.556   3.248
 2563SOL    HW1 9931   3.894   0.555   3.207
 2563SOL    HW2 9932   3.796   0.630   3.315
 2564SOL     OW 9933   4.590   0.454   2.504
 2564SOL    HW1 9934   4.558   0.526   2.442
 2564SOL    HW2 9935   4.614   0.373   2.451
 2565SOL     OW 9936   4.741   0.039   2.615
 2565SOL    HW1 9937   4.669   0.044   2.546
 2565SOL    HW2 9938   4.717  -0.030   2.684
 2566SOL     OW 9939   4.212   1.385   2.036
 2566SOL    HW1 9940   4.125   1.370   2.083
 2566SOL    HW2 9941   4.195   1.411   1.941
 2567SOL     OW 9942   4.251   0.256   2.190
 2567SOL    HW1 9943   4.278   0.197   2.115
 2567SOL    HW2 9944   4.251   0.351   2.159
 2568SOL     OW 9945   4.639   0.089   3.264
 2568SOL    HW1 9946   4.664   0.069   3.169
 2568SOL    HW2 9947   4.711   0.145   3.306
 2569SOL     OW 9948   4.704   1.116   3.581
 2569SOL    HW1 9949   4.605   1.122   3.591
 2569SOL    HW2 9950   4.727   1.036   3.525
 2570SOL     OW 9951   4.429   1.050   2.230
 2570SOL    HW1 9952   4.415   1.057   2.329
 2570SOL    HW2 9953   4.513   0.999   2.212
 2571SOL     OW 9954   4.134   0.813   3.113
 2571SOL    HW1 9955   4.220   0.825   3.163
 2571SOL    HW2 9956   4.092   0.726   3.140
 2572SOL     OW 9957   4.998   0.386   3.124
 2572SOL    HW1 9958   5.019   0.460   3.188
 2572SOL    HW2 9959   4.909   0.403   3.081
 2573SOL     OW 9960   3.788   1.564   3.193
 2573SOL    HW1 9961   3.742   1.646   3.159
 2573SOL    HW2 9962   3.886   1.583   3.202
 2574SOL     OW 9963   4.091   1.100   2.363
 2574SOL    HW1 9964   4.084   1.183   2.307
 2574SOL    HW2 9965   4.095   1.020   2.303
 2575SOL     OW 9966   4.290   0.537   2.727
 2575SOL    HW1 9967   4.302   0.603   2.653
 2575SOL    HW2 9968   4.336   0.571   2.810
 2576SOL     OW 9969   4.078   1.510   3.191
 2576SOL    HW1 9970   4.057   1.466   3.104
 2576SOL    HW2 9971   4.175   1.536   3.194
 2577SOL     OW 9972   4.126   0.751   3.460
 2577SOL    HW1 9973   4.194   0.806   3.413
 2577SOL    HW2 9974   4.166   0.663   3.487
 2578SOL     OW 9975   4.737   0.105   3.632
 2578SOL    HW1 9976   4.743   0.190   3.580
 2578SOL    HW2 9977   4.769   0.029   3.575
 2579SOL     OW 9978   4.228   0.050   3.602
 2579SOL    HW1 9979   4.186  -0.007   3.532
 2579SOL    HW2 9980   4.162   0.119   3.634
 2580SOL     OW 9981   4.297   0.870   2.891
 2580SOL    HW1 9982   4.341   0.959   2.882
 2580SOL    HW2 9983   4.234   0.870   2.968
 2581SOL     OW 9984   5.084   0.862   2.907
 2581SOL    HW1 9985   5.009   0.862   2.841
 2581SOL    HW2 9986   5.121   0.770   2.916
 2582SOL     OW 9987   4.456   0.634   2.926
 2582SOL    HW1 9988   4.515   0.608   2.850
 2582SOL    HW2 9989   4.428   0.730   2.915
 2583SOL     OW 9990   4.031   0.063   2.480
 2583SOL    HW1 9991   4.020   0.157   2.513
 2583SOL    HW2 9992   4.026   0.000   2.557
 2584SOL     OW 9993   5.346   0.367   2.236
 2584SOL    HW1 9994   5.348   0.291   2.300
 2584SOL    HW2 9995   5.298   0.444   2.276
 2585SOL     OW 9996   4.747   0.766   2.828
 2585SOL    HW1 9997   4.762   0.787   2.924
 2585SOL    HW2 9998   4.717   0.671   2.819
 2586SOL     OW 9999   4.074   0.898   3.666
 2586SOL    HW110000   4.150   0.942   3.714
 2586SOL    HW210001   4.109   0.851   3.584
 2587SOL     OW10002   4.043   0.810   2.811
 2587SOL    HW110003   4.136   0.846   2.816
 2587SOL    HW210004   4.037   0.725   2.863
 2588SOL     OW10005   4.063   0.509   2.868
 2588SOL    HW110006   4.011   0.426   2.851
 2588SOL    HW210007   4.140   0.514   2.804
 2589SOL     OW10008   4.862   0.380   3.540
 2589SOL    HW110009   4.817   0.443   3.604
 2589SOL    HW210010   4.955   0.411   3.523
 2590SOL     OW10011   4.884   0.207   3.339
 2590SOL    HW110012   4.884   0.271   3.416
 2590SOL    HW210013   4.912   0.255   3.256
 2591SOL     OW10014   3.812   1.801   2.789
 2591SOL    HW110015   3.770   1.715   2.762
 2591SOL    HW210016   3.906   1.804   2.755
 2592SOL     OW10017   4.228   1.568   2.772
 2592SOL    HW110018   4.294   1.642   2.781
 2592SOL    HW210019   4.272   1.489   2.730
 2593SOL     OW10020   4.726   0.796   3.100
 2593SOL    HW110021   4.767   0.764   3.186
 2593SOL    HW210022   4.630   0.769   3.097
 2594SOL     OW10023   3.764   0.544   2.976
 2594SOL    HW110024   3.849   0.511   2.935
 2594SOL    HW210025   3.777   0.559   3.074
 2595SOL     OW10026   3.976   1.564   3.606
 2595SOL    HW110027   3.946   1.621   3.682
 2595SOL    HW210028   3.969   1.467   3.632
 2596SOL     OW10029   4.395   0.464   3.131
 2596SOL    HW110030   4.361   0.375   3.101
 2596SOL    HW210031   4.421   0.518   3.051
 2597SOL     OW10032   4.654   1.678   3.327
 2597SOL    HW110033   4.630   1.660   3.232
 2597SOL    HW210034   4.684   1.772   3.337
 2598SOL     OW10035   4.197   0.500   2.053
 2598SOL    HW110036   4.258   0.580   2.057
 2598SOL    HW210037   4.102   0.531   2.060
 2599SOL     OW10038   5.071   1.059   3.096
 2599SOL    HW110039   5.095   0.996   3.022
 2599SOL    HW210040   4.981   1.099   3.078
 2600SOL     OW10041   4.976   1.731   2.990
 2600SOL    HW110042   5.060   1.736   2.936
 2600SOL    HW210043   4.953   1.635   3.008
 2601SOL     OW10044   3.807   1.258   2.884
 2601SOL    HW110045   3.802   1.257   2.984
 2601SOL    HW210046   3.724   1.217   2.846
 2602SOL     OW10047   5.112   1.573   2.339
 2602SOL    HW110048   5.179   1.585   2.265
 2602SOL    HW210049   5.072   1.662   2.362
 2603SOL     OW10050   3.854   1.794   3.713
 2603SOL    HW110051   3.813   1.720   3.766
 2603SOL    HW210052   3.918   1.845   3.771
 2604SOL     OW10053   4.554   1.273   3.284
 2604SOL    HW110054   4.549   1.306   3.379
 2604SOL    HW210055   4.468   1.292   3.238
 2605SOL     OW10056   3.987   0.326   2.582
 2605SOL    HW110057   3.908   0.377   2.548
 2605SOL    HW210058   3.978   0.311   2.680
 2606SOL     OW10059   4.918   1.612   1.893
 2606SOL    HW110060   4.924   1.519   1.930
 2606SOL    HW210061   4.859   1.612   1.813
 2607SOL     OW10062   4.546   1.002   3.234
 2607SOL    HW110063   4.586   1.001   3.142
 2607SOL    HW210064   4.556   1.094   3.274
 2608SOL     OW10065   4.738   0.236   2.833
 2608SOL    HW110066   4.730   0.200   2.740
 2608SOL    HW210067   4.736   0.160   2.898
 2609SOL     OW10068   4.314   1.487   2.353
 2609SOL    HW110069   4.356   1.429   2.283
 2609SOL    HW210070   4.270   1.566   2.309
 2610SOL     OW10071   3.979   1.348   2.152
 2610SOL    HW110072   3.883   1.349   2.125
 2610SOL    HW210073   3.991   1.401   2.236
 2611SOL     OW10074   3.829   1.013   3.588
 2611SOL    HW110075   3.752   0.980   3.642
 2611SOL    HW210076   3.914   0.983   3.630
 2612SOL     OW10077   4.396   0.203   3.351
 2612SOL    HW110078   4.486   0.187   3.311
 2612SOL    HW210079   4.404   0.208   3.450
 2613SOL     OW10080   3.799   0.345   1.895
 2613SOL    HW110081   3.707   0.317   1.866
 2613SOL    HW210082   3.830   0.422   1.839
 2614SOL     OW10083   5.164   0.856   3.260
 2614SOL    HW110084   5.107   0.908   3.197
 2614SOL    HW210085   5.260   0.868   3.236
 2615SOL     OW10086   3.796   0.166   2.180
 2615SOL    HW110087   3.779   0.249   2.126
 2615SOL    HW210088   3.886   0.129   2.158
 2616SOL     OW10089   4.337   0.842   3.293
 2616SOL    HW110090   4.393   0.923   3.276
 2616SOL    HW210091   4.396   0.762   3.296
 2617SOL     OW10092   4.440   0.565   3.570
 2617SOL    HW110093   4.459   0.630   3.644
 2617SOL    HW210094   4.500   0.485   3.579
 2618SOL     OW10095   4.114   1.741   3.422
 2618SOL    HW110096   4.023   1.782   3.420
 2618SOL    HW210097   4.107   1.647   3.454
 2619SOL     OW10098   4.949   0.325   2.311
 2619SOL    HW110099   5.014   0.251   2.300
 2619SOL    HW210100   4.969   0.375   2.395
 2620SOL     OW10101   4.385   1.790   2.815
 2620SOL    HW110102   4.339   1.878   2.802
 2620SOL    HW210103   4.484   1.802   2.808
 2621SOL     OW10104   3.945   1.314   3.706
 2621SOL    HW110105   3.880   1.241   3.685
 2621SOL    HW210106   3.949   1.328   3.804
 2622SOL     OW10107   3.803   1.240   2.515
 2622SOL    HW110108   3.802   1.193   2.603
 2622SOL    HW210109   3.885   1.212   2.464
 2623SOL     OW10110   4.396   1.391   3.486
 2623SOL    HW110111   4.318   1.341   3.524
 2623SOL    HW210112   4.393   1.486   3.517
 2624SOL     OW10113   4.152   0.424   2.382
 2624SOL    HW110114   4.182   0.352   2.320
 2624SOL    HW210115   4.113   0.384   2.465
 2625SOL     OW10116   4.041   0.547   3.142
 2625SOL    HW110117   4.079   0.488   3.214
 2625SOL    HW210118   4.081   0.521   3.054
 2626SOL     OW10119   4.536   1.586   2.549
 2626SOL    HW110120   4.568   1.596   2.455
 2626SOL    HW210121   4.457   1.524   2.551
 2627SOL     OW10122   4.725   0.034   3.016
 2627SOL    HW110123   4.662  -0.038   2.985
 2627SOL    HW210124   4.818  -0.002   3.016
 2628SOL     OW10125   4.494   1.330   2.163
 2628SOL    HW110126   4.448   1.243   2.180
 2628SOL    HW210127   4.585   1.327   2.204
 2629SOL     OW10128   4.342   1.567   3.146
 2629SOL    HW110129   4.337   1.649   3.203
 2629SOL    HW210130   4.431   1.564   3.101
 2630SOL     OW10131   3.949   0.275   4.720
 2630SOL    HW110132   3.984   0.258   4.812
 2630SOL    HW210133   3.861   0.230   4.708
 2631SOL     OW10134   4.293   1.275   4.889
 2631SOL    HW110135   4.200   1.268   4.852
 2631SOL    HW210136   4.304   1.364   4.933
 2632SOL     OW10137   4.859   0.703   4.441
 2632SOL    HW110138   4.916   0.781   4.416
 2632SOL    HW210139   4.799   0.729   4.517
 2633SOL     OW10140   4.492   1.144   4.747
 2633SOL    HW110141   4.414   1.161   4.807
 2633SOL    HW210142   4.526   1.231   4.711
 2634SOL     OW10143   4.409   1.012   4.389
 2634SOL    HW110144   4.478   0.996   4.459
 2634SOL    HW210145   4.336   1.069   4.427
 2635SOL     OW10146   4.059   1.435   4.785
 2635SOL    HW110147   3.981   1.404   4.732
 2635SOL    HW210148   4.117   1.493   4.728
 2636SOL     OW10149   3.955   1.713   4.207
 2636SOL    HW110150   3.989   1.790   4.261
 2636SOL    HW210151   3.999   1.713   4.117
 2637SOL     OW10152   3.954   1.434   4.262
 2637SOL    HW110153   3.928   1.530   4.262
 2637SOL    HW210154   3.883   1.380   4.307
 2638SOL     OW10155   3.964   1.091   4.610
 2638SOL    HW110156   3.978   1.007   4.662
 2638SOL    HW210157   3.909   1.155   4.665
 2639SOL     OW10158   4.344   1.786   5.163
 2639SOL    HW110159   4.252   1.769   5.198
 2639SOL    HW210160   4.372   1.878   5.189
 2640SOL     OW10161   4.330   0.964   3.847
 2640SOL    HW110162   4.337   1.048   3.793
 2640SOL    HW210163   4.376   0.977   3.935
 2641SOL     OW10164   3.751   1.596   3.841
 2641SOL    HW110165   3.732   1.500   3.862
 2641SOL    HW210166   3.718   1.654   3.916
 2642SOL     OW10167   4.337   1.365   4.450
 2642SOL    HW110168   4.288   1.278   4.459
 2642SOL    HW210169   4.314   1.408   4.363
 2643SOL     OW10170   4.533   0.004   4.226
 2643SOL    HW110171   4.573   0.095   4.217
 2643SOL    HW210172   4.433   0.012   4.232
 2644SOL     OW10173   3.921   0.976   4.988
 2644SOL    HW110174   4.010   0.931   4.974
 2644SOL    HW210175   3.848   0.911   4.969
 2645SOL     OW10176   4.322   0.729   3.994
 2645SOL    HW110177   4.346   0.798   3.926
 2645SOL    HW210178   4.244   0.762   4.048
 2646SOL     OW10179   4.715   0.410   4.966
 2646SOL    HW110180   4.638   0.444   5.020
 2646SOL    HW210181   4.681   0.359   4.887
 2647SOL     OW10182   4.765   0.701   4.153
 2647SOL    HW110183   4.791   0.697   4.249
 2647SOL    HW210184   4.680   0.650   4.139
 2648SOL     OW10185   3.800   0.811   4.513
 2648SOL    HW110186   3.899   0.799   4.522
 2648SOL    HW210187   3.776   0.906   4.534
 2649SOL     OW10188   4.589   0.348   3.919
 2649SOL    HW110189   4.648   0.411   3.870
 2649SOL    HW210190   4.608   0.254   3.890
 2650SOL     OW10191   4.274   0.196   4.609
 2650SOL    HW110192   4.269   0.191   4.709
 2650SOL    HW210193   4.276   0.292   4.580
 2651SOL     OW10194   4.075   1.801   4.577
 2651SOL    HW110195   4.125   1.715   4.583
 2651SOL    HW210196   4.140   1.878   4.574
 2652SOL     OW10197   4.045   0.943   3.966
 2652SOL    HW110198   4.127   0.982   3.924
 2652SOL    HW210199   4.018   0.861   3.917
 2653SOL     OW10200   4.188   1.743   4.047
 2653SOL    HW110201   4.221   1.782   4.133
 2653SOL    HW210202   4.264   1.736   3.982
 2654SOL     OW10203   3.973   1.785   4.965
 2654SOL    HW110204   4.030   1.720   5.015
 2654SOL    HW210205   3.957   1.752   4.872
 2655SOL     OW10206   4.664   1.698   4.628
 2655SOL    HW110207   4.744   1.641   4.649
 2655SOL    HW210208   4.615   1.658   4.551
 2656SOL     OW10209   4.106   0.700   4.204
 2656SOL    HW110210   4.151   0.610   4.201
 2656SOL    HW210211   4.012   0.689   4.237
 2657SOL     OW10212   4.338   0.122   3.841
 2657SOL    HW110213   4.436   0.100   3.848
 2657SOL    HW210214   4.307   0.105   3.748
 2658SOL     OW10215   4.527   1.402   4.648
 2658SOL    HW110216   4.617   1.416   4.606
 2658SOL    HW210217   4.456   1.404   4.577
 2659SOL     OW10218   4.646   0.503   4.623
 2659SOL    HW110219   4.621   0.494   4.527
 2659SOL    HW210220   4.694   0.421   4.654
 2660SOL     OW10221   4.263   0.064   4.236
 2660SOL    HW110222   4.182   0.065   4.294
 2660SOL    HW210223   4.266   0.147   4.181
 2661SOL     OW10224   4.021   0.035   3.895
 2661SOL    HW110225   4.070   0.119   3.874
 2661SOL    HW210226   4.083  -0.030   3.940
 2662SOL     OW10227   4.659   0.236   4.204
 2662SOL    HW110228   4.611   0.277   4.126
 2662SOL    HW210229   4.758   0.234   4.185
 2663SOL     OW10230   4.951   1.570   4.517
 2663SOL    HW110231   4.972   1.644   4.452
 2663SOL    HW210232   5.019   1.570   4.590
 2664SOL     OW10233   4.183   1.152   4.465
 2664SOL    HW110234   4.112   1.125   4.530
 2664SOL    HW210235   4.157   1.124   4.372
 2665SOL     OW10236   4.995   1.797   4.315
 2665SOL    HW110237   5.039   1.861   4.251
 2665SOL    HW210238   4.945   1.849   4.385
 2666SOL     OW10239   4.756   0.549   3.740
 2666SOL    HW110240   4.715   0.631   3.701
 2666SOL    HW210241   4.820   0.575   3.813
 2667SOL     OW10242   4.285   0.222   4.871
 2667SOL    HW110243   4.323   0.138   4.908
 2667SOL    HW210244   4.197   0.241   4.915
 2668SOL     OW10245   4.590   0.454   4.366
 2668SOL    HW110246   4.558   0.526   4.304
 2668SOL    HW210247   4.614   0.373   4.313
 2669SOL     OW10248   4.212   1.385   3.898
 2669SOL    HW110249   4.125   1.370   3.945
 2669SOL    HW210250   4.195   1.411   3.803
 2670SOL     OW10251   5.388   1.280   4.381
 2670SOL    HW110252   5.487   1.288   4.395
 2670SOL    HW210253   5.343   1.364   4.412
 2671SOL     OW10254   4.251   0.256   4.052
 2671SOL    HW110255   4.278   0.197   3.977
 2671SOL    HW210256   4.251   0.351   4.021
 2672SOL     OW10257   5.316   1.629   5.349
 2672SOL    HW110258   5.343   1.663   5.259
 2672SOL    HW210259   5.395   1.591   5.395
 2673SOL     OW10260   4.835   1.195   4.824
 2673SOL    HW110261   4.795   1.239   4.905
 2673SOL    HW210262   4.794   1.232   4.741
 2674SOL     OW10263   4.429   1.050   4.092
 2674SOL    HW110264   4.415   1.057   4.191
 2674SOL    HW210265   4.513   0.999   4.074
 2675SOL     OW10266   4.134   0.813   4.975
 2675SOL    HW110267   4.220   0.825   5.025
 2675SOL    HW210268   4.092   0.726   5.002
 2676SOL     OW10269   4.091   1.100   4.225
 2676SOL    HW110270   4.084   1.183   4.169
 2676SOL    HW210271   4.095   1.020   4.165
 2677SOL     OW10272   4.290   0.537   4.589
 2677SOL    HW110273   4.302   0.603   4.515
 2677SOL    HW210274   4.336   0.571   4.672
 2678SOL     OW10275   4.078   1.510   5.053
 2678SOL    HW110276   4.057   1.466   4.966
 2678SOL    HW210277   4.175   1.536   5.056
 2679SOL     OW10278   4.297   0.870   4.753
 2679SOL    HW110279   4.341   0.959   4.744
 2679SOL    HW210280   4.234   0.870   4.830
 2680SOL     OW10281   5.084   0.862   4.769
 2680SOL    HW110282   5.009   0.862   4.703
 2680SOL    HW210283   5.121   0.770   4.778
 2681SOL     OW10284   4.933   0.525   3.999
 2681SOL    HW110285   4.946   0.441   4.053
 2681SOL    HW210286   4.904   0.599   4.059
 2682SOL     OW10287   4.031   0.213   4.955
 2682SOL    HW110288   4.008   0.250   5.045
 2682SOL    HW210289   4.001   0.118   4.949
 2683SOL     OW10290   3.761   1.310   5.006
 2683SOL    HW110291   3.814   1.261   5.074
 2683SOL    HW210292   3.783   1.408   5.011
 2684SOL     OW10293   4.456   0.634   4.788
 2684SOL    HW110294   4.515   0.608   4.712
 2684SOL    HW210295   4.428   0.730   4.777
 2685SOL     OW10296   4.031   0.063   4.342
 2685SOL    HW110297   4.020   0.157   4.375
 2685SOL    HW210298   4.026   0.000   4.419
 2686SOL     OW10299   4.747   0.766   4.690
 2686SOL    HW110300   4.762   0.787   4.786
 2686SOL    HW210301   4.717   0.671   4.681
 2687SOL     OW10302   5.027   0.838   3.766
 2687SOL    HW110303   5.061   0.745   3.781
 2687SOL    HW210304   5.045   0.865   3.671
 2688SOL     OW10305   4.792   1.333   4.573
 2688SOL    HW110306   4.799   1.249   4.518
 2688SOL    HW210307   4.854   1.402   4.537
 2689SOL     OW10308   4.043   0.810   4.673
 2689SOL    HW110309   4.136   0.846   4.678
 2689SOL    HW210310   4.037   0.725   4.725
 2690SOL     OW10311   4.063   0.509   4.730
 2690SOL    HW110312   4.011   0.426   4.713
 2690SOL    HW210313   4.140   0.514   4.666
 2691SOL     OW10314   4.884   0.207   5.201
 2691SOL    HW110315   4.884   0.271   5.278
 2691SOL    HW210316   4.912   0.255   5.118
 2692SOL     OW10317   3.732   1.326   3.924
 2692SOL    HW110318   3.639   1.347   3.893
 2692SOL    HW210319   3.742   1.227   3.937
 2693SOL     OW10320   3.812   1.801   4.651
 2693SOL    HW110321   3.770   1.715   4.624
 2693SOL    HW210322   3.906   1.804   4.617
 2694SOL     OW10323   4.228   1.568   4.634
 2694SOL    HW110324   4.294   1.642   4.643
 2694SOL    HW210325   4.272   1.489   4.592
 2695SOL     OW10326   4.726   0.796   4.962
 2695SOL    HW110327   4.767   0.764   5.048
 2695SOL    HW210328   4.630   0.769   4.959
 2696SOL     OW10329   3.764   0.544   4.838
 2696SOL    HW110330   3.849   0.511   4.797
 2696SOL    HW210331   3.777   0.559   4.936
 2697SOL     OW10332   4.539   0.572   4.049
 2697SOL    HW110333   4.546   0.483   4.003
 2697SOL    HW210334   4.445   0.606   4.041
 2698SOL     OW10335   4.395   0.464   4.993
 2698SOL    HW110336   4.361   0.375   4.963
 2698SOL    HW210337   4.421   0.518   4.913
 2699SOL     OW10338   4.654   1.678   5.189
 2699SOL    HW110339   4.630   1.660   5.094
 2699SOL    HW210340   4.684   1.772   5.199
 2700SOL     OW10341   4.197   0.500   3.915
 2700SOL    HW110342   4.258   0.580   3.919
 2700SOL    HW210343   4.102   0.531   3.922
 2701SOL     OW10344   4.976   1.731   4.852
 2701SOL    HW110345   5.060   1.736   4.798
 2701SOL    HW210346   4.953   1.635   4.870
 2702SOL     OW10347   3.807   1.258   4.746
 2702SOL    HW110348   3.802   1.257   4.846
 2702SOL    HW210349   3.724   1.217   4.708
 2703SOL     OW10350   5.112   1.573   4.201
 2703SOL    HW110351   5.179   1.585   4.127
 2703SOL    HW210352   5.072   1.662   4.224
 2704SOL     OW10353   5.004   0.927   4.396
 2704SOL    HW110354   5.064   0.846   4.398
 2704SOL    HW210355   5.044   0.996   4.336
 2705SOL     OW10356   4.396   1.616   3.878
 2705SOL    HW110357   4.405   1.626   3.779
 2705SOL    HW210358   4.356   1.527   3.899
 2706SOL     OW10359   4.546   1.002   5.096
 2706SOL    HW110360   4.586   1.001   5.004
 2706SOL    HW210361   4.556   1.094   5.136
 2707SOL     OW10362   4.640   0.910   4.015
 2707SOL    HW110363   4.703   0.948   3.947
 2707SOL    HW210364   4.680   0.827   4.054
 2708SOL     OW10365   4.763   1.098   4.420
 2708SOL    HW110366   4.693   1.051   4.474
 2708SOL    HW210367   4.822   1.030   4.377
 2709SOL     OW10368   4.738   0.236   4.695
 2709SOL    HW110369   4.730   0.200   4.602
 2709SOL    HW210370   4.736   0.160   4.760
 2710SOL     OW10371   4.314   1.487   4.215
 2710SOL    HW110372   4.356   1.429   4.145
 2710SOL    HW210373   4.270   1.566   4.171
 2711SOL     OW10374   3.979   1.348   4.014
 2711SOL    HW110375   3.883   1.349   3.987
 2711SOL    HW210376   3.991   1.401   4.098
 2712SOL     OW10377   4.318   0.745   4.376
 2712SOL    HW110378   4.368   0.830   4.357
 2712SOL    HW210379   4.230   0.747   4.328
 2713SOL     OW10380   4.385   1.790   4.677
 2713SOL    HW110381   4.339   1.878   4.664
 2713SOL    HW210382   4.484   1.802   4.670
 2714SOL     OW10383   4.583   0.956   4.585
 2714SOL    HW110384   4.637   0.887   4.633
 2714SOL    HW210385   4.551   1.025   4.651
 2715SOL     OW10386   4.807   0.984   3.811
 2715SOL    HW110387   4.784   1.037   3.729
 2715SOL    HW210388   4.888   0.928   3.792
 2716SOL     OW10389   3.803   1.240   4.377
 2716SOL    HW110390   3.802   1.193   4.465
 2716SOL    HW210391   3.885   1.212   4.326
 2717SOL     OW10392   4.494   1.330   4.025
 2717SOL    HW110393   4.448   1.243   4.042
 2717SOL    HW210394   4.585   1.327   4.066
 2718SOL     OW10395   3.763   1.077   4.024
 2718SOL    HW110396   3.862   1.066   4.015
 2718SOL    HW210397   3.723   0.991   4.056
 2719SOL     OW10398   3.954   2.490   0.113
 2719SOL    HW110399   3.861   2.488   0.150
 2719SOL    HW210400   3.955   2.451   0.021
 2720SOL     OW10401   3.949   2.137   0.996
 2720SOL    HW110402   3.984   2.120   1.088
 2720SOL    HW210403   3.861   2.092   0.984
 2721SOL     OW10404   4.293   3.137   1.165
 2721SOL    HW110405   4.200   3.130   1.128
 2721SOL    HW210406   4.304   3.226   1.209
 2722SOL     OW10407   4.859   2.565   0.717
 2722SOL    HW110408   4.916   2.643   0.692
 2722SOL    HW210409   4.799   2.591   0.793
 2723SOL     OW10410   4.492   3.006   1.023
 2723SOL    HW110411   4.414   3.023   1.083
 2723SOL    HW210412   4.526   3.093   0.987
 2724SOL     OW10413   4.574   2.660   1.823
 2724SOL    HW110414   4.570   2.736   1.888
 2724SOL    HW210415   4.596   2.696   1.732
 2725SOL     OW10416   4.409   2.874   0.665
 2725SOL    HW110417   4.478   2.858   0.735
 2725SOL    HW210418   4.336   2.931   0.703
 2726SOL     OW10419   4.059   3.297   1.061
 2726SOL    HW110420   3.981   3.266   1.008
 2726SOL    HW210421   4.117   3.355   1.004
 2727SOL     OW10422   4.162   2.254   1.499
 2727SOL    HW110423   4.244   2.198   1.508
 2727SOL    HW210424   4.081   2.196   1.503
 2728SOL     OW10425   3.955   3.575   0.483
 2728SOL    HW110426   3.989   3.652   0.537
 2728SOL    HW210427   3.999   3.575   0.393
 2729SOL     OW10428   4.851   3.203   1.690
 2729SOL    HW110429   4.898   3.203   1.778
 2729SOL    HW210430   4.803   3.116   1.679
 2730SOL     OW10431   3.954   3.296   0.538
 2730SOL    HW110432   3.928   3.392   0.538
 2730SOL    HW210433   3.883   3.242   0.583
 2731SOL     OW10434   3.964   2.953   0.886
 2731SOL    HW110435   3.978   2.869   0.938
 2731SOL    HW210436   3.909   3.017   0.941
 2732SOL     OW10437   4.344   3.648   1.439
 2732SOL    HW110438   4.252   3.631   1.474
 2732SOL    HW210439   4.372   3.740   1.465
 2733SOL     OW10440   4.330   2.826   0.123
 2733SOL    HW110441   4.337   2.910   0.069
 2733SOL    HW210442   4.376   2.839   0.211
 2734SOL     OW10443   3.846   2.505   0.563
 2734SOL    HW110444   3.801   2.417   0.580
 2734SOL    HW210445   3.845   2.559   0.647
 2735SOL     OW10446   3.751   3.458   0.117
 2735SOL    HW110447   3.732   3.362   0.138
 2735SOL    HW210448   3.718   3.516   0.192
 2736SOL     OW10449   3.837   2.599   1.597
 2736SOL    HW110450   3.925   2.586   1.642
 2736SOL    HW210451   3.824   2.696   1.575
 2737SOL     OW10452   4.337   3.227   0.726
 2737SOL    HW110453   4.288   3.140   0.735
 2737SOL    HW210454   4.314   3.270   0.639
 2738SOL     OW10455   5.017   3.090   1.423
 2738SOL    HW110456   5.054   3.017   1.365
 2738SOL    HW210457   5.069   3.095   1.508
 2739SOL     OW10458   4.533   1.866   0.502
 2739SOL    HW110459   4.573   1.957   0.493
 2739SOL    HW210460   4.433   1.874   0.508
 2740SOL     OW10461   3.921   2.838   1.264
 2740SOL    HW110462   4.010   2.793   1.250
 2740SOL    HW210463   3.848   2.773   1.245
 2741SOL     OW10464   4.041   2.113   1.801
 2741SOL    HW110465   4.112   2.184   1.807
 2741SOL    HW210466   3.953   2.152   1.829
 2742SOL     OW10467   5.005   2.207   0.944
 2742SOL    HW110468   4.919   2.157   0.931
 2742SOL    HW210469   5.067   2.153   1.000
 2743SOL     OW10470   4.531   2.467   1.465
 2743SOL    HW110471   4.484   2.464   1.554
 2743SOL    HW210472   4.480   2.412   1.399
 2744SOL     OW10473   4.697   2.752   1.572
 2744SOL    HW110474   4.743   2.668   1.543
 2744SOL    HW210475   4.641   2.786   1.497
 2745SOL     OW10476   4.715   2.272   1.242
 2745SOL    HW110477   4.638   2.306   1.296
 2745SOL    HW210478   4.681   2.221   1.163
 2746SOL     OW10479   4.765   2.563   0.429
 2746SOL    HW110480   4.791   2.559   0.525
 2746SOL    HW210481   4.680   2.512   0.415
 2747SOL     OW10482   3.854   3.683   1.571
 2747SOL    HW110483   3.844   3.668   1.670
 2747SOL    HW210484   3.768   3.719   1.535
 2748SOL     OW10485   4.589   2.210   0.195
 2748SOL    HW110486   4.648   2.273   0.146
 2748SOL    HW210487   4.608   2.116   0.166
 2749SOL     OW10488   4.274   2.058   0.885
 2749SOL    HW110489   4.269   2.053   0.985
 2749SOL    HW210490   4.276   2.154   0.856
 2750SOL     OW10491   4.732   3.318   0.477
 2750SOL    HW110492   4.686   3.390   0.425
 2750SOL    HW210493   4.728   3.338   0.575
 2751SOL     OW10494   4.075   3.663   0.853
 2751SOL    HW110495   4.125   3.577   0.859
 2751SOL    HW210496   4.140   3.740   0.850
 2752SOL     OW10497   4.951   3.412   1.506
 2752SOL    HW110498   4.957   3.335   1.570
 2752SOL    HW210499   4.899   3.386   1.426
 2753SOL     OW10500   4.045   2.805   0.242
 2753SOL    HW110501   4.127   2.844   0.200
 2753SOL    HW210502   4.018   2.723   0.193
 2754SOL     OW10503   4.835   3.638   0.237
 2754SOL    HW110504   4.775   3.576   0.287
 2754SOL    HW210505   4.866   3.594   0.152
 2755SOL     OW10506   3.926   2.147   1.498
 2755SOL    HW110507   3.846   2.207   1.485
 2755SOL    HW210508   3.916   2.098   1.584
 2756SOL     OW10509   5.356   3.239   0.081
 2756SOL    HW110510   5.324   3.333   0.071
 2756SOL    HW210511   5.280   3.176   0.069
 2757SOL     OW10512   4.188   3.605   0.323
 2757SOL    HW110513   4.221   3.644   0.409
 2757SOL    HW210514   4.264   3.598   0.258
 2758SOL     OW10515   3.973   3.647   1.241
 2758SOL    HW110516   4.030   3.582   1.291
 2758SOL    HW210517   3.957   3.614   1.148
 2759SOL     OW10518   4.106   2.562   0.480
 2759SOL    HW110519   4.151   2.472   0.477
 2759SOL    HW210520   4.012   2.551   0.513
 2760SOL     OW10521   4.505   2.126   1.749
 2760SOL    HW110522   4.572   2.065   1.792
 2760SOL    HW210523   4.432   2.145   1.814
 2761SOL     OW10524   4.646   2.365   0.899
 2761SOL    HW110525   4.621   2.356   0.803
 2761SOL    HW210526   4.694   2.283   0.930
 2762SOL     OW10527   4.263   1.926   0.512
 2762SOL    HW110528   4.182   1.927   0.570
 2762SOL    HW210529   4.266   2.009   0.457
 2763SOL     OW10530   4.021   1.897   0.171
 2763SOL    HW110531   4.070   1.981   0.150
 2763SOL    HW210532   4.083   1.832   0.216
 2764SOL     OW10533   4.659   2.098   0.480
 2764SOL    HW110534   4.611   2.139   0.402
 2764SOL    HW210535   4.758   2.096   0.461
 2765SOL     OW10536   4.800   2.545   1.464
 2765SOL    HW110537   4.720   2.484   1.467
 2765SOL    HW210538   4.881   2.492   1.440
 2766SOL     OW10539   4.183   3.014   0.741
 2766SOL    HW110540   4.112   2.987   0.806
 2766SOL    HW210541   4.157   2.986   0.648
 2767SOL     OW10542   4.756   2.411   0.016
 2767SOL    HW110543   4.715   2.493  -0.023
 2767SOL    HW210544   4.820   2.437   0.089
 2768SOL     OW10545   3.802   2.418   1.386
 2768SOL    HW110546   3.894   2.417   1.345
 2768SOL    HW210547   3.796   2.492   1.453
 2769SOL     OW10548   4.285   2.084   1.147
 2769SOL    HW110549   4.323   2.000   1.184
 2769SOL    HW210550   4.197   2.103   1.191
 2770SOL     OW10551   4.590   2.316   0.642
 2770SOL    HW110552   4.558   2.388   0.580
 2770SOL    HW210553   4.614   2.235   0.589
 2771SOL     OW10554   4.741   1.901   0.753
 2771SOL    HW110555   4.669   1.906   0.684
 2771SOL    HW210556   4.717   1.832   0.822
 2772SOL     OW10557   4.212   3.247   0.174
 2772SOL    HW110558   4.125   3.232   0.221
 2772SOL    HW210559   4.195   3.273   0.079
 2773SOL     OW10560   5.388   3.142   0.657
 2773SOL    HW110561   5.487   3.150   0.671
 2773SOL    HW210562   5.343   3.226   0.688
 2774SOL     OW10563   4.251   2.118   0.328
 2774SOL    HW110564   4.278   2.059   0.253
 2774SOL    HW210565   4.251   2.213   0.297
 2775SOL     OW10566   4.788   3.209   1.340
 2775SOL    HW110567   4.708   3.186   1.395
 2775SOL    HW210568   4.871   3.183   1.389
 2776SOL     OW10569   4.835   3.057   1.100
 2776SOL    HW110570   4.795   3.101   1.181
 2776SOL    HW210571   4.794   3.094   1.017
 2777SOL     OW10572   4.639   1.951   1.402
 2777SOL    HW110573   4.664   1.931   1.307
 2777SOL    HW210574   4.711   2.007   1.444
 2778SOL     OW10575   4.704   2.978   1.719
 2778SOL    HW110576   4.605   2.984   1.729
 2778SOL    HW210577   4.727   2.898   1.663
 2779SOL     OW10578   4.429   2.912   0.368
 2779SOL    HW110579   4.415   2.919   0.467
 2779SOL    HW210580   4.513   2.861   0.350
 2780SOL     OW10581   4.998   2.248   1.262
 2780SOL    HW110582   5.019   2.322   1.326
 2780SOL    HW210583   4.909   2.265   1.219
 2781SOL     OW10584   4.091   2.962   0.501
 2781SOL    HW110585   4.084   3.045   0.445
 2781SOL    HW210586   4.095   2.882   0.441
 2782SOL     OW10587   4.290   2.399   0.865
 2782SOL    HW110588   4.302   2.465   0.791
 2782SOL    HW210589   4.336   2.433   0.948
 2783SOL     OW10590   4.976   3.210   0.388
 2783SOL    HW110591   5.026   3.287   0.428
 2783SOL    HW210592   4.881   3.212   0.420
 2784SOL     OW10593   4.078   3.372   1.329
 2784SOL    HW110594   4.057   3.328   1.242
 2784SOL    HW210595   4.175   3.398   1.332
 2785SOL     OW10596   4.737   1.967   1.770
 2785SOL    HW110597   4.743   2.052   1.718
 2785SOL    HW210598   4.769   1.891   1.713
 2786SOL     OW10599   4.297   2.732   1.029
 2786SOL    HW110600   4.341   2.821   1.020
 2786SOL    HW210601   4.234   2.732   1.106
 2787SOL     OW10602   4.933   2.387   0.275
 2787SOL    HW110603   4.946   2.303   0.329
 2787SOL    HW210604   4.904   2.461   0.335
 2788SOL     OW10605   4.031   2.075   1.231
 2788SOL    HW110606   4.008   2.112   1.321
 2788SOL    HW210607   4.001   1.980   1.225
 2789SOL     OW10608   4.456   2.496   1.064
 2789SOL    HW110609   4.515   2.470   0.988
 2789SOL    HW210610   4.428   2.592   1.053
 2790SOL     OW10611   4.031   1.925   0.618
 2790SOL    HW110612   4.020   2.019   0.651
 2790SOL    HW210613   4.026   1.862   0.695
 2791SOL     OW10614   4.747   2.628   0.966
 2791SOL    HW110615   4.762   2.649   1.062
 2791SOL    HW210616   4.717   2.533   0.957
 2792SOL     OW10617   4.704   3.435   1.700
 2792SOL    HW110618   4.684   3.479   1.612
 2792SOL    HW210619   4.743   3.344   1.684
 2793SOL     OW10620   4.074   2.760   1.804
 2793SOL    HW110621   4.150   2.804   1.852
 2793SOL    HW210622   4.109   2.713   1.722
 2794SOL     OW10623   5.027   2.700   0.042
 2794SOL    HW110624   5.061   2.607   0.057
 2794SOL    HW210625   5.045   2.727  -0.053
 2795SOL     OW10626   4.043   2.672   0.949
 2795SOL    HW110627   4.136   2.708   0.954
 2795SOL    HW210628   4.037   2.587   1.001
 2796SOL     OW10629   4.063   2.371   1.006
 2796SOL    HW110630   4.011   2.288   0.989
 2796SOL    HW210631   4.140   2.376   0.942
 2797SOL     OW10632   4.862   2.242   1.678
 2797SOL    HW110633   4.817   2.305   1.742
 2797SOL    HW210634   4.955   2.273   1.661
 2798SOL     OW10635   4.884   2.069   1.477
 2798SOL    HW110636   4.884   2.133   1.554
 2798SOL    HW210637   4.912   2.117   1.394
 2799SOL     OW10638   3.812   3.663   0.927
 2799SOL    HW110639   3.770   3.577   0.900
 2799SOL    HW210640   3.906   3.666   0.893
 2800SOL     OW10641   4.228   3.430   0.910
 2800SOL    HW110642   4.294   3.504   0.919
 2800SOL    HW210643   4.272   3.351   0.868
 2801SOL     OW10644   3.764   2.406   1.114
 2801SOL    HW110645   3.849   2.373   1.073
 2801SOL    HW210646   3.777   2.421   1.212
 2802SOL     OW10647   3.913   2.382   1.722
 2802SOL    HW110648   3.972   2.342   1.652
 2802SOL    HW210649   3.855   2.453   1.681
 2803SOL     OW10650   4.539   2.434   0.325
 2803SOL    HW110651   4.546   2.345   0.279
 2803SOL    HW210652   4.445   2.468   0.317
 2804SOL     OW10653   4.395   2.326   1.269
 2804SOL    HW110654   4.361   2.237   1.239
 2804SOL    HW210655   4.421   2.380   1.189
 2805SOL     OW10656   4.654   3.540   1.465
 2805SOL    HW110657   4.630   3.522   1.370
 2805SOL    HW210658   4.684   3.634   1.475
 2806SOL     OW10659   4.197   2.362   0.191
 2806SOL    HW110660   4.258   2.442   0.195
 2806SOL    HW210661   4.102   2.393   0.198
 2807SOL     OW10662   4.976   3.593   1.128
 2807SOL    HW110663   5.060   3.598   1.074
 2807SOL    HW210664   4.953   3.497   1.146
 2808SOL     OW10665   3.807   3.120   1.022
 2808SOL    HW110666   3.802   3.119   1.122
 2808SOL    HW210667   3.724   3.079   0.984
 2809SOL     OW10668   4.412   3.524   1.716
 2809SOL    HW110669   4.356   3.605   1.725
 2809SOL    HW210670   4.464   3.528   1.630
 2810SOL     OW10671   4.627   1.948   0.133
 2810SOL    HW110672   4.678   1.949   0.047
 2810SOL    HW210673   4.683   1.906   0.204
 2811SOL     OW10674   5.112   3.435   0.477
 2811SOL    HW110675   5.179   3.447   0.403
 2811SOL    HW210676   5.072   3.524   0.500
 2812SOL     OW10677   5.004   2.789   0.672
 2812SOL    HW110678   5.064   2.708   0.674
 2812SOL    HW210679   5.044   2.858   0.612
 2813SOL     OW10680   4.554   3.135   1.422
 2813SOL    HW110681   4.549   3.168   1.517
 2813SOL    HW210682   4.468   3.154   1.376
 2814SOL     OW10683   4.396   3.478   0.154
 2814SOL    HW110684   4.405   3.488   0.055
 2814SOL    HW210685   4.356   3.389   0.175
 2815SOL     OW10686   3.987   2.188   0.720
 2815SOL    HW110687   3.908   2.239   0.686
 2815SOL    HW210688   3.978   2.173   0.818
 2816SOL     OW10689   4.918   3.474   0.031
 2816SOL    HW110690   4.924   3.381   0.068
 2816SOL    HW210691   4.859   3.474  -0.049
 2817SOL     OW10692   4.546   2.864   1.372
 2817SOL    HW110693   4.586   2.863   1.280
 2817SOL    HW210694   4.556   2.956   1.412
 2818SOL     OW10695   4.640   2.772   0.291
 2818SOL    HW110696   4.703   2.810   0.223
 2818SOL    HW210697   4.680   2.689   0.330
 2819SOL     OW10698   4.763   2.960   0.696
 2819SOL    HW110699   4.693   2.913   0.750
 2819SOL    HW210700   4.822   2.892   0.653
 2820SOL     OW10701   4.738   2.098   0.971
 2820SOL    HW110702   4.730   2.062   0.878
 2820SOL    HW210703   4.736   2.022   1.036
 2821SOL     OW10704   4.314   3.349   0.491
 2821SOL    HW110705   4.356   3.291   0.421
 2821SOL    HW210706   4.270   3.428   0.447
 2822SOL     OW10707   3.979   3.210   0.290
 2822SOL    HW110708   3.883   3.211   0.263
 2822SOL    HW210709   3.991   3.263   0.374
 2823SOL     OW10710   3.829   2.875   1.726
 2823SOL    HW110711   3.752   2.842   1.780
 2823SOL    HW210712   3.914   2.845   1.768
 2824SOL     OW10713   4.396   2.065   1.489
 2824SOL    HW110714   4.486   2.049   1.449
 2824SOL    HW210715   4.404   2.070   1.588
 2825SOL     OW10716   3.796   2.028   0.318
 2825SOL    HW110717   3.779   2.111   0.264
 2825SOL    HW210718   3.886   1.991   0.296
 2826SOL     OW10719   4.114   3.603   1.560
 2826SOL    HW110720   4.023   3.644   1.558
 2826SOL    HW210721   4.107   3.509   1.592
 2827SOL     OW10722   4.949   2.187   0.449
 2827SOL    HW110723   5.014   2.113   0.438
 2827SOL    HW210724   4.969   2.237   0.533
 2828SOL     OW10725   4.318   2.607   0.652
 2828SOL    HW110726   4.368   2.692   0.633
 2828SOL    HW210727   4.230   2.609   0.604
 2829SOL     OW10728   4.583   3.236   0.016
 2829SOL    HW110729   4.537   3.251   0.104
 2829SOL    HW210730   4.627   3.321  -0.014
 2830SOL     OW10731   4.807   2.846   0.087
 2830SOL    HW110732   4.784   2.899   0.005
 2830SOL    HW210733   4.888   2.790   0.068
 2831SOL     OW10734   3.803   3.102   0.653
 2831SOL    HW110735   3.802   3.055   0.741
 2831SOL    HW210736   3.885   3.074   0.602
 2832SOL     OW10737   4.152   2.286   0.520
 2832SOL    HW110738   4.182   2.214   0.458
 2832SOL    HW210739   4.113   2.246   0.603
 2833SOL     OW10740   4.041   2.409   1.280
 2833SOL    HW110741   4.079   2.350   1.352
 2833SOL    HW210742   4.081   2.383   1.192
 2834SOL     OW10743   4.725   1.896   1.154
 2834SOL    HW110744   4.662   1.824   1.123
 2834SOL    HW210745   4.818   1.860   1.154
 2835SOL     OW10746   4.494   3.192   0.301
 2835SOL    HW110747   4.448   3.105   0.318
 2835SOL    HW210748   4.585   3.189   0.342
 2836SOL     OW10749   3.763   2.939   0.300
 2836SOL    HW110750   3.862   2.928   0.291
 2836SOL    HW210751   3.723   2.853   0.332
 2837SOL     OW10752   4.599   3.508   0.337
 2837SOL    HW110753   4.522   3.473   0.283
 2837SOL    HW210754   4.567   3.579   0.399
 2838SOL     OW10755   3.954   2.490   1.975
 2838SOL    HW110756   3.861   2.488   2.012
 2838SOL    HW210757   3.955   2.451   1.883
 2839SOL     OW10758   3.949   2.137   2.858
 2839SOL    HW110759   3.984   2.120   2.950
 2839SOL    HW210760   3.861   2.092   2.846
 2840SOL     OW10761   3.743   2.230   2.509
 2840SOL    HW110762   3.661   2.273   2.548
 2840SOL    HW210763   3.715   2.157   2.446
 2841SOL     OW10764   4.293   3.137   3.027
 2841SOL    HW110765   4.200   3.130   2.990
 2841SOL    HW210766   4.304   3.226   3.071
 2842SOL     OW10767   4.859   2.565   2.579
 2842SOL    HW110768   4.916   2.643   2.554
 2842SOL    HW210769   4.799   2.591   2.655
 2843SOL     OW10770   4.492   3.006   2.885
 2843SOL    HW110771   4.414   3.023   2.945
 2843SOL    HW210772   4.526   3.093   2.849
 2844SOL     OW10773   4.574   2.660   3.685
 2844SOL    HW110774   4.570   2.736   3.750
 2844SOL    HW210775   4.596   2.696   3.594
 2845SOL     OW10776   4.409   2.874   2.527
 2845SOL    HW110777   4.478   2.858   2.597
 2845SOL    HW210778   4.336   2.931   2.565
 2846SOL     OW10779   4.410   3.023   3.665
 2846SOL    HW110780   4.470   3.102   3.679
 2846SOL    HW210781   4.324   3.054   3.624
 2847SOL     OW10782   4.059   3.297   2.923
 2847SOL    HW110783   3.981   3.266   2.870
 2847SOL    HW210784   4.117   3.355   2.866
 2848SOL     OW10785   3.955   3.575   2.345
 2848SOL    HW110786   3.989   3.652   2.399
 2848SOL    HW210787   3.999   3.575   2.255
 2849SOL     OW10788   4.851   3.203   3.552
 2849SOL    HW110789   4.898   3.203   3.640
 2849SOL    HW210790   4.803   3.116   3.541
 2850SOL     OW10791   3.964   2.953   2.748
 2850SOL    HW110792   3.978   2.869   2.800
 2850SOL    HW210793   3.909   3.017   2.803
 2851SOL     OW10794   4.330   2.826   1.985
 2851SOL    HW110795   4.337   2.910   1.931
 2851SOL    HW210796   4.376   2.839   2.073
 2852SOL     OW10797   3.846   2.505   2.425
 2852SOL    HW110798   3.801   2.417   2.442
 2852SOL    HW210799   3.845   2.559   2.509
 2853SOL     OW10800   4.337   3.227   2.588
 2853SOL    HW110801   4.288   3.140   2.597
 2853SOL    HW210802   4.314   3.270   2.501
 2854SOL     OW10803   5.017   3.090   3.285
 2854SOL    HW110804   5.054   3.017   3.227
 2854SOL    HW210805   5.069   3.095   3.370
 2855SOL     OW10806   4.533   1.866   2.364
 2855SOL    HW110807   4.573   1.957   2.355
 2855SOL    HW210808   4.433   1.874   2.370
 2856SOL     OW10809   3.921   2.838   3.126
 2856SOL    HW110810   4.010   2.793   3.112
 2856SOL    HW210811   3.848   2.773   3.107
 2857SOL     OW10812   4.911   3.654   3.478
 2857SOL    HW110813   4.935   3.714   3.402
 2857SOL    HW210814   4.918   3.559   3.448
 2858SOL     OW10815   4.322   2.591   2.132
 2858SOL    HW110816   4.346   2.660   2.064
 2858SOL    HW210817   4.244   2.624   2.186
 2859SOL     OW10818   5.005   2.207   2.806
 2859SOL    HW110819   4.919   2.157   2.793
 2859SOL    HW210820   5.067   2.153   2.862
 2860SOL     OW10821   4.697   2.752   3.434
 2860SOL    HW110822   4.743   2.668   3.405
 2860SOL    HW210823   4.641   2.786   3.359
 2861SOL     OW10824   4.765   2.563   2.291
 2861SOL    HW110825   4.791   2.559   2.387
 2861SOL    HW210826   4.680   2.512   2.277
 2862SOL     OW10827   3.800   2.673   2.651
 2862SOL    HW110828   3.899   2.661   2.660
 2862SOL    HW210829   3.776   2.768   2.672
 2863SOL     OW10830   4.589   2.210   2.057
 2863SOL    HW110831   4.648   2.273   2.008
 2863SOL    HW210832   4.608   2.116   2.028
 2864SOL     OW10833   4.274   2.058   2.747
 2864SOL    HW110834   4.269   2.053   2.847
 2864SOL    HW210835   4.276   2.154   2.718
 2865SOL     OW10836   4.732   3.318   2.339
 2865SOL    HW110837   4.686   3.390   2.287
 2865SOL    HW210838   4.728   3.338   2.437
 2866SOL     OW10839   4.075   3.663   2.715
 2866SOL    HW110840   4.125   3.577   2.721
 2866SOL    HW210841   4.140   3.740   2.712
 2867SOL     OW10842   4.045   2.805   2.104
 2867SOL    HW110843   4.127   2.844   2.062
 2867SOL    HW210844   4.018   2.723   2.055
 2868SOL     OW10845   4.835   3.638   2.099
 2868SOL    HW110846   4.775   3.576   2.149
 2868SOL    HW210847   4.866   3.594   2.014
 2869SOL     OW10848   3.973   3.647   3.103
 2869SOL    HW110849   4.030   3.582   3.153
 2869SOL    HW210850   3.957   3.614   3.010
 2870SOL     OW10851   4.664   3.560   2.766
 2870SOL    HW110852   4.744   3.503   2.787
 2870SOL    HW210853   4.615   3.520   2.689
 2871SOL     OW10854   4.106   2.562   2.342
 2871SOL    HW110855   4.151   2.472   2.339
 2871SOL    HW210856   4.012   2.551   2.375
 2872SOL     OW10857   4.338   1.984   1.979
 2872SOL    HW110858   4.436   1.962   1.986
 2872SOL    HW210859   4.307   1.967   1.886
 2873SOL     OW10860   4.505   2.126   3.611
 2873SOL    HW110861   4.572   2.065   3.654
 2873SOL    HW210862   4.432   2.145   3.676
 2874SOL     OW10863   4.612   3.376   3.057
 2874SOL    HW110864   4.589   3.351   2.963
 2874SOL    HW210865   4.673   3.307   3.096
 2875SOL     OW10866   4.527   3.264   2.786
 2875SOL    HW110867   4.617   3.278   2.744
 2875SOL    HW210868   4.456   3.266   2.715
 2876SOL     OW10869   4.646   2.365   2.761
 2876SOL    HW110870   4.621   2.356   2.665
 2876SOL    HW210871   4.694   2.283   2.792
 2877SOL     OW10872   4.263   1.926   2.374
 2877SOL    HW110873   4.182   1.927   2.432
 2877SOL    HW210874   4.266   2.009   2.319
 2878SOL     OW10875   4.021   1.897   2.033
 2878SOL    HW110876   4.070   1.981   2.012
 2878SOL    HW210877   4.083   1.832   2.078
 2879SOL     OW10878   4.659   2.098   2.342
 2879SOL    HW110879   4.611   2.139   2.264
 2879SOL    HW210880   4.758   2.096   2.323
 2880SOL     OW10881   4.800   2.545   3.326
 2880SOL    HW110882   4.720   2.484   3.329
 2880SOL    HW210883   4.881   2.492   3.302
 2881SOL     OW10884   4.951   3.432   2.655
 2881SOL    HW110885   4.972   3.506   2.590
 2881SOL    HW210886   5.019   3.432   2.728
 2882SOL     OW10887   4.183   3.014   2.603
 2882SOL    HW110888   4.112   2.987   2.668
 2882SOL    HW210889   4.157   2.986   2.510
 2883SOL     OW10890   4.995   3.659   2.453
 2883SOL    HW110891   5.039   3.723   2.389
 2883SOL    HW210892   4.945   3.711   2.523
 2884SOL     OW10893   4.756   2.411   1.878
 2884SOL    HW110894   4.715   2.493   1.839
 2884SOL    HW210895   4.820   2.437   1.951
 2885SOL     OW10896   4.285   2.084   3.009
 2885SOL    HW110897   4.323   2.000   3.046
 2885SOL    HW210898   4.197   2.103   3.053
 2886SOL     OW10899   4.590   2.316   2.504
 2886SOL    HW110900   4.558   2.388   2.442
 2886SOL    HW210901   4.614   2.235   2.451
 2887SOL     OW10902   4.741   1.901   2.615
 2887SOL    HW110903   4.669   1.906   2.546
 2887SOL    HW210904   4.717   1.832   2.684
 2888SOL     OW10905   5.388   3.142   2.519
 2888SOL    HW110906   5.487   3.150   2.533
 2888SOL    HW210907   5.343   3.226   2.550
 2889SOL     OW10908   4.251   2.118   2.190
 2889SOL    HW110909   4.278   2.059   2.115
 2889SOL    HW210910   4.251   2.213   2.159
 2890SOL     OW10911   4.788   3.209   3.202
 2890SOL    HW110912   4.708   3.186   3.257
 2890SOL    HW210913   4.871   3.183   3.251
 2891SOL     OW10914   4.835   3.057   2.962
 2891SOL    HW110915   4.795   3.101   3.043
 2891SOL    HW210916   4.794   3.094   2.879
 2892SOL     OW10917   4.639   1.951   3.264
 2892SOL    HW110918   4.664   1.931   3.169
 2892SOL    HW210919   4.711   2.007   3.306
 2893SOL     OW10920   4.704   2.978   3.581
 2893SOL    HW110921   4.605   2.984   3.591
 2893SOL    HW210922   4.727   2.898   3.525
 2894SOL     OW10923   4.429   2.912   2.230
 2894SOL    HW110924   4.415   2.919   2.329
 2894SOL    HW210925   4.513   2.861   2.212
 2895SOL     OW10926   4.998   2.248   3.124
 2895SOL    HW110927   5.019   2.322   3.188
 2895SOL    HW210928   4.909   2.265   3.081
 2896SOL     OW10929   3.788   3.426   3.193
 2896SOL    HW110930   3.742   3.508   3.159
 2896SOL    HW210931   3.886   3.445   3.202
 2897SOL     OW10932   4.091   2.962   2.363
 2897SOL    HW110933   4.084   3.045   2.307
 2897SOL    HW210934   4.095   2.882   2.303
 2898SOL     OW10935   4.290   2.399   2.727
 2898SOL    HW110936   4.302   2.465   2.653
 2898SOL    HW210937   4.336   2.433   2.810
 2899SOL     OW10938   4.976   3.210   2.250
 2899SOL    HW110939   5.026   3.287   2.290
 2899SOL    HW210940   4.881   3.212   2.282
 2900SOL     OW10941   4.228   1.912   3.602
 2900SOL    HW110942   4.186   1.855   3.532
 2900SOL    HW210943   4.162   1.981   3.634
 2901SOL     OW10944   4.297   2.732   2.891
 2901SOL    HW110945   4.341   2.821   2.882
 2901SOL    HW210946   4.234   2.732   2.968
 2902SOL     OW10947   5.084   2.724   2.907
 2902SOL    HW110948   5.009   2.724   2.841
 2902SOL    HW210949   5.121   2.632   2.916
 2903SOL     OW10950   4.933   2.387   2.137
 2903SOL    HW110951   4.946   2.303   2.191
 2903SOL    HW210952   4.904   2.461   2.197
 2904SOL     OW10953   4.031   2.075   3.093
 2904SOL    HW110954   4.008   2.112   3.183
 2904SOL    HW210955   4.001   1.980   3.087
 2905SOL     OW10956   4.456   2.496   2.926
 2905SOL    HW110957   4.515   2.470   2.850
 2905SOL    HW210958   4.428   2.592   2.915
 2906SOL     OW10959   4.031   1.925   2.480
 2906SOL    HW110960   4.020   2.019   2.513
 2906SOL    HW210961   4.026   1.862   2.557
 2907SOL     OW10962   4.747   2.628   2.828
 2907SOL    HW110963   4.762   2.649   2.924
 2907SOL    HW210964   4.717   2.533   2.819
 2908SOL     OW10965   4.704   3.435   3.562
 2908SOL    HW110966   4.684   3.479   3.474
 2908SOL    HW210967   4.743   3.344   3.546
 2909SOL     OW10968   4.074   2.760   3.666
 2909SOL    HW110969   4.150   2.804   3.714
 2909SOL    HW210970   4.109   2.713   3.584
 2910SOL     OW10971   5.027   2.700   1.904
 2910SOL    HW110972   5.061   2.607   1.919
 2910SOL    HW210973   5.045   2.727   1.809
 2911SOL     OW10974   4.792   3.195   2.711
 2911SOL    HW110975   4.799   3.111   2.656
 2911SOL    HW210976   4.854   3.264   2.675
 2912SOL     OW10977   4.043   2.672   2.811
 2912SOL    HW110978   4.136   2.708   2.816
 2912SOL    HW210979   4.037   2.587   2.863
 2913SOL     OW10980   4.063   2.371   2.868
 2913SOL    HW110981   4.011   2.288   2.851
 2913SOL    HW210982   4.140   2.376   2.804
 2914SOL     OW10983   4.862   2.242   3.540
 2914SOL    HW110984   4.817   2.305   3.604
 2914SOL    HW210985   4.955   2.273   3.523
 2915SOL     OW10986   4.884   2.069   3.339
 2915SOL    HW110987   4.884   2.133   3.416
 2915SOL    HW210988   4.912   2.117   3.256
 2916SOL     OW10989   3.732   3.188   2.062
 2916SOL    HW110990   3.639   3.209   2.031
 2916SOL    HW210991   3.742   3.089   2.075
 2917SOL     OW10992   3.812   3.663   2.789
 2917SOL    HW110993   3.770   3.577   2.762
 2917SOL    HW210994   3.906   3.666   2.755
 2918SOL     OW10995   4.228   3.430   2.772
 2918SOL    HW110996   4.294   3.504   2.781
 2918SOL    HW210997   4.272   3.351   2.730
 2919SOL     OW10998   4.726   2.658   3.100
 2919SOL    HW110999   4.767   2.626   3.186
 2919SOL    HW211000   4.630   2.631   3.097
 2920SOL     OW11001   3.764   2.406   2.976
 2920SOL    HW111002   3.849   2.373   2.935
 2920SOL    HW211003   3.777   2.421   3.074
 2921SOL     OW11004   4.539   2.434   2.187
 2921SOL    HW111005   4.546   2.345   2.141
 2921SOL    HW211006   4.445   2.468   2.179
 2922SOL     OW11007   3.976   3.426   3.606
 2922SOL    HW111008   3.946   3.483   3.682
 2922SOL    HW211009   3.969   3.329   3.632
 2923SOL     OW11010   4.395   2.326   3.131
 2923SOL    HW111011   4.361   2.237   3.101
 2923SOL    HW211012   4.421   2.380   3.051
 2924SOL     OW11013   4.654   3.540   3.327
 2924SOL    HW111014   4.630   3.522   3.232
 2924SOL    HW211015   4.684   3.634   3.337
 2925SOL     OW11016   4.197   2.362   2.053
 2925SOL    HW111017   4.258   2.442   2.057
 2925SOL    HW211018   4.102   2.393   2.060
 2926SOL     OW11019   5.071   2.921   3.096
 2926SOL    HW111020   5.095   2.858   3.022
 2926SOL    HW211021   4.981   2.961   3.078
 2927SOL     OW11022   3.854   3.656   3.713
 2927SOL    HW111023   3.813   3.582   3.766
 2927SOL    HW211024   3.918   3.707   3.771
 2928SOL     OW11025   5.004   2.789   2.534
 2928SOL    HW111026   5.064   2.708   2.536
 2928SOL    HW211027   5.044   2.858   2.474
 2929SOL     OW11028   4.554   3.135   3.284
 2929SOL    HW111029   4.549   3.168   3.379
 2929SOL    HW211030   4.468   3.154   3.238
 2930SOL     OW11031   4.396   3.478   2.016
 2930SOL    HW111032   4.405   3.488   1.917
 2930SOL    HW211033   4.356   3.389   2.037
 2931SOL     OW11034   3.987   2.188   2.582
 2931SOL    HW111035   3.908   2.239   2.548
 2931SOL    HW211036   3.978   2.173   2.680
 2932SOL     OW11037   4.546   2.864   3.234
 2932SOL    HW111038   4.586   2.863   3.142
 2932SOL    HW211039   4.556   2.956   3.274
 2933SOL     OW11040   4.640   2.772   2.153
 2933SOL    HW111041   4.703   2.810   2.085
 2933SOL    HW211042   4.680   2.689   2.192
 2934SOL     OW11043   4.763   2.960   2.558
 2934SOL    HW111044   4.693   2.913   2.612
 2934SOL    HW211045   4.822   2.892   2.515
 2935SOL     OW11046   4.738   2.098   2.833
 2935SOL    HW111047   4.730   2.062   2.740
 2935SOL    HW211048   4.736   2.022   2.898
 2936SOL     OW11049   3.829   2.875   3.588
 2936SOL    HW111050   3.752   2.842   3.642
 2936SOL    HW211051   3.914   2.845   3.630
 2937SOL     OW11052   3.799   2.207   1.895
 2937SOL    HW111053   3.707   2.179   1.866
 2937SOL    HW211054   3.830   2.284   1.839
 2938SOL     OW11055   5.164   2.718   3.260
 2938SOL    HW111056   5.107   2.770   3.197
 2938SOL    HW211057   5.260   2.730   3.236
 2939SOL     OW11058   3.796   2.028   2.180
 2939SOL    HW111059   3.779   2.111   2.126
 2939SOL    HW211060   3.886   1.991   2.158
 2940SOL     OW11061   4.440   2.427   3.570
 2940SOL    HW111062   4.459   2.492   3.644
 2940SOL    HW211063   4.500   2.347   3.579
 2941SOL     OW11064   4.949   2.187   2.311
 2941SOL    HW111065   5.014   2.113   2.300
 2941SOL    HW211066   4.969   2.237   2.395
 2942SOL     OW11067   4.318   2.607   2.514
 2942SOL    HW111068   4.368   2.692   2.495
 2942SOL    HW211069   4.230   2.609   2.466
 2943SOL     OW11070   4.583   3.236   1.878
 2943SOL    HW111071   4.537   3.251   1.966
 2943SOL    HW211072   4.627   3.321   1.848
 2944SOL     OW11073   4.385   3.652   2.815
 2944SOL    HW111074   4.339   3.740   2.802
 2944SOL    HW211075   4.484   3.664   2.808
 2945SOL     OW11076   4.583   2.818   2.723
 2945SOL    HW111077   4.637   2.749   2.771
 2945SOL    HW211078   4.551   2.887   2.789
 2946SOL     OW11079   4.807   2.846   1.949
 2946SOL    HW111080   4.784   2.899   1.867
 2946SOL    HW211081   4.888   2.790   1.930
 2947SOL     OW11082   3.803   3.102   2.515
 2947SOL    HW111083   3.802   3.055   2.603
 2947SOL    HW211084   3.885   3.074   2.464
 2948SOL     OW11085   4.396   3.253   3.486
 2948SOL    HW111086   4.318   3.203   3.524
 2948SOL    HW211087   4.393   3.348   3.517
 2949SOL     OW11088   4.152   2.286   2.382
 2949SOL    HW111089   4.182   2.214   2.320
 2949SOL    HW211090   4.113   2.246   2.465
 2950SOL     OW11091   4.041   2.409   3.142
 2950SOL    HW111092   4.079   2.350   3.214
 2950SOL    HW211093   4.081   2.383   3.054
 2951SOL     OW11094   4.536   3.448   2.549
 2951SOL    HW111095   4.568   3.458   2.455
 2951SOL    HW211096   4.457   3.386   2.551
 2952SOL     OW11097   4.725   1.896   3.016
 2952SOL    HW111098   4.662   1.824   2.985
 2952SOL    HW211099   4.818   1.860   3.016
 2953SOL     OW11100   4.494   3.192   2.163
 2953SOL    HW111101   4.448   3.105   2.180
 2953SOL    HW211102   4.585   3.189   2.204
 2954SOL     OW11103   4.342   3.429   3.146
 2954SOL    HW111104   4.337   3.511   3.203
 2954SOL    HW211105   4.431   3.426   3.101
 2955SOL     OW11106   5.076   1.914   2.030
 2955SOL    HW111107   5.111   1.873   1.946
 2955SOL    HW211108   4.986   1.876   2.050
 2956SOL     OW11109   3.763   2.939   2.162
 2956SOL    HW111110   3.862   2.928   2.153
 2956SOL    HW211111   3.723   2.853   2.194
 2957SOL     OW11112   4.599   3.508   2.199
 2957SOL    HW111113   4.522   3.473   2.145
 2957SOL    HW211114   4.567   3.579   2.261
 2958SOL     OW11115   3.954   2.490   3.837
 2958SOL    HW111116   3.861   2.488   3.874
 2958SOL    HW211117   3.955   2.451   3.745
 2959SOL     OW11118   3.949   2.137   4.720
 2959SOL    HW111119   3.984   2.120   4.812
 2959SOL    HW211120   3.861   2.092   4.708
 2960SOL     OW11121   4.293   3.137   4.889
 2960SOL    HW111122   4.200   3.130   4.852
 2960SOL    HW211123   4.304   3.226   4.933
 2961SOL     OW11124   4.859   2.565   4.441
 2961SOL    HW111125   4.916   2.643   4.416
 2961SOL    HW211126   4.799   2.591   4.517
 2962SOL     OW11127   4.409   2.874   4.389
 2962SOL    HW111128   4.478   2.858   4.459
 2962SOL    HW211129   4.336   2.931   4.427
 2963SOL     OW11130   4.059   3.297   4.785
 2963SOL    HW111131   3.981   3.266   4.732
 2963SOL    HW211132   4.117   3.355   4.728
 2964SOL     OW11133   3.955   3.575   4.207
 2964SOL    HW111134   3.989   3.652   4.261
 2964SOL    HW211135   3.999   3.575   4.117
 2965SOL     OW11136   3.954   3.296   4.262
 2965SOL    HW111137   3.928   3.392   4.262
 2965SOL    HW211138   3.883   3.242   4.307
 2966SOL     OW11139   3.964   2.953   4.610
 2966SOL    HW111140   3.978   2.869   4.662
 2966SOL    HW211141   3.909   3.017   4.665
 2967SOL     OW11142   4.344   3.648   5.163
 2967SOL    HW111143   4.252   3.631   5.198
 2967SOL    HW211144   4.372   3.740   5.189
 2968SOL     OW11145   4.330   2.826   3.847
 2968SOL    HW111146   4.337   2.910   3.793
 2968SOL    HW211147   4.376   2.839   3.935
 2969SOL     OW11148   3.846   2.505   4.287
 2969SOL    HW111149   3.801   2.417   4.304
 2969SOL    HW211150   3.845   2.559   4.371
 2970SOL     OW11151   3.751   3.458   3.841
 2970SOL    HW111152   3.732   3.362   3.862
 2970SOL    HW211153   3.718   3.516   3.916
 2971SOL     OW11154   4.337   3.227   4.450
 2971SOL    HW111155   4.288   3.140   4.459
 2971SOL    HW211156   4.314   3.270   4.363
 2972SOL     OW11157   4.533   1.866   4.226
 2972SOL    HW111158   4.573   1.957   4.217
 2972SOL    HW211159   4.433   1.874   4.232
 2973SOL     OW11160   4.322   2.591   3.994
 2973SOL    HW111161   4.346   2.660   3.926
 2973SOL    HW211162   4.244   2.624   4.048
 2974SOL     OW11163   5.005   2.207   4.668
 2974SOL    HW111164   4.919   2.157   4.655
 2974SOL    HW211165   5.067   2.153   4.724
 2975SOL     OW11166   4.715   2.272   4.966
 2975SOL    HW111167   4.638   2.306   5.020
 2975SOL    HW211168   4.681   2.221   4.887
 2976SOL     OW11169   4.765   2.563   4.153
 2976SOL    HW111170   4.791   2.559   4.249
 2976SOL    HW211171   4.680   2.512   4.139
 2977SOL     OW11172   3.800   2.673   4.513
 2977SOL    HW111173   3.899   2.661   4.522
 2977SOL    HW211174   3.776   2.768   4.534
 2978SOL     OW11175   4.589   2.210   3.919
 2978SOL    HW111176   4.648   2.273   3.870
 2978SOL    HW211177   4.608   2.116   3.890
 2979SOL     OW11178   4.274   2.058   4.609
 2979SOL    HW111179   4.269   2.053   4.709
 2979SOL    HW211180   4.276   2.154   4.580
 2980SOL     OW11181   4.732   3.318   4.201
 2980SOL    HW111182   4.686   3.390   4.149
 2980SOL    HW211183   4.728   3.338   4.299
 2981SOL     OW11184   4.075   3.663   4.577
 2981SOL    HW111185   4.125   3.577   4.583
 2981SOL    HW211186   4.140   3.740   4.574
 2982SOL     OW11187   4.045   2.805   3.966
 2982SOL    HW111188   4.127   2.844   3.924
 2982SOL    HW211189   4.018   2.723   3.917
 2983SOL     OW11190   4.835   3.638   3.961
 2983SOL    HW111191   4.775   3.576   4.011
 2983SOL    HW211192   4.866   3.594   3.876
 2984SOL     OW11193   4.188   3.605   4.047
 2984SOL    HW111194   4.221   3.644   4.133
 2984SOL    HW211195   4.264   3.598   3.982
 2985SOL     OW11196   3.973   3.647   4.965
 2985SOL    HW111197   4.030   3.582   5.015
 2985SOL    HW211198   3.957   3.614   4.872
 2986SOL     OW11199   4.664   3.560   4.628
 2986SOL    HW111200   4.744   3.503   4.649
 2986SOL    HW211201   4.615   3.520   4.551
 2987SOL     OW11202   4.106   2.562   4.204
 2987SOL    HW111203   4.151   2.472   4.201
 2987SOL    HW211204   4.012   2.551   4.237
 2988SOL     OW11205   4.338   1.984   3.841
 2988SOL    HW111206   4.436   1.962   3.848
 2988SOL    HW211207   4.307   1.967   3.748
 2989SOL     OW11208   4.527   3.264   4.648
 2989SOL    HW111209   4.617   3.278   4.606
 2989SOL    HW211210   4.456   3.266   4.577
 2990SOL     OW11211   4.646   2.365   4.623
 2990SOL    HW111212   4.621   2.356   4.527
 2990SOL    HW211213   4.694   2.283   4.654
 2991SOL     OW11214   4.263   1.926   4.236
 2991SOL    HW111215   4.182   1.927   4.294
 2991SOL    HW211216   4.266   2.009   4.181
 2992SOL     OW11217   4.021   1.897   3.895
 2992SOL    HW111218   4.070   1.981   3.874
 2992SOL    HW211219   4.083   1.832   3.940
 2993SOL     OW11220   4.659   2.098   4.204
 2993SOL    HW111221   4.611   2.139   4.126
 2993SOL    HW211222   4.758   2.096   4.185
 2994SOL     OW11223   4.951   3.432   4.517
 2994SOL    HW111224   4.972   3.506   4.452
 2994SOL    HW211225   5.019   3.432   4.590
 2995SOL     OW11226   4.183   3.014   4.465
 2995SOL    HW111227   4.112   2.987   4.530
 2995SOL    HW211228   4.157   2.986   4.372
 2996SOL     OW11229   4.995   3.659   4.315
 2996SOL    HW111230   5.039   3.723   4.251
 2996SOL    HW211231   4.945   3.711   4.385
 2997SOL     OW11232   4.756   2.411   3.740
 2997SOL    HW111233   4.715   2.493   3.701
 2997SOL    HW211234   4.820   2.437   3.813
 2998SOL     OW11235   4.285   2.084   4.871
 2998SOL    HW111236   4.323   2.000   4.908
 2998SOL    HW211237   4.197   2.103   4.915
 2999SOL     OW11238   4.590   2.316   4.366
 2999SOL    HW111239   4.558   2.388   4.304
 2999SOL    HW211240   4.614   2.235   4.313
 3000SOL     OW11241   4.741   1.901   4.477
 3000SOL    HW111242   4.669   1.906   4.408
 3000SOL    HW211243   4.717   1.832   4.546
 3001SOL     OW11244   4.212   3.247   3.898
 3001SOL    HW111245   4.125   3.232   3.945
 3001SOL    HW211246   4.195   3.273   3.803
 3002SOL     OW11247   5.388   3.142   4.381
 3002SOL    HW111248   5.487   3.150   4.395
 3002SOL    HW211249   5.343   3.226   4.412
 3003SOL     OW11250   4.251   2.118   4.052
 3003SOL    HW111251   4.278   2.059   3.977
 3003SOL    HW211252   4.251   2.213   4.021
 3004SOL     OW11253   5.316   3.491   5.349
 3004SOL    HW111254   5.343   3.525   5.259
 3004SOL    HW211255   5.395   3.453   5.395
 3005SOL     OW11256   4.835   3.057   4.824
 3005SOL    HW111257   4.795   3.101   4.905
 3005SOL    HW211258   4.794   3.094   4.741
 3006SOL     OW11259   4.429   2.912   4.092
 3006SOL    HW111260   4.415   2.919   4.191
 3006SOL    HW211261   4.513   2.861   4.074
 3007SOL     OW11262   4.091   2.962   4.225
 3007SOL    HW111263   4.084   3.045   4.169
 3007SOL    HW211264   4.095   2.882   4.165
 3008SOL     OW11265   4.976   3.210   4.112
 3008SOL    HW111266   5.026   3.287   4.152
 3008SOL    HW211267   4.881   3.212   4.144
 3009SOL     OW11268   4.078   3.372   5.053
 3009SOL    HW111269   4.057   3.328   4.966
 3009SOL    HW211270   4.175   3.398   5.056
 3010SOL     OW11271   5.084   2.724   4.769
 3010SOL    HW111272   5.009   2.724   4.703
 3010SOL    HW211273   5.121   2.632   4.778
 3011SOL     OW11274   4.933   2.387   3.999
 3011SOL    HW111275   4.946   2.303   4.053
 3011SOL    HW211276   4.904   2.461   4.059
 3012SOL     OW11277   4.031   2.075   4.955
 3012SOL    HW111278   4.008   2.112   5.045
 3012SOL    HW211279   4.001   1.980   4.949
 3013SOL     OW11280   3.761   3.172   5.006
 3013SOL    HW111281   3.814   3.123   5.074
 3013SOL    HW211282   3.783   3.270   5.011
 3014SOL     OW11283   4.031   1.925   4.342
 3014SOL    HW111284   4.020   2.019   4.375
 3014SOL    HW211285   4.026   1.862   4.419
 3015SOL     OW11286   5.346   2.229   4.098
 3015SOL    HW111287   5.348   2.153   4.162
 3015SOL    HW211288   5.298   2.306   4.138
 3016SOL     OW11289   5.027   2.700   3.766
 3016SOL    HW111290   5.061   2.607   3.781
 3016SOL    HW211291   5.045   2.727   3.671
 3017SOL     OW11292   4.792   3.195   4.573
 3017SOL    HW111293   4.799   3.111   4.518
 3017SOL    HW211294   4.854   3.264   4.537
 3018SOL     OW11295   4.043   2.672   4.673
 3018SOL    HW111296   4.136   2.708   4.678
 3018SOL    HW211297   4.037   2.587   4.725
 3019SOL     OW11298   4.063   2.371   4.730
 3019SOL    HW111299   4.011   2.288   4.713
 3019SOL    HW211300   4.140   2.376   4.666
 3020SOL     OW11301   4.884   2.069   5.201
 3020SOL    HW111302   4.884   2.133   5.278
 3020SOL    HW211303   4.912   2.117   5.118
 3021SOL     OW11304   3.812   3.663   4.651
 3021SOL    HW111305   3.770   3.577   4.624
 3021SOL    HW211306   3.906   3.666   4.617
 3022SOL     OW11307   4.228   3.430   4.634
 3022SOL    HW111308   4.294   3.504   4.643
 3022SOL    HW211309   4.272   3.351   4.592
 3023SOL     OW11310   3.764   2.406   4.838
 3023SOL    HW111311   3.849   2.373   4.797
 3023SOL    HW211312   3.777   2.421   4.936
 3024SOL     OW11313   4.539   2.434   4.049
 3024SOL    HW111314   4.546   2.345   4.003
 3024SOL    HW211315   4.445   2.468   4.041
 3025SOL     OW11316   4.654   3.540   5.189
 3025SOL    HW111317   4.630   3.522   5.094
 3025SOL    HW211318   4.684   3.634   5.199
 3026SOL     OW11319   4.197   2.362   3.915
 3026SOL    HW111320   4.258   2.442   3.919
 3026SOL    HW211321   4.102   2.393   3.922
 3027SOL     OW11322   5.071   2.921   4.958
 3027SOL    HW111323   5.095   2.858   4.884
 3027SOL    HW211324   4.981   2.961   4.940
 3028SOL     OW11325   4.976   3.593   4.852
 3028SOL    HW111326   5.060   3.598   4.798
 3028SOL    HW211327   4.953   3.497   4.870
 3029SOL     OW11328   3.807   3.120   4.746
 3029SOL    HW111329   3.802   3.119   4.846
 3029SOL    HW211330   3.724   3.079   4.708
 3030SOL     OW11331   5.004   2.789   4.396
 3030SOL    HW111332   5.064   2.708   4.398
 3030SOL    HW211333   5.044   2.858   4.336
 3031SOL     OW11334   4.396   3.478   3.878
 3031SOL    HW111335   4.405   3.488   3.779
 3031SOL    HW211336   4.356   3.389   3.899
 3032SOL     OW11337   3.987   2.188   4.444
 3032SOL    HW111338   3.908   2.239   4.410
 3032SOL    HW211339   3.978   2.173   4.542
 3033SOL     OW11340   4.918   3.474   3.755
 3033SOL    HW111341   4.924   3.381   3.792
 3033SOL    HW211342   4.859   3.474   3.675
 3034SOL     OW11343   4.640   2.772   4.015
 3034SOL    HW111344   4.703   2.810   3.947
 3034SOL    HW211345   4.680   2.689   4.054
 3035SOL     OW11346   4.738   2.098   4.695
 3035SOL    HW111347   4.730   2.062   4.602
 3035SOL    HW211348   4.736   2.022   4.760
 3036SOL     OW11349   4.314   3.349   4.215
 3036SOL    HW111350   4.356   3.291   4.145
 3036SOL    HW211351   4.270   3.428   4.171
 3037SOL     OW11352   3.979   3.210   4.014
 3037SOL    HW111353   3.883   3.211   3.987
 3037SOL    HW211354   3.991   3.263   4.098
 3038SOL     OW11355   3.799   2.207   3.757
 3038SOL    HW111356   3.707   2.179   3.728
 3038SOL    HW211357   3.830   2.284   3.701
 3039SOL     OW11358   3.796   2.028   4.042
 3039SOL    HW111359   3.779   2.111   3.988
 3039SOL    HW211360   3.886   1.991   4.020
 3040SOL     OW11361   4.949   2.187   4.173
 3040SOL    HW111362   5.014   2.113   4.162
 3040SOL    HW211363   4.969   2.237   4.257
 3041SOL     OW11364   4.583   3.236   3.740
 3041SOL    HW111365   4.537   3.251   3.828
 3041SOL    HW211366   4.627   3.321   3.710
 3042SOL     OW11367   4.385   3.652   4.677
 3042SOL    HW111368   4.339   3.740   4.664
 3042SOL    HW211369   4.484   3.664   4.670
 3043SOL     OW11370   4.807   2.846   3.811
 3043SOL    HW111371   4.784   2.899   3.729
 3043SOL    HW211372   4.888   2.790   3.792
 3044SOL     OW11373   3.803   3.102   4.377
 3044SOL    HW111374   3.802   3.055   4.465
 3044SOL    HW211375   3.885   3.074   4.326
 3045SOL     OW11376   4.152   2.286   4.244
 3045SOL    HW111377   4.182   2.214   4.182
 3045SOL    HW211378   4.113   2.246   4.327
 3046SOL     OW11379   4.536   3.448   4.411
 3046SOL    HW111380   4.568   3.458   4.317
 3046SOL    HW211381   4.457   3.386   4.413
 3047SOL     OW11382   4.725   1.896   4.878
 3047SOL    HW111383   4.662   1.824   4.847
 3047SOL    HW211384   4.818   1.860   4.878
 3048SOL     OW11385   4.494   3.192   4.025
 3048SOL    HW111386   4.448   3.105   4.042
 3048SOL    HW211387   4.585   3.189   4.066
 3049SOL     OW11388   5.076   1.914   3.892
 3049SOL    HW111389   5.111   1.873   3.808
 3049SOL    HW211390   4.986   1.876   3.912
 3050SOL     OW11391   4.599   3.508   4.061
 3050SOL    HW111392   4.522   3.473   4.007
 3050SOL    HW211393   4.567   3.579   4.123
 3051SOL     OW11394   3.954   4.352   0.113
 3051SOL    HW111395   3.861   4.350   0.150
 3051SOL    HW211396   3.955   4.313   0.021
 3052SOL     OW11397   3.949   3.999   0.996
 3052SOL    HW111398   3.984   3.982   1.088
 3052SOL    HW211399   3.861   3.954   0.984
 3053SOL     OW11400   3.743   4.092   0.647
 3053SOL    HW111401   3.661   4.135   0.686
 3053SOL    HW211402   3.715   4.019   0.584
 3054SOL     OW11403   4.293   4.999   1.165
 3054SOL    HW111404   4.200   4.992   1.128
 3054SOL    HW211405   4.304   5.088   1.209
 3055SOL     OW11406   4.859   4.427   0.717
 3055SOL    HW111407   4.916   4.505   0.692
 3055SOL    HW211408   4.799   4.453   0.793
 3056SOL     OW11409   4.492   4.868   1.023
 3056SOL    HW111410   4.414   4.885   1.083
 3056SOL    HW211411   4.526   4.955   0.987
 3057SOL     OW11412   4.574   4.522   1.823
 3057SOL    HW111413   4.570   4.598   1.888
 3057SOL    HW211414   4.596   4.558   1.732
 3058SOL     OW11415   4.409   4.736   0.665
 3058SOL    HW111416   4.478   4.720   0.735
 3058SOL    HW211417   4.336   4.793   0.703
 3059SOL     OW11418   4.410   4.885   1.803
 3059SOL    HW111419   4.470   4.964   1.817
 3059SOL    HW211420   4.324   4.916   1.762
 3060SOL     OW11421   4.059   5.159   1.061
 3060SOL    HW111422   3.981   5.128   1.008
 3060SOL    HW211423   4.117   5.217   1.004
 3061SOL     OW11424   4.162   4.116   1.499
 3061SOL    HW111425   4.244   4.060   1.508
 3061SOL    HW211426   4.081   4.058   1.503
 3062SOL     OW11427   3.964   4.815   0.886
 3062SOL    HW111428   3.978   4.731   0.938
 3062SOL    HW211429   3.909   4.879   0.941
 3063SOL     OW11430   4.330   4.688   0.123
 3063SOL    HW111431   4.337   4.772   0.069
 3063SOL    HW211432   4.376   4.701   0.211
 3064SOL     OW11433   3.846   4.367   0.563
 3064SOL    HW111434   3.801   4.279   0.580
 3064SOL    HW211435   3.845   4.421   0.647
 3065SOL     OW11436   3.837   4.461   1.597
 3065SOL    HW111437   3.925   4.448   1.642
 3065SOL    HW211438   3.824   4.558   1.575
 3066SOL     OW11439   4.533   3.728   0.502
 3066SOL    HW111440   4.573   3.819   0.493
 3066SOL    HW211441   4.433   3.736   0.508
 3067SOL     OW11442   3.921   4.700   1.264
 3067SOL    HW111443   4.010   4.655   1.250
 3067SOL    HW211444   3.848   4.635   1.245
 3068SOL     OW11445   4.041   3.975   1.801
 3068SOL    HW111446   4.112   4.046   1.807
 3068SOL    HW211447   3.953   4.014   1.829
 3069SOL     OW11448   4.322   4.453   0.270
 3069SOL    HW111449   4.346   4.522   0.202
 3069SOL    HW211450   4.244   4.486   0.324
 3070SOL     OW11451   5.005   4.069   0.944
 3070SOL    HW111452   4.919   4.019   0.931
 3070SOL    HW211453   5.067   4.015   1.000
 3071SOL     OW11454   4.531   4.329   1.465
 3071SOL    HW111455   4.484   4.326   1.554
 3071SOL    HW211456   4.480   4.274   1.399
 3072SOL     OW11457   4.697   4.614   1.572
 3072SOL    HW111458   4.743   4.530   1.543
 3072SOL    HW211459   4.641   4.648   1.497
 3073SOL     OW11460   4.765   4.425   0.429
 3073SOL    HW111461   4.791   4.421   0.525
 3073SOL    HW211462   4.680   4.374   0.415
 3074SOL     OW11463   3.800   4.535   0.789
 3074SOL    HW111464   3.899   4.523   0.798
 3074SOL    HW211465   3.776   4.630   0.810
 3075SOL     OW11466   4.589   4.072   0.195
 3075SOL    HW111467   4.648   4.135   0.146
 3075SOL    HW211468   4.608   3.978   0.166
 3076SOL     OW11469   4.274   3.920   0.885
 3076SOL    HW111470   4.269   3.915   0.985
 3076SOL    HW211471   4.276   4.016   0.856
 3077SOL     OW11472   4.045   4.667   0.242
 3077SOL    HW111473   4.127   4.706   0.200
 3077SOL    HW211474   4.018   4.585   0.193
 3078SOL     OW11475   3.926   4.009   1.498
 3078SOL    HW111476   3.846   4.069   1.485
 3078SOL    HW211477   3.916   3.960   1.584
 3079SOL     OW11478   4.106   4.424   0.480
 3079SOL    HW111479   4.151   4.334   0.477
 3079SOL    HW211480   4.012   4.413   0.513
 3080SOL     OW11481   4.505   3.988   1.749
 3080SOL    HW111482   4.572   3.927   1.792
 3080SOL    HW211483   4.432   4.007   1.814
 3081SOL     OW11484   4.527   5.126   0.924
 3081SOL    HW111485   4.617   5.140   0.882
 3081SOL    HW211486   4.456   5.128   0.853
 3082SOL     OW11487   4.646   4.227   0.899
 3082SOL    HW111488   4.621   4.218   0.803
 3082SOL    HW211489   4.694   4.145   0.930
 3083SOL     OW11490   4.263   3.788   0.512
 3083SOL    HW111491   4.182   3.789   0.570
 3083SOL    HW211492   4.266   3.871   0.457
 3084SOL     OW11493   4.021   3.759   0.171
 3084SOL    HW111494   4.070   3.843   0.150
 3084SOL    HW211495   4.083   3.694   0.216
 3085SOL     OW11496   4.659   3.960   0.480
 3085SOL    HW111497   4.611   4.001   0.402
 3085SOL    HW211498   4.758   3.958   0.461
 3086SOL     OW11499   4.800   4.407   1.464
 3086SOL    HW111500   4.720   4.346   1.467
 3086SOL    HW211501   4.881   4.354   1.440
 3087SOL     OW11502   4.951   5.294   0.793
 3087SOL    HW111503   4.972   5.368   0.728
 3087SOL    HW211504   5.019   5.294   0.866
 3088SOL     OW11505   4.183   4.876   0.741
 3088SOL    HW111506   4.112   4.849   0.806
 3088SOL    HW211507   4.157   4.848   0.648
 3089SOL     OW11508   4.756   4.273   0.016
 3089SOL    HW111509   4.715   4.355  -0.023
 3089SOL    HW211510   4.820   4.299   0.089
 3090SOL     OW11511   3.802   4.280   1.386
 3090SOL    HW111512   3.894   4.279   1.345
 3090SOL    HW211513   3.796   4.354   1.453
 3091SOL     OW11514   4.590   4.178   0.642
 3091SOL    HW111515   4.558   4.250   0.580
 3091SOL    HW211516   4.614   4.097   0.589
 3092SOL     OW11517   4.251   3.980   0.328
 3092SOL    HW111518   4.278   3.921   0.253
 3092SOL    HW211519   4.251   4.075   0.297
 3093SOL     OW11520   4.639   3.813   1.402
 3093SOL    HW111521   4.664   3.793   1.307
 3093SOL    HW211522   4.711   3.869   1.444
 3094SOL     OW11523   4.704   4.840   1.719
 3094SOL    HW111524   4.605   4.846   1.729
 3094SOL    HW211525   4.727   4.760   1.663
 3095SOL     OW11526   4.429   4.774   0.368
 3095SOL    HW111527   4.415   4.781   0.467
 3095SOL    HW211528   4.513   4.723   0.350
 3096SOL     OW11529   4.134   4.537   1.251
 3096SOL    HW111530   4.220   4.549   1.301
 3096SOL    HW211531   4.092   4.450   1.278
 3097SOL     OW11532   4.998   4.110   1.262
 3097SOL    HW111533   5.019   4.184   1.326
 3097SOL    HW211534   4.909   4.127   1.219
 3098SOL     OW11535   4.091   4.824   0.501
 3098SOL    HW111536   4.084   4.907   0.445
 3098SOL    HW211537   4.095   4.744   0.441
 3099SOL     OW11538   4.290   4.261   0.865
 3099SOL    HW111539   4.302   4.327   0.791
 3099SOL    HW211540   4.336   4.295   0.948
 3100SOL     OW11541   4.126   4.475   1.598
 3100SOL    HW111542   4.194   4.530   1.551
 3100SOL    HW211543   4.166   4.387   1.625
 3101SOL     OW11544   4.737   3.829   1.770
 3101SOL    HW111545   4.743   3.914   1.718
 3101SOL    HW211546   4.769   3.753   1.713
 3102SOL     OW11547   4.228   3.774   1.740
 3102SOL    HW111548   4.186   3.717   1.670
 3102SOL    HW211549   4.162   3.843   1.772
 3103SOL     OW11550   4.297   4.594   1.029
 3103SOL    HW111551   4.341   4.683   1.020
 3103SOL    HW211552   4.234   4.594   1.106
 3104SOL     OW11553   5.084   4.586   1.045
 3104SOL    HW111554   5.009   4.586   0.979
 3104SOL    HW211555   5.121   4.494   1.054
 3105SOL     OW11556   4.933   4.249   0.275
 3105SOL    HW111557   4.946   4.165   0.329
 3105SOL    HW211558   4.904   4.323   0.335
 3106SOL     OW11559   4.031   3.937   1.231
 3106SOL    HW111560   4.008   3.974   1.321
 3106SOL    HW211561   4.001   3.842   1.225
 3107SOL     OW11562   4.456   4.358   1.064
 3107SOL    HW111563   4.515   4.332   0.988
 3107SOL    HW211564   4.428   4.454   1.053
 3108SOL     OW11565   4.031   3.787   0.618
 3108SOL    HW111566   4.020   3.881   0.651
 3108SOL    HW211567   4.026   3.724   0.695
 3109SOL     OW11568   5.346   4.091   0.374
 3109SOL    HW111569   5.348   4.015   0.438
 3109SOL    HW211570   5.298   4.168   0.414
 3110SOL     OW11571   4.747   4.490   0.966
 3110SOL    HW111572   4.762   4.511   1.062
 3110SOL    HW211573   4.717   4.395   0.957
 3111SOL     OW11574   4.074   4.622   1.804
 3111SOL    HW111575   4.150   4.666   1.852
 3111SOL    HW211576   4.109   4.575   1.722
 3112SOL     OW11577   5.027   4.562   0.042
 3112SOL    HW111578   5.061   4.469   0.057
 3112SOL    HW211579   5.045   4.589  -0.053
 3113SOL     OW11580   4.043   4.534   0.949
 3113SOL    HW111581   4.136   4.570   0.954
 3113SOL    HW211582   4.037   4.449   1.001
 3114SOL     OW11583   4.063   4.233   1.006
 3114SOL    HW111584   4.011   4.150   0.989
 3114SOL    HW211585   4.140   4.238   0.942
 3115SOL     OW11586   4.862   4.104   1.678
 3115SOL    HW111587   4.817   4.167   1.742
 3115SOL    HW211588   4.955   4.135   1.661
 3116SOL     OW11589   4.884   3.931   1.477
 3116SOL    HW111590   4.884   3.995   1.554
 3116SOL    HW211591   4.912   3.979   1.394
 3117SOL     OW11592   4.726   4.520   1.238
 3117SOL    HW111593   4.767   4.488   1.324
 3117SOL    HW211594   4.630   4.493   1.235
 3118SOL     OW11595   3.764   4.268   1.114
 3118SOL    HW111596   3.849   4.235   1.073
 3118SOL    HW211597   3.777   4.283   1.212
 3119SOL     OW11598   3.913   4.244   1.722
 3119SOL    HW111599   3.972   4.204   1.652
 3119SOL    HW211600   3.855   4.315   1.681
 3120SOL     OW11601   4.539   4.296   0.325
 3120SOL    HW111602   4.546   4.207   0.279
 3120SOL    HW211603   4.445   4.330   0.317
 3121SOL     OW11604   4.197   4.224   0.191
 3121SOL    HW111605   4.258   4.304   0.195
 3121SOL    HW211606   4.102   4.255   0.198
 3122SOL     OW11607   5.071   4.783   1.234
 3122SOL    HW111608   5.095   4.720   1.160
 3122SOL    HW211609   4.981   4.823   1.216
 3123SOL     OW11610   3.807   4.982   1.022
 3123SOL    HW111611   3.802   4.981   1.122
 3123SOL    HW211612   3.724   4.941   0.984
 3124SOL     OW11613   4.627   3.810   0.133
 3124SOL    HW111614   4.678   3.811   0.047
 3124SOL    HW211615   4.683   3.768   0.204
 3125SOL     OW11616   4.554   4.997   1.422
 3125SOL    HW111617   4.549   5.030   1.517
 3125SOL    HW211618   4.468   5.016   1.376
 3126SOL     OW11619   3.987   4.050   0.720
 3126SOL    HW111620   3.908   4.101   0.686
 3126SOL    HW211621   3.978   4.035   0.818
 3127SOL     OW11622   4.546   4.726   1.372
 3127SOL    HW111623   4.586   4.725   1.280
 3127SOL    HW211624   4.556   4.818   1.412
 3128SOL     OW11625   4.640   4.634   0.291
 3128SOL    HW111626   4.703   4.672   0.223
 3128SOL    HW211627   4.680   4.551   0.330
 3129SOL     OW11628   4.096   5.012   1.490
 3129SOL    HW111629   4.083   5.105   1.456
 3129SOL    HW211630   4.012   4.960   1.477
 3130SOL     OW11631   3.829   4.737   1.726
 3130SOL    HW111632   3.752   4.704   1.780
 3130SOL    HW211633   3.914   4.707   1.768
 3131SOL     OW11634   4.396   3.927   1.489
 3131SOL    HW111635   4.486   3.911   1.449
 3131SOL    HW211636   4.404   3.932   1.588
 3132SOL     OW11637   5.164   4.580   1.398
 3132SOL    HW111638   5.107   4.632   1.335
 3132SOL    HW211639   5.260   4.592   1.374
 3133SOL     OW11640   3.796   3.890   0.318
 3133SOL    HW111641   3.779   3.973   0.264
 3133SOL    HW211642   3.886   3.853   0.296
 3134SOL     OW11643   4.337   4.566   1.431
 3134SOL    HW111644   4.393   4.647   1.414
 3134SOL    HW211645   4.396   4.486   1.434
 3135SOL     OW11646   4.440   4.289   1.708
 3135SOL    HW111647   4.459   4.354   1.782
 3135SOL    HW211648   4.500   4.209   1.717
 3136SOL     OW11649   4.949   4.049   0.449
 3136SOL    HW111650   5.014   3.975   0.438
 3136SOL    HW211651   4.969   4.099   0.533
 3137SOL     OW11652   4.318   4.469   0.652
 3137SOL    HW111653   4.368   4.554   0.633
 3137SOL    HW211654   4.230   4.471   0.604
 3138SOL     OW11655   4.583   4.680   0.861
 3138SOL    HW111656   4.637   4.611   0.909
 3138SOL    HW211657   4.551   4.749   0.927
 3139SOL     OW11658   4.807   4.708   0.087
 3139SOL    HW111659   4.784   4.761   0.005
 3139SOL    HW211660   4.888   4.652   0.068
 3140SOL     OW11661   3.803   4.964   0.653
 3140SOL    HW111662   3.802   4.917   0.741
 3140SOL    HW211663   3.885   4.936   0.602
 3141SOL     OW11664   4.152   4.148   0.520
 3141SOL    HW111665   4.182   4.076   0.458
 3141SOL    HW211666   4.113   4.108   0.603
 3142SOL     OW11667   4.041   4.271   1.280
 3142SOL    HW111668   4.079   4.212   1.352
 3142SOL    HW211669   4.081   4.245   1.192
 3143SOL     OW11670   4.494   5.054   0.301
 3143SOL    HW111671   4.448   4.967   0.318
 3143SOL    HW211672   4.585   5.051   0.342
 3144SOL     OW11673   3.763   4.801   0.300
 3144SOL    HW111674   3.862   4.790   0.291
 3144SOL    HW211675   3.723   4.715   0.332
 3145SOL     OW11676   3.954   4.352   1.975
 3145SOL    HW111677   3.861   4.350   2.012
 3145SOL    HW211678   3.955   4.313   1.883
 3146SOL     OW11679   3.949   3.999   2.858
 3146SOL    HW111680   3.984   3.982   2.950
 3146SOL    HW211681   3.861   3.954   2.846
 3147SOL     OW11682   3.743   4.092   2.509
 3147SOL    HW111683   3.661   4.135   2.548
 3147SOL    HW211684   3.715   4.019   2.446
 3148SOL     OW11685   4.859   4.427   2.579
 3148SOL    HW111686   4.916   4.505   2.554
 3148SOL    HW211687   4.799   4.453   2.655
 3149SOL     OW11688   4.492   4.868   2.885
 3149SOL    HW111689   4.414   4.885   2.945
 3149SOL    HW211690   4.526   4.955   2.849
 3150SOL     OW11691   4.574   4.522   3.685
 3150SOL    HW111692   4.570   4.598   3.750
 3150SOL    HW211693   4.596   4.558   3.594
 3151SOL     OW11694   4.409   4.736   2.527
 3151SOL    HW111695   4.478   4.720   2.597
 3151SOL    HW211696   4.336   4.793   2.565
 3152SOL     OW11697   4.410   4.885   3.665
 3152SOL    HW111698   4.470   4.964   3.679
 3152SOL    HW211699   4.324   4.916   3.624
 3153SOL     OW11700   4.162   4.116   3.361
 3153SOL    HW111701   4.244   4.060   3.370
 3153SOL    HW211702   4.081   4.058   3.365
 3154SOL     OW11703   4.330   4.688   1.985
 3154SOL    HW111704   4.337   4.772   1.931
 3154SOL    HW211705   4.376   4.701   2.073
 3155SOL     OW11706   3.846   4.367   2.425
 3155SOL    HW111707   3.801   4.279   2.442
 3155SOL    HW211708   3.845   4.421   2.509
 3156SOL     OW11709   3.837   4.461   3.459
 3156SOL    HW111710   3.925   4.448   3.504
 3156SOL    HW211711   3.824   4.558   3.437
 3157SOL     OW11712   5.017   4.952   3.285
 3157SOL    HW111713   5.054   4.879   3.227
 3157SOL    HW211714   5.069   4.957   3.370
 3158SOL     OW11715   4.533   3.728   2.364
 3158SOL    HW111716   4.573   3.819   2.355
 3158SOL    HW211717   4.433   3.736   2.370
 3159SOL     OW11718   3.921   4.700   3.126
 3159SOL    HW111719   4.010   4.655   3.112
 3159SOL    HW211720   3.848   4.635   3.107
 3160SOL     OW11721   4.322   4.453   2.132
 3160SOL    HW111722   4.346   4.522   2.064
 3160SOL    HW211723   4.244   4.486   2.186
 3161SOL     OW11724   4.531   4.329   3.327
 3161SOL    HW111725   4.484   4.326   3.416
 3161SOL    HW211726   4.480   4.274   3.261
 3162SOL     OW11727   4.697   4.614   3.434
 3162SOL    HW111728   4.743   4.530   3.405
 3162SOL    HW211729   4.641   4.648   3.359
 3163SOL     OW11730   4.765   4.425   2.291
 3163SOL    HW111731   4.791   4.421   2.387
 3163SOL    HW211732   4.680   4.374   2.277
 3164SOL     OW11733   4.589   4.072   2.057
 3164SOL    HW111734   4.648   4.135   2.008
 3164SOL    HW211735   4.608   3.978   2.028
 3165SOL     OW11736   4.274   3.920   2.747
 3165SOL    HW111737   4.269   3.915   2.847
 3165SOL    HW211738   4.276   4.016   2.718
 3166SOL     OW11739   4.045   4.667   2.104
 3166SOL    HW111740   4.127   4.706   2.062
 3166SOL    HW211741   4.018   4.585   2.055
 3167SOL     OW11742   3.926   4.009   3.360
 3167SOL    HW111743   3.846   4.069   3.347
 3167SOL    HW211744   3.916   3.960   3.446
 3168SOL     OW11745   4.106   4.424   2.342
 3168SOL    HW111746   4.151   4.334   2.339
 3168SOL    HW211747   4.012   4.413   2.375
 3169SOL     OW11748   4.338   3.846   1.979
 3169SOL    HW111749   4.436   3.824   1.986
 3169SOL    HW211750   4.307   3.829   1.886
 3170SOL     OW11751   4.527   5.126   2.786
 3170SOL    HW111752   4.617   5.140   2.744
 3170SOL    HW211753   4.456   5.128   2.715
 3171SOL     OW11754   4.646   4.227   2.761
 3171SOL    HW111755   4.621   4.218   2.665
 3171SOL    HW211756   4.694   4.145   2.792
 3172SOL     OW11757   4.263   3.788   2.374
 3172SOL    HW111758   4.182   3.789   2.432
 3172SOL    HW211759   4.266   3.871   2.319
 3173SOL     OW11760   4.021   3.759   2.033
 3173SOL    HW111761   4.070   3.843   2.012
 3173SOL    HW211762   4.083   3.694   2.078
 3174SOL     OW11763   4.659   3.960   2.342
 3174SOL    HW111764   4.611   4.001   2.264
 3174SOL    HW211765   4.758   3.958   2.323
 3175SOL     OW11766   4.800   4.407   3.326
 3175SOL    HW111767   4.720   4.346   3.329
 3175SOL    HW211768   4.881   4.354   3.302
 3176SOL     OW11769   4.951   5.294   2.655
 3176SOL    HW111770   4.972   5.368   2.590
 3176SOL    HW211771   5.019   5.294   2.728
 3177SOL     OW11772   4.756   4.273   1.878
 3177SOL    HW111773   4.715   4.355   1.839
 3177SOL    HW211774   4.820   4.299   1.951
 3178SOL     OW11775   3.802   4.280   3.248
 3178SOL    HW111776   3.894   4.279   3.207
 3178SOL    HW211777   3.796   4.354   3.315
 3179SOL     OW11778   4.285   3.946   3.009
 3179SOL    HW111779   4.323   3.862   3.046
 3179SOL    HW211780   4.197   3.965   3.053
 3180SOL     OW11781   4.590   4.178   2.504
 3180SOL    HW111782   4.558   4.250   2.442
 3180SOL    HW211783   4.614   4.097   2.451
 3181SOL     OW11784   4.741   3.763   2.615
 3181SOL    HW111785   4.669   3.768   2.546
 3181SOL    HW211786   4.717   3.694   2.684
 3182SOL     OW11787   4.251   3.980   2.190
 3182SOL    HW111788   4.278   3.921   2.115
 3182SOL    HW211789   4.251   4.075   2.159
 3183SOL     OW11790   4.639   3.813   3.264
 3183SOL    HW111791   4.664   3.793   3.169
 3183SOL    HW211792   4.711   3.869   3.306
 3184SOL     OW11793   4.704   4.840   3.581
 3184SOL    HW111794   4.605   4.846   3.591
 3184SOL    HW211795   4.727   4.760   3.525
 3185SOL     OW11796   4.429   4.774   2.230
 3185SOL    HW111797   4.415   4.781   2.329
 3185SOL    HW211798   4.513   4.723   2.212
 3186SOL     OW11799   4.134   4.537   3.113
 3186SOL    HW111800   4.220   4.549   3.163
 3186SOL    HW211801   4.092   4.450   3.140
 3187SOL     OW11802   4.091   4.824   2.363
 3187SOL    HW111803   4.084   4.907   2.307
 3187SOL    HW211804   4.095   4.744   2.303
 3188SOL     OW11805   4.290   4.261   2.727
 3188SOL    HW111806   4.302   4.327   2.653
 3188SOL    HW211807   4.336   4.295   2.810
 3189SOL     OW11808   4.976   5.072   2.250
 3189SOL    HW111809   5.026   5.149   2.290
 3189SOL    HW211810   4.881   5.074   2.282
 3190SOL     OW11811   4.126   4.475   3.460
 3190SOL    HW111812   4.194   4.530   3.413
 3190SOL    HW211813   4.166   4.387   3.487
 3191SOL     OW11814   4.737   3.829   3.632
 3191SOL    HW111815   4.743   3.914   3.580
 3191SOL    HW211816   4.769   3.753   3.575
 3192SOL     OW11817   4.297   4.594   2.891
 3192SOL    HW111818   4.341   4.683   2.882
 3192SOL    HW211819   4.234   4.594   2.968
 3193SOL     OW11820   5.084   4.586   2.907
 3193SOL    HW111821   5.009   4.586   2.841
 3193SOL    HW211822   5.121   4.494   2.916
 3194SOL     OW11823   4.933   4.249   2.137
 3194SOL    HW111824   4.946   4.165   2.191
 3194SOL    HW211825   4.904   4.323   2.197
 3195SOL     OW11826   4.031   3.937   3.093
 3195SOL    HW111827   4.008   3.974   3.183
 3195SOL    HW211828   4.001   3.842   3.087
 3196SOL     OW11829   4.456   4.358   2.926
 3196SOL    HW111830   4.515   4.332   2.850
 3196SOL    HW211831   4.428   4.454   2.915
 3197SOL     OW11832   4.031   3.787   2.480
 3197SOL    HW111833   4.020   3.881   2.513
 3197SOL    HW211834   4.026   3.724   2.557
 3198SOL     OW11835   5.346   4.091   2.236
 3198SOL    HW111836   5.348   4.015   2.300
 3198SOL    HW211837   5.298   4.168   2.276
 3199SOL     OW11838   4.747   4.490   2.828
 3199SOL    HW111839   4.762   4.511   2.924
 3199SOL    HW211840   4.717   4.395   2.819
 3200SOL     OW11841   4.074   4.622   3.666
 3200SOL    HW111842   4.150   4.666   3.714
 3200SOL    HW211843   4.109   4.575   3.584
 3201SOL     OW11844   5.027   4.562   1.904
 3201SOL    HW111845   5.061   4.469   1.919
 3201SOL    HW211846   5.045   4.589   1.809
 3202SOL     OW11847   4.043   4.534   2.811
 3202SOL    HW111848   4.136   4.570   2.816
 3202SOL    HW211849   4.037   4.449   2.863
 3203SOL     OW11850   4.063   4.233   2.868
 3203SOL    HW111851   4.011   4.150   2.851
 3203SOL    HW211852   4.140   4.238   2.804
 3204SOL     OW11853   4.862   4.104   3.540
 3204SOL    HW111854   4.817   4.167   3.604
 3204SOL    HW211855   4.955   4.135   3.523
 3205SOL     OW11856   4.726   4.520   3.100
 3205SOL    HW111857   4.767   4.488   3.186
 3205SOL    HW211858   4.630   4.493   3.097
 3206SOL     OW11859   3.764   4.268   2.976
 3206SOL    HW111860   3.849   4.235   2.935
 3206SOL    HW211861   3.777   4.283   3.074
 3207SOL     OW11862   4.539   4.296   2.187
 3207SOL    HW111863   4.546   4.207   2.141
 3207SOL    HW211864   4.445   4.330   2.179
 3208SOL     OW11865   4.395   4.188   3.131
 3208SOL    HW111866   4.361   4.099   3.101
 3208SOL    HW211867   4.421   4.242   3.051
 3209SOL     OW11868   4.197   4.224   2.053
 3209SOL    HW111869   4.258   4.304   2.057
 3209SOL    HW211870   4.102   4.255   2.060
 3210SOL     OW11871   5.071   4.783   3.096
 3210SOL    HW111872   5.095   4.720   3.022
 3210SOL    HW211873   4.981   4.823   3.078
 3211SOL     OW11874   5.004   4.651   2.534
 3211SOL    HW111875   5.064   4.570   2.536
 3211SOL    HW211876   5.044   4.720   2.474
 3212SOL     OW11877   3.987   4.050   2.582
 3212SOL    HW111878   3.908   4.101   2.548
 3212SOL    HW211879   3.978   4.035   2.680
 3213SOL     OW11880   4.546   4.726   3.234
 3213SOL    HW111881   4.586   4.725   3.142
 3213SOL    HW211882   4.556   4.818   3.274
 3214SOL     OW11883   4.640   4.634   2.153
 3214SOL    HW111884   4.703   4.672   2.085
 3214SOL    HW211885   4.680   4.551   2.192
 3215SOL     OW11886   4.763   4.822   2.558
 3215SOL    HW111887   4.693   4.775   2.612
 3215SOL    HW211888   4.822   4.754   2.515
 3216SOL     OW11889   4.738   3.960   2.833
 3216SOL    HW111890   4.730   3.924   2.740
 3216SOL    HW211891   4.736   3.884   2.898
 3217SOL     OW11892   3.829   4.737   3.588
 3217SOL    HW111893   3.752   4.704   3.642
 3217SOL    HW211894   3.914   4.707   3.630
 3218SOL     OW11895   5.164   4.580   3.260
 3218SOL    HW111896   5.107   4.632   3.197
 3218SOL    HW211897   5.260   4.592   3.236
 3219SOL     OW11898   3.796   3.890   2.180
 3219SOL    HW111899   3.779   3.973   2.126
 3219SOL    HW211900   3.886   3.853   2.158
 3220SOL     OW11901   4.337   4.566   3.293
 3220SOL    HW111902   4.393   4.647   3.276
 3220SOL    HW211903   4.396   4.486   3.296
 3221SOL     OW11904   4.440   4.289   3.570
 3221SOL    HW111905   4.459   4.354   3.644
 3221SOL    HW211906   4.500   4.209   3.579
 3222SOL     OW11907   5.174   4.944   3.495
 3222SOL    HW111908   5.165   4.934   3.594
 3222SOL    HW211909   5.270   4.937   3.469
 3223SOL     OW11910   4.318   4.469   2.514
 3223SOL    HW111911   4.368   4.554   2.495
 3223SOL    HW211912   4.230   4.471   2.466
 3224SOL     OW11913   4.583   4.680   2.723
 3224SOL    HW111914   4.637   4.611   2.771
 3224SOL    HW211915   4.551   4.749   2.789
 3225SOL     OW11916   4.807   4.708   1.949
 3225SOL    HW111917   4.784   4.761   1.867
 3225SOL    HW211918   4.888   4.652   1.930
 3226SOL     OW11919   3.803   4.964   2.515
 3226SOL    HW111920   3.802   4.917   2.603
 3226SOL    HW211921   3.885   4.936   2.464
 3227SOL     OW11922   4.152   4.148   2.382
 3227SOL    HW111923   4.182   4.076   2.320
 3227SOL    HW211924   4.113   4.108   2.465
 3228SOL     OW11925   4.041   4.271   3.142
 3228SOL    HW111926   4.079   4.212   3.214
 3228SOL    HW211927   4.081   4.245   3.054
 3229SOL     OW11928   4.725   3.758   3.016
 3229SOL    HW111929   4.662   3.686   2.985
 3229SOL    HW211930   4.818   3.722   3.016
 3230SOL     OW11931   4.494   5.054   2.163
 3230SOL    HW111932   4.448   4.967   2.180
 3230SOL    HW211933   4.585   5.051   2.204
 3231SOL     OW11934   3.763   4.801   2.162
 3231SOL    HW111935   3.862   4.790   2.153
 3231SOL    HW211936   3.723   4.715   2.194
 3232SOL     OW11937   3.949   3.999   4.720
 3232SOL    HW111938   3.984   3.982   4.812
 3232SOL    HW211939   3.861   3.954   4.708
 3233SOL     OW11940   3.743   4.092   4.371
 3233SOL    HW111941   3.661   4.135   4.410
 3233SOL    HW211942   3.715   4.019   4.308
 3234SOL     OW11943   4.293   4.999   4.889
 3234SOL    HW111944   4.200   4.992   4.852
 3234SOL    HW211945   4.304   5.088   4.933
 3235SOL     OW11946   4.859   4.427   4.441
 3235SOL    HW111947   4.916   4.505   4.416
 3235SOL    HW211948   4.799   4.453   4.517
 3236SOL     OW11949   4.492   4.868   4.747
 3236SOL    HW111950   4.414   4.885   4.807
 3236SOL    HW211951   4.526   4.955   4.711
 3237SOL     OW11952   4.409   4.736   4.389
 3237SOL    HW111953   4.478   4.720   4.459
 3237SOL    HW211954   4.336   4.793   4.427
 3238SOL     OW11955   4.059   5.159   4.785
 3238SOL    HW111956   3.981   5.128   4.732
 3238SOL    HW211957   4.117   5.217   4.728
 3239SOL     OW11958   3.964   4.815   4.610
 3239SOL    HW111959   3.978   4.731   4.662
 3239SOL    HW211960   3.909   4.879   4.665
 3240SOL     OW11961   3.846   4.367   4.287
 3240SOL    HW111962   3.801   4.279   4.304
 3240SOL    HW211963   3.845   4.421   4.371
 3241SOL     OW11964   3.921   4.700   4.988
 3241SOL    HW111965   4.010   4.655   4.974
 3241SOL    HW211966   3.848   4.635   4.969
 3242SOL     OW11967   5.005   4.069   4.668
 3242SOL    HW111968   4.919   4.019   4.655
 3242SOL    HW211969   5.067   4.015   4.724
 3243SOL     OW11970   4.715   4.134   4.966
 3243SOL    HW111971   4.638   4.168   5.020
 3243SOL    HW211972   4.681   4.083   4.887
 3244SOL     OW11973   4.765   4.425   4.153
 3244SOL    HW111974   4.791   4.421   4.249
 3244SOL    HW211975   4.680   4.374   4.139
 3245SOL     OW11976   3.800   4.535   4.513
 3245SOL    HW111977   3.899   4.523   4.522
 3245SOL    HW211978   3.776   4.630   4.534
 3246SOL     OW11979   4.045   4.667   3.966
 3246SOL    HW111980   4.127   4.706   3.924
 3246SOL    HW211981   4.018   4.585   3.917
 3247SOL     OW11982   4.106   4.424   4.204
 3247SOL    HW111983   4.151   4.334   4.201
 3247SOL    HW211984   4.012   4.413   4.237
 3248SOL     OW11985   4.527   5.126   4.648
 3248SOL    HW111986   4.617   5.140   4.606
 3248SOL    HW211987   4.456   5.128   4.577
 3249SOL     OW11988   4.646   4.227   4.623
 3249SOL    HW111989   4.621   4.218   4.527
 3249SOL    HW211990   4.694   4.145   4.654
 3250SOL     OW11991   4.263   3.788   4.236
 3250SOL    HW111992   4.182   3.789   4.294
 3250SOL    HW211993   4.266   3.871   4.181
 3251SOL     OW11994   5.158   4.912   3.765
 3251SOL    HW111995   5.190   4.836   3.822
 3251SOL    HW211996   5.066   4.939   3.795
 3252SOL     OW11997   4.183   4.876   4.465
 3252SOL    HW111998   4.112   4.849   4.530
 3252SOL    HW211999   4.157   4.848   4.372
 3253SOL     OW12000   4.756   4.273   3.740
 3253SOL    HW112001   4.715   4.355   3.701
 3253SOL    HW212002   4.820   4.299   3.813
 3254SOL     OW12003   4.741   3.763   4.477
 3254SOL    HW112004   4.669   3.768   4.408
 3254SOL    HW212005   4.717   3.694   4.546
 3255SOL     OW12006   4.429   4.774   4.092
 3255SOL    HW112007   4.415   4.781   4.191
 3255SOL    HW212008   4.513   4.723   4.074
 3256SOL     OW12009   4.134   4.537   4.975
 3256SOL    HW112010   4.220   4.549   5.025
 3256SOL    HW212011   4.092   4.450   5.002
 3257SOL     OW12012   4.091   4.824   4.225
 3257SOL    HW112013   4.084   4.907   4.169
 3257SOL    HW212014   4.095   4.744   4.165
 3258SOL     OW12015   5.084   4.586   4.769
 3258SOL    HW112016   5.009   4.586   4.703
 3258SOL    HW212017   5.121   4.494   4.778
 3259SOL     OW12018   4.933   4.249   3.999
 3259SOL    HW112019   4.946   4.165   4.053
 3259SOL    HW212020   4.904   4.323   4.059
 3260SOL     OW12021   4.031   3.937   4.955
 3260SOL    HW112022   4.008   3.974   5.045
 3260SOL    HW212023   4.001   3.842   4.949
 3261SOL     OW12024   4.031   3.787   4.342
 3261SOL    HW112025   4.020   3.881   4.375
 3261SOL    HW212026   4.026   3.724   4.419
 3262SOL     OW12027   4.747   4.490   4.690
 3262SOL    HW112028   4.762   4.511   4.786
 3262SOL    HW212029   4.717   4.395   4.681
 3263SOL     OW12030   5.027   4.562   3.766
 3263SOL    HW112031   5.061   4.469   3.781
 3263SOL    HW212032   5.045   4.589   3.671
 3264SOL     OW12033   4.043   4.534   4.673
 3264SOL    HW112034   4.136   4.570   4.678
 3264SOL    HW212035   4.037   4.449   4.725
 3265SOL     OW12036   4.063   4.233   4.730
 3265SOL    HW112037   4.011   4.150   4.713
 3265SOL    HW212038   4.140   4.238   4.666
 3266SOL     OW12039   4.884   3.931   5.201
 3266SOL    HW112040   4.884   3.995   5.278
 3266SOL    HW212041   4.912   3.979   5.118
 3267SOL     OW12042   3.732   5.050   3.924
 3267SOL    HW112043   3.639   5.071   3.893
 3267SOL    HW212044   3.742   4.951   3.937
 3268SOL     OW12045   4.726   4.520   4.962
 3268SOL    HW112046   4.767   4.488   5.048
 3268SOL    HW212047   4.630   4.493   4.959
 3269SOL     OW12048   3.764   4.268   4.838
 3269SOL    HW112049   3.849   4.235   4.797
 3269SOL    HW212050   3.777   4.283   4.936
 3270SOL     OW12051   4.395   4.188   4.993
 3270SOL    HW112052   4.361   4.099   4.963
 3270SOL    HW212053   4.421   4.242   4.913
 3271SOL     OW12054   3.807   4.982   4.746
 3271SOL    HW112055   3.802   4.981   4.846
 3271SOL    HW212056   3.724   4.941   4.708
 3272SOL     OW12057   5.004   4.651   4.396
 3272SOL    HW112058   5.064   4.570   4.398
 3272SOL    HW212059   5.044   4.720   4.336
 3273SOL     OW12060   4.554   4.997   5.146
 3273SOL    HW112061   4.549   5.030   5.241
 3273SOL    HW212062   4.468   5.016   5.100
 3274SOL     OW12063   3.987   4.050   4.444
 3274SOL    HW112064   3.908   4.101   4.410
 3274SOL    HW212065   3.978   4.035   4.542
 3275SOL     OW12066   4.918   5.336   3.755
 3275SOL    HW112067   4.924   5.243   3.792
 3275SOL    HW212068   4.859   5.336   3.675
 3276SOL     OW12069   4.546   4.726   5.096
 3276SOL    HW112070   4.586   4.725   5.004
 3276SOL    HW212071   4.556   4.818   5.136
 3277SOL     OW12072   4.640   4.634   4.015
 3277SOL    HW112073   4.703   4.672   3.947
 3277SOL    HW212074   4.680   4.551   4.054
 3278SOL     OW12075   4.763   4.822   4.420
 3278SOL    HW112076   4.693   4.775   4.474
 3278SOL    HW212077   4.822   4.754   4.377
 3279SOL     OW12078   4.738   3.960   4.695
 3279SOL    HW112079   4.730   3.924   4.602
 3279SOL    HW212080   4.736   3.884   4.760
 3280SOL     OW12081   3.796   3.890   4.042
 3280SOL    HW112082   3.779   3.973   3.988
 3280SOL    HW212083   3.886   3.853   4.020
 3281SOL     OW12084   4.949   4.049   4.173
 3281SOL    HW112085   5.014   3.975   4.162
 3281SOL    HW212086   4.969   4.099   4.257
 3282SOL     OW12087   4.583   4.680   4.585
 3282SOL    HW112088   4.637   4.611   4.633
 3282SOL    HW212089   4.551   4.749   4.651
 3283SOL     OW12090   4.807   4.708   3.811
 3283SOL    HW112091   4.784   4.761   3.729
 3283SOL    HW212092   4.888   4.652   3.792
 3284SOL     OW12093   3.803   4.964   4.377
 3284SOL    HW112094   3.802   4.917   4.465
 3284SOL    HW212095   3.885   4.936   4.326
 3285SOL     OW12096   4.725   3.758   4.878
 3285SOL    HW112097   4.662   3.686   4.847
 3285SOL    HW212098   4.818   3.722   4.878
 3286SOL     OW12099   4.494   5.054   4.025
 3286SOL    HW112100   4.448   4.967   4.042
 3286SOL    HW212101   4.585   5.051   4.066
 3287SOL     OW12102   3.763   4.801   4.024
 3287SOL    HW112103   3.862   4.790   4.015
 3287SOL    HW212104   3.723   4.715   4.056
   5.08970   5.08970   5.08970
