UNITED ATOM STRUCTURE FOR MOLECULE UNK
11796
    0X2IT   H18    1   3.092   2.352   2.583
    0X2IT    N4    2   3.026   2.419   2.548
    0X2IT   H17    3   3.059   2.484   2.478
    0X2IT   C14    4   2.895   2.380   2.546
    0X2IT    O5    5   2.849   2.285   2.607
    0X2IT    O4    6   2.822   2.466   2.469
    0X2IT   C13    7   2.680   2.441   2.463
    0X2IT   C10    8   2.607   2.502   2.584
    0X2IT    C9    9   2.457   2.484   2.578
    0X2IT    C4   10   2.394   2.607   2.582
    0X2IT    C5   11   2.245   2.625   2.577
    0X2IT    O1   12   2.197   2.739   2.585
    0X2IT    C6   13   2.166   2.505   2.564
    0X2IT   C12   14   2.015   2.516   2.558
    0X2IT    C7   15   2.229   2.382   2.561
    0X2IT    C8   16   2.381   2.365   2.567
    0X2IT    O2   17   2.427   2.250   2.559
    0X2IT    N3   18   2.164   2.265   2.551
    0X2IT   H15   19   2.064   2.258   2.544
    0X2IT   H16   20   2.221   2.180   2.548
    0X2IT    N2   21   2.482   2.709   2.599
    0X2IT    C3   22   2.473   2.846   2.546
    0X2IT    C2   23   2.599   2.856   2.461
    0X2IT    H2   24   2.639   2.954   2.435
    0X2IT    N1   25   2.611   2.744   2.365
    0X2IT   H14   26   2.674   2.771   2.289
    0X2IT    C1   27   2.688   2.741   2.491
    0X2IT    H1   28   2.796   2.748   2.490
    0X2IT   C11   29   2.622   2.658   2.600
    0X2IT    O3   30   2.691   2.695   2.718
    0X2IT   C15   31   2.628   2.664   2.843
    1X2IT   H18   32   3.776   3.313   3.821
    1X2IT    N4   33   3.756   3.339   3.916
    1X2IT   H17   34   3.777   3.272   3.988
    1X2IT   C14   35   3.763   3.472   3.945
    1X2IT    O5   36   3.765   3.562   3.862
    1X2IT    O4   37   3.763   3.491   4.080
    1X2IT   C13   38   3.764   3.627   4.126
    1X2IT   C10   39   3.622   3.687   4.128
    1X2IT    C9   40   3.618   3.828   4.182
    1X2IT    C4   41   3.533   3.835   4.291
    1X2IT    C5   42   3.507   3.960   4.369
    1X2IT    O1   43   3.426   3.958   4.463
    1X2IT    C6   44   3.577   4.078   4.326
    1X2IT   C12   45   3.556   4.209   4.401
    1X2IT    C7   46   3.661   4.072   4.216
    1X2IT    C8   47   3.687   3.943   4.137
    1X2IT    O2   48   3.767   3.948   4.043
    1X2IT    N3   49   3.730   4.177   4.169
    1X2IT   H15   50   3.726   4.268   4.210
    1X2IT   H16   51   3.790   4.160   4.088
    1X2IT    N2   52   3.471   3.716   4.314
    1X2IT    C3   53   3.430   3.660   4.444
    1X2IT    C2   54   3.509   3.529   4.448
    1X2IT    H2   55   3.477   3.449   4.515
    1X2IT    N1   56   3.653   3.549   4.422
    1X2IT   H14   57   3.706   3.470   4.459
    1X2IT    C1   58   3.565   3.501   4.314
    1X2IT    H1   59   3.576   3.401   4.274
    1X2IT   C11   60   3.519   3.612   4.220
    1X2IT    O3   61   3.412   3.553   4.147
    1X2IT   C15   62   3.323   3.642   4.079
    2X2IT   H18   63   1.239   2.121   2.920
    2X2IT    N4   64   1.153   2.070   2.923
    2X2IT   H17   65   1.155   1.980   2.969
    2X2IT   C14   66   1.038   2.143   2.925
    2X2IT    O5   67   1.029   2.261   2.895
    2X2IT    O4   68   0.933   2.063   2.959
    2X2IT   C13   69   0.803   2.126   2.958
    2X2IT   C10   70   0.742   2.129   2.817
    2X2IT    C9   71   0.603   2.188   2.813
    2X2IT    C4   72   0.514   2.096   2.760
    2X2IT    C5   73   0.367   2.122   2.743
    2X2IT    O1   74   0.295   2.035   2.691
    2X2IT    C6   75   0.319   2.250   2.788
    2X2IT   C12   76   0.172   2.283   2.774
    2X2IT    C7   77   0.408   2.342   2.840
    2X2IT    C8   78   0.558   2.315   2.856
    2X2IT    O2   79   0.628   2.403   2.908
    2X2IT    N3   80   0.373   2.465   2.882
    2X2IT   H15   81   0.278   2.498   2.881
    2X2IT   H16   82   0.447   2.524   2.920
    2X2IT    N2   83   0.576   1.983   2.718
    2X2IT    C3   84   0.524   1.845   2.720
    2X2IT    C2   85   0.624   1.773   2.809
    2X2IT    H2   86   0.633   1.665   2.804
    2X2IT    N1   87   0.644   1.842   2.938
    2X2IT   H14   88   0.682   1.776   3.006
    2X2IT    C1   89   0.743   1.860   2.830
    2X2IT    H1   90   0.843   1.822   2.840
    2X2IT   C11   91   0.722   1.988   2.750
    2X2IT    O3   92   0.801   1.969   2.634
    2X2IT   C15   93   0.774   2.054   2.522
    3X2IT   H18   94   4.263   0.348   3.824
    3X2IT    N4   95   4.332   0.377   3.757
    3X2IT   H17   96   4.426   0.392   3.790
    3X2IT   C14   97   4.313   0.334   3.628
    3X2IT    O5   98   4.209   0.288   3.584
    3X2IT    O4   99   4.427   0.353   3.556
    3X2IT   C13  100   4.420   0.318   3.416
    3X2IT   C10  101   4.359   0.431   3.332
    3X2IT    C9  102   4.356   0.401   3.184
    3X2IT    C4  103   4.426   0.498   3.114
    3X2IT    C5  104   4.443   0.498   2.965
    3X2IT    O1  105   4.504   0.591   2.911
    3X2IT    C6  106   4.385   0.387   2.894
    3X2IT   C12  107   4.399   0.380   2.743
    3X2IT    C7  108   4.314   0.290   2.963
    3X2IT    C8  109   4.297   0.292   3.115
    3X2IT    O2  110   4.235   0.198   3.168
    3X2IT    N3  111   4.255   0.185   2.906
    3X2IT   H15  112   4.259   0.167   2.807
    3X2IT   H16  113   4.207   0.119   2.967
    3X2IT    N2  114   4.470   0.598   3.195
    3X2IT    C3  115   4.593   0.677   3.182
    3X2IT    C2  116   4.665   0.646   3.312
    3X2IT    H2  117   4.743   0.714   3.349
    3X2IT    N1  118   4.678   0.501   3.336
    3X2IT   H14  119   4.754   0.483   3.402
    3X2IT    C1  120   4.572   0.578   3.406
    3X2IT    H1  121   4.575   0.591   3.513
    3X2IT   C11  122   4.437   0.568   3.338
    3X2IT    O3  123   4.361   0.672   3.397
    3X2IT   C15  124   4.243   0.715   3.328
    4X2IT   H18  125   3.286   3.143  -0.122
    4X2IT    N4  126   3.300   3.227  -0.069
    4X2IT   H17  127   3.308   3.314  -0.121
    4X2IT   C14  128   3.245   3.230   0.056
    4X2IT    O5  129   3.207   3.132   0.118
    4X2IT    O4  130   3.245   3.358   0.104
    4X2IT   C13  131   3.196   3.375   0.239
    4X2IT   C10  132   3.306   3.346   0.343
    4X2IT    C9  133   3.261   3.370   0.485
    4X2IT    C4  134   3.342   3.464   0.546
    4X2IT    C5  135   3.325   3.511   0.687
    4X2IT    O1  136   3.405   3.593   0.735
    4X2IT    C6  137   3.213   3.455   0.760
    4X2IT   C12  138   3.189   3.499   0.904
    4X2IT    C7  139   3.133   3.361   0.700
    4X2IT    C8  140   3.152   3.313   0.556
    4X2IT    O2  141   3.071   3.231   0.510
    4X2IT    N3  142   3.028   3.302   0.760
    4X2IT   H15  143   3.000   3.323   0.854
    4X2IT   H16  144   2.974   3.235   0.705
    4X2IT    N2  145   3.445   3.502   0.466
    4X2IT    C3  146   3.509   3.635   0.459
    4X2IT    C2  147   3.485   3.675   0.314
    4X2IT    H2  148   3.547   3.751   0.267
    4X2IT    N1  149   3.342   3.664   0.276
    4X2IT   H14  150   3.324   3.722   0.194
    4X2IT    C1  151   3.436   3.557   0.237
    4X2IT    H1  152   3.461   3.540   0.133
    4X2IT   C11  153   3.434   3.438   0.332
    4X2IT    O3  154   3.551   3.365   0.299
    4X2IT   C15  155   3.598   3.269   0.394
    5X2IT   H18  156   3.413   2.148   3.359
    5X2IT    N4  157   3.462   2.071   3.316
    5X2IT   H17  158   3.407   1.990   3.291
    5X2IT   C14  159   3.572   2.103   3.241
    5X2IT    O5  160   3.630   2.210   3.245
    5X2IT    O4  161   3.609   1.996   3.165
    5X2IT   C13  162   3.728   2.012   3.086
    5X2IT   C10  163   3.855   1.986   3.168
    5X2IT    C9  164   3.982   1.996   3.086
    5X2IT    C4  165   4.052   1.877   3.093
    5X2IT    C5  166   4.182   1.852   3.022
    5X2IT    O1  167   4.240   1.744   3.037
    5X2IT    C6  168   4.232   1.960   2.941
    5X2IT   C12  169   4.363   1.942   2.866
    5X2IT    C7  170   4.163   2.080   2.935
    5X2IT    C8  171   4.030   2.104   3.009
    5X2IT    O2  172   3.974   2.213   2.993
    5X2IT    N3  173   4.203   2.186   2.864
    5X2IT   H15  174   4.286   2.187   2.809
    5X2IT   H16  175   4.142   2.269   2.866
    5X2IT    N2  176   3.993   1.787   3.177
    5X2IT    C3  177   3.991   1.641   3.165
    5X2IT    C2  178   3.842   1.612   3.157
    5X2IT    H2  179   3.805   1.512   3.181
    5X2IT    N1  180   3.774   1.692   3.053
    5X2IT   H14  181   3.686   1.646   3.027
    5X2IT    C1  182   3.765   1.734   3.194
    5X2IT    H1  183   3.671   1.731   3.247
    5X2IT   C11  184   3.866   1.842   3.231
    5X2IT    O3  185   3.864   1.843   3.372
    5X2IT   C15  186   3.975   1.906   3.438
    6X2IT   H18  187   2.680   3.394   2.612
    6X2IT    N4  188   2.705   3.471   2.671
    6X2IT   H17  189   2.750   3.550   2.628
    6X2IT   C14  190   2.625   3.491   2.780
    6X2IT    O5  191   2.546   3.410   2.826
    6X2IT    O4  192   2.651   3.614   2.834
    6X2IT   C13  193   2.579   3.647   2.954
    6X2IT   C10  194   2.647   3.589   3.079
    6X2IT    C9  195   2.579   3.627   3.208
    6X2IT    C4  196   2.667   3.694   3.291
    6X2IT    C5  197   2.631   3.747   3.427
    6X2IT    O1  198   2.717   3.802   3.497
    6X2IT    C6  199   2.494   3.728   3.469
    6X2IT   C12  200   2.450   3.779   3.605
    6X2IT    C7  201   2.406   3.660   3.386
    6X2IT    C8  202   2.444   3.607   3.248
    6X2IT    O2  203   2.356   3.552   3.180
    6X2IT    N3  204   2.277   3.637   3.417
    6X2IT   H15  205   2.235   3.667   3.503
    6X2IT   H16  206   2.221   3.587   3.348
    6X2IT    N2  207   2.792   3.699   3.239
    6X2IT    C3  208   2.892   3.806   3.255
    6X2IT    C2  209   2.916   3.849   3.110
    6X2IT    H2  210   3.007   3.903   3.084
    6X2IT    N1  211   2.789   3.881   3.040
    6X2IT   H14  212   2.809   3.940   2.959
    6X2IT    C1  213   2.855   3.750   3.019
    6X2IT    H1  214   2.897   3.724   2.922
    6X2IT   C11  215   2.795   3.638   3.103
    6X2IT    O3  216   2.890   3.534   3.094
    6X2IT   C15  217   2.883   3.430   3.193
    7X2IT   H18  218   0.783   2.888  -0.209
    7X2IT    N4  219   0.733   2.828  -0.145
    7X2IT   H17  220   0.688   2.747  -0.184
    7X2IT   C14  221   0.782   2.823  -0.017
    7X2IT    O5  222   0.860   2.903   0.032
    7X2IT    O4  223   0.726   2.718   0.049
    7X2IT   C13  224   0.763   2.704   0.188
    7X2IT   C10  225   0.677   2.794   0.278
    7X2IT    C9  226   0.708   2.777   0.426
    7X2IT    C4  227   0.594   2.739   0.494
    7X2IT    C5  228   0.590   2.713   0.642
    7X2IT    O1  229   0.482   2.684   0.696
    7X2IT    C6  230   0.715   2.726   0.713
    7X2IT   C12  231   0.718   2.701   0.862
    7X2IT    C7  232   0.829   2.765   0.645
    7X2IT    C8  233   0.831   2.792   0.494
    7X2IT    O2  234   0.940   2.822   0.442
    7X2IT    N3  235   0.949   2.781   0.702
    7X2IT   H15  236   0.965   2.766   0.800
    7X2IT   H16  237   1.026   2.809   0.642
    7X2IT    N2  238   0.485   2.736   0.414
    7X2IT    C3  239   0.369   2.646   0.422
    7X2IT    C2  240   0.372   2.576   0.287
    7X2IT    H2  241   0.282   2.528   0.249
    7X2IT    N1  242   0.505   2.517   0.258
    7X2IT   H14  243   0.495   2.444   0.187
    7X2IT    C1  244   0.467   2.647   0.197
    7X2IT    H1  245   0.452   2.655   0.091
    7X2IT   C11  246   0.522   2.767   0.273
    7X2IT    O3  247   0.449   2.876   0.221
    7X2IT   C15  248   0.449   2.997   0.298
    8X2IT   H18  249   2.487   2.430   1.104
    8X2IT    N4  250   2.465   2.528   1.099
    8X2IT   H17  251   2.526   2.592   1.147
    8X2IT   C14  252   2.402   2.570   0.985
    8X2IT    O5  253   2.347   2.497   0.904
    8X2IT    O4  254   2.406   2.706   0.978
    8X2IT   C13  255   2.337   2.766   0.865
    8X2IT   C10  256   2.186   2.781   0.894
    8X2IT    C9  257   2.112   2.849   0.781
    8X2IT    C4  258   2.048   2.963   0.828
    8X2IT    C5  259   1.966   3.054   0.742
    8X2IT    O1  260   1.910   3.152   0.794
    8X2IT    C6  261   1.957   3.021   0.602
    8X2IT   C12  262   1.876   3.109   0.510
    8X2IT    C7  263   2.020   2.907   0.556
    8X2IT    C8  264   2.103   2.814   0.644
    8X2IT    O2  265   2.158   2.716   0.591
    8X2IT    N3  266   2.016   2.866   0.428
    8X2IT   H15  267   1.967   2.917   0.355
    8X2IT   H16  268   2.067   2.781   0.404
    8X2IT    N2  269   2.063   2.978   0.962
    8X2IT    C3  270   2.072   3.103   1.039
    8X2IT    C2  271   2.209   3.089   1.106
    8X2IT    H2  272   2.232   3.149   1.194
    8X2IT    N1  273   2.316   3.058   1.008
    8X2IT   H14  274   2.406   3.084   1.048
    8X2IT    C1  275   2.257   2.950   1.090
    8X2IT    H1  276   2.317   2.899   1.166
    8X2IT   C11  277   2.150   2.870   1.018
    8X2IT    O3  278   2.085   2.798   1.121
    8X2IT   C15  279   1.956   2.743   1.092
    9X2IT   H18  280   0.560   1.226   1.012
    9X2IT    N4  281   0.501   1.206   1.090
    9X2IT   H17  282   0.543   1.213   1.182
    9X2IT   C14  283   0.368   1.235   1.076
    9X2IT    O5  284   0.312   1.256   0.969
    9X2IT    O4  285   0.306   1.233   1.197
    9X2IT   C13  286   0.164   1.255   1.197
    9X2IT   C10  287   0.087   1.125   1.165
    9X2IT    C9  288  -0.063   1.142   1.170
    9X2IT    C4  289  -0.118   1.056   1.263
    9X2IT    C5  290  -0.265   1.047   1.293
    9X2IT    O1  291  -0.306   0.964   1.375
    9X2IT    C6  292  -0.351   1.139   1.222
    9X2IT   C12  293  -0.500   1.137   1.248
    9X2IT    C7  294  -0.296   1.226   1.129
    9X2IT    C8  295  -0.146   1.232   1.098
    9X2IT    O2  296  -0.107   1.317   1.016
    9X2IT    N3  297  -0.368   1.313   1.057
    9X2IT   H15  298  -0.467   1.324   1.066
    9X2IT   H16  299  -0.316   1.373   0.992
    9X2IT    N2  300  -0.025   0.973   1.317
    9X2IT    C3  301  -0.022   0.918   1.453
    9X2IT    C2  302   0.110   0.972   1.507
    9X2IT    H2  303   0.158   0.924   1.592
    9X2IT    N1  304   0.121   1.119   1.490
    9X2IT   H14  305   0.191   1.156   1.555
    9X2IT    C1  306   0.189   1.029   1.395
    9X2IT    H1  307   0.297   1.024   1.390
    9X2IT   C11  308   0.111   1.007   1.266
    9X2IT    O3  309   0.174   0.895   1.206
    9X2IT   C15  310   0.101   0.825   1.104
   10X2IT   H18  311   4.263   4.816   1.079
   10X2IT    N4  312   4.183   4.851   1.128
   10X2IT   H17  313   4.099   4.869   1.074
   10X2IT   C14  314   4.170   4.811   1.258
   10X2IT    O5  315   4.259   4.763   1.326
   10X2IT    O4  316   4.044   4.838   1.303
   10X2IT   C13  317   4.018   4.808   1.442
   10X2IT   C10  318   4.065   4.922   1.534
   10X2IT    C9  319   4.034   4.897   1.680
   10X2IT    C4  320   3.956   5.000   1.730
   10X2IT    C5  321   3.906   5.006   1.871
   10X2IT    O1  322   3.840   5.104   1.909
   10X2IT    C6  323   3.940   4.895   1.957
   10X2IT   C12  324   3.893   4.894   2.101
   10X2IT    C7  325   4.019   4.793   1.907
   10X2IT    C8  326   4.070   4.788   1.763
   10X2IT    O2  327   4.137   4.689   1.728
   10X2IT    N3  328   4.058   4.686   1.979
   10X2IT   H15  329   4.032   4.673   2.075
   10X2IT   H16  330   4.115   4.616   1.932
   10X2IT    N2  331   3.936   5.098   1.639
   10X2IT    C3  332   3.818   5.184   1.622
   10X2IT    C2  333   3.774   5.152   1.479
   10X2IT    H2  334   3.711   5.222   1.425
   10X2IT    N1  335   3.760   5.006   1.457
   10X2IT   H14  336   3.699   4.990   1.376
   10X2IT    C1  337   3.882   5.075   1.411
   10X2IT    H1  338   3.904   5.085   1.306
   10X2IT   C11  339   3.998   5.062   1.508
   10X2IT    O3  340   4.091   5.160   1.464
   10X2IT   C15  341   4.193   5.199   1.557
   11X2IT   H18  342   1.419   4.179  -0.463
   11X2IT    N4  343   1.406   4.188  -0.364
   11X2IT   H17  344   1.410   4.104  -0.309
   11X2IT   C14  345   1.449   4.306  -0.308
   11X2IT    O5  346   1.473   4.408  -0.370
   11X2IT    O4  347   1.455   4.293  -0.172
   11X2IT   C13  348   1.492   4.412  -0.099
   11X2IT   C10  349   1.370   4.504  -0.076
   11X2IT    C9  350   1.403   4.626   0.007
   11X2IT    C4  351   1.324   4.630   0.120
   11X2IT    C5  352   1.332   4.738   0.224
   11X2IT    O1  353   1.255   4.736   0.321
   11X2IT    C6  354   1.431   4.841   0.203
   11X2IT   C12  355   1.445   4.953   0.304
   11X2IT    C7  356   1.510   4.837   0.089
   11X2IT    C8  357   1.500   4.727  -0.017
   11X2IT    O2  358   1.579   4.731  -0.113
   11X2IT    N3  359   1.603   4.929   0.060
   11X2IT   H15  360   1.624   5.007   0.119
   11X2IT   H16  361   1.657   4.915  -0.027
   11X2IT    N2  362   1.233   4.529   0.122
   11X2IT    C3  363   1.180   4.458   0.240
   11X2IT    C2  364   1.222   4.314   0.212
   11X2IT    H2  365   1.170   4.232   0.262
   11X2IT    N1  366   1.366   4.302   0.181
   11X2IT   H14  367   1.396   4.206   0.197
   11X2IT    C1  368   1.268   4.303   0.071
   11X2IT    H1  369   1.252   4.215   0.010
   11X2IT   C11  370   1.251   4.439   0.005
   11X2IT    O3  371   1.133   4.427  -0.071
   11X2IT   C15  372   1.070   4.548  -0.114
   12X2IT   H18  373   2.963   1.293   1.075
   12X2IT    N4  374   3.003   1.362   1.014
   12X2IT   H17  375   3.066   1.429   1.055
   12X2IT   C14  376   3.020   1.325   0.884
   12X2IT    O5  377   2.968   1.229   0.830
   12X2IT    O4  378   3.102   1.415   0.820
   12X2IT   C13  379   3.124   1.392   0.680
   12X2IT   C10  380   3.009   1.450   0.594
   12X2IT    C9  381   3.032   1.434   0.446
   12X2IT    C4  382   3.031   1.558   0.384
   12X2IT    C5  383   3.051   1.578   0.237
   12X2IT    O1  384   3.045   1.693   0.189
   12X2IT    C6  385   3.077   1.460   0.158
   12X2IT   C12  386   3.099   1.473   0.009
   12X2IT    C7  387   3.078   1.336   0.220
   12X2IT    C8  388   3.056   1.317   0.370
   12X2IT    O2  389   3.063   1.201   0.416
   12X2IT    N3  390   3.099   1.220   0.155
   12X2IT   H15  391   3.117   1.215   0.056
   12X2IT   H16  392   3.099   1.135   0.211
   12X2IT    N2  393   3.001   1.658   0.471
   12X2IT    C3  394   3.050   1.797   0.469
   12X2IT    C2  395   3.120   1.808   0.604
   12X2IT    H2  396   3.138   1.906   0.647
   12X2IT    N1  397   3.218   1.699   0.625
   12X2IT   H14  398   3.286   1.728   0.696
   12X2IT    C1  399   3.085   1.691   0.688
   12X2IT    H1  400   3.074   1.696   0.795
   12X2IT   C11  401   2.986   1.605   0.609
   12X2IT    O3  402   2.860   1.637   0.665
   12X2IT   C15  403   2.744   1.603   0.589
   13X2IT   H18  404   0.882   4.510   3.421
   13X2IT    N4  405   0.839   4.555   3.341
   13X2IT   H17  406   0.894   4.626   3.294
   13X2IT   C14  407   0.751   4.480   3.269
   13X2IT    O5  408   0.699   4.377   3.307
   13X2IT    O4  409   0.726   4.541   3.149
   13X2IT   C13  410   0.629   4.476   3.064
   13X2IT   C10  411   0.485   4.515   3.104
   13X2IT    C9  412   0.381   4.454   3.013
   13X2IT    C4  413   0.304   4.554   2.955
   13X2IT    C5  414   0.192   4.528   2.859
   13X2IT    O1  415   0.126   4.624   2.815
   13X2IT    C6  416   0.167   4.391   2.824
   13X2IT   C12  417   0.055   4.358   2.727
   13X2IT    C7  418   0.243   4.291   2.882
   13X2IT    C8  419   0.357   4.318   2.981
   13X2IT    O2  420   0.421   4.221   3.024
   13X2IT    N3  421   0.226   4.160   2.857
   13X2IT   H15  422   0.157   4.125   2.793
   13X2IT   H16  423   0.289   4.095   2.905
   13X2IT    N2  424   0.337   4.677   3.002
   13X2IT    C3  425   0.333   4.805   2.930
   13X2IT    C2  426   0.479   4.850   2.937
   13X2IT    H2  427   0.504   4.955   2.922
   13X2IT    N1  428   0.572   4.746   2.890
   13X2IT   H14  429   0.661   4.789   2.863
   13X2IT    C1  430   0.552   4.766   3.035
   13X2IT    H1  431   0.632   4.804   3.097
   13X2IT   C11  432   0.452   4.669   3.096
   13X2IT    O3  433   0.422   4.725   3.222
   13X2IT   C15  434   0.303   4.678   3.288
   14X2IT   H18  435   4.966   3.271   3.646
   14X2IT    N4  436   4.999   3.200   3.583
   14X2IT   H17  437   5.016   3.108   3.623
   14X2IT   C14  438   4.957   3.209   3.453
   14X2IT    O5  439   4.909   3.308   3.402
   14X2IT    O4  440   4.982   3.091   3.388
   14X2IT   C13  441   4.950   3.088   3.248
   14X2IT   C10  442   5.063   3.149   3.162
   14X2IT    C9  443   5.035   3.141   3.014
   14X2IT    C4  444   5.136   3.071   2.950
   14X2IT    C5  445   5.140   3.045   2.803
   14X2IT    O1  446   5.236   2.985   2.754
   14X2IT    C6  447   5.028   3.094   2.726
   14X2IT   C12  448   5.025   3.070   2.576
   14X2IT    C7  449   4.927   3.164   2.789
   14X2IT    C8  450   4.926   3.191   2.940
   14X2IT    O2  451   4.828   3.252   2.987
   14X2IT    N3  452   4.820   3.215   2.726
   14X2IT   H15  453   4.805   3.205   2.627
   14X2IT   H16  454   4.751   3.264   2.783
   14X2IT    N2  455   5.236   3.037   3.036
   14X2IT    C3  456   5.321   2.916   3.032
   14X2IT    C2  457   5.290   2.851   3.166
   14X2IT    H2  458   5.360   2.779   3.208
   14X2IT    N1  459   5.145   2.834   3.188
   14X2IT   H14  460   5.129   2.761   3.258
   14X2IT    C1  461   5.216   2.947   3.252
   14X2IT    H1  462   5.228   2.951   3.359
   14X2IT   C11  463   5.202   3.077   3.175
   14X2IT    O3  464   5.302   3.161   3.232
   14X2IT   C15  465   5.341   3.276   3.156
   15X2IT   H18  466   2.907   0.876   4.519
   15X2IT    N4  467   2.892   0.897   4.616
   15X2IT   H17  468   2.911   0.823   4.683
   15X2IT   C14  469   2.910   1.027   4.655
   15X2IT    O5  470   2.916   1.122   4.579
   15X2IT    O4  471   2.917   1.035   4.791
   15X2IT   C13  472   2.930   1.167   4.846
   15X2IT   C10  473   2.793   1.236   4.858
   15X2IT    C9  474   2.801   1.373   4.923
   15X2IT    C4  475   2.721   1.378   5.035
   15X2IT    C5  476   2.707   1.499   5.123
   15X2IT    O1  477   2.631   1.495   5.221
   15X2IT    C6  478   2.785   1.614   5.087
   15X2IT   C12  479   2.776   1.740   5.171
   15X2IT    C7  480   2.864   1.610   4.973
   15X2IT    C8  481   2.877   1.486   4.884
   15X2IT    O2  482   2.954   1.492   4.787
   15X2IT    N3  483   2.939   1.713   4.930
   15X2IT   H15  484   2.943   1.801   4.978
   15X2IT   H16  485   2.994   1.698   4.845
   15X2IT    N2  486   2.651   1.263   5.053
   15X2IT    C3  487   2.612   1.200   5.180
   15X2IT    C2  488   2.680   1.064   5.171
   15X2IT    H2  489   2.645   0.981   5.233
   15X2IT    N1  490   2.825   1.076   5.141
   15X2IT   H14  491   2.873   0.990   5.169
   15X2IT    C1  492   2.729   1.042   5.033
   15X2IT    H1  493   2.731   0.945   4.986
   15X2IT   C11  494   2.688   1.162   4.949
   15X2IT    O3  495   2.575   1.117   4.877
   15X2IT   C15  496   2.490   1.217   4.819
   16X2IT   H18  497  -0.136   4.349   3.538
   16X2IT    N4  498  -0.128   4.337   3.439
   16X2IT   H17  499  -0.150   4.417   3.381
   16X2IT   C14  500  -0.035   4.247   3.395
   16X2IT    O5  501   0.018   4.162   3.464
   16X2IT    O4  502  -0.014   4.263   3.261
   16X2IT   C13  503   0.078   4.170   3.200
   16X2IT   C10  504   0.007   4.038   3.163
   16X2IT    C9  505   0.098   3.940   3.092
   16X2IT    C4  506   0.045   3.907   2.968
   16X2IT    C5  507   0.111   3.813   2.871
   16X2IT    O1  508   0.054   3.786   2.764
   16X2IT    C6  509   0.238   3.758   2.911
   16X2IT   C12  510   0.309   3.662   2.818
   16X2IT    C7  511   0.290   3.790   3.035
   16X2IT    C8  512   0.222   3.886   3.133
   16X2IT    O2  513   0.280   3.911   3.240
   16X2IT    N3  514   0.406   3.742   3.082
   16X2IT   H15  515   0.465   3.680   3.030
   16X2IT   H16  516   0.436   3.774   3.175
   16X2IT    N2  517  -0.077   3.964   2.948
   16X2IT    C3  518  -0.135   4.011   2.821
   16X2IT    C2  519  -0.158   4.159   2.849
   16X2IT    H2  520  -0.230   4.214   2.788
   16X2IT    N1  521  -0.037   4.226   2.900
   16X2IT   H14  522  -0.045   4.327   2.884
   16X2IT    C1  523  -0.142   4.185   2.994
   16X2IT    H1  524  -0.201   4.258   3.048
   16X2IT   C11  525  -0.113   4.052   3.062
   16X2IT    O3  526  -0.238   4.015   3.120
   16X2IT   C15  527  -0.254   3.878   3.158
   17X2IT   H18  528   0.822   3.107   2.885
   17X2IT    N4  529   0.902   3.160   2.914
   17X2IT   H17  530   0.904   3.259   2.889
   17X2IT   C14  531   0.964   3.120   3.028
   17X2IT    O5  532   0.948   3.011   3.082
   17X2IT    O4  533   1.050   3.217   3.072
   17X2IT   C13  534   1.127   3.185   3.190
   17X2IT   C10  535   1.253   3.103   3.154
   17X2IT    C9  536   1.340   3.074   3.273
   17X2IT    C4  537   1.468   3.124   3.253
   17X2IT    C5  538   1.579   3.112   3.352
   17X2IT    O1  539   1.691   3.157   3.324
   17X2IT    C6  540   1.548   3.047   3.477
   17X2IT   C12  541   1.656   3.033   3.582
   17X2IT    C7  542   1.421   2.996   3.497
   17X2IT    C8  543   1.308   3.008   3.394
   17X2IT    O2  544   1.197   2.962   3.425
   17X2IT    N3  545   1.383   2.932   3.609
   17X2IT   H15  546   1.444   2.917   3.687
   17X2IT   H16  547   1.286   2.900   3.613
   17X2IT    N2  548   1.482   3.178   3.129
   17X2IT    C3  549   1.565   3.292   3.089
   17X2IT    C2  550   1.462   3.390   3.034
   17X2IT    H2  551   1.494   3.470   2.967
   17X2IT    N1  552   1.351   3.414   3.128
   17X2IT   H14  553   1.305   3.502   3.105
   17X2IT    C1  554   1.333   3.320   3.016
   17X2IT    H1  555   1.264   3.342   2.935
   17X2IT   C11  556   1.353   3.174   3.055
   17X2IT    O3  557   1.365   3.107   2.931
   17X2IT   C15  558   1.423   2.975   2.933
   18X2IT   H18  559   5.175   2.738   2.553
   18X2IT    N4  560   5.150   2.660   2.495
   18X2IT   H17  561   5.177   2.663   2.398
   18X2IT   C14  562   5.143   2.538   2.558
   18X2IT    O5  563   5.137   2.521   2.678
   18X2IT    O4  564   5.140   2.438   2.465
   18X2IT   C13  565   5.126   2.304   2.516
   18X2IT   C10  566   4.978   2.270   2.545
   18X2IT    C9  567   4.959   2.128   2.592
   18X2IT    C4  568   4.872   2.061   2.508
   18X2IT    C5  569   4.832   1.917   2.526
   18X2IT    O1  570   4.751   1.866   2.447
   18X2IT    C6  571   4.891   1.847   2.637
   18X2IT   C12  572   4.855   1.702   2.661
   18X2IT    C7  573   4.977   1.914   2.722
   18X2IT    C8  574   5.016   2.061   2.703
   18X2IT    O2  575   5.097   2.110   2.783
   18X2IT    N3  576   5.035   1.858   2.829
   18X2IT   H15  577   5.021   1.762   2.855
   18X2IT   H16  578   5.098   1.917   2.884
   18X2IT    N2  579   4.822   2.142   2.411
   18X2IT    C3  580   4.785   2.106   2.273
   18X2IT    C2  581   4.877   2.197   2.191
   18X2IT    H2  582   4.852   2.219   2.088
   18X2IT    N1  583   5.018   2.185   2.232
   18X2IT   H14  584   5.078   2.218   2.156
   18X2IT    C1  585   4.937   2.299   2.281
   18X2IT    H1  586   4.959   2.400   2.249
   18X2IT   C11  587   4.882   2.278   2.420
   18X2IT    O3  588   4.783   2.379   2.434
   18X2IT   C15  589   4.686   2.362   2.538
   19X2IT   H18  590   2.587   4.008   0.594
   19X2IT    N4  591   2.637   3.955   0.663
   19X2IT   H17  592   2.724   3.913   0.634
   19X2IT   C14  593   2.623   3.995   0.793
   19X2IT    O5  594   2.535   4.069   0.835
   19X2IT    O4  595   2.718   3.937   0.871
   19X2IT   C13  596   2.711   3.965   1.012
   19X2IT   C10  597   2.610   3.872   1.083
   19X2IT    C9  598   2.605   3.894   1.233
   19X2IT    C4  599   2.635   3.776   1.299
   19X2IT    C5  600   2.639   3.763   1.448
   19X2IT    O1  601   2.662   3.653   1.499
   19X2IT    C6  602   2.613   3.883   1.524
   19X2IT   C12  603   2.616   3.877   1.676
   19X2IT    C7  604   2.583   4.000   1.458
   19X2IT    C8  605   2.578   4.012   1.306
   19X2IT    O2  606   2.554   4.124   1.257
   19X2IT    N3  607   2.556   4.116   1.520
   19X2IT   H15  608   2.557   4.127   1.620
   19X2IT   H16  609   2.536   4.198   1.461
   19X2IT    N2  610   2.651   3.672   1.213
   19X2IT    C3  611   2.741   3.557   1.228
   19X2IT    C2  612   2.831   3.570   1.105
   19X2IT    H2  613   2.885   3.483   1.068
   19X2IT    N1  614   2.890   3.705   1.093
   19X2IT   H14  615   2.973   3.700   1.033
   19X2IT    C1  616   2.772   3.670   1.012
   19X2IT    H1  617   2.779   3.661   0.904
   19X2IT   C11  618   2.641   3.718   1.072
   19X2IT    O3  619   2.542   3.647   1.000
   19X2IT   C15  620   2.411   3.642   1.058
   20X2IT   H18  621   2.735  -0.065   3.766
   20X2IT    N4  622   2.828  -0.044   3.798
   20X2IT   H17  623   2.902  -0.054   3.731
   20X2IT   C14  624   2.839   0.050   3.896
   20X2IT    O5  625   2.747   0.090   3.966
   20X2IT    O4  626   2.968   0.091   3.907
   20X2IT   C13  627   2.997   0.187   4.011
   20X2IT   C10  628   3.017   0.117   4.147
   20X2IT    C9  629   3.053   0.213   4.258
   20X2IT    C4  630   3.175   0.177   4.314
   20X2IT    C5  631   3.240   0.252   4.426
   20X2IT    O1  632   3.347   0.211   4.473
   20X2IT    C6  633   3.172   0.370   4.474
   20X2IT   C12  634   3.233   0.450   4.587
   20X2IT    C7  635   3.050   0.405   4.418
   20X2IT    C8  636   2.984   0.327   4.304
   20X2IT    O2  637   2.877   0.371   4.259
   20X2IT    N3  638   2.979   0.512   4.457
   20X2IT   H15  639   3.008   0.575   4.530
   20X2IT   H16  640   2.891   0.529   4.408
   20X2IT    N2  641   3.223   0.062   4.261
   20X2IT    C3  642   3.364   0.025   4.240
   20X2IT    C2  643   3.369   0.003   4.089
   20X2IT    H2  644   3.450  -0.056   4.046
   20X2IT    N1  645   3.315   0.119   4.014
   20X2IT   H14  646   3.351   0.117   3.919
   20X2IT    C1  647   3.231  -0.001   4.035
   20X2IT    H1  648   3.202  -0.063   3.952
   20X2IT   C11  649   3.135   0.013   4.152
   20X2IT    O3  650   3.090  -0.120   4.175
   20X2IT   C15  651   3.029  -0.146   4.302
   21X2IT   H18  652   4.987   0.486   4.597
   21X2IT    N4  653   5.016   0.581   4.613
   21X2IT   H17  654   5.115   0.598   4.623
   21X2IT   C14  655   4.937   0.678   4.559
   21X2IT    O5  656   4.823   0.662   4.518
   21X2IT    O4  657   5.002   0.798   4.561
   21X2IT   C13  658   4.928   0.912   4.513
   21X2IT   C10  659   4.837   0.971   4.622
   21X2IT    C9  660   4.763   1.095   4.578
   21X2IT    C4  661   4.793   1.201   4.661
   21X2IT    C5  662   4.737   1.339   4.645
   21X2IT    O1  663   4.766   1.427   4.727
   21X2IT    C6  664   4.649   1.360   4.532
   21X2IT   C12  665   4.589   1.497   4.510
   21X2IT    C7  666   4.618   1.253   4.450
   21X2IT    C8  667   4.676   1.113   4.468
   21X2IT    O2  668   4.645   1.026   4.385
   21X2IT    N3  669   4.536   1.262   4.344
   21X2IT   H15  670   4.492   1.348   4.316
   21X2IT   H16  671   4.522   1.178   4.288
   21X2IT    N2  672   4.873   1.163   4.765
   21X2IT    C3  673   4.977   1.243   4.832
   21X2IT    C2  674   5.102   1.160   4.808
   21X2IT    H2  675   5.189   1.173   4.873
   21X2IT    N1  676   5.121   1.126   4.665
   21X2IT   H14  677   5.219   1.103   4.649
   21X2IT    C1  678   5.063   1.026   4.757
   21X2IT    H1  679   5.118   0.935   4.781
   21X2IT   C11  680   4.911   1.020   4.752
   21X2IT    O3  681   4.876   0.945   4.868
   21X2IT   C15  682   4.740   0.955   4.912
   22X2IT   H18  683   3.206   3.672   2.213
   22X2IT    N4  684   3.189   3.583   2.170
   22X2IT   H17  685   3.194   3.578   2.069
   22X2IT   C14  686   3.223   3.473   2.244
   22X2IT    O5  687   3.245   3.473   2.364
   22X2IT    O4  688   3.224   3.362   2.165
   22X2IT   C13  689   3.252   3.237   2.231
   22X2IT   C10  690   3.125   3.178   2.296
   22X2IT    C9  691   3.149   3.043   2.361
   22X2IT    C4  692   3.065   2.948   2.305
   22X2IT    C5  693   3.063   2.804   2.346
   22X2IT    O1  694   2.982   2.726   2.293
   22X2IT    C6  695   3.158   2.764   2.447
   22X2IT   C12  696   3.162   2.620   2.493
   22X2IT    C7  697   3.241   2.859   2.503
   22X2IT    C8  698   3.241   3.007   2.461
   22X2IT    O2  699   3.323   3.082   2.515
   22X2IT    N3  700   3.331   2.833   2.599
   22X2IT   H15  701   3.346   2.741   2.637
   22X2IT   H16  702   3.389   2.911   2.632
   22X2IT    N2  703   2.979   3.002   2.215
   22X2IT    C3  704   2.925   2.940   2.093
   22X2IT    C2  705   2.974   3.035   1.984
   22X2IT    H2  706   2.924   3.036   1.887
   22X2IT    N1  707   3.120   3.058   1.992
   22X2IT   H14  708   3.154   3.091   1.902
   22X2IT    C1  709   3.026   3.159   2.047
   22X2IT    H1  710   3.017   3.256   2.001
   22X2IT   C11  711   3.006   3.148   2.197
   22X2IT    O3  712   2.892   3.227   2.222
   22X2IT   C15  713   2.825   3.206   2.347
   23X2IT   H18  714   3.549   1.194   3.312
   23X2IT    N4  715   3.535   1.275   3.370
   23X2IT   H17  716   3.516   1.362   3.322
   23X2IT   C14  717   3.481   1.254   3.493
   23X2IT    O5  718   3.474   1.146   3.549
   23X2IT    O4  719   3.439   1.372   3.547
   23X2IT   C13  720   3.385   1.366   3.681
   23X2IT   C10  721   3.497   1.368   3.786
   23X2IT    C9  722   3.445   1.368   3.928
   23X2IT    C4  723   3.492   1.480   3.996
   23X2IT    C5  724   3.458   1.511   4.139
   23X2IT    O1  725   3.507   1.611   4.193
   23X2IT    C6  726   3.369   1.419   4.206
   23X2IT   C12  727   3.330   1.445   4.350
   23X2IT    C7  728   3.323   1.307   4.138
   23X2IT    C8  729   3.359   1.276   3.993
   23X2IT    O2  730   3.309   1.175   3.941
   23X2IT    N3  731   3.242   1.215   4.193
   23X2IT   H15  732   3.207   1.221   4.287
   23X2IT   H16  733   3.213   1.137   4.133
   23X2IT    N2  734   3.577   1.553   3.921
   23X2IT    C3  735   3.597   1.699   3.922
   23X2IT    C2  736   3.563   1.737   3.778
   23X2IT    H2  737   3.598   1.831   3.737
   23X2IT    N1  738   3.431   1.683   3.736
   23X2IT   H14  739   3.397   1.738   3.656
   23X2IT    C1  740   3.555   1.614   3.695
   23X2IT    H1  741   3.585   1.611   3.591
   23X2IT   C11  742   3.590   1.495   3.784
   23X2IT    O3  743   3.724   1.466   3.751
   23X2IT   C15  744   3.798   1.385   3.843
   24X2IT   H18  745   4.264   0.916   3.983
   24X2IT    N4  746   4.194   0.924   4.055
   24X2IT   H17  747   4.100   0.894   4.032
   24X2IT   C14  748   4.238   0.911   4.184
   24X2IT    O5  749   4.354   0.918   4.219
   24X2IT    O4  750   4.132   0.893   4.268
   24X2IT   C13  751   4.163   0.884   4.408
   24X2IT   C10  752   4.177   1.023   4.472
   24X2IT    C9  753   4.202   1.019   4.621
   24X2IT    C4  754   4.104   1.088   4.688
   24X2IT    C5  755   4.098   1.102   4.838
   24X2IT    O1  756   4.008   1.170   4.889
   24X2IT    C6  757   4.202   1.035   4.912
   24X2IT   C12  758   4.203   1.045   5.063
   24X2IT    C7  759   4.301   0.967   4.845
   24X2IT    C8  760   4.306   0.954   4.692
   24X2IT    O2  761   4.397   0.886   4.642
   24X2IT    N3  762   4.403   0.903   4.905
   24X2IT   H15  763   4.414   0.900   5.005
   24X2IT   H16  764   4.470   0.854   4.845
   24X2IT    N2  765   4.016   1.149   4.603
   24X2IT    C3  766   3.873   1.173   4.623
   24X2IT    C2  767   3.811   1.096   4.507
   24X2IT    H2  768   3.710   1.121   4.474
   24X2IT    N1  769   3.858   0.956   4.500
   24X2IT   H14  770   3.792   0.901   4.446
   24X2IT    C1  771   3.917   1.059   4.411
   24X2IT    H1  772   3.901   1.054   4.304
   24X2IT   C11  773   4.049   1.115   4.462
   24X2IT    O3  774   4.070   1.231   4.383
   24X2IT   C15  775   4.164   1.327   4.432
   25X2IT   H18  776   1.704   0.761   5.389
   25X2IT    N4  777   1.804   0.762   5.383
   25X2IT   H17  778   1.855   0.781   5.468
   25X2IT   C14  779   1.861   0.681   5.288
   25X2IT    O5  780   1.801   0.630   5.195
   25X2IT    O4  781   1.995   0.668   5.312
   25X2IT   C13  782   2.069   0.590   5.216
   25X2IT   C10  783   2.108   0.675   5.093
   25X2IT    C9  784   2.192   0.599   4.993
   25X2IT    C4  785   2.312   0.663   4.973
   25X2IT    C5  786   2.419   0.614   4.880
   25X2IT    O1  787   2.523   0.680   4.866
   25X2IT    C6  788   2.393   0.489   4.812
   25X2IT   C12  789   2.497   0.433   4.717
   25X2IT    C7  790   2.272   0.425   4.831
   25X2IT    C8  791   2.163   0.477   4.926
   25X2IT    O2  792   2.060   0.409   4.939
   25X2IT    N3  793   2.238   0.310   4.771
   25X2IT   H15  794   2.299   0.261   4.707
   25X2IT   H16  795   2.146   0.271   4.794
   25X2IT    N2  796   2.319   0.781   5.041
   25X2IT    C3  797   2.438   0.844   5.101
   25X2IT    C2  798   2.400   0.852   5.248
   25X2IT    H2  799   2.451   0.922   5.313
   25X2IT    N1  800   2.355   0.721   5.301
   25X2IT   H14  801   2.363   0.722   5.403
   25X2IT    C1  802   2.255   0.823   5.263
   25X2IT    H1  803   2.192   0.870   5.337
   25X2IT   C11  804   2.197   0.801   5.124
   25X2IT    O3  805   2.132   0.923   5.093
   25X2IT   C15  806   2.101   0.948   4.956
   26X2IT   H18  807   1.798   2.327   3.485
   26X2IT    N4  808   1.799   2.228   3.472
   26X2IT   H17  809   1.792   2.194   3.377
   26X2IT   C14  810   1.871   2.156   3.564
   26X2IT    O5  811   1.908   2.197   3.672
   26X2IT    O4  812   1.890   2.028   3.518
   26X2IT   C13  813   1.958   1.938   3.607
   26X2IT   C10  814   1.861   1.877   3.710
   26X2IT    C9  815   1.927   1.776   3.801
   26X2IT    C4  816   1.864   1.653   3.791
   26X2IT    C5  817   1.905   1.531   3.867
   26X2IT    O1  818   1.841   1.426   3.854
   26X2IT    C6  819   2.020   1.545   3.954
   26X2IT   C12  820   2.067   1.425   4.034
   26X2IT    C7  821   2.082   1.668   3.965
   26X2IT    C8  822   2.038   1.792   3.887
   26X2IT    O2  823   2.104   1.896   3.901
   26X2IT    N3  824   2.188   1.691   4.044
   26X2IT   H15  825   2.231   1.620   4.101
   26X2IT   H16  826   2.227   1.786   4.044
   26X2IT    N2  827   1.756   1.658   3.709
   26X2IT    C3  828   1.704   1.552   3.621
   26X2IT    C2  829   1.712   1.617   3.484
   26X2IT    H2  830   1.651   1.579   3.402
   26X2IT    N1  831   1.846   1.672   3.455
   26X2IT   H14  832   1.859   1.683   3.354
   26X2IT    C1  833   1.738   1.763   3.499
   26X2IT    H1  834   1.698   1.837   3.432
   26X2IT   C11  835   1.742   1.794   3.648
   26X2IT    O3  836   1.615   1.851   3.675
   26X2IT   C15  837   1.573   1.855   3.812
   27X2IT   H18  838   4.496   5.227   0.113
   27X2IT    N4  839   4.533   5.134   0.120
   27X2IT   H17  840   4.634   5.125   0.129
   27X2IT   C14  841   4.453   5.039   0.177
   27X2IT    O5  842   4.333   5.051   0.194
   27X2IT    O4  843   4.526   4.928   0.207
   27X2IT   C13  844   4.452   4.817   0.262
   27X2IT   C10  845   4.387   4.732   0.151
   27X2IT    C9  846   4.315   4.611   0.204
   27X2IT    C4  847   4.367   4.496   0.148
   27X2IT    C5  848   4.318   4.357   0.179
   27X2IT    O1  849   4.368   4.260   0.121
   27X2IT    C6  850   4.213   4.347   0.278
   27X2IT   C12  851   4.159   4.210   0.315
   27X2IT    C7  852   4.160   4.462   0.333
   27X2IT    C8  853   4.210   4.602   0.300
   27X2IT    O2  854   4.159   4.698   0.359
   27X2IT    N3  855   4.061   4.462   0.424
   27X2IT   H15  856   4.018   4.379   0.459
   27X2IT   H16  857   4.031   4.553   0.460
   27X2IT    N2  858   4.461   4.523   0.054
   27X2IT    C3  859   4.581   4.444   0.021
   27X2IT    C2  860   4.693   4.542   0.050
   27X2IT    H2  861   4.791   4.526   0.004
   27X2IT    N1  862   4.684   4.600   0.185
   27X2IT   H14  863   4.775   4.636   0.213
   27X2IT    C1  864   4.637   4.678   0.068
   27X2IT    H1  865   4.688   4.768   0.038
   27X2IT   C11  866   4.487   4.670   0.047
   27X2IT    O3  867   4.468   4.720  -0.084
   27X2IT   C15  868   4.344   4.690  -0.149
   28X2IT   H18  869   2.123   1.621   0.243
   28X2IT    N4  870   2.124   1.701   0.183
   28X2IT   H17  871   2.044   1.715   0.122
   28X2IT   C14  872   2.192   1.811   0.229
   28X2IT    O5  873   2.272   1.810   0.321
   28X2IT    O4  874   2.160   1.920   0.154
   28X2IT   C13  875   2.229   2.043   0.188
   28X2IT   C10  876   2.367   2.049   0.121
   28X2IT    C9  877   2.440   2.179   0.147
   28X2IT    C4  878   2.471   2.242   0.028
   28X2IT    C5  879   2.542   2.373   0.019
   28X2IT    O1  880   2.569   2.421  -0.092
   28X2IT    C6  881   2.577   2.437   0.144
   28X2IT   C12  882   2.649   2.570   0.142
   28X2IT    C7  883   2.548   2.373   0.263
   28X2IT    C8  884   2.475   2.238   0.271
   28X2IT    O2  885   2.450   2.192   0.383
   28X2IT    N3  886   2.578   2.423   0.384
   28X2IT   H15  887   2.624   2.511   0.397
   28X2IT   H16  888   2.550   2.368   0.465
   28X2IT    N2  889   2.435   2.167  -0.080
   28X2IT    C3  890   2.388   2.214  -0.211
   28X2IT    C2  891   2.250   2.151  -0.221
   28X2IT    H2  892   2.203   2.139  -0.318
   28X2IT    N1  893   2.167   2.179  -0.102
   28X2IT   H14  894   2.068   2.167  -0.125
   28X2IT    C1  895   2.235   2.049  -0.114
   28X2IT    H1  896   2.178   1.958  -0.127
   28X2IT   C11  897   2.366   2.042  -0.037
   28X2IT    O3  898   2.430   1.926  -0.088
   28X2IT   C15  899   2.571   1.914  -0.064
   29X2IT   H18  900   3.234   1.718   4.092
   29X2IT    N4  901   3.138   1.699   4.071
   29X2IT   H17  902   3.095   1.751   3.996
   29X2IT   C14  903   3.095   1.571   4.096
   29X2IT    O5  904   3.153   1.489   4.165
   29X2IT    O4  905   2.974   1.550   4.035
   29X2IT   C13  906   2.913   1.422   4.058
   29X2IT   C10  907   2.836   1.419   4.191
   29X2IT    C9  908   2.764   1.288   4.215
   29X2IT    C4  909   2.629   1.310   4.232
   29X2IT    C5  910   2.529   1.201   4.257
   29X2IT    O1  911   2.409   1.230   4.274
   29X2IT    C6  912   2.580   1.066   4.260
   29X2IT   C12  913   2.484   0.951   4.285
   29X2IT    C7  914   2.715   1.044   4.245
   29X2IT    C8  915   2.817   1.156   4.220
   29X2IT    O2  916   2.935   1.125   4.203
   29X2IT    N3  917   2.772   0.923   4.248
   29X2IT   H15  918   2.720   0.838   4.262
   29X2IT   H16  919   2.874   0.918   4.234
   29X2IT    N2  920   2.598   1.442   4.230
   29X2IT    C3  921   2.475   1.506   4.180
   29X2IT    C2  922   2.529   1.598   4.071
   29X2IT    H2  923   2.469   1.682   4.037
   29X2IT    N1  924   2.616   1.526   3.975
   29X2IT   H14  925   2.621   1.580   3.888
   29X2IT    C1  926   2.677   1.607   4.083
   29X2IT    H1  927   2.732   1.697   4.060
   29X2IT   C11  928   2.719   1.524   4.203
   29X2IT    O3  929   2.742   1.620   4.305
   29X2IT   C15  930   2.746   1.572   4.440
   30X2IT   H18  931   1.257   1.301   1.573
   30X2IT    N4  932   1.315   1.278   1.494
   30X2IT   H17  933   1.310   1.183   1.461
   30X2IT   C14  934   1.339   1.379   1.405
   30X2IT    O5  935   1.322   1.498   1.427
   30X2IT    O4  936   1.390   1.328   1.289
   30X2IT   C13  937   1.427   1.424   1.188
   30X2IT   C10  938   1.568   1.481   1.214
   30X2IT    C9  939   1.613   1.577   1.106
   30X2IT    C4  940   1.731   1.532   1.049
   30X2IT    C5  941   1.803   1.604   0.939
   30X2IT    O1  942   1.911   1.558   0.896
   30X2IT    C6  943   1.741   1.724   0.889
   30X2IT   C12  944   1.808   1.801   0.777
   30X2IT    C7  945   1.624   1.769   0.946
   30X2IT    C8  946   1.552   1.695   1.060
   30X2IT    O2  947   1.445   1.743   1.101
   30X2IT    N3  948   1.560   1.881   0.908
   30X2IT   H15  949   1.592   1.940   0.834
   30X2IT   H16  950   1.473   1.903   0.957
   30X2IT    N2  951   1.779   1.420   1.111
   30X2IT    C3  952   1.853   1.309   1.050
   30X2IT    C2  953   1.762   1.190   1.079
   30X2IT    H2  954   1.803   1.089   1.077
   30X2IT    N1  955   1.623   1.214   1.034
   30X2IT   H14  956   1.575   1.125   1.022
   30X2IT    C1  957   1.658   1.230   1.176
   30X2IT    H1  958   1.618   1.163   1.251
   30X2IT   C11  959   1.684   1.374   1.216
   30X2IT    O3  960   1.747   1.364   1.343
   30X2IT   C15  961   1.819   1.479   1.390
   31X2IT   H18  962   0.508   4.848   4.222
   31X2IT    N4  963   0.431   4.876   4.164
   31X2IT   H17  964   0.341   4.889   4.209
   31X2IT   C14  965   0.462   4.952   4.055
   31X2IT    O5  966   0.574   4.965   4.007
   31X2IT    O4  967   0.349   5.009   4.004
   31X2IT   C13  968   0.365   5.087   3.884
   31X2IT   C10  969   0.367   4.998   3.758
   31X2IT    C9  970   0.377   5.077   3.630
   31X2IT    C4  971   0.269   5.049   3.548
   31X2IT    C5  972   0.248   5.112   3.413
   31X2IT    O1  973   0.150   5.078   3.345
   31X2IT    C6  974   0.346   5.208   3.370
   31X2IT   C12  975   0.331   5.275   3.235
   31X2IT    C7  976   0.455   5.235   3.452
   31X2IT    C8  977   0.476   5.170   3.589
   31X2IT    O2  978   0.574   5.205   3.655
   31X2IT    N3  979   0.552   5.321   3.420
   31X2IT   H15  980   0.553   5.374   3.334
   31X2IT   H16  981   0.627   5.335   3.488
   31X2IT    N2  982   0.188   4.953   3.600
   31X2IT    C3  983   0.042   4.941   3.587
   31X2IT    C2  984  -0.004   4.948   3.732
   31X2IT    H2  985  -0.102   4.909   3.759
   31X2IT    N1  986   0.050   5.066   3.803
   31X2IT   H14  987  -0.008   5.086   3.884
   31X2IT    C1  988   0.113   4.934   3.822
   31X2IT    H1  989   0.109   4.884   3.918
   31X2IT   C11  990   0.236   4.912   3.735
   31X2IT    O3  991   0.260   4.773   3.743
   31X2IT   C15  992   0.345   4.715   3.642
   32X2IT   H18  993   3.857   2.181   0.882
   32X2IT    N4  994   3.808   2.269   0.882
   32X2IT   H17  995   3.715   2.270   0.840
   32X2IT   C14  996   3.835   2.354   0.985
   32X2IT    O5  997   3.932   2.346   1.059
   32X2IT    O4  998   3.741   2.453   0.990
   32X2IT   C13  999   3.761   2.555   1.090
   32X2IT   C10 1000   3.859   2.663   1.042
   32X2IT    C9 1001   3.877   2.775   1.142
   32X2IT    C4 1002   3.843   2.896   1.084
   32X2IT    C5 1003   3.849   3.028   1.156
   32X2IT    O1 1004   3.820   3.132   1.095
   32X2IT    C6 1005   3.890   3.024   1.294
   32X2IT   C12 1006   3.898   3.153   1.373
   32X2IT    C7 1007   3.925   2.903   1.352
   32X2IT    C8 1008   3.920   2.770   1.277
   32X2IT    O2 1009   3.949   2.666   1.339
   32X2IT    N3 1010   3.966   2.890   1.479
   32X2IT   H15 1011   3.974   2.967   1.542
   32X2IT   H16 1012   3.988   2.795   1.511
   32X2IT    N2 1013   3.811   2.883   0.953
   32X2IT    C3 1014   3.713   2.961   0.875
   32X2IT    C2 1015   3.617   2.853   0.828
   32X2IT    H2 1016   3.552   2.872   0.743
   32X2IT    N1 1017   3.568   2.769   0.940
   32X2IT   H14 1018   3.480   2.723   0.912
   32X2IT    C1 1019   3.676   2.719   0.853
   32X2IT    H1 1020   3.660   2.635   0.787
   32X2IT   C11 1021   3.815   2.740   0.912
   32X2IT    O3 1022   3.902   2.718   0.802
   32X2IT   C15 1023   4.036   2.768   0.815
   33X2IT   H18 1024   2.401   2.036   1.236
   33X2IT    N4 1025   2.414   2.002   1.329
   33X2IT   H17 1026   2.367   2.052   1.403
   33X2IT   C14 1027   2.436   1.868   1.343
   33X2IT    O5 1028   2.468   1.792   1.252
   33X2IT    O4 1029   2.422   1.831   1.473
   33X2IT   C13 1030   2.449   1.693   1.504
   33X2IT   C10 1031   2.599   1.668   1.524
   33X2IT    C9 1032   2.631   1.525   1.563
   33X2IT    C4 1033   2.699   1.523   1.684
   33X2IT    C5 1034   2.745   1.397   1.751
   33X2IT    O1 1035   2.808   1.405   1.858
   33X2IT    C6 1036   2.712   1.273   1.686
   33X2IT   C12 1037   2.755   1.142   1.749
   33X2IT    C7 1038   2.645   1.275   1.565
   33X2IT    C8 1039   2.600   1.404   1.496
   33X2IT    O2 1040   2.537   1.395   1.390
   33X2IT    N3 1041   2.613   1.165   1.495
   33X2IT   H15 1042   2.633   1.072   1.527
   33X2IT   H16 1043   2.562   1.179   1.407
   33X2IT    N2 1044   2.726   1.648   1.730
   33X2IT    C3 1045   2.732   1.693   1.869
   33X2IT    C2 1046   2.624   1.801   1.873
   33X2IT    H2 1047   2.625   1.876   1.952
   33X2IT    N1 1048   2.494   1.752   1.821
   33X2IT   H14 1049   2.419   1.811   1.857
   33X2IT    C1 1050   2.582   1.834   1.735
   33X2IT    H1 1051   2.552   1.933   1.704
   33X2IT   C11 1052   2.667   1.751   1.639
   33X2IT    O3 1053   2.764   1.842   1.592
   33X2IT   C15 1054   2.881   1.787   1.531
   34X2IT   H18 1055   3.622   0.896   3.302
   34X2IT    N4 1056   3.620   0.796   3.294
   34X2IT   H17 1057   3.708   0.747   3.294
   34X2IT   C14 1058   3.510   0.733   3.347
   34X2IT    O5 1059   3.406   0.788   3.377
   34X2IT    O4 1060   3.534   0.599   3.358
   34X2IT   C13 1061   3.424   0.519   3.407
   34X2IT   C10 1062   3.326   0.484   3.293
   34X2IT    C9 1063   3.213   0.394   3.339
   34X2IT    C4 1064   3.212   0.277   3.265
   34X2IT    C5 1065   3.113   0.166   3.285
   34X2IT    O1 1066   3.118   0.066   3.212
   34X2IT    C6 1067   3.017   0.184   3.391
   34X2IT   C12 1068   2.914   0.075   3.417
   34X2IT    C7 1069   3.017   0.301   3.464
   34X2IT    C8 1070   3.118   0.414   3.442
   34X2IT    O2 1071   3.111   0.513   3.516
   34X2IT    N3 1072   2.930   0.328   3.563
   34X2IT   H15 1073   2.858   0.264   3.592
   34X2IT   H16 1074   2.940   0.417   3.611
   34X2IT    N2 1075   3.306   0.278   3.167
   34X2IT    C3 1076   3.382   0.164   3.114
   34X2IT    C2 1077   3.526   0.205   3.143
   34X2IT    H2 1078   3.608   0.158   3.088
   34X2IT    N1 1079   3.546   0.243   3.285
   34X2IT   H14 1080   3.645   0.235   3.308
   34X2IT    C1 1081   3.530   0.348   3.182
   34X2IT    H1 1082   3.612   0.414   3.157
   34X2IT   C11 1083   3.388   0.402   3.174
   34X2IT    O3 1084   3.386   0.474   3.051
   34X2IT   C15 1085   3.257   0.504   2.996
   35X2IT   H18 1086   0.660   5.385   4.741
   35X2IT    N4 1087   0.686   5.294   4.708
   35X2IT   H17 1088   0.613   5.238   4.664
   35X2IT   C14 1089   0.815   5.279   4.666
   35X2IT    O5 1090   0.906   5.355   4.691
   35X2IT    O4 1091   0.828   5.162   4.595
   35X2IT   C13 1092   0.961   5.130   4.550
   35X2IT   C10 1093   1.042   5.060   4.661
   35X2IT    C9 1094   1.180   5.018   4.615
   35X2IT    C4 1095   1.196   4.882   4.632
   35X2IT    C5 1096   1.321   4.807   4.596
   35X2IT    O1 1097   1.328   4.686   4.617
   35X2IT    C6 1098   1.428   4.885   4.538
   35X2IT   C12 1099   1.557   4.816   4.498
   35X2IT    C7 1100   1.412   5.022   4.522
   35X2IT    C8 1101   1.284   5.096   4.560
   35X2IT    O2 1102   1.280   5.218   4.538
   35X2IT    N3 1103   1.507   5.102   4.471
   35X2IT   H15 1104   1.596   5.069   4.439
   35X2IT   H16 1105   1.483   5.202   4.462
   35X2IT    N2 1106   1.089   4.825   4.692
   35X2IT    C3 1107   1.034   4.689   4.670
   35X2IT    C2 1108   0.893   4.719   4.622
   35X2IT    H2 1109   0.816   4.641   4.629
   35X2IT    N1 1110   0.891   4.814   4.509
   35X2IT   H14 1111   0.802   4.805   4.458
   35X2IT    C1 1112   0.861   4.862   4.646
   35X2IT    H1 1113   0.762   4.897   4.672
   35X2IT   C11 1114   0.981   4.925   4.714
   35X2IT    O3 1115   0.943   4.932   4.851
   35X2IT   C15 1116   1.048   4.952   4.947
   36X2IT   H18 1117   1.223   0.931   1.448
   36X2IT    N4 1118   1.168   0.939   1.364
   36X2IT   H17 1119   1.076   0.896   1.365
   36X2IT   C14 1120   1.190   1.050   1.288
   36X2IT    O5 1121   1.286   1.124   1.298
   36X2IT    O4 1122   1.090   1.064   1.196
   36X2IT   C13 1123   1.103   1.174   1.104
   36X2IT   C10 1124   1.195   1.138   0.986
   36X2IT    C9 1125   1.206   1.248   0.883
   36X2IT    C4 1126   1.165   1.203   0.759
   36X2IT    C5 1127   1.162   1.288   0.635
   36X2IT    O1 1128   1.128   1.237   0.528
   36X2IT    C6 1129   1.203   1.425   0.651
   36X2IT   C12 1130   1.202   1.517   0.530
   36X2IT    C7 1131   1.244   1.471   0.775
   36X2IT    C8 1132   1.247   1.383   0.900
   36X2IT    O2 1133   1.282   1.435   1.007
   36X2IT    N3 1134   1.285   1.596   0.798
   36X2IT   H15 1135   1.288   1.668   0.727
   36X2IT   H16 1136   1.312   1.619   0.894
   36X2IT    N2 1137   1.135   1.070   0.761
   36X2IT    C3 1138   1.033   1.000   0.682
   36X2IT    C2 1139   0.943   0.941   0.790
   36X2IT    H2 1140   0.878   0.857   0.766
   36X2IT    N1 1141   0.898   1.043   0.887
   36X2IT   H14 1142   0.814   1.010   0.935
   36X2IT    C1 1143   1.010   0.953   0.922
   36X2IT    H1 1144   1.000   0.879   1.000
   36X2IT   C11 1145   1.147   1.015   0.899
   36X2IT    O3 1146   1.237   0.906   0.905
   36X2IT   C15 1147   1.367   0.925   0.849
   37X2IT   H18 1148   1.145   3.905   1.341
   37X2IT    N4 1149   1.153   3.921   1.440
   37X2IT   H17 1150   1.243   3.901   1.482
   37X2IT   C14 1151   1.075   4.019   1.493
   37X2IT    O5 1152   0.978   4.069   1.438
   37X2IT    O4 1153   1.118   4.050   1.619
   37X2IT   C13 1154   1.040   4.148   1.691
   37X2IT   C10 1155   0.917   4.084   1.758
   37X2IT    C9 1156   0.837   4.182   1.840
   37X2IT    C4 1157   0.828   4.140   1.971
   37X2IT    C5 1158   0.756   4.215   2.079
   37X2IT    O1 1159   0.751   4.167   2.194
   37X2IT    C6 1160   0.696   4.340   2.041
   37X2IT   C12 1161   0.621   4.421   2.145
   37X2IT    C7 1162   0.703   4.382   1.910
   37X2IT    C8 1163   0.776   4.304   1.800
   37X2IT    O2 1164   0.781   4.354   1.687
   37X2IT    N3 1165   0.648   4.496   1.865
   37X2IT   H15 1166   0.598   4.560   1.923
   37X2IT   H16 1167   0.661   4.518   1.765
   37X2IT    N2 1168   0.886   4.018   1.989
   37X2IT    C3 1169   0.957   3.968   2.109
   37X2IT    C2 1170   1.096   3.939   2.054
   37X2IT    H2 1171   1.161   3.871   2.108
   37X2IT    N1 1172   1.153   4.054   1.981
   37X2IT   H14 1173   1.255   4.045   1.977
   37X2IT    C1 1174   1.092   3.943   1.906
   37X2IT    H1 1175   1.153   3.879   1.843
   37X2IT   C11 1176   0.949   3.971   1.863
   37X2IT    O3 1177   0.900   3.844   1.824
   37X2IT   C15 1178   0.758   3.829   1.815
   38X2IT   H18 1179   3.111   3.790   4.003
   38X2IT    N4 1180   3.123   3.801   3.904
   38X2IT   H17 1181   3.108   3.720   3.847
   38X2IT   C14 1182   3.094   3.925   3.853
   38X2IT    O5 1183   3.083   4.027   3.918
   38X2IT    O4 1184   3.084   3.917   3.717
   38X2IT   C13 1185   3.060   4.042   3.648
   38X2IT   C10 1186   3.191   4.119   3.625
   38X2IT    C9 1187   3.171   4.247   3.547
   38X2IT    C4 1188   3.248   4.246   3.432
   38X2IT    C5 1189   3.251   4.357   3.331
   38X2IT    O1 1190   3.326   4.349   3.233
   38X2IT    C6 1191   3.165   4.470   3.358
   38X2IT   C12 1192   3.163   4.586   3.260
   38X2IT    C7 1193   3.089   4.472   3.473
   38X2IT    C8 1194   3.087   4.358   3.575
   38X2IT    O2 1195   3.012   4.369   3.673
   38X2IT    N3 1196   3.007   4.573   3.507
   38X2IT   H15 1197   2.995   4.655   3.450
   38X2IT   H16 1198   2.954   4.564   3.594
   38X2IT    N2 1199   3.326   4.135   3.424
   38X2IT    C3 1200   3.368   4.062   3.304
   38X2IT    C2 1201   3.310   3.923   3.329
   38X2IT    H2 1202   3.351   3.837   3.275
   38X2IT    N1 1203   3.166   3.927   3.362
   38X2IT   H14 1204   3.125   3.835   3.344
   38X2IT    C1 1205   3.266   3.913   3.470
   38X2IT    H1 1206   3.273   3.821   3.528
   38X2IT   C11 1207   3.299   4.044   3.539
   38X2IT    O3 1208   3.417   4.015   3.613
   38X2IT   C15 1209   3.495   4.127   3.657
   39X2IT   H18 1210   1.857   1.168   1.585
   39X2IT    N4 1211   1.868   1.071   1.607
   39X2IT   H17 1212   1.828   1.004   1.543
   39X2IT   C14 1213   1.982   1.037   1.676
   39X2IT    O5 1214   2.053   1.116   1.736
   39X2IT    O4 1215   2.000   0.902   1.672
   39X2IT   C13 1216   2.113   0.851   1.747
   39X2IT   C10 1217   2.078   0.833   1.895
   39X2IT    C9 1218   2.191   0.773   1.976
   39X2IT    C4 1219   2.150   0.655   2.036
   39X2IT    C5 1220   2.239   0.570   2.123
   39X2IT    O1 1221   2.192   0.468   2.176
   39X2IT    C6 1222   2.375   0.615   2.139
   39X2IT   C12 1223   2.470   0.533   2.225
   39X2IT    C7 1224   2.416   0.732   2.079
   39X2IT    C8 1225   2.324   0.819   1.992
   39X2IT    O2 1226   2.373   0.920   1.940
   39X2IT    N3 1227   2.540   0.783   2.090
   39X2IT   H15 1228   2.613   0.738   2.142
   39X2IT   H16 1229   2.559   0.870   2.040
   39X2IT    N2 1230   2.018   0.630   2.015
   39X2IT    C3 1231   1.952   0.500   2.001
   39X2IT    C2 1232   1.892   0.509   1.861
   39X2IT    H2 1233   1.810   0.443   1.833
   39X2IT    N1 1234   1.992   0.548   1.759
   39X2IT   H14 1235   1.960   0.520   1.667
   39X2IT    C1 1236   1.899   0.649   1.814
   39X2IT    H1 1237   1.823   0.694   1.751
   39X2IT   C11 1238   1.959   0.733   1.925
   39X2IT    O3 1239   1.848   0.797   1.984
   39X2IT   C15 1240   1.866   0.853   2.115
   40X2IT   H18 1241   0.478   2.204   4.656
   40X2IT    N4 1242   0.436   2.121   4.694
   40X2IT   H17 1243   0.479   2.033   4.671
   40X2IT   C14 1244   0.371   2.135   4.814
   40X2IT    O5 1245   0.337   2.240   4.864
   40X2IT    O4 1246   0.346   2.011   4.867
   40X2IT   C13 1247   0.272   2.010   4.991
   40X2IT   C10 1248   0.120   2.020   4.966
   40X2IT    C9 1249   0.039   2.011   5.093
   40X2IT    C4 1250  -0.050   1.906   5.086
   40X2IT    C5 1251  -0.145   1.869   5.196
   40X2IT    O1 1252  -0.224   1.775   5.179
   40X2IT    C6 1253  -0.139   1.949   5.316
   40X2IT   C12 1254  -0.233   1.917   5.431
   40X2IT    C7 1255  -0.051   2.055   5.323
   40X2IT    C8 1256   0.045   2.092   5.210
   40X2IT    O2 1257   0.123   2.187   5.228
   40X2IT    N3 1258  -0.040   2.136   5.429
   40X2IT   H15 1259  -0.094   2.124   5.513
   40X2IT   H16 1260   0.030   2.210   5.424
   40X2IT    N2 1261  -0.046   1.844   4.965
   40X2IT    C3 1262  -0.068   1.701   4.936
   40X2IT    C2 1263   0.064   1.661   4.872
   40X2IT    H2 1264   0.070   1.572   4.809
   40X2IT    N1 1265   0.181   1.699   4.955
   40X2IT   H14 1266   0.262   1.642   4.929
   40X2IT    C1 1267   0.143   1.783   4.840
   40X2IT    H1 1268   0.208   1.791   4.754
   40X2IT   C11 1269   0.059   1.904   4.879
   40X2IT    O3 1270   0.006   1.950   4.755
   40X2IT   C15 1271  -0.107   2.038   4.762
   41X2IT   H18 1272   0.427   2.215   3.896
   41X2IT    N4 1273   0.457   2.266   3.977
   41X2IT   H17 1274   0.388   2.324   4.023
   41X2IT   C14 1275   0.557   2.209   4.051
   41X2IT    O5 1276   0.630   2.119   4.013
   41X2IT    O4 1277   0.567   2.272   4.172
   41X2IT   C13 1278   0.673   2.227   4.259
   41X2IT   C10 1279   0.807   2.294   4.223
   41X2IT    C9 1280   0.919   2.255   4.316
   41X2IT    C4 1281   0.973   2.367   4.377
   41X2IT    C5 1282   1.086   2.364   4.476
   41X2IT    O1 1283   1.130   2.470   4.522
   41X2IT    C6 1284   1.137   2.233   4.510
   41X2IT   C12 1285   1.251   2.222   4.609
   41X2IT    C7 1286   1.084   2.121   4.449
   41X2IT    C8 1287   0.969   2.126   4.347
   41X2IT    O2 1288   0.927   2.019   4.302
   41X2IT    N3 1289   1.127   1.996   4.472
   41X2IT   H15 1290   1.200   1.974   4.538
   41X2IT   H16 1291   1.079   1.920   4.423
   41X2IT    N2 1292   0.916   2.482   4.330
   41X2IT    C3 1293   0.892   2.607   4.404
   41X2IT    C2 1294   0.741   2.622   4.394
   41X2IT    H2 1295   0.695   2.720   4.409
   41X2IT    N1 1296   0.670   2.500   4.437
   41X2IT   H14 1297   0.573   2.524   4.462
   41X2IT    C1 1298   0.689   2.526   4.293
   41X2IT    H1 1299   0.604   2.548   4.229
   41X2IT   C11 1300   0.807   2.452   4.233
   41X2IT    O3 1301   0.829   2.515   4.108
   41X2IT   C15 1302   0.956   2.494   4.045
   42X2IT   H18 1303   1.112   3.064   3.685
   42X2IT    N4 1304   1.175   3.108   3.750
   42X2IT   H17 1305   1.238   3.177   3.712
   42X2IT   C14 1306   1.130   3.121   3.878
   42X2IT    O5 1307   1.036   3.061   3.926
   42X2IT    O4 1308   1.210   3.209   3.946
   42X2IT   C13 1309   1.179   3.228   4.086
   42X2IT   C10 1310   1.241   3.117   4.173
   42X2IT    C9 1311   1.217   3.137   4.321
   42X2IT    C4 1312   1.337   3.144   4.388
   42X2IT    C5 1313   1.349   3.165   4.537
   42X2IT    O1 1314   1.461   3.166   4.590
   42X2IT    C6 1315   1.225   3.180   4.609
   42X2IT   C12 1316   1.230   3.202   4.759
   42X2IT    C7 1317   1.105   3.172   4.542
   42X2IT    C8 1318   1.095   3.150   4.391
   42X2IT    O2 1319   0.981   3.149   4.340
   42X2IT    N3 1320   0.985   3.183   4.601
   42X2IT   H15 1321   0.974   3.200   4.700
   42X2IT   H16 1322   0.902   3.177   4.541
   42X2IT    N2 1323   1.443   3.123   4.307
   42X2IT    C3 1324   1.578   3.183   4.315
   42X2IT    C2 1325   1.590   3.255   4.182
   42X2IT    H2 1326   1.688   3.281   4.143
   42X2IT    N1 1327   1.475   3.345   4.156
   42X2IT   H14 1328   1.501   3.415   4.087
   42X2IT    C1 1329   1.480   3.212   4.092
   42X2IT    H1 1330   1.491   3.202   3.985
   42X2IT   C11 1331   1.398   3.106   4.165
   42X2IT    O3 1332   1.443   2.984   4.110
   42X2IT   C15 1333   1.414   2.864   4.184
   43X2IT   H18 1334   0.225  -0.091   0.245
   43X2IT    N4 1335   0.246  -0.035   0.326
   43X2IT   H17 1336   0.168  -0.003   0.382
   43X2IT   C14 1337   0.366  -0.058   0.386
   43X2IT    O5 1338   0.459  -0.119   0.337
   43X2IT    O4 1339   0.368   0.001   0.510
   43X2IT   C13 1340   0.492  -0.009   0.583
   43X2IT   C10 1341   0.593   0.099   0.539
   43X2IT    C9 1342   0.721   0.096   0.619
   43X2IT    C4 1343   0.742   0.218   0.681
   43X2IT    C5 1344   0.861   0.248   0.768
   43X2IT    O1 1345   0.873   0.361   0.816
   43X2IT    C6 1346   0.954   0.140   0.789
   43X2IT   C12 1347   1.076   0.164   0.876
   43X2IT    C7 1348   0.934   0.019   0.726
   43X2IT    C8 1349   0.813  -0.011   0.637
   43X2IT    O2 1350   0.803  -0.125   0.589
   43X2IT    N3 1351   1.017  -0.086   0.738
   43X2IT   H15 1352   1.100  -0.085   0.795
   43X2IT   H16 1353   0.991  -0.172   0.688
   43X2IT    N2 1354   0.648   0.309   0.647
   43X2IT    C3 1355   0.593   0.417   0.730
   43X2IT    C2 1356   0.445   0.382   0.735
   43X2IT    H2 1357   0.372   0.459   0.760
   43X2IT    N1 1358   0.421   0.243   0.777
   43X2IT   H14 1359   0.326   0.233   0.812
   43X2IT    C1 1360   0.415   0.278   0.634
   43X2IT    H1 1361   0.322   0.273   0.580
   43X2IT   C11 1362   0.544   0.248   0.559
   43X2IT    O3 1363   0.530   0.318   0.437
   43X2IT   C15 1364   0.650   0.341   0.361
   44X2IT   H18 1365   4.418   0.681   2.164
   44X2IT    N4 1366   4.323   0.693   2.132
   44X2IT   H17 1367   4.252   0.709   2.202
   44X2IT   C14 1368   4.308   0.749   2.008
   44X2IT    O5 1369   4.396   0.759   1.924
   44X2IT    O4 1370   4.178   0.788   1.990
   44X2IT   C13 1371   4.145   0.843   1.861
   44X2IT   C10 1372   4.116   0.732   1.758
   44X2IT    C9 1373   4.075   0.786   1.623
   44X2IT    C4 1374   3.950   0.737   1.589
   44X2IT    C5 1375   3.879   0.771   1.461
   44X2IT    O1 1376   3.769   0.719   1.436
   44X2IT    C6 1377   3.946   0.863   1.373
   44X2IT   C12 1378   3.880   0.903   1.242
   44X2IT    C7 1379   4.071   0.912   1.407
   44X2IT    C8 1380   4.143   0.875   1.537
   44X2IT    O2 1381   4.253   0.928   1.560
   44X2IT    N3 1382   4.142   0.997   1.331
   44X2IT   H15 1383   4.109   1.032   1.243
   44X2IT   H16 1384   4.233   1.027   1.367
   44X2IT    N2 1385   3.903   0.647   1.680
   44X2IT    C3 1386   3.764   0.624   1.719
   44X2IT    C2 1387   3.766   0.655   1.868
   44X2IT    H2 1388   3.688   0.616   1.933
   44X2IT    N1 1389   3.826   0.787   1.897
   44X2IT   H14 1390   3.795   0.819   1.989
   44X2IT    C1 1391   3.907   0.665   1.914
   44X2IT    H1 1392   3.940   0.634   2.012
   44X2IT   C11 1393   3.997   0.636   1.795
   44X2IT    O3 1394   4.039   0.502   1.816
   44X2IT   C15 1395   4.093   0.432   1.703
   45X2IT   H18 1396   1.773   4.396   3.493
   45X2IT    N4 1397   1.704   4.436   3.554
   45X2IT   H17 1398   1.682   4.534   3.541
   45X2IT   C14 1399   1.606   4.352   3.599
   45X2IT    O5 1400   1.611   4.230   3.594
   45X2IT    O4 1401   1.504   4.424   3.654
   45X2IT   C13 1402   1.396   4.347   3.712
   45X2IT   C10 1403   1.430   4.303   3.855
   45X2IT    C9 1404   1.316   4.228   3.922
   45X2IT    C4 1405   1.279   4.292   4.038
   45X2IT    C5 1406   1.169   4.245   4.129
   45X2IT    O1 1407   1.144   4.307   4.233
   45X2IT    C6 1408   1.097   4.126   4.087
   45X2IT   C12 1409   0.985   4.073   4.173
   45X2IT    C7 1410   1.136   4.062   3.971
   45X2IT    C8 1411   1.249   4.111   3.880
   45X2IT    O2 1412   1.272   4.047   3.776
   45X2IT    N3 1413   1.077   3.950   3.925
   45X2IT   H15 1414   0.999   3.906   3.971
   45X2IT   H16 1415   1.112   3.912   3.837
   45X2IT    N2 1416   1.358   4.399   4.066
   45X2IT    C3 1417   1.321   4.525   4.132
   45X2IT    C2 1418   1.354   4.628   4.025
   45X2IT    H2 1419   1.369   4.732   4.053
   45X2IT    N1 1420   1.292   4.596   3.895
   45X2IT   H14 1421   1.286   4.681   3.838
   45X2IT    C1 1422   1.434   4.564   3.918
   45X2IT    H1 1423   1.512   4.616   3.863
   45X2IT   C11 1424   1.458   4.419   3.957
   45X2IT    O3 1425   1.591   4.419   4.006
   45X2IT   C15 1426   1.630   4.307   4.086
   46X2IT   H18 1427   2.391   4.415  -0.035
   46X2IT    N4 1428   2.324   4.359   0.014
   46X2IT   H17 1429   2.298   4.270  -0.027
   46X2IT   C14 1430   2.322   4.371   0.150
   46X2IT    O5 1431   2.374   4.462   0.213
   46X2IT    O4 1432   2.250   4.269   0.206
   46X2IT   C13 1433   2.234   4.273   0.349
   46X2IT   C10 1434   2.118   4.366   0.391
   46X2IT    C9 1435   2.094   4.367   0.540
   46X2IT    C4 1436   1.964   4.328   0.567
   46X2IT    C5 1437   1.908   4.318   0.706
   46X2IT    O1 1438   1.789   4.286   0.721
   46X2IT    C6 1439   1.997   4.348   0.815
   46X2IT   C12 1440   1.947   4.340   0.957
   46X2IT    C7 1441   2.127   4.388   0.787
   46X2IT    C8 1442   2.183   4.399   0.645
   46X2IT    O2 1443   2.302   4.432   0.632
   46X2IT    N3 1444   2.217   4.420   0.881
   46X2IT   H15 1445   2.197   4.417   0.980
   46X2IT   H16 1446   2.311   4.447   0.849
   46X2IT    N2 1447   1.892   4.308   0.454
   46X2IT    C3 1448   1.784   4.210   0.432
   46X2IT    C2 1449   1.839   4.126   0.318
   46X2IT    H2 1450   1.771   4.067   0.256
   46X2IT    N1 1451   1.975   4.076   0.346
   46X2IT   H14 1452   1.994   3.995   0.286
   46X2IT    C1 1453   1.958   4.194   0.260
   46X2IT    H1 1454   1.982   4.190   0.154
   46X2IT   C11 1455   1.977   4.326   0.333
   46X2IT    O3 1456   1.924   4.423   0.245
   46X2IT   C15 1457   1.892   4.551   0.301
   47X2IT   H18 1458   0.727   1.953   2.149
   47X2IT    N4 1459   0.785   2.028   2.117
   47X2IT   H17 1460   0.813   2.097   2.185
   47X2IT   C14 1461   0.868   2.001   2.012
   47X2IT    O5 1462   0.858   1.904   1.938
   47X2IT    O4 1463   0.960   2.100   1.998
   47X2IT   C13 1464   1.051   2.088   1.886
   47X2IT   C10 1465   0.988   2.142   1.757
   47X2IT    C9 1466   1.082   2.137   1.639
   47X2IT    C4 1467   1.099   2.264   1.586
   47X2IT    C5 1468   1.187   2.295   1.468
   47X2IT    O1 1469   1.193   2.411   1.426
   47X2IT    C6 1470   1.260   2.184   1.411
   47X2IT   C12 1471   1.351   2.208   1.293
   47X2IT    C7 1472   1.242   2.057   1.464
   47X2IT    C8 1473   1.152   2.027   1.583
   47X2IT    O2 1474   1.147   1.910   1.624
   47X2IT    N3 1475   1.304   1.948   1.416
   47X2IT   H15 1476   1.369   1.950   1.339
   47X2IT   H16 1477   1.285   1.859   1.464
   47X2IT    N2 1478   1.021   2.356   1.648
   47X2IT    C3 1479   1.050   2.498   1.672
   47X2IT    C2 1480   1.044   2.506   1.824
   47X2IT    H2 1481   1.028   2.603   1.873
   47X2IT    N1 1482   1.129   2.404   1.890
   47X2IT   H14 1483   1.149   2.434   1.986
   47X2IT    C1 1484   0.983   2.382   1.878
   47X2IT    H1 1485   0.920   2.380   1.966
   47X2IT   C11 1486   0.945   2.293   1.760
   47X2IT    O3 1487   0.806   2.312   1.747
   47X2IT   C15 1488   0.746   2.273   1.623
   48X2IT   H18 1489   5.510   2.105   3.649
   48X2IT    N4 1490   5.413   2.123   3.666
   48X2IT   H17 1491   5.354   2.137   3.585
   48X2IT   C14 1492   5.359   2.067   3.779
   48X2IT    O5 1493   5.423   2.022   3.872
   48X2IT    O4 1494   5.223   2.074   3.773
   48X2IT   C13 1495   5.152   2.024   3.889
   48X2IT   C10 1496   5.144   2.131   4.000
   48X2IT    C9 1497   5.065   2.086   4.120
   48X2IT    C4 1498   4.959   2.171   4.143
   48X2IT    C5 1499   4.860   2.155   4.255
   48X2IT    O1 1500   4.770   2.239   4.270
   48X2IT    C6 1501   4.877   2.039   4.339
   48X2IT   C12 1502   4.781   2.016   4.454
   48X2IT    C7 1503   4.984   1.954   4.317
   48X2IT    C8 1504   5.085   1.973   4.204
   48X2IT    O2 1505   5.174   1.887   4.190
   48X2IT    N3 1506   5.009   1.845   4.392
   48X2IT   H15 1507   4.952   1.817   4.469
   48X2IT   H16 1508   5.090   1.788   4.365
   48X2IT    N2 1509   4.960   2.277   4.058
   48X2IT    C3 1510   4.844   2.349   4.002
   48X2IT    C2 1511   4.862   2.329   3.853
   48X2IT    H2 1512   4.812   2.397   3.783
   48X2IT    N1 1513   4.879   2.186   3.817
   48X2IT   H14 1514   4.856   2.173   3.718
   48X2IT    C1 1515   4.997   2.275   3.826
   48X2IT    H1 1516   5.055   2.300   3.738
   48X2IT   C11 1517   5.070   2.264   3.959
   48X2IT    O3 1518   5.156   2.377   3.960
   48X2IT   C15 1519   5.209   2.417   4.087
   49X2IT   H18 1520   4.742   4.237   0.772
   49X2IT    N4 1521   4.704   4.173   0.839
   49X2IT   H17 1522   4.631   4.111   0.808
   49X2IT   C14 1523   4.789   4.132   0.938
   49X2IT    O5 1524   4.894   4.186   0.967
   49X2IT    O4 1525   4.736   4.024   1.003
   49X2IT   C13 1526   4.812   3.974   1.115
   49X2IT   C10 1527   4.783   4.054   1.243
   49X2IT    C9 1528   4.855   3.999   1.364
   49X2IT    C4 1529   4.764   3.965   1.463
   49X2IT    C5 1530   4.803   3.908   1.596
   49X2IT    O1 1531   4.715   3.884   1.680
   49X2IT    C6 1532   4.943   3.884   1.618
   49X2IT   C12 1533   4.989   3.826   1.750
   49X2IT    C7 1534   5.034   3.919   1.520
   49X2IT    C8 1535   4.994   3.979   1.385
   49X2IT    O2 1536   5.083   4.002   1.302
   49X2IT    N3 1537   5.167   3.903   1.532
   49X2IT   H15 1538   5.210   3.864   1.613
   49X2IT   H16 1539   5.225   3.931   1.452
   49X2IT    N2 1540   4.637   3.998   1.429
   49X2IT    C3 1541   4.513   3.927   1.465
   49X2IT    C2 1542   4.456   3.890   1.328
   49X2IT    H2 1543   4.350   3.866   1.318
   49X2IT    N1 1544   4.555   3.819   1.244
   49X2IT   H14 1545   4.507   3.766   1.171
   49X2IT    C1 1546   4.530   3.963   1.222
   49X2IT    H1 1547   4.484   3.998   1.131
   49X2IT   C11 1548   4.632   4.053   1.290
   49X2IT    O3 1549   4.573   4.182   1.286
   49X2IT   C15 1550   4.626   4.281   1.376
   50X2IT   H18 1551   1.452   4.561   2.273
   50X2IT    N4 1552   1.482   4.609   2.190
   50X2IT   H17 1553   1.523   4.701   2.202
   50X2IT   C14 1554   1.523   4.531   2.086
   50X2IT    O5 1555   1.501   4.412   2.074
   50X2IT    O4 1556   1.589   4.608   1.994
   50X2IT   C13 1557   1.633   4.539   1.874
   50X2IT   C10 1558   1.519   4.529   1.771
   50X2IT    C9 1559   1.563   4.464   1.641
   50X2IT    C4 1560   1.541   4.549   1.535
   50X2IT    C5 1561   1.574   4.516   1.392
   50X2IT    O1 1562   1.547   4.598   1.303
   50X2IT    C6 1563   1.635   4.388   1.369
   50X2IT   C12 1564   1.672   4.348   1.227
   50X2IT    C7 1565   1.656   4.302   1.475
   50X2IT    C8 1566   1.622   4.337   1.620
   50X2IT    O2 1567   1.649   4.254   1.708
   50X2IT    N3 1568   1.711   4.180   1.462
   50X2IT   H15 1569   1.742   4.142   1.374
   50X2IT   H16 1570   1.724   4.126   1.548
   50X2IT    N2 1571   1.478   4.664   1.574
   50X2IT    C3 1572   1.494   4.799   1.518
   50X2IT    C2 1573   1.543   4.878   1.638
   50X2IT    H2 1574   1.533   4.987   1.639
   50X2IT    N1 1575   1.660   4.815   1.703
   50X2IT   H14 1576   1.710   4.885   1.758
   50X2IT    C1 1577   1.525   4.797   1.761
   50X2IT    H1 1578   1.500   4.840   1.857
   50X2IT   C11 1579   1.460   4.666   1.722
   50X2IT    O3 1580   1.324   4.683   1.758
   50X2IT   C15 1581   1.229   4.593   1.699
   51X2IT   H18 1582   5.091   3.092   1.290
   51X2IT    N4 1583   5.010   3.087   1.350
   51X2IT   H17 1584   5.026   3.076   1.449
   51X2IT   C14 1585   4.899   3.155   1.308
   51X2IT    O5 1586   4.881   3.197   1.195
   51X2IT    O4 1587   4.809   3.165   1.410
   51X2IT   C13 1588   4.684   3.229   1.378
   51X2IT   C10 1589   4.585   3.130   1.314
   51X2IT    C9 1590   4.450   3.191   1.285
   51X2IT    C4 1591   4.351   3.120   1.351
   51X2IT    C5 1592   4.205   3.155   1.344
   51X2IT    O1 1593   4.122   3.084   1.403
   51X2IT    C6 1594   4.170   3.272   1.267
   51X2IT   C12 1595   4.024   3.313   1.257
   51X2IT    C7 1596   4.269   3.342   1.201
   51X2IT    C8 1597   4.417   3.305   1.208
   51X2IT    O2 1598   4.498   3.378   1.148
   51X2IT    N3 1599   4.246   3.451   1.126
   51X2IT   H15 1600   4.154   3.490   1.112
   51X2IT   H16 1601   4.327   3.496   1.083
   51X2IT    N2 1602   4.400   3.011   1.415
   51X2IT    C3 1603   4.352   2.951   1.540
   51X2IT    C2 1604   4.475   2.960   1.629
   51X2IT    H2 1605   4.483   2.896   1.717
   51X2IT    N1 1606   4.530   3.098   1.634
   51X2IT   H14 1607   4.587   3.108   1.718
   51X2IT    C1 1608   4.593   2.996   1.547
   51X2IT    H1 1609   4.693   2.960   1.568
   51X2IT   C11 1610   4.548   3.005   1.402
   51X2IT    O3 1611   4.591   2.882   1.345
   51X2IT   C15 1612   4.531   2.843   1.221
   52X2IT   H18 1613   2.262   4.827   3.351
   52X2IT    N4 1614   2.210   4.772   3.417
   52X2IT   H17 1615   2.171   4.685   3.384
   52X2IT   C14 1616   2.247   4.783   3.548
   52X2IT    O5 1617   2.317   4.872   3.594
   52X2IT    O4 1618   2.190   4.683   3.621
   52X2IT   C13 1619   2.216   4.686   3.763
   52X2IT   C10 1620   2.119   4.781   3.836
   52X2IT    C9 1621   2.137   4.782   3.986
   52X2IT    C4 1622   2.020   4.746   4.049
   52X2IT    C5 1623   2.004   4.736   4.198
   52X2IT    O1 1624   1.893   4.707   4.246
   52X2IT    C6 1625   2.122   4.763   4.277
   52X2IT   C12 1626   2.113   4.754   4.428
   52X2IT    C7 1627   2.239   4.799   4.214
   52X2IT    C8 1628   2.254   4.810   4.062
   52X2IT    O2 1629   2.365   4.839   4.016
   52X2IT    N3 1630   2.353   4.828   4.279
   52X2IT   H15 1631   2.362   4.824   4.379
   52X2IT   H16 1632   2.434   4.852   4.222
   52X2IT    N2 1633   1.918   4.729   3.961
   52X2IT    C3 1634   1.805   4.634   3.970
   52X2IT    C2 1635   1.823   4.550   3.844
   52X2IT    H2 1636   1.739   4.494   3.804
   52X2IT    N1 1637   1.960   4.496   3.833
   52X2IT   H14 1638   1.959   4.415   3.770
   52X2IT    C1 1639   1.923   4.615   3.755
   52X2IT    H1 1640   1.917   4.612   3.647
   52X2IT   C11 1641   1.966   4.746   3.821
   52X2IT    O3 1642   1.893   4.845   3.751
   52X2IT   C15 1643   1.882   4.974   3.814
   53X2IT   H18 1644  -0.027   0.003   2.757
   53X2IT    N4 1645  -0.026   0.033   2.661
   53X2IT   H17 1646  -0.053  -0.035   2.592
   53X2IT   C14 1647  -0.052   0.165   2.639
   53X2IT    O5 1648  -0.049   0.253   2.723
   53X2IT    O4 1649  -0.078   0.185   2.506
   53X2IT   C13 1650  -0.101   0.322   2.466
   53X2IT   C10 1651   0.031   0.396   2.442
   53X2IT    C9 1652   0.012   0.538   2.393
   53X2IT    C4 1653   0.074   0.555   2.271
   53X2IT    C5 1654   0.074   0.684   2.194
   53X2IT    O1 1655   0.136   0.692   2.087
   53X2IT    C6 1656  -0.000   0.794   2.252
   53X2IT   C12 1657  -0.006   0.926   2.180
   53X2IT    C7 1658  -0.062   0.776   2.375
   53X2IT    C8 1659  -0.060   0.644   2.452
   53X2IT    O2 1660  -0.123   0.639   2.559
   53X2IT    N3 1661  -0.132   0.872   2.437
   53X2IT   H15 1662  -0.145   0.965   2.399
   53X2IT   H16 1663  -0.175   0.848   2.527
   53X2IT    N2 1664   0.143   0.445   2.232
   53X2IT    C3 1665   0.166   0.395   2.096
   53X2IT    C2 1666   0.102   0.257   2.101
   53X2IT    H2 1667   0.129   0.182   2.027
   53X2IT    N1 1668  -0.037   0.261   2.153
   53X2IT   H14 1669  -0.087   0.177   2.123
   53X2IT    C1 1670   0.073   0.221   2.242
   53X2IT    H1 1671   0.080   0.120   2.280
   53X2IT   C11 1672   0.124   0.334   2.330
   53X2IT    O3 1673   0.247   0.286   2.381
   53X2IT   C15 1674   0.337   0.383   2.436
   54X2IT   H18 1675   0.706   1.279   0.631
   54X2IT    N4 1676   0.731   1.374   0.649
   54X2IT   H17 1677   0.760   1.398   0.743
   54X2IT   C14 1678   0.786   1.443   0.544
   54X2IT    O5 1679   0.780   1.409   0.427
   54X2IT    O4 1680   0.843   1.558   0.589
   54X2IT   C13 1681   0.899   1.645   0.488
   54X2IT   C10 1682   0.791   1.735   0.425
   54X2IT    C9 1683   0.847   1.832   0.323
   54X2IT    C4 1684   0.816   1.962   0.360
   54X2IT    C5 1685   0.858   2.083   0.281
   54X2IT    O1 1686   0.823   2.195   0.320
   54X2IT    C6 1687   0.936   2.059   0.163
   54X2IT   C12 1688   0.982   2.177   0.079
   54X2IT    C7 1689   0.966   1.929   0.125
   54X2IT    C8 1690   0.922   1.806   0.206
   54X2IT    O2 1691   0.958   1.695   0.166
   54X2IT    N3 1692   1.037   1.897   0.016
   54X2IT   H15 1693   1.074   1.965  -0.047
   54X2IT   H16 1694   1.054   1.797  -0.001
   54X2IT    N2 1695   0.738   1.966   0.471
   54X2IT    C3 1696   0.737   2.069   0.576
   54X2IT    C2 1697   0.772   1.988   0.700
   54X2IT    H2 1698   0.747   2.027   0.799
   54X2IT    N1 1699   0.895   1.907   0.682
   54X2IT   H14 1700   0.933   1.883   0.774
   54X2IT    C1 1701   0.762   1.843   0.669
   54X2IT    H1 1702   0.729   1.769   0.741
   54X2IT   C11 1703   0.715   1.830   0.525
   54X2IT    O3 1704   0.577   1.799   0.536
   54X2IT   C15 1705   0.497   1.819   0.419
   55X2IT   H18 1706   0.770   1.216   2.567
   55X2IT    N4 1707   0.723   1.213   2.479
   55X2IT   H17 1708   0.709   1.122   2.437
   55X2IT   C14 1709   0.631   1.311   2.456
   55X2IT    O5 1710   0.622   1.415   2.519
   55X2IT    O4 1711   0.553   1.278   2.348
   55X2IT   C13 1712   0.456   1.377   2.307
   55X2IT   C10 1713   0.519   1.484   2.217
   55X2IT    C9 1714   0.419   1.585   2.167
   55X2IT    C4 1715   0.418   1.587   2.028
   55X2IT    C5 1716   0.329   1.676   1.946
   55X2IT    O1 1717   0.338   1.673   1.823
   55X2IT    C6 1718   0.238   1.761   2.019
   55X2IT   C12 1719   0.145   1.853   1.942
   55X2IT    C7 1720   0.239   1.760   2.157
   55X2IT    C8 1721   0.331   1.669   2.240
   55X2IT    O2 1722   0.321   1.674   2.363
   55X2IT    N3 1723   0.159   1.837   2.233
   55X2IT   H15 1724   0.092   1.900   2.195
   55X2IT   H16 1725   0.168   1.826   2.335
   55X2IT    N2 1726   0.512   1.505   1.976
   55X2IT    C3 1727   0.506   1.428   1.851
   55X2IT    C2 1728   0.522   1.285   1.900
   55X2IT    H2 1729   0.554   1.207   1.831
   55X2IT    N1 1730   0.426   1.252   2.008
   55X2IT   H14 1731   0.415   1.150   2.014
   55X2IT    C1 1732   0.566   1.286   2.042
   55X2IT    H1 1733   0.632   1.212   2.083
   55X2IT   C11 1734   0.584   1.431   2.084
   55X2IT    O3 1735   0.724   1.452   2.078
   55X2IT   C15 1736   0.770   1.587   2.075
   56X2IT   H18 1737   4.219   3.124   2.070
   56X2IT    N4 1738   4.155   3.201   2.075
   56X2IT   H17 1739   4.058   3.179   2.088
   56X2IT   C14 1740   4.205   3.318   2.126
   56X2IT    O5 1741   4.323   3.344   2.139
   56X2IT    O4 1742   4.102   3.403   2.155
   56X2IT   C13 1743   4.140   3.533   2.204
   56X2IT   C10 1744   4.173   3.629   2.088
   56X2IT    C9 1745   4.207   3.769   2.135
   56X2IT    C4 1746   4.121   3.860   2.077
   56X2IT    C5 1747   4.126   4.008   2.102
   56X2IT    O1 1748   4.047   4.083   2.042
   56X2IT    C6 1749   4.225   4.054   2.196
   56X2IT   C12 1750   4.235   4.202   2.227
   56X2IT    C7 1751   4.312   3.963   2.254
   56X2IT    C8 1752   4.306   3.812   2.226
   56X2IT    O2 1753   4.386   3.739   2.287
   56X2IT    N3 1754   4.408   3.996   2.340
   56X2IT   H15 1755   4.425   4.090   2.371
   56X2IT   H16 1756   4.465   3.920   2.378
   56X2IT    N2 1757   4.036   3.802   1.988
   56X2IT    C3 1758   3.898   3.839   1.956
   56X2IT    C2 1759   3.821   3.713   1.992
   56X2IT    H2 1760   3.722   3.696   1.950
   56X2IT    N1 1761   3.852   3.666   2.129
   56X2IT   H14 1762   3.776   3.605   2.161
   56X2IT    C1 1763   3.917   3.601   2.013
   56X2IT    H1 1764   3.894   3.499   1.987
   56X2IT   C11 1765   4.057   3.654   1.985
   56X2IT    O3 1766   4.086   3.607   1.855
   56X2IT   C15 1767   4.194   3.670   1.786
   57X2IT   H18 1768   1.350   0.396   4.097
   57X2IT    N4 1769   1.422   0.408   4.029
   57X2IT   H17 1770   1.516   0.382   4.056
   57X2IT   C14 1771   1.385   0.396   3.897
   57X2IT    O5 1772   1.271   0.400   3.856
   57X2IT    O4 1773   1.497   0.383   3.819
   57X2IT   C13 1774   1.473   0.376   3.677
   57X2IT   C10 1775   1.457   0.516   3.615
   57X2IT    C9 1776   1.439   0.513   3.465
   57X2IT    C4 1777   1.538   0.588   3.404
   57X2IT    C5 1778   1.550   0.605   3.255
   57X2IT    O1 1779   1.640   0.677   3.209
   57X2IT    C6 1780   1.453   0.536   3.174
   57X2IT   C12 1781   1.460   0.549   3.023
   57X2IT    C7 1782   1.353   0.462   3.235
   57X2IT    C8 1783   1.342   0.446   3.387
   57X2IT    O2 1784   1.251   0.374   3.431
   57X2IT    N3 1785   1.258   0.396   3.169
   57X2IT   H15 1786   1.252   0.394   3.068
   57X2IT   H16 1787   1.190   0.343   3.224
   57X2IT    N2 1788   1.618   0.650   3.494
   57X2IT    C3 1789   1.762   0.680   3.482
   57X2IT    C2 1790   1.821   0.605   3.600
   57X2IT    H2 1791   1.919   0.632   3.639
   57X2IT    N1 1792   1.778   0.463   3.602
   57X2IT   H14 1793   1.844   0.409   3.659
   57X2IT    C1 1794   1.711   0.561   3.690
   57X2IT    H1 1795   1.722   0.555   3.798
   57X2IT   C11 1796   1.580   0.613   3.633
   57X2IT    O3 1797   1.550   0.726   3.712
   57X2IT   C15 1798   1.455   0.819   3.660
   58X2IT   H18 1799   3.967   4.749   5.321
   58X2IT    N4 1800   3.910   4.772   5.242
   58X2IT   H17 1801   3.910   4.706   5.165
   58X2IT   C14 1802   3.797   4.845   5.267
   58X2IT    O5 1803   3.775   4.908   5.369
   58X2IT    O4 1804   3.715   4.842   5.158
   58X2IT   C13 1805   3.595   4.922   5.167
   58X2IT   C10 1806   3.621   5.069   5.131
   58X2IT    C9 1807   3.496   5.154   5.133
   58X2IT    C4 1808   3.477   5.213   5.009
   58X2IT    C5 1809   3.362   5.303   4.977
   58X2IT    O1 1810   3.354   5.355   4.864
   58X2IT    C6 1811   3.265   5.325   5.082
   58X2IT   C12 1812   3.146   5.415   5.056
   58X2IT    C7 1813   3.285   5.267   5.206
   58X2IT    C8 1814   3.404   5.176   5.238
   58X2IT    O2 1815   3.409   5.125   5.351
   58X2IT    N3 1816   3.202   5.283   5.310
   58X2IT   H15 1817   3.118   5.338   5.306
   58X2IT   H16 1818   3.226   5.234   5.397
   58X2IT    N2 1819   3.579   5.186   4.923
   58X2IT    C3 1820   3.572   5.170   4.777
   58X2IT    C2 1821   3.623   5.028   4.759
   58X2IT    H2 1822   3.662   4.996   4.661
   58X2IT    N1 1823   3.552   4.930   4.844
   58X2IT   H14 1824   3.563   4.836   4.805
   58X2IT    C1 1825   3.685   4.980   4.885
   58X2IT    H1 1826   3.770   4.914   4.888
   58X2IT   C11 1827   3.677   5.094   4.986
   58X2IT    O3 1828   3.808   5.148   4.986
   58X2IT   C15 1829   3.824   5.280   5.041
   59X2IT   H18 1830   2.654   5.510   2.728
   59X2IT    N4 1831   2.567   5.478   2.766
   59X2IT   H17 1832   2.500   5.548   2.793
   59X2IT   C14 1833   2.523   5.356   2.722
   59X2IT    O5 1834   2.592   5.274   2.664
   59X2IT    O4 1835   2.392   5.339   2.756
   59X2IT   C13 1836   2.334   5.212   2.722
   59X2IT   C10 1837   2.366   5.104   2.827
   59X2IT    C9 1838   2.301   4.971   2.798
   59X2IT    C4 1839   2.220   4.933   2.904
   59X2IT    C5 1840   2.140   4.806   2.907
   59X2IT    O1 1841   2.074   4.779   3.008
   59X2IT    C6 1842   2.148   4.723   2.790
   59X2IT   C12 1843   2.069   4.593   2.786
   59X2IT    C7 1844   2.229   4.760   2.684
   59X2IT    C8 1845   2.311   4.889   2.683
   59X2IT    O2 1846   2.377   4.915   2.581
   59X2IT    N3 1847   2.244   4.688   2.572
   59X2IT   H15 1848   2.196   4.601   2.556
   59X2IT   H16 1849   2.306   4.726   2.500
   59X2IT    N2 1850   2.228   5.020   3.008
   59X2IT    C3 1851   2.122   5.058   3.103
   59X2IT    C2 1852   2.110   5.208   3.081
   59X2IT    H2 1853   2.065   5.270   3.157
   59X2IT    N1 1854   2.092   5.242   2.938
   59X2IT   H14 1855   2.050   5.335   2.930
   59X2IT    C1 1856   2.225   5.255   3.000
   59X2IT    H1 1857   2.271   5.352   3.013
   59X2IT   C11 1858   2.316   5.136   2.973
   59X2IT    O3 1859   2.422   5.152   3.066
   59X2IT   C15 1860   2.503   5.037   3.093
   60X2IT   H18 1861   4.427   3.274   3.658
   60X2IT    N4 1862   4.352   3.241   3.716
   60X2IT   H17 1863   4.258   3.267   3.690
   60X2IT   C14 1864   4.373   3.121   3.779
   60X2IT    O5 1865   4.481   3.067   3.793
   60X2IT    O4 1866   4.255   3.073   3.828
   60X2IT   C13 1867   4.263   2.951   3.904
   60X2IT   C10 1868   4.302   2.977   4.050
   60X2IT    C9 1869   4.305   2.851   4.134
   60X2IT    C4 1870   4.218   2.864   4.241
   60X2IT    C5 1871   4.196   2.756   4.344
   60X2IT    O1 1872   4.119   2.778   4.439
   60X2IT    C6 1873   4.268   2.633   4.325
   60X2IT   C12 1874   4.250   2.520   4.425
   60X2IT    C7 1875   4.355   2.621   4.218
   60X2IT    C8 1876   4.378   2.731   4.115
   60X2IT    O2 1877   4.455   2.708   4.021
   60X2IT    N3 1878   4.428   2.511   4.194
   60X2IT   H15 1879   4.424   2.428   4.251
   60X2IT   H16 1880   4.488   2.512   4.111
   60X2IT    N2 1881   4.162   2.987   4.247
   60X2IT    C3 1882   4.027   3.023   4.295
   60X2IT    C2 1883   3.965   3.087   4.172
   60X2IT    H2 1884   3.879   3.153   4.183
   60X2IT    N1 1885   3.977   3.001   4.052
   60X2IT   H14 1886   3.907   3.029   3.983
   60X2IT    C1 1887   4.071   3.113   4.071
   60X2IT    H1 1888   4.070   3.198   4.004
   60X2IT   C11 1889   4.204   3.070   4.131
   60X2IT    O3 1890   4.265   3.191   4.171
   60X2IT   C15 1891   4.372   3.183   4.265
   61X2IT   H18 1892   1.229   2.771   5.004
   61X2IT    N4 1893   1.288   2.811   4.934
   61X2IT   H17 1894   1.264   2.903   4.900
   61X2IT   C14 1895   1.419   2.773   4.936
   61X2IT    O5 1896   1.464   2.677   4.996
   61X2IT    O4 1897   1.493   2.857   4.856
   61X2IT   C13 1898   1.633   2.825   4.844
   61X2IT   C10 1899   1.657   2.717   4.737
   61X2IT    C9 1900   1.804   2.686   4.716
   61X2IT    C4 1901   1.838   2.708   4.584
   61X2IT    C5 1902   1.977   2.688   4.529
   61X2IT    O1 1903   1.998   2.706   4.408
   61X2IT    C6 1904   2.078   2.646   4.623
   61X2IT   C12 1905   2.219   2.624   4.575
   61X2IT    C7 1906   2.043   2.623   4.755
   61X2IT    C8 1907   1.901   2.643   4.809
   61X2IT    O2 1908   1.882   2.624   4.930
   61X2IT    N3 1909   2.129   2.582   4.849
   61X2IT   H15 1910   2.226   2.566   4.831
   61X2IT   H16 1911   2.092   2.570   4.944
   61X2IT    N2 1912   1.731   2.742   4.508
   61X2IT    C3 1913   1.728   2.833   4.391
   61X2IT    C2 1914   1.631   2.941   4.437
   61X2IT    H2 1915   1.581   3.004   4.363
   61X2IT    N1 1916   1.667   2.997   4.569
   61X2IT   H14 1917   1.623   3.089   4.580
   61X2IT    C1 1918   1.561   2.895   4.560
   61X2IT    H1 1919   1.458   2.920   4.582
   61X2IT   C11 1920   1.609   2.754   4.592
   61X2IT    O3 1921   1.504   2.671   4.545
   61X2IT   C15 1922   1.535   2.532   4.525
   62X2IT   H18 1923   2.957   4.535   1.314
   62X2IT    N4 1924   2.903   4.546   1.231
   62X2IT   H17 1925   2.811   4.587   1.241
   62X2IT   C14 1926   2.972   4.565   1.115
   62X2IT    O5 1927   3.091   4.544   1.100
   62X2IT    O4 1928   2.888   4.609   1.017
   62X2IT   C13 1929   2.947   4.628   0.886
   62X2IT   C10 1930   2.954   4.496   0.808
   62X2IT    C9 1931   3.009   4.512   0.668
   62X2IT    C4 1932   2.917   4.467   0.575
   62X2IT    C5 1933   2.939   4.470   0.427
   62X2IT    O1 1934   2.853   4.423   0.351
   62X2IT    C6 1935   3.064   4.527   0.382
   62X2IT   C12 1936   3.093   4.533   0.233
   62X2IT    C7 1937   3.156   4.572   0.475
   62X2IT    C8 1938   3.132   4.567   0.626
   62X2IT    O2 1939   3.220   4.614   0.700
   62X2IT    N3 1940   3.275   4.625   0.442
   62X2IT   H15 1941   3.306   4.637   0.347
   62X2IT   H16 1942   3.335   4.656   0.519
   62X2IT    N2 1943   2.808   4.412   0.634
   62X2IT    C3 1944   2.669   4.413   0.586
   62X2IT    C2 1945   2.596   4.485   0.699
   62X2IT    H2 1946   2.488   4.473   0.710
   62X2IT    N1 1947   2.659   4.614   0.733
   62X2IT   H14 1948   2.591   4.673   0.782
   62X2IT    C1 1949   2.685   4.495   0.817
   62X2IT    H1 1950   2.649   4.490   0.919
   62X2IT   C11 1951   2.816   4.425   0.783
   62X2IT    O3 1952   2.805   4.299   0.847
   62X2IT   C15 1953   2.894   4.195   0.803
   63X2IT   H18 1954   0.502   3.577   1.527
   63X2IT    N4 1955   0.461   3.505   1.471
   63X2IT   H17 1956   0.431   3.421   1.519
   63X2IT   C14 1957   0.394   3.544   1.359
   63X2IT    O5 1958   0.403   3.654   1.307
   63X2IT    O4 1959   0.319   3.441   1.311
   63X2IT   C13 1960   0.248   3.466   1.188
   63X2IT   C10 1961   0.338   3.446   1.065
   63X2IT    C9 1962   0.266   3.465   0.934
   63X2IT    C4 1963   0.275   3.351   0.857
   63X2IT    C5 1964   0.213   3.335   0.721
   63X2IT    O1 1965   0.230   3.230   0.658
   63X2IT    C6 1966   0.137   3.448   0.672
   63X2IT   C12 1967   0.071   3.439   0.536
   63X2IT    C7 1968   0.128   3.563   0.749
   63X2IT    C8 1969   0.193   3.577   0.887
   63X2IT    O2 1970   0.175   3.683   0.948
   63X2IT    N3 1971   0.061   3.673   0.711
   63X2IT   H15 1972   0.012   3.680   0.624
   63X2IT   H16 1973   0.060   3.752   0.776
   63X2IT    N2 1974   0.354   3.256   0.915
   63X2IT    C3 1975   0.340   3.110   0.908
   63X2IT    C2 1976   0.321   3.072   1.054
   63X2IT    H2 1977   0.342   2.970   1.086
   63X2IT    N1 1978   0.214   3.150   1.119
   63X2IT   H14 1979   0.181   3.099   1.202
   63X2IT    C1 1980   0.355   3.188   1.140
   63X2IT    H1 1981   0.401   3.179   1.237
   63X2IT   C11 1982   0.400   3.302   1.049
   63X2IT    O3 1983   0.541   3.300   1.060
   63X2IT   C15 1984   0.615   3.369   0.958
   64X2IT   H18 1985   2.681   1.242   3.600
   64X2IT    N4 1986   2.606   1.294   3.557
   64X2IT   H17 1987   2.569   1.372   3.610
   64X2IT   C14 1988   2.607   1.300   3.421
   64X2IT    O5 1989   2.671   1.226   3.348
   64X2IT    O4 1990   2.522   1.398   3.378
   64X2IT   C13 1991   2.507   1.411   3.235
   64X2IT   C10 1992   2.405   1.310   3.179
   64X2IT    C9 1993   2.381   1.326   3.031
   64X2IT    C4 1994   2.247   1.350   3.006
   64X2IT    C5 1995   2.190   1.371   2.869
   64X2IT    O1 1996   2.068   1.389   2.856
   64X2IT    C6 1997   2.283   1.368   2.759
   64X2IT   C12 1998   2.232   1.389   2.618
   64X2IT    C7 1999   2.417   1.343   2.784
   64X2IT    C8 2000   2.474   1.321   2.924
   64X2IT    O2 2001   2.596   1.303   2.935
   64X2IT    N3 2002   2.511   1.336   2.688
   64X2IT   H15 2003   2.491   1.350   2.590
   64X2IT   H16 2004   2.607   1.318   2.718
   64X2IT    N2 2005   2.173   1.345   3.119
   64X2IT    C3 2006   2.052   1.424   3.152
   64X2IT    C2 2007   2.095   1.498   3.278
   64X2IT    H2 2008   2.020   1.539   3.345
   64X2IT    N1 2009   2.224   1.570   3.260
   64X2IT   H14 2010   2.231   1.644   3.330
   64X2IT    C1 2011   2.222   1.439   3.329
   64X2IT    H1 2012   2.246   1.433   3.434
   64X2IT   C11 2013   2.259   1.323   3.239
   64X2IT    O3 2014   2.219   1.208   3.312
   64X2IT   C15 2015   2.205   1.086   3.239
   65X2IT   H18 2016   2.697   2.780   3.956
   65X2IT    N4 2017   2.654   2.797   4.045
   65X2IT   H17 2018   2.555   2.817   4.046
   65X2IT   C14 2019   2.709   2.731   4.152
   65X2IT    O5 2020   2.819   2.679   4.154
   65X2IT    O4 2021   2.624   2.738   4.259
   65X2IT   C13 2022   2.671   2.679   4.382
   65X2IT   C10 2023   2.762   2.776   4.460
   65X2IT    C9 2024   2.808   2.721   4.592
   65X2IT    C4 2025   2.769   2.804   4.696
   65X2IT    C5 2026   2.798   2.778   4.840
   65X2IT    O1 2027   2.762   2.860   4.926
   65X2IT    C6 2028   2.869   2.656   4.871
   65X2IT   C12 2029   2.902   2.623   5.015
   65X2IT    C7 2030   2.910   2.573   4.767
   65X2IT    C8 2031   2.880   2.601   4.620
   65X2IT    O2 2032   2.917   2.518   4.536
   65X2IT    N3 2033   2.977   2.459   4.786
   65X2IT   H15 2034   3.004   2.424   4.876
   65X2IT   H16 2035   3.001   2.404   4.702
   65X2IT    N2 2036   2.707   2.916   4.650
   65X2IT    C3 2037   2.599   2.992   4.714
   65X2IT    C2 2038   2.488   2.984   4.610
   65X2IT    H2 2039   2.407   3.057   4.611
   65X2IT    N1 2040   2.461   2.845   4.567
   65X2IT   H14 2041   2.367   2.840   4.526
   65X2IT    C1 2042   2.544   2.933   4.482
   65X2IT    H1 2043   2.509   2.965   4.385
   65X2IT   C11 2044   2.694   2.912   4.502
   65X2IT    O3 2045   2.753   3.025   4.440
   65X2IT   C15 2046   2.889   3.054   4.474
   66X2IT   H18 2047   1.327   3.748   2.797
   66X2IT    N4 2048   1.354   3.780   2.889
   66X2IT   H17 2049   1.352   3.711   2.963
   66X2IT   C14 2050   1.446   3.881   2.894
   66X2IT    O5 2051   1.476   3.953   2.800
   66X2IT    O4 2052   1.496   3.892   3.020
   66X2IT   C13 2053   1.590   3.999   3.042
   66X2IT   C10 2054   1.517   4.132   3.069
   66X2IT    C9 2055   1.612   4.246   3.099
   66X2IT    C4 2056   1.583   4.300   3.223
   66X2IT    C5 2057   1.659   4.415   3.285
   66X2IT    O1 2058   1.624   4.459   3.395
   66X2IT    C6 2059   1.770   4.467   3.208
   66X2IT   C12 2060   1.851   4.582   3.264
   66X2IT    C7 2061   1.798   4.413   3.084
   66X2IT    C8 2062   1.719   4.297   3.022
   66X2IT    O2 2063   1.756   4.254   2.912
   66X2IT    N3 2064   1.897   4.456   3.005
   66X2IT   H15 2065   1.960   4.530   3.031
   66X2IT   H16 2066   1.910   4.408   2.915
   66X2IT    N2 2067   1.474   4.243   3.280
   66X2IT    C3 2068   1.447   4.220   3.423
   66X2IT    C2 2069   1.432   4.069   3.428
   66X2IT    H2 2070   1.379   4.023   3.512
   66X2IT    N1 2071   1.545   3.998   3.365
   66X2IT   H14 2072   1.549   3.902   3.400
   66X2IT    C1 2073   1.419   4.015   3.290
   66X2IT    H1 2074   1.357   3.930   3.265
   66X2IT   C11 2075   1.422   4.133   3.194
   66X2IT    O3 2076   1.286   4.152   3.160
   66X2IT   C15 2077   1.250   4.279   3.102
   67X2IT   H18 2078   0.370   1.027   3.832
   67X2IT    N4 2079   0.385   1.054   3.737
   67X2IT   H17 2080   0.307   1.093   3.687
   67X2IT   C14 2081   0.512   1.094   3.704
   67X2IT    O5 2082   0.611   1.075   3.771
   67X2IT    O4 2083   0.511   1.157   3.582
   67X2IT   C13 2084   0.639   1.199   3.532
   67X2IT   C10 2085   0.713   1.084   3.462
   67X2IT    C9 2086   0.845   1.127   3.402
   67X2IT    C4 2087   0.846   1.100   3.266
   67X2IT    C5 2088   0.962   1.131   3.175
   67X2IT    O1 2089   0.955   1.100   3.055
   67X2IT    C6 2090   1.076   1.195   3.236
   67X2IT   C12 2091   1.196   1.229   3.150
   67X2IT    C7 2092   1.075   1.220   3.372
   67X2IT    C8 2093   0.957   1.188   3.463
   67X2IT    O2 2094   0.966   1.219   3.583
   67X2IT    N3 2095   1.177   1.277   3.438
   67X2IT   H15 2096   1.262   1.307   3.393
   67X2IT   H16 2097   1.165   1.293   3.538
   67X2IT    N2 2098   0.733   1.036   3.225
   67X2IT    C3 2099   0.664   1.047   3.096
   67X2IT    C2 2100   0.526   1.097   3.137
   67X2IT    H2 2101   0.442   1.084   3.070
   67X2IT    N1 2102   0.534   1.217   3.224
   67X2IT   H14 2103   0.444   1.267   3.221
   67X2IT    C1 2104   0.511   1.084   3.284
   67X2IT    H1 2105   0.417   1.060   3.332
   67X2IT   C11 2106   0.638   1.020   3.339
   67X2IT    O3 2107   0.603   0.885   3.360
   67X2IT   C15 2108   0.710   0.791   3.374
   68X2IT   H18 2109   3.562   2.358   1.654
   68X2IT    N4 2110   3.524   2.295   1.722
   68X2IT   H17 2111   3.509   2.199   1.694
   68X2IT   C14 2112   3.555   2.321   1.853
   68X2IT    O5 2113   3.600   2.426   1.894
   68X2IT    O4 2114   3.524   2.214   1.931
   68X2IT   C13 2115   3.545   2.229   2.073
   68X2IT   C10 2116   3.426   2.301   2.140
   68X2IT    C9 2117   3.442   2.313   2.290
   68X2IT    C4 2118   3.335   2.252   2.353
   68X2IT    C5 2119   3.320   2.246   2.503
   68X2IT    O1 2120   3.219   2.193   2.551
   68X2IT    C6 2121   3.426   2.305   2.581
   68X2IT   C12 2122   3.417   2.301   2.732
   68X2IT    C7 2123   3.532   2.366   2.517
   68X2IT    C8 2124   3.546   2.373   2.365
   68X2IT    O2 2125   3.647   2.427   2.318
   68X2IT    N3 2126   3.634   2.425   2.581
   68X2IT   H15 2127   3.641   2.428   2.681
   68X2IT   H16 2128   3.708   2.466   2.524
   68X2IT    N2 2129   3.242   2.206   2.266
   68X2IT    C3 2130   3.156   2.088   2.279
   68X2IT    C2 2131   3.197   2.005   2.158
   68X2IT    H2 2132   3.130   1.928   2.120
   68X2IT    N1 2133   3.344   1.985   2.150
   68X2IT   H14 2134   3.364   1.904   2.091
   68X2IT    C1 2135   3.279   2.088   2.066
   68X2IT    H1 2136   3.276   2.078   1.958
   68X2IT   C11 2137   3.287   2.228   2.125
   68X2IT    O3 2138   3.193   2.303   2.051
   68X2IT   C15 2139   3.150   2.428   2.107
   69X2IT   H18 2140   3.844   4.306   2.346
   69X2IT    N4 2141   3.796   4.378   2.295
   69X2IT   H17 2142   3.776   4.464   2.344
   69X2IT   C14 2143   3.819   4.383   2.160
   69X2IT    O5 2144   3.869   4.293   2.094
   69X2IT    O4 2145   3.775   4.501   2.109
   69X2IT   C13 2146   3.787   4.518   1.967
   69X2IT   C10 2147   3.669   4.453   1.892
   69X2IT    C9 2148   3.674   4.474   1.743
   69X2IT    C4 2149   3.559   4.538   1.699
   69X2IT    C5 2150   3.533   4.574   1.556
   69X2IT    O1 2151   3.425   4.628   1.526
   69X2IT    C6 2152   3.637   4.543   1.461
   69X2IT   C12 2153   3.617   4.577   1.315
   69X2IT    C7 2154   3.751   4.478   1.504
   69X2IT    C8 2155   3.777   4.440   1.651
   69X2IT    O2 2156   3.885   4.386   1.679
   69X2IT    N3 2157   3.852   4.443   1.423
   69X2IT   H15 2158   3.853   4.462   1.325
   69X2IT   H16 2159   3.933   4.397   1.466
   69X2IT    N2 2160   3.470   4.556   1.800
   69X2IT    C3 2161   3.375   4.667   1.818
   69X2IT    C2 2162   3.419   4.726   1.952
   69X2IT    H2 2163   3.350   4.787   2.009
   69X2IT    N1 2164   3.564   4.755   1.956
   69X2IT   H14 2165   3.583   4.824   2.029
   69X2IT    C1 2166   3.513   4.632   2.018
   69X2IT    H1 2167   3.517   4.618   2.126
   69X2IT   C11 2168   3.527   4.509   1.930
   69X2IT    O3 2169   3.444   4.412   1.991
   69X2IT   C15 2170   3.405   4.299   1.912
   70X2IT   H18 2171   4.282   4.156   3.780
   70X2IT    N4 2172   4.235   4.079   3.736
   70X2IT   H17 2173   4.172   4.023   3.793
   70X2IT   C14 2174   4.208   4.092   3.602
   70X2IT    O5 2175   4.260   4.174   3.528
   70X2IT    O4 2176   4.119   3.997   3.563
   70X2IT   C13 2177   4.087   3.994   3.422
   70X2IT   C10 2178   4.192   3.917   3.341
   70X2IT    C9 2179   4.158   3.906   3.194
   70X2IT    C4 2180   4.150   3.773   3.156
   70X2IT    C5 2181   4.117   3.728   3.017
   70X2IT    O1 2182   4.116   3.606   2.991
   70X2IT    C6 2183   4.090   3.831   2.920
   70X2IT   C12 2184   4.056   3.792   2.778
   70X2IT    C7 2185   4.099   3.964   2.958
   70X2IT    C8 2186   4.133   4.009   3.100
   70X2IT    O2 2187   4.134   4.131   3.124
   70X2IT    N3 2188   4.076   4.066   2.875
   70X2IT   H15 2189   4.051   4.055   2.778
   70X2IT   H16 2190   4.084   4.161   2.914
   70X2IT    N2 2191   4.183   3.689   3.258
   70X2IT    C3 2192   4.130   3.555   3.285
   70X2IT    C2 2193   4.070   3.572   3.424
   70X2IT    H2 2194   4.052   3.484   3.486
   70X2IT    N1 2195   3.978   3.688   3.432
   70X2IT   H14 2196   3.915   3.676   3.512
   70X2IT    C1 2197   4.116   3.701   3.482
   70X2IT    H1 2198   4.135   3.714   3.588
   70X2IT   C11 2199   4.211   3.766   3.383
   70X2IT    O3 2200   4.339   3.738   3.435
   70X2IT   C15 2201   4.450   3.752   3.345
   71X2IT   H18 2202   0.806   4.750   0.445
   71X2IT    N4 2203   0.726   4.706   0.487
   71X2IT   H17 2204   0.672   4.644   0.429
   71X2IT   C14 2205   0.734   4.681   0.621
   71X2IT    O5 2206   0.815   4.731   0.697
   71X2IT    O4 2207   0.634   4.595   0.658
   71X2IT   C13 2208   0.626   4.565   0.799
   71X2IT   C10 2209   0.548   4.673   0.876
   71X2IT    C9 2210   0.531   4.642   1.022
   71X2IT    C4 2211   0.397   4.638   1.055
   71X2IT    C5 2212   0.345   4.609   1.193
   71X2IT    O1 2213   0.223   4.611   1.214
   71X2IT    C6 2214   0.444   4.580   1.294
   71X2IT   C12 2215   0.398   4.549   1.435
   71X2IT    C7 2216   0.578   4.584   1.262
   71X2IT    C8 2217   0.629   4.615   1.121
   71X2IT    O2 2218   0.752   4.612   1.102
   71X2IT    N3 2219   0.677   4.561   1.349
   71X2IT   H15 2220   0.661   4.537   1.445
   71X2IT   H16 2221   0.773   4.565   1.314
   71X2IT    N2 2222   0.318   4.672   0.950
   71X2IT    C3 2223   0.183   4.622   0.918
   71X2IT    C2 2224   0.204   4.559   0.781
   71X2IT    H2 2225   0.118   4.543   0.716
   71X2IT    N1 2226   0.317   4.464   0.779
   71X2IT   H14 2227   0.306   4.400   0.700
   71X2IT    C1 2228   0.336   4.601   0.727
   71X2IT    H1 2229   0.354   4.618   0.622
   71X2IT   C11 2230   0.399   4.695   0.828
   71X2IT    O3 2231   0.378   4.824   0.773
   71X2IT   C15 2232   0.391   4.936   0.862
   72X2IT   H18 2233   3.534   1.426   0.486
   72X2IT    N4 2234   3.592   1.478   0.549
   72X2IT   H17 2235   3.643   1.556   0.511
   72X2IT   C14 2236   3.551   1.483   0.679
   72X2IT    O5 2237   3.469   1.408   0.730
   72X2IT    O4 2238   3.620   1.580   0.746
   72X2IT   C13 2239   3.592   1.592   0.887
   72X2IT   C10 2240   3.674   1.491   0.970
   72X2IT    C9 2241   3.653   1.505   1.119
   72X2IT    C4 2242   3.773   1.530   1.182
   72X2IT    C5 2243   3.788   1.550   1.330
   72X2IT    O1 2244   3.900   1.567   1.378
   72X2IT    C6 2245   3.666   1.546   1.408
   72X2IT   C12 2246   3.673   1.566   1.558
   72X2IT    C7 2247   3.546   1.520   1.345
   72X2IT    C8 2248   3.532   1.499   1.194
   72X2IT    O2 2249   3.419   1.482   1.147
   72X2IT    N3 2250   3.428   1.513   1.409
   72X2IT   H15 2251   3.418   1.526   1.508
   72X2IT   H16 2252   3.345   1.495   1.351
   72X2IT    N2 2253   3.878   1.525   1.096
   72X2IT    C3 2254   4.002   1.604   1.100
   72X2IT    C2 2255   3.998   1.679   0.968
   72X2IT    H2 2256   4.090   1.720   0.926
   72X2IT    N1 2257   3.870   1.751   0.948
   72X2IT   H14 2258   3.883   1.826   0.879
   72X2IT    C1 2259   3.892   1.621   0.882
   72X2IT    H1 2260   3.900   1.615   0.774
   72X2IT   C11 2261   3.830   1.504   0.956
   72X2IT    O3 2262   3.890   1.390   0.897
   72X2IT   C15 2263   3.882   1.267   0.969
   73X2IT   H18 2264   0.562   4.011   4.405
   73X2IT    N4 2265   0.642   4.010   4.466
   73X2IT   H17 2266   0.728   3.974   4.427
   73X2IT   C14 2267   0.647   4.108   4.561
   73X2IT    O5 2268   0.553   4.177   4.596
   73X2IT    O4 2269   0.773   4.115   4.614
   73X2IT   C13 2270   0.791   4.210   4.721
   73X2IT   C10 2271   0.747   4.152   4.856
   73X2IT    C9 2272   0.771   4.246   4.972
   73X2IT    C4 2273   0.853   4.186   5.066
   73X2IT    C5 2274   0.898   4.253   5.193
   73X2IT    O1 2275   0.968   4.190   5.273
   73X2IT    C6 2276   0.854   4.388   5.214
   73X2IT   C12 2277   0.895   4.462   5.339
   73X2IT    C7 2278   0.771   4.448   5.120
   73X2IT    C8 2279   0.726   4.379   4.991
   73X2IT    O2 2280   0.655   4.444   4.912
   73X2IT    N3 2281   0.724   4.573   5.131
   73X2IT   H15 2282   0.745   4.634   5.209
   73X2IT   H16 2283   0.665   4.608   5.055
   73X2IT    N2 2284   0.882   4.057   5.034
   73X2IT    C3 2285   1.005   3.982   5.062
   73X2IT    C2 2286   1.052   3.945   4.922
   73X2IT    H2 2287   1.122   3.862   4.909
   73X2IT    N1 2288   1.060   4.062   4.832
   73X2IT   H14 2289   1.122   4.041   4.754
   73X2IT    C1 2290   0.943   3.971   4.824
   73X2IT    H1 2291   0.927   3.910   4.737
   73X2IT   C11 2292   0.823   4.022   4.902
   73X2IT    O3 2293   0.738   3.909   4.910
   73X2IT   C15 2294   0.634   3.912   5.009
   74X2IT   H18 2295   4.595   3.376   5.470
   74X2IT    N4 2296   4.593   3.309   5.395
   74X2IT   H17 2297   4.679   3.260   5.376
   74X2IT   C14 2298   4.474   3.247   5.371
   74X2IT    O5 2299   4.366   3.285   5.412
   74X2IT    O4 2300   4.493   3.139   5.289
   74X2IT   C13 2301   4.375   3.068   5.249
   74X2IT   C10 2302   4.306   3.135   5.129
   74X2IT    C9 2303   4.185   3.059   5.080
   74X2IT    C4 2304   4.201   3.024   4.947
   74X2IT    C5 2305   4.100   2.947   4.867
   74X2IT    O1 2306   4.121   2.924   4.747
   74X2IT    C6 2307   3.981   2.906   4.937
   74X2IT   C12 2308   3.875   2.827   4.863
   74X2IT    C7 2309   3.965   2.941   5.070
   74X2IT    C8 2310   4.068   3.020   5.150
   74X2IT    O2 2311   4.045   3.042   5.270
   74X2IT    N3 2312   3.857   2.908   5.143
   74X2IT   H15 2313   3.780   2.855   5.107
   74X2IT   H16 2314   3.856   2.939   5.241
   74X2IT    N2 2315   4.316   3.075   4.894
   74X2IT    C3 2316   4.402   3.015   4.791
   74X2IT    C2 2317   4.535   3.001   4.864
   74X2IT    H2 2318   4.627   2.991   4.806
   74X2IT    N1 2319   4.521   2.930   4.993
   74X2IT   H14 2320   4.611   2.892   5.021
   74X2IT    C1 2321   4.530   3.077   4.991
   74X2IT    H1 2322   4.616   3.128   5.033
   74X2IT   C11 2323   4.395   3.146   4.999
   74X2IT    O3 2324   4.422   3.280   4.962
   74X2IT   C15 2325   4.311   3.361   4.923
   75X2IT   H18 2326   3.213   3.863   0.805
   75X2IT    N4 2327   3.260   3.898   0.887
   75X2IT   H17 2328   3.276   3.998   0.890
   75X2IT   C14 2329   3.239   3.831   1.003
   75X2IT    O5 2330   3.193   3.718   1.012
   75X2IT    O4 2331   3.281   3.906   1.109
   75X2IT   C13 2332   3.271   3.844   1.239
   75X2IT   C10 2333   3.392   3.753   1.268
   75X2IT    C9 2334   3.389   3.692   1.406
   75X2IT    C4 2335   3.503   3.727   1.476
   75X2IT    C5 2336   3.531   3.683   1.617
   75X2IT    O1 2337   3.638   3.716   1.671
   75X2IT    C6 2338   3.430   3.603   1.681
   75X2IT   C12 2339   3.452   3.556   1.823
   75X2IT    C7 2340   3.317   3.567   1.610
   75X2IT    C8 2341   3.290   3.612   1.466
   75X2IT    O2 2342   3.182   3.577   1.414
   75X2IT    N3 2343   3.218   3.491   1.661
   75X2IT   H15 2344   3.219   3.455   1.754
   75X2IT   H16 2345   3.138   3.472   1.600
   75X2IT    N2 2346   3.590   3.799   1.400
   75X2IT    C3 2347   3.681   3.905   1.444
   75X2IT    C2 2348   3.634   4.024   1.361
   75X2IT    H2 2349   3.701   4.109   1.345
   75X2IT    N1 2350   3.488   4.047   1.374
   75X2IT   H14 2351   3.466   4.143   1.347
   75X2IT    C1 2352   3.541   3.977   1.255
   75X2IT    H1 2353   3.536   4.022   1.157
   75X2IT   C11 2354   3.532   3.825   1.265
   75X2IT    O3 2355   3.617   3.779   1.161
   75X2IT   C15 2356   3.660   3.642   1.169
   76X2IT   H18 2357   4.245   4.853   4.247
   76X2IT    N4 2358   4.263   4.754   4.238
   76X2IT   H17 2359   4.281   4.719   4.145
   76X2IT   C14 2360   4.323   4.694   4.345
   76X2IT    O5 2361   4.330   4.741   4.457
   76X2IT    O4 2362   4.369   4.571   4.310
   76X2IT   C13 2363   4.429   4.492   4.415
   76X2IT   C10 2364   4.322   4.418   4.497
   76X2IT    C9 2365   4.381   4.329   4.605
   76X2IT    C4 2366   4.340   4.199   4.586
   76X2IT    C5 2367   4.381   4.085   4.675
   76X2IT    O1 2368   4.335   3.971   4.653
   76X2IT    C6 2369   4.471   4.116   4.783
   76X2IT   C12 2370   4.517   4.005   4.876
   76X2IT    C7 2371   4.512   4.247   4.801
   76X2IT    C8 2372   4.469   4.362   4.711
   76X2IT    O2 2373   4.515   4.475   4.734
   76X2IT    N3 2374   4.595   4.286   4.900
   76X2IT   H15 2375   4.634   4.223   4.967
   76X2IT   H16 2376   4.619   4.385   4.903
   76X2IT    N2 2377   4.251   4.187   4.484
   76X2IT    C3 2378   4.234   4.074   4.392
   76X2IT    C2 2379   4.262   4.138   4.256
   76X2IT    H2 2380   4.226   4.090   4.165
   76X2IT    N1 2381   4.390   4.211   4.254
   76X2IT   H14 2382   4.421   4.222   4.158
   76X2IT    C1 2383   4.263   4.285   4.271
   76X2IT    H1 2384   4.228   4.353   4.194
   76X2IT   C11 2385   4.231   4.318   4.416
   76X2IT    O3 2386   4.095   4.357   4.414
   76X2IT   C15 2387   4.025   4.356   4.539
   77X2IT   H18 2388   4.517   2.003   1.609
   77X2IT    N4 2389   4.548   1.976   1.517
   77X2IT   H17 2390   4.479   1.936   1.455
   77X2IT   C14 2391   4.650   2.049   1.463
   77X2IT    O5 2392   4.724   2.123   1.526
   77X2IT    O4 2393   4.660   2.024   1.330
   77X2IT   C13 2394   4.769   2.089   1.261
   77X2IT   C10 2395   4.901   2.011   1.276
   77X2IT    C9 2396   5.016   2.072   1.200
   77X2IT    C4 2397   5.067   1.981   1.110
   77X2IT    C5 2398   5.182   2.010   1.017
   77X2IT    O1 2399   5.224   1.921   0.942
   77X2IT    C6 2400   5.237   2.143   1.023
   77X2IT   C12 2401   5.353   2.179   0.932
   77X2IT    C7 2402   5.186   2.234   1.113
   77X2IT    C8 2403   5.069   2.203   1.208
   77X2IT    O2 2404   5.029   2.294   1.282
   77X2IT    N3 2405   5.232   2.360   1.127
   77X2IT   H15 2406   5.306   2.397   1.071
   77X2IT   H16 2407   5.185   2.419   1.196
   77X2IT    N2 2408   5.008   1.859   1.120
   77X2IT    C3 2409   4.982   1.762   1.013
   77X2IT    C2 2410   4.830   1.749   1.018
   77X2IT    H2 2411   4.782   1.661   0.975
   77X2IT    N1 2412   4.762   1.880   1.011
   77X2IT   H14 2413   4.666   1.867   0.980
   77X2IT    C1 2414   4.779   1.813   1.141
   77X2IT    H1 2415   4.693   1.776   1.196
   77X2IT   C11 2416   4.898   1.863   1.221
   77X2IT    O3 2417   4.916   1.766   1.322
   77X2IT   C15 2418   5.042   1.764   1.390
   78X2IT   H18 2419   2.941   0.925   1.823
   78X2IT    N4 2420   3.010   0.870   1.871
   78X2IT   H17 2421   3.069   0.811   1.815
   78X2IT   C14 2422   3.061   0.924   1.986
   78X2IT    O5 2423   3.011   1.016   2.049
   78X2IT    O4 2424   3.174   0.857   2.023
   78X2IT   C13 2425   3.235   0.899   2.147
   78X2IT   C10 2426   3.167   0.833   2.268
   78X2IT    C9 2427   3.233   0.869   2.400
   78X2IT    C4 2428   3.275   0.754   2.465
   78X2IT    C5 2429   3.345   0.754   2.598
   78X2IT    O1 2430   3.376   0.646   2.650
   78X2IT    C6 2431   3.371   0.883   2.657
   78X2IT   C12 2432   3.442   0.891   2.790
   78X2IT    C7 2433   3.328   0.998   2.592
   78X2IT    C8 2434   3.256   0.996   2.457
   78X2IT    O2 2435   3.226   1.105   2.406
   78X2IT    N3 2436   3.346   1.122   2.640
   78X2IT   H15 2437   3.393   1.141   2.726
   78X2IT   H16 2438   3.311   1.199   2.582
   78X2IT    N2 2439   3.239   0.641   2.398
   78X2IT    C3 2440   3.311   0.514   2.391
   78X2IT    C2 2441   3.336   0.499   2.241
   78X2IT    H2 2442   3.358   0.401   2.199
   78X2IT    N1 2443   3.399   0.619   2.183
   78X2IT   H14 2444   3.445   0.594   2.095
   78X2IT    C1 2445   3.254   0.599   2.168
   78X2IT    H1 2446   3.210   0.579   2.071
   78X2IT   C11 2447   3.171   0.675   2.270
   78X2IT    O3 2448   3.042   0.617   2.261
   78X2IT   C15 2449   2.952   0.640   2.370
   79X2IT   H18 2450   2.901   2.031   3.523
   79X2IT    N4 2451   2.801   2.043   3.525
   79X2IT   H17 2452   2.745   1.970   3.484
   79X2IT   C14 2453   2.751   2.115   3.630
   79X2IT    O5 2454   2.816   2.187   3.704
   79X2IT    O4 2455   2.615   2.098   3.637
   79X2IT   C13 2456   2.547   2.174   3.740
   79X2IT   C10 2457   2.517   2.317   3.693
   79X2IT    C9 2458   2.440   2.398   3.795
   79X2IT    C4 2459   2.321   2.443   3.739
   79X2IT    C5 2460   2.220   2.525   3.814
   79X2IT    O1 2461   2.118   2.565   3.755
   79X2IT    C6 2462   2.250   2.555   3.952
   79X2IT   C12 2463   2.153   2.637   4.033
   79X2IT    C7 2464   2.369   2.511   4.007
   79X2IT    C8 2465   2.472   2.427   3.929
   79X2IT    O2 2466   2.573   2.389   3.990
   79X2IT    N3 2467   2.407   2.535   4.133
   79X2IT   H15 2468   2.350   2.586   4.199
   79X2IT   H16 2469   2.496   2.495   4.164
   79X2IT    N2 2470   2.311   2.411   3.608
   79X2IT    C3 2471   2.188   2.379   3.532
   79X2IT    C2 2472   2.217   2.237   3.484
   79X2IT    H2 2473   2.162   2.198   3.398
   79X2IT    N1 2474   2.257   2.147   3.594
   79X2IT   H14 2475   2.241   2.050   3.565
   79X2IT    C1 2476   2.360   2.206   3.505
   79X2IT    H1 2477   2.418   2.143   3.438
   79X2IT   C11 2478   2.427   2.329   3.564
   79X2IT    O3 2479   2.495   2.387   3.454
   79X2IT   C15 2480   2.535   2.524   3.468
   80X2IT   H18 2481   1.483   0.515   1.622
   80X2IT    N4 2482   1.510   0.505   1.718
   80X2IT   H17 2483   1.600   0.542   1.746
   80X2IT   C14 2484   1.409   0.502   1.810
   80X2IT    O5 2485   1.291   0.485   1.784
   80X2IT    O4 2486   1.459   0.519   1.936
   80X2IT   C13 2487   1.364   0.512   2.044
   80X2IT   C10 2488   1.335   0.366   2.084
   80X2IT    C9 2489   1.241   0.355   2.202
   80X2IT    C4 2490   1.301   0.285   2.305
   80X2IT    C5 2491   1.236   0.257   2.437
   80X2IT    O1 2492   1.296   0.190   2.522
   80X2IT    C6 2493   1.103   0.309   2.455
   80X2IT   C12 2494   1.030   0.285   2.586
   80X2IT    C7 2495   1.042   0.378   2.352
   80X2IT    C8 2496   1.110   0.406   2.218
   80X2IT    O2 2497   1.048   0.473   2.134
   80X2IT    N3 2498   0.918   0.430   2.359
   80X2IT   H15 2499   0.860   0.422   2.441
   80X2IT   H16 2500   0.884   0.480   2.277
   80X2IT    N2 2501   1.424   0.238   2.270
   80X2IT    C3 2502   1.542   0.221   2.356
   80X2IT    C2 2503   1.644   0.311   2.289
   80X2IT    H2 2504   1.751   0.296   2.308
   80X2IT    N1 2505   1.593   0.448   2.267
   80X2IT   H14 2506   1.671   0.513   2.256
   80X2IT    C1 2507   1.594   0.352   2.155
   80X2IT    H1 2508   1.659   0.368   2.070
   80X2IT   C11 2509   1.460   0.284   2.133
   80X2IT    O3 2510   1.491   0.175   2.048
   80X2IT   C15 2511   1.395   0.069   2.039
   81X2IT   H18 2512   2.919   3.467  -0.266
   81X2IT    N4 2513   2.861   3.502  -0.192
   81X2IT   H17 2514   2.769   3.461  -0.182
   81X2IT   C14 2515   2.926   3.548  -0.081
   81X2IT    O5 2516   3.044   3.575  -0.075
   81X2IT    O4 2517   2.837   3.562   0.022
   81X2IT   C13 2518   2.890   3.616   0.145
   81X2IT   C10 2519   2.897   3.770   0.141
   81X2IT    C9 2520   2.946   3.831   0.270
   81X2IT    C4 2521   2.851   3.918   0.321
   81X2IT    C5 2522   2.868   3.995   0.449
   81X2IT    O1 2523   2.779   4.074   0.484
   81X2IT    C6 2524   2.989   3.972   0.522
   81X2IT   C12 2525   3.012   4.046   0.653
   81X2IT    C7 2526   3.084   3.885   0.471
   81X2IT    C8 2527   3.067   3.808   0.340
   81X2IT    O2 2528   3.157   3.730   0.306
   81X2IT    N3 2529   3.201   3.859   0.532
   81X2IT   H15 2530   3.228   3.899   0.620
   81X2IT   H16 2531   3.264   3.792   0.486
   81X2IT    N2 2532   2.745   3.932   0.237
   81X2IT    C3 2533   2.604   3.956   0.273
   81X2IT    C2 2534   2.535   3.834   0.213
   81X2IT    H2 2535   2.427   3.838   0.193
   81X2IT    N1 2536   2.598   3.707   0.255
   81X2IT   H14 2537   2.531   3.631   0.243
   81X2IT    C1 2538   2.628   3.764   0.122
   81X2IT    H1 2539   2.597   3.713   0.032
   81X2IT   C11 2540   2.758   3.842   0.119
   81X2IT    O3 2541   2.752   3.914  -0.003
   81X2IT   C15 2542   2.841   4.026  -0.018
   82X2IT   H18 2543   3.229   1.394   3.416
   82X2IT    N4 2544   3.235   1.391   3.316
   82X2IT   H17 2545   3.315   1.434   3.272
   82X2IT   C14 2546   3.177   1.283   3.255
   82X2IT    O5 2547   3.097   1.207   3.308
   82X2IT    O4 2548   3.217   1.275   3.125
   82X2IT   C13 2549   3.158   1.169   3.046
   82X2IT   C10 2550   3.021   1.210   2.991
   82X2IT    C9 2551   2.959   1.105   2.902
   82X2IT    C4 2552   2.933   1.157   2.777
   82X2IT    C5 2553   2.872   1.078   2.664
   82X2IT    O1 2554   2.849   1.134   2.556
   82X2IT    C6 2555   2.843   0.939   2.691
   82X2IT   C12 2556   2.782   0.854   2.582
   82X2IT    C7 2557   2.868   0.887   2.817
   82X2IT    C8 2558   2.929   0.969   2.931
   82X2IT    O2 2559   2.951   0.911   3.038
   82X2IT    N3 2560   2.843   0.760   2.851
   82X2IT   H15 2561   2.804   0.693   2.788
   82X2IT   H16 2562   2.867   0.732   2.947
   82X2IT    N2 2563   2.961   1.289   2.770
   82X2IT    C3 2564   3.011   1.365   2.654
   82X2IT    C2 2565   3.144   1.420   2.706
   82X2IT    H2 2566   3.189   1.506   2.657
   82X2IT    N1 2567   3.230   1.314   2.763
   82X2IT   H14 2568   3.327   1.346   2.764
   82X2IT    C1 2569   3.151   1.400   2.853
   82X2IT    H1 2570   3.200   1.470   2.919
   82X2IT   C11 2571   3.020   1.337   2.898
   82X2IT    O3 2572   2.947   1.445   2.953
   82X2IT   C15 2573   2.806   1.427   2.969
   83X2IT   H18 2574   3.348   0.525   1.327
   83X2IT    N4 2575   3.286   0.500   1.252
   83X2IT   H17 2576   3.323   0.504   1.158
   83X2IT   C14 2577   3.188   0.409   1.281
   83X2IT    O5 2578   3.153   0.378   1.394
   83X2IT    O4 2579   3.133   0.362   1.166
   83X2IT   C13 2580   3.023   0.269   1.182
   83X2IT   C10 2581   2.890   0.343   1.205
   83X2IT    C9 2582   2.771   0.250   1.215
   83X2IT    C4 2583   2.677   0.282   1.118
   83X2IT    C5 2584   2.548   0.208   1.100
   83X2IT    O1 2585   2.468   0.246   1.013
   83X2IT    C6 2586   2.524   0.096   1.188
   83X2IT   C12 2587   2.396   0.017   1.175
   83X2IT    C7 2588   2.618   0.065   1.285
   83X2IT    C8 2589   2.749   0.142   1.303
   83X2IT    O2 2590   2.828   0.103   1.391
   83X2IT    N3 2591   2.604  -0.035   1.373
   83X2IT   H15 2592   2.525  -0.097   1.374
   83X2IT   H16 2593   2.680  -0.050   1.439
   83X2IT    N2 2594   2.712   0.392   1.047
   83X2IT    C3 2595   2.685   0.421   0.905
   83X2IT    C2 2596   2.825   0.435   0.847
   83X2IT    H2 2597   2.839   0.489   0.753
   83X2IT    N1 2598   2.911   0.320   0.880
   83X2IT   H14 2599   2.989   0.316   0.813
   83X2IT    C1 2600   2.923   0.445   0.958
   83X2IT    H1 2601   3.013   0.505   0.952
   83X2IT   C11 2602   2.846   0.441   1.089
   83X2IT    O3 2603   2.842   0.577   1.130
   83X2IT   C15 2604   2.745   0.612   1.229
   84X2IT   H18 2605   1.987  -0.184   0.437
   84X2IT    N4 2606   1.941  -0.098   0.460
   84X2IT   H17 2607   1.857  -0.075   0.409
   84X2IT   C14 2608   1.954  -0.055   0.589
   84X2IT    O5 2609   2.037  -0.096   0.669
   84X2IT    O4 2610   1.864   0.044   0.615
   84X2IT   C13 2611   1.870   0.104   0.746
   84X2IT   C10 2612   1.978   0.214   0.752
   84X2IT    C9 2613   1.984   0.284   0.885
   84X2IT    C4 2614   1.963   0.420   0.869
   84X2IT    C5 2615   1.962   0.519   0.982
   84X2IT    O1 2616   1.947   0.639   0.957
   84X2IT    C6 2617   1.980   0.465   1.115
   84X2IT   C12 2618   1.979   0.560   1.233
   84X2IT    C7 2619   2.001   0.330   1.131
   84X2IT    C8 2620   2.003   0.230   1.015
   84X2IT    O2 2621   2.019   0.110   1.042
   84X2IT    N3 2622   2.020   0.271   1.250
   84X2IT   H15 2623   2.020   0.322   1.337
   84X2IT   H16 2624   2.034   0.170   1.251
   84X2IT    N2 2625   1.953   0.455   0.738
   84X2IT    C3 2626   1.871   0.562   0.679
   84X2IT    C2 2627   1.780   0.485   0.584
   84X2IT    H2 2628   1.731   0.537   0.502
   84X2IT    N1 2629   1.711   0.373   0.652
   84X2IT   H14 2630   1.628   0.347   0.598
   84X2IT    C1 2631   1.831   0.346   0.570
   84X2IT    H1 2632   1.823   0.290   0.477
   84X2IT   C11 2633   1.958   0.334   0.651
   84X2IT    O3 2634   2.062   0.342   0.555
   84X2IT   C15 2635   2.193   0.373   0.603
   85X2IT   H18 2636   0.879   0.675  -0.434
   85X2IT    N4 2637   0.825   0.712  -0.357
   85X2IT   H17 2638   0.742   0.662  -0.331
   85X2IT   C14 2639   0.895   0.780  -0.262
   85X2IT    O5 2640   1.009   0.823  -0.274
   85X2IT    O4 2641   0.817   0.797  -0.151
   85X2IT   C13 2642   0.876   0.874  -0.043
   85X2IT   C10 2643   0.860   1.025  -0.066
   85X2IT    C9 2644   0.914   1.108   0.047
   85X2IT    C4 2645   0.815   1.189   0.099
   85X2IT    C5 2646   0.834   1.284   0.214
   85X2IT    O1 2647   0.740   1.355   0.251
   85X2IT    C6 2648   0.966   1.286   0.273
   85X2IT   C12 2649   0.993   1.380   0.390
   85X2IT    C7 2650   1.066   1.206   0.221
   85X2IT    C8 2651   1.044   1.111   0.103
   85X2IT    O2 2652   1.140   1.040   0.068
   85X2IT    N3 2653   1.191   1.203   0.268
   85X2IT   H15 2654   1.222   1.258   0.347
   85X2IT   H16 2655   1.257   1.139   0.223
   85X2IT    N2 2656   0.699   1.178   0.029
   85X2IT    C3 2657   0.561   1.189   0.079
   85X2IT    C2 2658   0.503   1.053   0.044
   85X2IT    H2 2659   0.395   1.040   0.038
   85X2IT    N1 2660   0.588   0.941   0.092
   85X2IT   H14 2661   0.531   0.856   0.099
   85X2IT    C1 2662   0.595   0.983  -0.049
   85X2IT    H1 2663   0.561   0.917  -0.128
   85X2IT   C11 2664   0.712   1.076  -0.079
   85X2IT    O3 2665   0.682   1.129  -0.206
   85X2IT   C15 2666   0.751   1.248  -0.246
   86X2IT   H18 2667   4.516   4.498   0.428
   86X2IT    N4 2668   4.524   4.534   0.522
   86X2IT   H17 2669   4.547   4.468   0.595
   86X2IT   C14 2670   4.565   4.663   0.533
   86X2IT    O5 2671   4.566   4.745   0.443
   86X2IT    O4 2672   4.601   4.689   0.663
   86X2IT   C13 2673   4.641   4.825   0.692
   86X2IT   C10 2674   4.518   4.915   0.717
   86X2IT    C9 2675   4.556   5.057   0.755
   86X2IT    C4 2676   4.503   5.089   0.878
   86X2IT    C5 2677   4.521   5.222   0.945
   86X2IT    O1 2678   4.467   5.244   1.054
   86X2IT    C6 2679   4.603   5.318   0.876
   86X2IT   C12 2680   4.627   5.454   0.938
   86X2IT    C7 2681   4.656   5.286   0.752
   86X2IT    C8 2682   4.635   5.150   0.684
   86X2IT    O2 2683   4.691   5.131   0.575
   86X2IT    N3 2684   4.732   5.370   0.679
   86X2IT   H15 2685   4.757   5.462   0.709
   86X2IT   H16 2686   4.767   5.335   0.589
   86X2IT    N2 2687   4.424   4.990   0.928
   86X2IT    C3 2688   4.405   4.952   1.068
   86X2IT    C2 2689   4.453   4.807   1.070
   86X2IT    H2 2690   4.421   4.741   1.150
   86X2IT    N1 2691   4.588   4.793   1.012
   86X2IT   H14 2692   4.630   4.706   1.045
   86X2IT    C1 2693   4.469   4.759   0.931
   86X2IT    H1 2694   4.450   4.657   0.901
   86X2IT   C11 2695   4.426   4.871   0.837
   86X2IT    O3 2696   4.296   4.834   0.796
   86X2IT   C15 2697   4.214   4.936   0.739
   87X2IT   H18 2698   1.964   0.516   4.459
   87X2IT    N4 2699   1.947   0.504   4.361
   87X2IT   H17 2700   1.868   0.553   4.322
   87X2IT   C14 2701   2.056   0.480   4.283
   87X2IT    O5 2702   2.166   0.445   4.324
   87X2IT    O4 2703   2.023   0.496   4.151
   87X2IT   C13 2704   2.128   0.467   4.056
   87X2IT   C10 2705   2.136   0.316   4.026
   87X2IT    C9 2706   2.240   0.283   3.921
   87X2IT    C4 2707   2.181   0.217   3.815
   87X2IT    C5 2708   2.255   0.170   3.693
   87X2IT    O1 2709   2.195   0.108   3.604
   87X2IT    C6 2710   2.396   0.200   3.689
   87X2IT   C12 2711   2.478   0.156   3.568
   87X2IT    C7 2712   2.456   0.265   3.795
   87X2IT    C8 2713   2.379   0.311   3.919
   87X2IT    O2 2714   2.441   0.373   4.007
   87X2IT    N3 2715   2.586   0.295   3.801
   87X2IT   H15 2716   2.651   0.274   3.727
   87X2IT   H16 2717   2.619   0.345   3.884
   87X2IT    N2 2718   2.049   0.192   3.837
   87X2IT    C3 2719   1.940   0.188   3.738
   87X2IT    C2 2720   1.847   0.298   3.788
   87X2IT    H2 2721   1.743   0.299   3.757
   87X2IT    N1 2722   1.918   0.426   3.810
   87X2IT   H14 2723   1.850   0.503   3.809
   87X2IT    C1 2724   1.888   0.339   3.925
   87X2IT    H1 2725   1.818   0.370   4.001
   87X2IT   C11 2726   2.006   0.252   3.966
   87X2IT    O3 2727   1.948   0.155   4.052
   87X2IT   C15 2728   2.024   0.036   4.077
   88X2IT   H18 2729   2.432   3.648   4.193
   88X2IT    N4 2730   2.486   3.609   4.268
   88X2IT   H17 2731   2.583   3.588   4.248
   88X2IT   C14 2732   2.451   3.647   4.394
   88X2IT    O5 2733   2.345   3.700   4.425
   88X2IT    O4 2734   2.550   3.614   4.482
   88X2IT   C13 2735   2.524   3.642   4.621
   88X2IT   C10 2736   2.441   3.530   4.687
   88X2IT    C9 2737   2.417   3.553   4.834
   88X2IT    C4 2738   2.466   3.446   4.907
   88X2IT    C5 2739   2.460   3.437   5.057
   88X2IT    O1 2740   2.503   3.336   5.114
   88X2IT    C6 2741   2.400   3.549   5.126
   88X2IT   C12 2742   2.391   3.547   5.277
   88X2IT    C7 2743   2.350   3.655   5.053
   88X2IT    C8 2744   2.357   3.663   4.900
   88X2IT    O2 2745   2.313   3.765   4.845
   88X2IT    N3 2746   2.292   3.763   5.108
   88X2IT   H15 2747   2.281   3.775   5.207
   88X2IT   H16 2748   2.260   3.836   5.044
   88X2IT    N2 2749   2.514   3.348   4.828
   88X2IT    C3 2750   2.627   3.256   4.854
   88X2IT    C2 2751   2.721   3.287   4.739
   88X2IT    H2 2752   2.798   3.215   4.711
   88X2IT    N1 2753   2.749   3.432   4.727
   88X2IT   H14 2754   2.836   3.446   4.675
   88X2IT    C1 2755   2.650   3.369   4.637
   88X2IT    H1 2756   2.669   3.361   4.531
   88X2IT   C11 2757   2.507   3.387   4.684
   88X2IT    O3 2758   2.433   3.294   4.607
   88X2IT   C15 2759   2.302   3.259   4.654
   89X2IT   H18 2760   2.293   0.735   1.353
   89X2IT    N4 2761   2.363   0.759   1.285
   89X2IT   H17 2762   2.429   0.687   1.259
   89X2IT   C14 2763   2.327   0.852   1.192
   89X2IT    O5 2764   2.231   0.928   1.201
   89X2IT    O4 2765   2.416   0.852   1.088
   89X2IT   C13 2766   2.394   0.951   0.985
   89X2IT   C10 2767   2.454   1.087   1.025
   89X2IT    C9 2768   2.439   1.192   0.916
   89X2IT    C4 2769   2.563   1.240   0.880
   89X2IT    C5 2770   2.584   1.345   0.774
   89X2IT    O1 2771   2.699   1.385   0.751
   89X2IT    C6 2772   2.467   1.393   0.707
   89X2IT   C12 2773   2.481   1.498   0.599
   89X2IT    C7 2774   2.342   1.345   0.744
   89X2IT    C8 2775   2.322   1.239   0.852
   89X2IT    O2 2776   2.206   1.200   0.874
   89X2IT    N3 2777   2.227   1.385   0.688
   89X2IT   H15 2778   2.222   1.453   0.614
   89X2IT   H16 2779   2.141   1.342   0.722
   89X2IT    N2 2780   2.663   1.189   0.956
   89X2IT    C3 2781   2.801   1.159   0.916
   89X2IT    C2 2782   2.811   1.009   0.942
   89X2IT    H2 2783   2.908   0.962   0.954
   89X2IT    N1 2784   2.701   0.934   0.877
   89X2IT   H14 2785   2.728   0.836   0.866
   89X2IT    C1 2786   2.693   0.965   1.021
   89X2IT    H1 2787   2.698   0.886   1.095
   89X2IT   C11 2788   2.609   1.088   1.052
   89X2IT    O3 2789   2.641   1.119   1.186
   89X2IT   C15 2790   2.609   1.251   1.232
   90X2IT   H18 2791   3.112   2.906   3.680
   90X2IT    N4 2792   3.112   3.000   3.646
   90X2IT   H17 2793   3.163   3.018   3.560
   90X2IT   C14 2794   3.002   3.076   3.674
   90X2IT    O5 2795   2.918   3.049   3.759
   90X2IT    O4 2796   3.002   3.189   3.597
   90X2IT   C13 2797   2.894   3.282   3.621
   90X2IT   C10 2798   2.925   3.374   3.740
   90X2IT    C9 2799   2.818   3.478   3.764
   90X2IT    C4 2800   2.872   3.605   3.757
   90X2IT    C5 2801   2.792   3.731   3.776
   90X2IT    O1 2802   2.850   3.841   3.771
   90X2IT    C6 2803   2.651   3.715   3.799
   90X2IT   C12 2804   2.565   3.838   3.818
   90X2IT    C7 2805   2.597   3.588   3.807
   90X2IT    C8 2806   2.680   3.460   3.789
   90X2IT    O2 2807   2.620   3.352   3.794
   90X2IT    N3 2808   2.467   3.563   3.831
   90X2IT   H15 2809   2.399   3.636   3.843
   90X2IT   H16 2810   2.438   3.465   3.833
   90X2IT    N2 2811   3.006   3.603   3.739
   90X2IT    C3 2812   3.090   3.698   3.665
   90X2IT    C2 2813   3.153   3.610   3.558
   90X2IT    H2 2814   3.244   3.643   3.508
   90X2IT    N1 2815   3.053   3.531   3.484
   90X2IT   H14 2816   3.092   3.502   3.394
   90X2IT    C1 2817   3.130   3.467   3.592
   90X2IT    H1 2818   3.201   3.389   3.571
   90X2IT   C11 2819   3.055   3.463   3.725
   90X2IT    O3 2820   3.155   3.431   3.820
   90X2IT   C15 2821   3.125   3.457   3.957
   91X2IT   H18 2822   1.603   2.946   1.733
   91X2IT    N4 2823   1.649   2.897   1.807
   91X2IT   H17 2824   1.653   2.796   1.800
   91X2IT   C14 2825   1.752   2.962   1.870
   91X2IT    O5 2826   1.773   3.082   1.863
   91X2IT    O4 2827   1.824   2.874   1.945
   91X2IT   C13 2828   1.932   2.931   2.023
   91X2IT   C10 2829   1.881   2.989   2.156
   91X2IT    C9 2830   1.992   3.043   2.243
   91X2IT    C4 2831   1.992   2.978   2.366
   91X2IT    C5 2832   2.090   3.008   2.476
   91X2IT    O1 2833   2.080   2.948   2.584
   91X2IT    C6 2834   2.190   3.107   2.448
   91X2IT   C12 2835   2.292   3.142   2.554
   91X2IT    C7 2836   2.190   3.172   2.326
   91X2IT    C8 2837   2.089   3.142   2.215
   91X2IT    O2 2838   2.100   3.204   2.107
   91X2IT    N3 2839   2.278   3.268   2.291
   91X2IT   H15 2840   2.352   3.298   2.352
   91X2IT   H16 2841   2.269   3.308   2.198
   91X2IT    N2 2842   1.888   2.891   2.378
   91X2IT    C3 2843   1.886   2.764   2.451
   91X2IT    C2 2844   1.854   2.664   2.341
   91X2IT    H2 2845   1.813   2.566   2.366
   91X2IT    N1 2846   1.946   2.676   2.225
   91X2IT   H14 2847   1.945   2.589   2.172
   91X2IT    C1 2848   1.811   2.737   2.219
   91X2IT    H1 2849   1.737   2.698   2.150
   91X2IT   C11 2850   1.810   2.885   2.251
   91X2IT    O3 2851   1.673   2.915   2.272
   91X2IT   C15 2852   1.642   3.036   2.342
   92X2IT   H18 2853   0.820   1.488   3.426
   92X2IT    N4 2854   0.817   1.442   3.515
   92X2IT   H17 2855   0.809   1.341   3.515
   92X2IT   C14 2856   0.886   1.502   3.617
   92X2IT    O5 2857   0.925   1.617   3.617
   92X2IT    O4 2858   0.900   1.415   3.722
   92X2IT   C13 2859   0.965   1.467   3.839
   92X2IT   C10 2860   0.866   1.543   3.929
   92X2IT    C9 2861   0.929   1.594   4.057
   92X2IT    C4 2862   0.861   1.543   4.166
   92X2IT    C5 2863   0.898   1.572   4.309
   92X2IT    O1 2864   0.830   1.525   4.401
   92X2IT    C6 2865   1.014   1.657   4.329
   92X2IT   C12 2866   1.057   1.690   4.471
   92X2IT    C7 2867   1.081   1.708   4.220
   92X2IT    C8 2868   1.041   1.678   4.075
   92X2IT    O2 2869   1.111   1.726   3.985
   92X2IT    N3 2870   1.188   1.789   4.229
   92X2IT   H15 2871   1.228   1.817   4.317
   92X2IT   H16 2872   1.230   1.820   4.141
   92X2IT    N2 2873   0.753   1.470   4.130
   92X2IT    C3 2874   0.696   1.352   4.198
   92X2IT    C2 2875   0.707   1.245   4.090
   92X2IT    H2 2876   0.644   1.156   4.096
   92X2IT    N1 2877   0.843   1.235   4.033
   92X2IT   H14 2878   0.855   1.143   3.989
   92X2IT    C1 2879   0.738   1.309   3.960
   92X2IT    H1 2880   0.701   1.272   3.865
   92X2IT   C11 2881   0.744   1.459   3.982
   92X2IT    O3 2882   0.620   1.506   3.933
   92X2IT   C15 2883   0.578   1.637   3.974
   93X2IT   H18 2884   3.973   0.182   0.338
   93X2IT    N4 2885   3.946   0.247   0.410
   93X2IT   H17 2886   3.884   0.213   0.482
   93X2IT   C14 2887   4.037   0.345   0.440
   93X2IT    O5 2888   4.132   0.376   0.371
   93X2IT    O4 2889   4.002   0.405   0.558
   93X2IT   C13 2890   4.085   0.516   0.599
   93X2IT   C10 2891   4.044   0.647   0.530
   93X2IT    C9 2892   4.124   0.766   0.576
   93X2IT    C4 2893   4.040   0.863   0.628
   93X2IT    C5 2894   4.088   0.994   0.683
   93X2IT    O1 2895   4.005   1.077   0.724
   93X2IT    C6 2896   4.230   1.016   0.684
   93X2IT   C12 2897   4.285   1.146   0.739
   93X2IT    C7 2898   4.314   0.919   0.632
   93X2IT    C8 2899   4.264   0.786   0.575
   93X2IT    O2 2900   4.349   0.705   0.534
   93X2IT    N3 2901   4.448   0.931   0.627
   93X2IT   H15 2902   4.497   1.011   0.662
   93X2IT   H16 2903   4.500   0.853   0.587
   93X2IT    N2 2904   3.909   0.829   0.615
   93X2IT    C3 2905   3.798   0.862   0.706
   93X2IT    C2 2906   3.748   0.724   0.747
   93X2IT    H2 2907   3.647   0.713   0.787
   93X2IT    N1 2908   3.857   0.638   0.798
   93X2IT   H14 2909   3.818   0.563   0.855
   93X2IT    C1 2910   3.809   0.621   0.659
   93X2IT    H1 2911   3.757   0.531   0.629
   93X2IT   C11 2912   3.895   0.693   0.556
   93X2IT    O3 2913   3.816   0.694   0.439
   93X2IT   C15 2914   3.852   0.787   0.336
   94X2IT   H18 2915   2.573   5.409   1.399
   94X2IT    N4 2916   2.626   5.386   1.481
   94X2IT   H17 2917   2.688   5.456   1.517
   94X2IT   C14 2918   2.567   5.298   1.567
   94X2IT    O5 2919   2.472   5.226   1.541
   94X2IT    O4 2920   2.633   5.299   1.687
   94X2IT   C13 2921   2.587   5.206   1.786
   94X2IT   C10 2922   2.647   5.066   1.765
   94X2IT    C9 2923   2.606   4.966   1.871
   94X2IT    C4 2924   2.718   4.915   1.934
   94X2IT    C5 2925   2.712   4.814   2.046
   94X2IT    O1 2926   2.818   4.771   2.094
   94X2IT    C6 2927   2.581   4.773   2.089
   94X2IT   C12 2928   2.568   4.672   2.201
   94X2IT    C7 2929   2.469   4.824   2.026
   94X2IT    C8 2930   2.476   4.926   1.912
   94X2IT    O2 2931   2.369   4.968   1.865
   94X2IT    N3 2932   2.343   4.791   2.058
   94X2IT   H15 2933   2.321   4.727   2.132
   94X2IT   H16 2934   2.268   4.836   2.005
   94X2IT    N2 2935   2.833   4.960   1.878
   94X2IT    C3 2936   2.961   4.986   1.945
   94X2IT    C2 2937   2.983   5.135   1.917
   94X2IT    H2 2938   3.083   5.177   1.924
   94X2IT    N1 2939   2.865   5.216   1.955
   94X2IT   H14 2940   2.894   5.313   1.968
   94X2IT    C1 2941   2.886   5.179   1.814
   94X2IT    H1 2942   2.909   5.255   1.740
   94X2IT   C11 2943   2.804   5.058   1.770
   94X2IT    O3 2944   2.862   5.020   1.647
   94X2IT   C15 2945   2.834   4.888   1.600
   95X2IT   H18 2946   0.022   3.061   5.349
   95X2IT    N4 2947   0.053   3.098   5.261
   95X2IT   H17 2948   0.106   3.036   5.201
   95X2IT   C14 2949  -0.026   3.195   5.204
   95X2IT    O5 2950  -0.112   3.258   5.262
   95X2IT    O4 2951   0.010   3.213   5.073
   95X2IT   C13 2952  -0.060   3.317   5.002
   95X2IT   C10 2953   0.002   3.455   5.029
   95X2IT    C9 2954  -0.065   3.566   4.951
   95X2IT    C4 2955   0.028   3.631   4.871
   95X2IT    C5 2956  -0.005   3.746   4.780
   95X2IT    O1 2957   0.086   3.800   4.715
   95X2IT    C6 2958  -0.143   3.786   4.775
   95X2IT   C12 2959  -0.183   3.901   4.685
   95X2IT    C7 2960  -0.236   3.722   4.855
   95X2IT    C8 2961  -0.201   3.606   4.948
   95X2IT    O2 2962  -0.293   3.553   5.012
   95X2IT    N3 2963  -0.366   3.754   4.859
   95X2IT   H15 2964  -0.407   3.826   4.802
   95X2IT   H16 2965  -0.426   3.698   4.921
   95X2IT    N2 2966   0.154   3.584   4.891
   95X2IT    C3 2967   0.263   3.573   4.793
   95X2IT    C2 2968   0.292   3.423   4.794
   95X2IT    H2 2969   0.388   3.387   4.757
   95X2IT    N1 2970   0.170   3.342   4.773
   95X2IT   H14 2971   0.196   3.249   4.739
   95X2IT    C1 2972   0.223   3.360   4.909
   95X2IT    H1 2973   0.264   3.276   4.964
   95X2IT   C11 2974   0.153   3.470   4.987
   95X2IT    O3 2975   0.239   3.494   5.098
   95X2IT   C15 2976   0.221   3.617   5.169
   96X2IT   H18 2977   4.536   2.430   0.293
   96X2IT    N4 2978   4.484   2.344   0.300
   96X2IT   H17 2979   4.406   2.333   0.237
   96X2IT   C14 2980   4.554   2.233   0.339
   96X2IT    O5 2981   4.664   2.235   0.393
   96X2IT    O4 2982   4.481   2.121   0.315
   96X2IT   C13 2983   4.540   1.996   0.358
   96X2IT   C10 2984   4.513   1.970   0.507
   96X2IT    C9 2985   4.568   1.837   0.554
   96X2IT    C4 2986   4.465   1.760   0.607
   96X2IT    C5 2987   4.485   1.621   0.662
   96X2IT    O1 2988   4.388   1.561   0.710
   96X2IT    C6 2989   4.619   1.567   0.655
   96X2IT   C12 2990   4.645   1.428   0.709
   96X2IT    C7 2991   4.721   1.645   0.604
   96X2IT    C8 2992   4.700   1.786   0.549
   96X2IT    O2 2993   4.798   1.845   0.501
   96X2IT    N3 2994   4.848   1.604   0.596
   96X2IT   H15 2995   4.879   1.514   0.625
   96X2IT   H16 2996   4.916   1.670   0.554
   96X2IT    N2 2997   4.347   1.826   0.610
   96X2IT    C3 2998   4.212   1.771   0.593
   96X2IT    C2 2999   4.161   1.847   0.471
   96X2IT    H2 3000   4.054   1.854   0.452
   96X2IT    N1 3001   4.255   1.838   0.357
   96X2IT   H14 3002   4.205   1.858   0.270
   96X2IT    C1 3003   4.253   1.960   0.441
   96X2IT    H1 3004   4.219   2.054   0.401
   96X2IT   C11 3005   4.361   1.961   0.547
   96X2IT    O3 3006   4.322   2.064   0.636
   96X2IT   C15 3007   4.381   2.066   0.766
   97X2IT   H18 3008   3.619   4.280   2.276
   97X2IT    N4 3009   3.520   4.288   2.292
   97X2IT   H17 3010   3.461   4.216   2.251
   97X2IT   C14 3011   3.481   4.346   2.409
   97X2IT    O5 3012   3.553   4.414   2.481
   97X2IT    O4 3013   3.348   4.323   2.431
   97X2IT   C13 3014   3.292   4.384   2.549
   97X2IT   C10 3015   3.251   4.530   2.521
   97X2IT    C9 3016   3.185   4.597   2.640
   97X2IT    C4 3017   3.059   4.641   2.605
   97X2IT    C5 3018   2.965   4.711   2.700
   97X2IT    O1 3019   2.856   4.751   2.659
   97X2IT    C6 3020   3.012   4.728   2.835
   97X2IT   C12 3021   2.923   4.797   2.936
   97X2IT    C7 3022   3.139   4.684   2.870
   97X2IT    C8 3023   3.233   4.614   2.772
   97X2IT    O2 3024   3.343   4.575   2.815
   97X2IT    N3 3025   3.191   4.697   2.993
   97X2IT   H15 3026   3.142   4.739   3.069
   97X2IT   H16 3027   3.285   4.659   3.007
   97X2IT    N2 3028   3.032   4.622   2.473
   97X2IT    C3 3029   2.902   4.592   2.411
   97X2IT    C2 3030   2.929   4.458   2.344
   97X2IT    H2 3031   2.865   4.424   2.263
   97X2IT    N1 3032   2.986   4.359   2.438
   97X2IT   H14 3033   2.970   4.264   2.402
   97X2IT    C1 3034   3.075   4.431   2.344
   97X2IT    H1 3035   3.125   4.378   2.265
   97X2IT   C11 3036   3.145   4.550   2.407
   97X2IT    O3 3037   3.195   4.622   2.296
   97X2IT   C15 3038   3.232   4.759   2.319
   98X2IT   H18 3039   4.512   0.686   1.545
   98X2IT    N4 3040   4.585   0.618   1.535
   98X2IT   H17 3041   4.567   0.525   1.571
   98X2IT   C14 3042   4.667   0.632   1.427
   98X2IT    O5 3043   4.677   0.733   1.359
   98X2IT    O4 3044   4.740   0.518   1.408
   98X2IT   C13 3045   4.836   0.521   1.301
   98X2IT   C10 3046   4.968   0.587   1.345
   98X2IT    C9 3047   5.074   0.586   1.238
   98X2IT    C4 3048   5.187   0.520   1.283
   98X2IT    C5 3049   5.311   0.501   1.200
   98X2IT    O1 3050   5.409   0.444   1.250
   98X2IT    C6 3051   5.308   0.552   1.066
   98X2IT   C12 3052   5.429   0.535   0.977
   98X2IT    C7 3053   5.195   0.618   1.021
   98X2IT    C8 3054   5.070   0.638   1.106
   98X2IT    O2 3055   4.972   0.696   1.054
   98X2IT    N3 3056   5.183   0.671   0.898
   98X2IT   H15 3057   5.255   0.665   0.828
   98X2IT   H16 3058   5.094   0.716   0.875
   98X2IT    N2 3059   5.176   0.483   1.413
   98X2IT    C3 3060   5.233   0.364   1.478
   98X2IT    C2 3061   5.109   0.292   1.528
   98X2IT    H2 3062   5.118   0.218   1.609
   98X2IT    N1 3063   5.008   0.272   1.422
   98X2IT   H14 3064   4.945   0.196   1.448
   98X2IT    C1 3065   4.992   0.383   1.519
   98X2IT    H1 3066   4.910   0.382   1.590
   98X2IT   C11 3067   5.041   0.517   1.466
   98X2IT    O3 3068   5.048   0.598   1.581
   98X2IT   C15 3069   5.127   0.718   1.572
   99X2IT   H18 3070   3.339   4.038   0.238
   99X2IT    N4 3071   3.386   4.114   0.283
   99X2IT   H17 3072   3.404   4.197   0.228
   99X2IT   C14 3073   3.364   4.127   0.418
   99X2IT    O5 3074   3.316   4.041   0.490
   99X2IT    O4 3075   3.406   4.250   0.460
   99X2IT   C13 3076   3.395   4.275   0.602
   99X2IT   C10 3077   3.515   4.217   0.679
   99X2IT    C9 3078   3.511   4.248   0.827
   99X2IT    C4 3079   3.625   4.316   0.865
   99X2IT    C5 3080   3.652   4.363   1.005
   99X2IT    O1 3081   3.759   4.420   1.030
   99X2IT    C6 3082   3.550   4.335   1.103
   99X2IT   C12 3083   3.571   4.380   1.246
   99X2IT    C7 3084   3.436   4.266   1.065
   99X2IT    C8 3085   3.410   4.219   0.922
   99X2IT    O2 3086   3.303   4.161   0.898
   99X2IT    N3 3087   3.337   4.235   1.149
   99X2IT   H15 3088   3.337   4.260   1.246
   99X2IT   H16 3089   3.257   4.185   1.110
   99X2IT    N2 3090   3.713   4.329   0.762
   99X2IT    C3 3091   3.806   4.441   0.736
   99X2IT    C2 3092   3.760   4.490   0.599
   99X2IT    H2 3093   3.828   4.549   0.538
   99X2IT    N1 3094   3.615   4.516   0.595
   99X2IT   H14 3095   3.594   4.580   0.517
   99X2IT    C1 3096   3.667   4.390   0.540
   99X2IT    H1 3097   3.662   4.370   0.434
   99X2IT   C11 3098   3.656   4.273   0.636
   99X2IT    O3 3099   3.740   4.174   0.580
   99X2IT   C15 3100   3.782   4.067   0.666
  100X2IT   H18 3101   0.190  -0.023   4.032
  100X2IT    N4 3102   0.164   0.067   4.067
  100X2IT   H17 3103   0.080   0.109   4.028
  100X2IT   C14 3104   0.197   0.095   4.196
  100X2IT    O5 3105   0.279   0.033   4.263
  100X2IT    O4 3106   0.130   0.206   4.239
  100X2IT   C13 3107   0.161   0.251   4.373
  100X2IT   C10 3108   0.287   0.339   4.374
  100X2IT    C9 3109   0.319   0.395   4.511
  100X2IT    C4 3110   0.322   0.533   4.507
  100X2IT    C5 3111   0.350   0.619   4.627
  100X2IT    O1 3112   0.355   0.743   4.613
  100X2IT    C6 3113   0.371   0.552   4.752
  100X2IT   C12 3114   0.400   0.633   4.877
  100X2IT    C7 3115   0.369   0.413   4.756
  100X2IT    C8 3116   0.341   0.326   4.633
  100X2IT    O2 3117   0.336   0.203   4.649
  100X2IT    N3 3118   0.389   0.341   4.867
  100X2IT   H15 3119   0.407   0.383   4.957
  100X2IT   H16 3120   0.383   0.239   4.859
  100X2IT    N2 3121   0.305   0.581   4.381
  100X2IT    C3 3122   0.239   0.706   4.340
  100X2IT    C2 3123   0.126   0.655   4.251
  100X2IT    H2 3124   0.079   0.722   4.179
  100X2IT    N1 3125   0.045   0.551   4.318
  100X2IT   H14 3126  -0.047   0.545   4.273
  100X2IT    C1 3127   0.148   0.511   4.221
  100X2IT    H1 3128   0.121   0.466   4.126
  100X2IT   C11 3129   0.279   0.469   4.286
  100X2IT    O3 3130   0.372   0.469   4.179
  100X2IT   C15 3131   0.511   0.471   4.213
  101X2IT   H18 3132   1.614   3.239   5.186
  101X2IT    N4 3133   1.611   3.338   5.202
  101X2IT   H17 3134   1.595   3.368   5.297
  101X2IT   C14 3135   1.688   3.415   5.120
  101X2IT    O5 3136   1.736   3.379   5.014
  101X2IT    O4 3137   1.700   3.541   5.171
  101X2IT   C13 3138   1.773   3.636   5.091
  101X2IT   C10 3139   1.684   3.699   4.983
  101X2IT    C9 3140   1.755   3.804   4.901
  101X2IT    C4 3141   1.688   3.925   4.911
  101X2IT    C5 3142   1.732   4.051   4.842
  101X2IT    O1 3143   1.664   4.154   4.853
  101X2IT    C6 3144   1.855   4.043   4.765
  101X2IT   C12 3145   1.905   4.166   4.694
  101X2IT    C7 3146   1.921   3.922   4.756
  101X2IT    C8 3147   1.874   3.794   4.825
  101X2IT    O2 3148   1.944   3.692   4.813
  101X2IT    N3 3149   2.034   3.904   4.685
  101X2IT   H15 3150   2.080   3.978   4.635
  101X2IT   H16 3151   2.075   3.811   4.686
  101X2IT    N2 3152   1.573   3.914   4.982
  101X2IT    C3 3153   1.510   4.016   5.068
  101X2IT    C2 3154   1.508   3.946   5.204
  101X2IT    H2 3155   1.440   3.980   5.281
  101X2IT    N1 3156   1.641   3.893   5.242
  101X2IT   H14 3157   1.645   3.880   5.343
  101X2IT    C1 3158   1.540   3.802   5.185
  101X2IT    H1 3159   1.496   3.724   5.246
  101X2IT   C11 3160   1.557   3.777   5.037
  101X2IT    O3 3161   1.435   3.717   4.997
  101X2IT   C15 3162   1.405   3.717   4.857
  102X2IT   H18 3163   2.398   4.319   2.010
  102X2IT    N4 3164   2.358   4.249   2.069
  102X2IT   H17 3165   2.329   4.163   2.025
  102X2IT   C14 3166   2.401   4.246   2.199
  102X2IT    O5 3167   2.461   4.337   2.255
  102X2IT    O4 3168   2.363   4.130   2.259
  102X2IT   C13 3169   2.396   4.116   2.398
  102X2IT   C10 3170   2.292   4.185   2.488
  102X2IT    C9 3171   2.320   4.167   2.636
  102X2IT    C4 3172   2.212   4.106   2.697
  102X2IT    C5 3173   2.207   4.073   2.843
  102X2IT    O1 3174   2.104   4.022   2.891
  102X2IT    C6 3175   2.324   4.104   2.921
  102X2IT   C12 3176   2.326   4.073   3.069
  102X2IT    C7 3177   2.432   4.166   2.859
  102X2IT    C8 3178   2.435   4.200   2.710
  102X2IT    O2 3179   2.539   4.251   2.665
  102X2IT    N3 3180   2.544   4.201   2.924
  102X2IT   H15 3181   2.559   4.184   3.021
  102X2IT   H16 3182   2.618   4.244   2.868
  102X2IT    N2 3183   2.108   4.087   2.612
  102X2IT    C3 3184   2.010   3.977   2.611
  102X2IT    C2 3185   2.032   3.916   2.473
  102X2IT    H2 3186   1.953   3.854   2.429
  102X2IT    N1 3187   2.174   3.883   2.448
  102X2IT   H14 3188   2.180   3.813   2.374
  102X2IT    C1 3189   2.116   4.006   2.391
  102X2IT    H1 3190   2.104   4.017   2.284
  102X2IT   C11 3191   2.145   4.131   2.474
  102X2IT    O3 3192   2.055   4.228   2.423
  102X2IT   C15 3193   2.031   4.343   2.505
  103X2IT   H18 3194   3.647   3.248   2.039
  103X2IT    N4 3195   3.565   3.223   1.987
  103X2IT   H17 3196   3.479   3.212   2.040
  103X2IT   C14 3197   3.560   3.266   1.858
  103X2IT    O5 3198   3.655   3.307   1.793
  103X2IT    O4 3199   3.432   3.253   1.810
  103X2IT   C13 3200   3.413   3.289   1.672
  103X2IT   C10 3201   3.450   3.173   1.578
  103X2IT    C9 3202   3.424   3.204   1.432
  103X2IT    C4 3203   3.337   3.111   1.378
  103X2IT    C5 3204   3.290   3.113   1.235
  103X2IT    O1 3205   3.215   3.023   1.195
  103X2IT    C6 3206   3.338   3.222   1.153
  103X2IT   C12 3207   3.294   3.230   1.009
  103X2IT    C7 3208   3.426   3.314   1.207
  103X2IT    C8 3209   3.474   3.310   1.352
  103X2IT    O2 3210   3.549   3.401   1.391
  103X2IT    N3 3211   3.477   3.418   1.138
  103X2IT   H15 3212   3.454   3.436   1.042
  103X2IT   H16 3213   3.540   3.481   1.189
  103X2IT    N2 3214   3.306   3.013   1.467
  103X2IT    C3 3215   3.179   2.940   1.479
  103X2IT    C2 3216   3.136   2.973   1.621
  103X2IT    H2 3217   3.064   2.909   1.672
  103X2IT    N1 3218   3.136   3.119   1.647
  103X2IT   H14 3219   3.075   3.139   1.727
  103X2IT    C1 3220   3.249   3.037   1.693
  103X2IT    H1 3221   3.267   3.022   1.799
  103X2IT   C11 3222   3.369   3.040   1.599
  103X2IT    O3 3223   3.449   2.932   1.642
  103X2IT   C15 3224   3.549   2.884   1.551
  104X2IT   H18 3225   3.713   1.339   2.548
  104X2IT    N4 3226   3.775   1.375   2.477
  104X2IT   H17 3227   3.785   1.320   2.393
  104X2IT   C14 3228   3.786   1.511   2.470
  104X2IT    O5 3229   3.751   1.589   2.557
  104X2IT    O4 3230   3.846   1.546   2.353
  104X2IT   C13 3231   3.871   1.687   2.335
  104X2IT   C10 3232   4.001   1.731   2.404
  104X2IT    C9 3233   4.035   1.877   2.382
  104X2IT    C4 3234   4.159   1.889   2.323
  104X2IT    C5 3235   4.222   2.020   2.286
  104X2IT    O1 3236   4.336   2.021   2.237
  104X2IT    C6 3237   4.144   2.138   2.312
  104X2IT   C12 3238   4.202   2.274   2.277
  104X2IT    C7 3239   4.020   2.127   2.372
  104X2IT    C8 3240   3.958   1.992   2.410
  104X2IT    O2 3241   3.844   1.993   2.459
  104X2IT    N3 3242   3.942   2.231   2.402
  104X2IT   H15 3243   3.967   2.326   2.382
  104X2IT   H16 3244   3.851   2.210   2.445
  104X2IT    N2 3245   4.221   1.769   2.309
  104X2IT    C3 3246   4.313   1.725   2.202
  104X2IT    C2 3247   4.239   1.606   2.143
  104X2IT    H2 3248   4.295   1.532   2.085
  104X2IT    N1 3249   4.099   1.638   2.107
  104X2IT   H14 3250   4.066   1.570   2.039
  104X2IT    C1 3251   4.128   1.566   2.234
  104X2IT    H1 3252   4.097   1.464   2.248
  104X2IT   C11 3253   4.132   1.658   2.355
  104X2IT    O3 3254   4.193   1.579   2.456
  104X2IT   C15 3255   4.246   1.649   2.570
  105X2IT   H18 3256   2.095   2.050   0.993
  105X2IT    N4 3257   2.024   2.059   1.064
  105X2IT   H17 3258   1.931   2.029   1.040
  105X2IT   C14 3259   2.066   2.049   1.194
  105X2IT    O5 3260   2.182   2.058   1.231
  105X2IT    O4 3261   1.959   2.032   1.276
  105X2IT   C13 3262   1.988   2.027   1.418
  105X2IT   C10 3263   2.000   2.168   1.478
  105X2IT    C9 3264   2.023   2.166   1.627
  105X2IT    C4 3265   1.923   2.237   1.692
  105X2IT    C5 3266   1.916   2.254   1.841
  105X2IT    O1 3267   1.825   2.323   1.890
  105X2IT    C6 3268   2.019   2.190   1.919
  105X2IT   C12 3269   2.017   2.203   2.069
  105X2IT    C7 3270   2.120   2.120   1.854
  105X2IT    C8 3271   2.126   2.104   1.702
  105X2IT    O2 3272   2.219   2.035   1.655
  105X2IT    N3 3273   2.220   2.058   1.917
  105X2IT   H15 3274   2.230   2.057   2.017
  105X2IT   H16 3275   2.288   2.008   1.859
  105X2IT    N2 3276   1.837   2.295   1.605
  105X2IT    C3 3277   1.693   2.319   1.622
  105X2IT    C2 3278   1.633   2.240   1.506
  105X2IT    H2 3279   1.533   2.263   1.471
  105X2IT    N1 3280   1.682   2.100   1.503
  105X2IT   H14 3281   1.616   2.043   1.449
  105X2IT    C1 3282   1.741   2.201   1.412
  105X2IT    H1 3283   1.727   2.194   1.305
  105X2IT   C11 3284   1.872   2.258   1.464
  105X2IT    O3 3285   1.894   2.373   1.384
  105X2IT   C15 3286   1.987   2.470   1.432
  106X2IT   H18 3287   3.769   2.777   2.607
  106X2IT    N4 3288   3.793   2.776   2.704
  106X2IT   H17 3289   3.788   2.687   2.752
  106X2IT   C14 3290   3.885   2.868   2.746
  106X2IT    O5 3291   3.919   2.967   2.683
  106X2IT    O4 3292   3.931   2.835   2.871
  106X2IT   C13 3293   4.024   2.927   2.930
  106X2IT   C10 3294   3.951   3.045   2.998
  106X2IT    C9 3295   4.046   3.140   3.068
  106X2IT    C4 3296   4.013   3.150   3.202
  106X2IT    C5 3297   4.087   3.236   3.300
  106X2IT    O1 3298   4.048   3.242   3.418
  106X2IT    C6 3299   4.201   3.309   3.249
  106X2IT   C12 3300   4.280   3.397   3.343
  106X2IT    C7 3301   4.233   3.300   3.115
  106X2IT    C8 3302   4.156   3.212   3.016
  106X2IT    O2 3303   4.196   3.208   2.899
  106X2IT    N3 3304   4.335   3.365   3.058
  106X2IT   H15 3305   4.397   3.425   3.110
  106X2IT   H16 3306   4.351   3.350   2.958
  106X2IT    N2 3307   3.901   3.079   3.232
  106X2IT    C3 3308   3.869   3.010   3.358
  106X2IT    C2 3309   3.853   2.866   3.312
  106X2IT    H2 3310   3.797   2.795   3.374
  106X2IT    N1 3311   3.968   2.818   3.232
  106X2IT   H14 3312   3.971   2.716   3.233
  106X2IT    C1 3313   3.845   2.862   3.164
  106X2IT    H1 3314   3.784   2.791   3.110
  106X2IT   C11 3315   3.851   3.005   3.113
  106X2IT    O3 3316   3.717   3.037   3.083
  106X2IT   C15 3317   3.684   3.176   3.070
  107X2IT   H18 3318   3.778   3.042   3.537
  107X2IT    N4 3319   3.731   2.958   3.511
  107X2IT   H17 3320   3.720   2.939   3.412
  107X2IT   C14 3321   3.743   2.852   3.597
  107X2IT    O5 3322   3.782   2.860   3.713
  107X2IT    O4 3323   3.701   2.737   3.537
  107X2IT   C13 3324   3.702   2.618   3.618
  107X2IT   C10 3325   3.575   2.608   3.705
  107X2IT    C9 3326   3.568   2.481   3.786
  107X2IT    C4 3327   3.454   2.410   3.756
  107X2IT    C5 3328   3.417   2.279   3.818
  107X2IT    O1 3329   3.311   2.224   3.787
  107X2IT    C6 3330   3.511   2.225   3.914
  107X2IT   C12 3331   3.481   2.092   3.981
  107X2IT    C7 3332   3.625   2.297   3.946
  107X2IT    C8 3333   3.661   2.431   3.881
  107X2IT    O2 3334   3.768   2.484   3.914
  107X2IT    N3 3335   3.717   2.256   4.034
  107X2IT   H15 3336   3.710   2.169   4.084
  107X2IT   H16 3337   3.798   2.316   4.049
  107X2IT    N2 3338   3.375   2.477   3.668
  107X2IT    C3 3339   3.288   2.420   3.563
  107X2IT    C2 3340   3.345   2.482   3.437
  107X2IT    H2 3341   3.284   2.486   3.346
  107X2IT    N1 3342   3.491   2.461   3.425
  107X2IT   H14 3343   3.520   2.471   3.328
  107X2IT    C1 3344   3.439   2.591   3.473
  107X2IT    H1 3345   3.451   2.680   3.413
  107X2IT   C11 3346   3.439   2.604   3.624
  107X2IT    O3 3347   3.357   2.716   3.649
  107X2IT   C15 3348   3.305   2.732   3.782
  108X2IT   H18 3349   3.608   0.837   2.758
  108X2IT    N4 3350   3.699   0.875   2.774
  108X2IT   H17 3351   3.763   0.877   2.695
  108X2IT   C14 3352   3.709   0.972   2.870
  108X2IT    O5 3353   3.625   0.995   2.955
  108X2IT    O4 3354   3.829   1.035   2.860
  108X2IT   C13 3355   3.857   1.136   2.960
  108X2IT   C10 3356   3.911   1.074   3.089
  108X2IT    C9 3357   3.947   1.177   3.194
  108X2IT    C4 3358   4.080   1.164   3.229
  108X2IT    C5 3359   4.149   1.251   3.330
  108X2IT    O1 3360   4.268   1.230   3.358
  108X2IT    C6 3361   4.069   1.356   3.390
  108X2IT   C12 3362   4.133   1.448   3.492
  108X2IT    C7 3363   3.936   1.368   3.355
  108X2IT    C8 3364   3.867   1.277   3.253
  108X2IT    O2 3365   3.748   1.300   3.226
  108X2IT    N3 3366   3.854   1.461   3.407
  108X2IT   H15 3367   3.883   1.529   3.474
  108X2IT   H16 3368   3.757   1.461   3.372
  108X2IT    N2 3369   4.140   1.058   3.168
  108X2IT    C3 3370   4.279   1.046   3.123
  108X2IT    C2 3371   4.264   1.024   2.974
  108X2IT    H2 3372   4.345   0.979   2.917
  108X2IT    N1 3373   4.178   1.126   2.910
  108X2IT   H14 3374   4.198   1.129   2.809
  108X2IT    C1 3375   4.122   0.994   2.943
  108X2IT    H1 3376   4.091   0.926   2.864
  108X2IT   C11 3377   4.045   0.992   3.074
  108X2IT    O3 3378   4.029   0.854   3.103
  108X2IT   C15 3379   3.995   0.819   3.237
  109X2IT   H18 3380   4.243   3.157   0.464
  109X2IT    N4 3381   4.252   3.063   0.499
  109X2IT   H17 3382   4.304   3.051   0.585
  109X2IT   C14 3383   4.149   2.978   0.470
  109X2IT    O5 3384   4.065   2.996   0.385
  109X2IT    O4 3385   4.159   2.866   0.548
  109X2IT   C13 3386   4.060   2.763   0.524
  109X2IT   C10 3387   4.101   2.673   0.406
  109X2IT    C9 3388   4.004   2.560   0.381
  109X2IT    C4 3389   4.069   2.438   0.390
  109X2IT    C5 3390   4.001   2.306   0.371
  109X2IT    O1 3391   4.069   2.202   0.377
  109X2IT    C6 3392   3.859   2.309   0.346
  109X2IT   C12 3393   3.785   2.178   0.327
  109X2IT    C7 3394   3.794   2.430   0.337
  109X2IT    C8 3395   3.865   2.565   0.355
  109X2IT    O2 3396   3.796   2.668   0.348
  109X2IT    N3 3397   3.663   2.443   0.312
  109X2IT   H15 3398   3.602   2.365   0.299
  109X2IT   H16 3399   3.625   2.538   0.309
  109X2IT    N2 3400   4.203   2.453   0.409
  109X2IT    C3 3401   4.293   2.366   0.485
  109X2IT    C2 3402   4.347   2.460   0.591
  109X2IT    H2 3403   4.441   2.437   0.643
  109X2IT    N1 3404   4.239   2.530   0.664
  109X2IT   H14 3405   4.275   2.564   0.754
  109X2IT    C1 3406   4.312   2.600   0.556
  109X2IT    H1 3407   4.375   2.685   0.578
  109X2IT   C11 3408   4.238   2.597   0.423
  109X2IT    O3 3409   4.336   2.638   0.329
  109X2IT   C15 3410   4.310   2.608   0.191
  110X2IT   H18 3411   4.984   3.521   1.324
  110X2IT    N4 3412   4.970   3.485   1.417
  110X2IT   H17 3413   4.958   3.385   1.426
  110X2IT   C14 3414   5.028   3.555   1.519
  110X2IT    O5 3415   5.070   3.669   1.510
  110X2IT    O4 3416   5.027   3.481   1.633
  110X2IT   C13 3417   5.080   3.545   1.751
  110X2IT   C10 3418   4.973   3.633   1.819
  110X2IT    C9 3419   5.022   3.697   1.947
  110X2IT    C4 3420   4.941   3.660   2.053
  110X2IT    C5 3421   4.962   3.705   2.195
  110X2IT    O1 3422   4.882   3.670   2.282
  110X2IT    C6 3423   5.077   3.789   2.219
  110X2IT   C12 3424   5.104   3.838   2.360
  110X2IT    C7 3425   5.157   3.827   2.113
  110X2IT    C8 3426   5.134   3.781   1.969
  110X2IT    O2 3427   5.215   3.817   1.883
  110X2IT    N3 3428   5.265   3.906   2.126
  110X2IT   H15 3429   5.295   3.944   2.214
  110X2IT   H16 3430   5.318   3.926   2.041
  110X2IT    N2 3431   4.835   3.584   2.012
  110X2IT    C3 3432   4.768   3.476   2.086
  110X2IT    C2 3433   4.788   3.357   1.992
  110X2IT    H2 3434   4.722   3.270   2.001
  110X2IT    N1 3435   4.929   3.339   1.954
  110X2IT   H14 3436   4.944   3.242   1.922
  110X2IT    C1 3437   4.836   3.405   1.861
  110X2IT    H1 3438   4.809   3.358   1.767
  110X2IT   C11 3439   4.843   3.557   1.866
  110X2IT    O3 3440   4.727   3.600   1.798
  110X2IT   C15 3441   4.685   3.735   1.819
  111X2IT   H18 3442   1.267   4.873   2.605
  111X2IT    N4 3443   1.287   4.836   2.695
  111X2IT   H17 3444   1.316   4.739   2.700
  111X2IT   C14 3445   1.335   4.924   2.788
  111X2IT    O5 3446   1.328   5.045   2.780
  111X2IT    O4 3447   1.386   4.856   2.895
  111X2IT   C13 3448   1.434   4.937   3.005
  111X2IT   C10 3449   1.320   4.978   3.099
  111X2IT    C9 3450   1.367   5.057   3.219
  111X2IT    C4 3451   1.330   4.993   3.335
  111X2IT    C5 3452   1.362   5.044   3.473
  111X2IT    O1 3453   1.321   4.982   3.572
  111X2IT    C6 3454   1.438   5.166   3.480
  111X2IT   C12 3455   1.474   5.223   3.616
  111X2IT    C7 3456   1.475   5.230   3.363
  111X2IT    C8 3457   1.441   5.177   3.224
  111X2IT    O2 3458   1.482   5.241   3.126
  111X2IT    N3 3459   1.544   5.345   3.360
  111X2IT   H15 3460   1.576   5.392   3.442
  111X2IT   H16 3461   1.567   5.383   3.268
  111X2IT    N2 3462   1.254   4.882   3.311
  111X2IT    C3 3463   1.250   4.757   3.389
  111X2IT    C2 3464   1.293   4.654   3.285
  111X2IT    H2 3465   1.268   4.549   3.300
  111X2IT    N1 3466   1.419   4.691   3.218
  111X2IT   H14 3467   1.462   4.607   3.177
  111X2IT    C1 3468   1.290   4.715   3.150
  111X2IT    H1 3469   1.264   4.661   3.061
  111X2IT   C11 3470   1.241   4.859   3.165
  111X2IT    O3 3471   1.105   4.853   3.124
  111X2IT   C15 3472   1.021   4.962   3.163
  112X2IT   H18 3473   4.204   2.178   4.824
  112X2IT    N4 3474   4.134   2.168   4.753
  112X2IT   H17 3475   4.046   2.216   4.767
  112X2IT   C14 3476   4.178   2.148   4.625
  112X2IT    O5 3477   4.292   2.115   4.595
  112X2IT    O4 3478   4.076   2.168   4.537
  112X2IT   C13 3479   4.108   2.144   4.398
  112X2IT   C10 3480   4.098   1.995   4.363
  112X2IT    C9 3481   4.123   1.966   4.216
  112X2IT    C4 3482   4.013   1.903   4.160
  112X2IT    C5 3483   4.005   1.861   4.016
  112X2IT    O1 3484   3.905   1.801   3.976
  112X2IT    C6 3485   4.118   1.894   3.933
  112X2IT   C12 3486   4.117   1.855   3.787
  112X2IT    C7 3487   4.228   1.957   3.989
  112X2IT    C8 3488   4.236   1.998   4.137
  112X2IT    O2 3489   4.337   2.058   4.175
  112X2IT    N3 3490   4.339   1.990   3.921
  112X2IT   H15 3491   4.350   1.972   3.822
  112X2IT   H16 3492   4.413   2.037   3.972
  112X2IT    N2 3493   3.918   1.875   4.253
  112X2IT    C3 3494   3.772   1.872   4.234
  112X2IT    C2 3495   3.724   1.978   4.332
  112X2IT    H2 3496   3.621   1.978   4.366
  112X2IT    N1 3497   3.795   2.107   4.314
  112X2IT   H14 3498   3.739   2.182   4.354
  112X2IT    C1 3499   3.836   2.015   4.422
  112X2IT    H1 3500   3.822   2.043   4.526
  112X2IT   C11 3501   3.956   1.929   4.386
  112X2IT    O3 3502   3.958   1.829   4.486
  112X2IT   C15 3503   4.034   1.711   4.458
  113X2IT   H18 3504   1.581   1.985   5.089
  113X2IT    N4 3505   1.608   1.896   5.052
  113X2IT   H17 3506   1.581   1.814   5.104
  113X2IT   C14 3507   1.619   1.888   4.916
  113X2IT    O5 3508   1.626   1.983   4.840
  113X2IT    O4 3509   1.625   1.757   4.878
  113X2IT   C13 3510   1.643   1.732   4.737
  113X2IT   C10 3511   1.792   1.741   4.697
  113X2IT    C9 3512   1.816   1.710   4.551
  113X2IT    C4 3513   1.904   1.604   4.539
  113X2IT    C5 3514   1.949   1.546   4.408
  113X2IT    O1 3515   2.031   1.454   4.407
  113X2IT    C6 3516   1.892   1.605   4.289
  113X2IT   C12 3517   1.933   1.552   4.153
  113X2IT    C7 3518   1.805   1.712   4.301
  113X2IT    C8 3519   1.761   1.770   4.435
  113X2IT    O2 3520   1.678   1.863   4.434
  113X2IT    N3 3521   1.749   1.775   4.196
  113X2IT   H15 3522   1.765   1.748   4.101
  113X2IT   H16 3523   1.684   1.851   4.217
  113X2IT    N2 3524   1.951   1.563   4.660
  113X2IT    C3 3525   1.988   1.427   4.701
  113X2IT    C2 3526   1.894   1.402   4.818
  113X2IT    H2 3527   1.918   1.324   4.891
  113X2IT    N1 3528   1.753   1.429   4.783
  113X2IT   H14 3529   1.691   1.380   4.849
  113X2IT    C1 3530   1.830   1.530   4.858
  113X2IT    H1 3531   1.806   1.554   4.961
  113X2IT   C11 3532   1.887   1.640   4.770
  113X2IT    O3 3533   1.983   1.704   4.852
  113X2IT   C15 3534   2.081   1.786   4.787
  114X2IT   H18 3535   4.633   1.180   1.438
  114X2IT    N4 3536   4.636   1.246   1.513
  114X2IT   H17 3537   4.585   1.332   1.501
  114X2IT   C14 3538   4.651   1.194   1.639
  114X2IT    O5 3539   4.687   1.080   1.664
  114X2IT    O4 3540   4.623   1.290   1.732
  114X2IT   C13 3541   4.640   1.251   1.870
  114X2IT   C10 3542   4.787   1.263   1.914
  114X2IT    C9 3543   4.808   1.230   2.060
  114X2IT    C4 3544   4.865   1.338   2.126
  114X2IT    C5 3545   4.898   1.339   2.272
  114X2IT    O1 3546   4.953   1.438   2.322
  114X2IT    C6 3547   4.865   1.219   2.347
  114X2IT   C12 3548   4.896   1.213   2.495
  114X2IT    C7 3549   4.810   1.111   2.281
  114X2IT    C8 3550   4.777   1.112   2.131
  114X2IT    O2 3551   4.723   1.011   2.083
  114X2IT    N3 3552   4.777   0.996   2.341
  114X2IT   H15 3553   4.790   0.979   2.439
  114X2IT   H16 3554   4.735   0.923   2.282
  114X2IT    N2 3555   4.894   1.440   2.041
  114X2IT    C3 3556   4.891   1.584   2.069
  114X2IT    C2 3557   4.788   1.634   1.968
  114X2IT    H2 3558   4.787   1.740   1.940
  114X2IT    N1 3559   4.661   1.558   1.975
  114X2IT   H14 3560   4.586   1.614   1.934
  114X2IT    C1 3561   4.760   1.527   1.869
  114X2IT    H1 3562   4.738   1.547   1.765
  114X2IT   C11 3563   4.848   1.408   1.903
  114X2IT    O3 3564   4.954   1.416   1.809
  114X2IT   C15 3565   5.073   1.342   1.838
  115X2IT   H18 3566   1.534   3.061   0.793
  115X2IT    N4 3567   1.538   3.155   0.760
  115X2IT   H17 3568   1.451   3.198   0.733
  115X2IT   C14 3569   1.639   3.233   0.810
  115X2IT    O5 3570   1.737   3.192   0.868
  115X2IT    O4 3571   1.614   3.365   0.781
  115X2IT   C13 3572   1.716   3.458   0.822
  115X2IT   C10 3573   1.830   3.467   0.719
  115X2IT    C9 3574   1.935   3.569   0.755
  115X2IT    C4 3575   1.947   3.662   0.654
  115X2IT    C5 3576   2.043   3.779   0.658
  115X2IT    O1 3577   2.050   3.855   0.561
  115X2IT    C6 3578   2.122   3.793   0.777
  115X2IT   C12 3579   2.220   3.908   0.788
  115X2IT    C7 3580   2.110   3.699   0.878
  115X2IT    C8 3581   2.014   3.580   0.872
  115X2IT    O2 3582   2.008   3.505   0.971
  115X2IT    N3 3583   2.181   3.702   0.992
  115X2IT   H15 3584   2.248   3.774   1.013
  115X2IT   H16 3585   2.163   3.628   1.061
  115X2IT    N2 3586   1.869   3.632   0.547
  115X2IT    C3 3587   1.803   3.725   0.455
  115X2IT    C2 3588   1.656   3.688   0.472
  115X2IT    H2 3589   1.584   3.715   0.395
  115X2IT    N1 3590   1.615   3.688   0.614
  115X2IT   H14 3591   1.513   3.698   0.620
  115X2IT    C1 3592   1.646   3.561   0.547
  115X2IT    H1 3593   1.568   3.487   0.529
  115X2IT   C11 3594   1.787   3.511   0.574
  115X2IT    O3 3595   1.807   3.410   0.477
  115X2IT   C15 3596   1.943   3.371   0.451
  116X2IT   H18 3597   0.740   3.068   4.007
  116X2IT    N4 3598   0.673   3.111   3.946
  116X2IT   H17 3599   0.606   3.050   3.901
  116X2IT   C14 3600   0.635   3.238   3.977
  116X2IT    O5 3601   0.695   3.313   4.053
  116X2IT    O4 3602   0.522   3.272   3.907
  116X2IT   C13 3603   0.475   3.407   3.925
  116X2IT   C10 3604   0.550   3.506   3.834
  116X2IT    C9 3605   0.498   3.648   3.845
  116X2IT    C4 3606   0.456   3.692   3.721
  116X2IT    C5 3607   0.398   3.829   3.697
  116X2IT    O1 3608   0.367   3.862   3.581
  116X2IT    C6 3609   0.384   3.914   3.812
  116X2IT   C12 3610   0.326   4.053   3.794
  116X2IT    C7 3611   0.427   3.870   3.936
  116X2IT    C8 3612   0.486   3.731   3.959
  116X2IT    O2 3613   0.517   3.700   4.075
  116X2IT    N3 3614   0.419   3.943   4.048
  116X2IT   H15 3615   0.381   4.036   4.051
  116X2IT   H16 3616   0.453   3.899   4.134
  116X2IT    N2 3617   0.481   3.602   3.623
  116X2IT    C3 3618   0.401   3.577   3.501
  116X2IT    C2 3619   0.363   3.430   3.518
  116X2IT    H2 3620   0.333   3.372   3.431
  116X2IT    N1 3621   0.301   3.403   3.650
  116X2IT   H14 3622   0.246   3.317   3.645
  116X2IT    C1 3623   0.443   3.370   3.628
  116X2IT    H1 3624   0.477   3.267   3.627
  116X2IT   C11 3625   0.538   3.477   3.680
  116X2IT    O3 3626   0.663   3.444   3.620
  116X2IT   C15 3627   0.763   3.546   3.618
  117X2IT   H18 3628   4.027   4.503   3.210
  117X2IT    N4 3629   4.002   4.548   3.296
  117X2IT   H17 3630   4.018   4.496   3.381
  117X2IT   C14 3631   4.010   4.684   3.298
  117X2IT    O5 3632   4.018   4.756   3.200
  117X2IT    O4 3633   4.003   4.729   3.427
  117X2IT   C13 3634   4.003   4.872   3.445
  117X2IT   C10 3635   3.862   4.932   3.426
  117X2IT    C9 3636   3.857   5.081   3.451
  117X2IT    C4 3637   3.767   5.109   3.551
  117X2IT    C5 3638   3.738   5.248   3.601
  117X2IT    O1 3639   3.652   5.265   3.689
  117X2IT    C6 3640   3.813   5.355   3.540
  117X2IT   C12 3641   3.789   5.498   3.586
  117X2IT    C7 3642   3.903   5.326   3.439
  117X2IT    C8 3643   3.931   5.185   3.389
  117X2IT    O2 3644   4.017   5.170   3.300
  117X2IT    N3 3645   3.976   5.419   3.375
  117X2IT   H15 3646   3.972   5.517   3.397
  117X2IT   H16 3647   4.041   5.386   3.303
  117X2IT    N2 3648   3.701   4.999   3.594
  117X2IT    C3 3649   3.652   4.969   3.730
  117X2IT    C2 3650   3.728   4.842   3.764
  117X2IT    H2 3651   3.690   4.776   3.843
  117X2IT    N1 3652   3.874   4.855   3.743
  117X2IT   H14 3653   3.923   4.784   3.798
  117X2IT    C1 3654   3.791   4.787   3.642
  117X2IT    H1 3655   3.803   4.681   3.623
  117X2IT   C11 3656   3.753   4.877   3.525
  117X2IT    O3 3657   3.649   4.806   3.459
  117X2IT   C15 3658   3.566   4.880   3.369
  118X2IT   H18 3659   4.708   0.813   3.251
  118X2IT    N4 3660   4.759   0.890   3.289
  118X2IT   H17 3661   4.837   0.868   3.350
  118X2IT   C14 3662   4.765   1.004   3.214
  118X2IT    O5 3663   4.691   1.030   3.120
  118X2IT    O4 3664   4.862   1.087   3.262
  118X2IT   C13 3665   4.874   1.215   3.195
  118X2IT   C10 3666   4.773   1.317   3.250
  118X2IT    C9 3667   4.787   1.454   3.188
  118X2IT    C4 3668   4.811   1.549   3.286
  118X2IT    C5 3669   4.831   1.695   3.258
  118X2IT    O1 3670   4.848   1.773   3.353
  118X2IT    C6 3671   4.828   1.735   3.120
  118X2IT   C12 3672   4.848   1.881   3.085
  118X2IT    C7 3673   4.803   1.641   3.022
  118X2IT    C8 3674   4.782   1.492   3.052
  118X2IT    O2 3675   4.765   1.416   2.955
  118X2IT    N3 3676   4.797   1.669   2.891
  118X2IT   H15 3677   4.811   1.762   2.854
  118X2IT   H16 3678   4.780   1.591   2.827
  118X2IT    N2 3679   4.806   1.495   3.411
  118X2IT    C3 3680   4.883   1.535   3.529
  118X2IT    C2 3681   4.959   1.406   3.563
  118X2IT    H2 3682   4.999   1.392   3.663
  118X2IT    N1 3683   5.031   1.352   3.446
  118X2IT   H14 3684   5.106   1.289   3.478
  118X2IT    C1 3685   4.901   1.294   3.485
  118X2IT    H1 3686   4.895   1.193   3.523
  118X2IT   C11 3687   4.784   1.348   3.404
  118X2IT    O3 3688   4.670   1.307   3.477
  118X2IT   C15 3689   4.547   1.375   3.448
  119X2IT   H18 3690   4.177   0.395   2.464
  119X2IT    N4 3691   4.193   0.321   2.399
  119X2IT   H17 3692   4.112   0.276   2.359
  119X2IT   C14 3693   4.308   0.329   2.325
  119X2IT    O5 3694   4.403   0.401   2.350
  119X2IT    O4 3695   4.302   0.241   2.220
  119X2IT   C13 3696   4.420   0.234   2.137
  119X2IT   C10 3697   4.526   0.141   2.198
  119X2IT    C9 3698   4.648   0.125   2.110
  119X2IT    C4 3699   4.668  -0.008   2.079
  119X2IT    C5 3700   4.780  -0.059   1.992
  119X2IT    O1 3701   4.792  -0.180   1.973
  119X2IT    C6 3702   4.869   0.041   1.937
  119X2IT   C12 3703   4.984  -0.003   1.849
  119X2IT    C7 3704   4.850   0.174   1.969
  119X2IT    C8 3705   4.735   0.224   2.058
  119X2IT    O2 3706   4.725   0.346   2.076
  119X2IT    N3 3707   4.928   0.274   1.925
  119X2IT   H15 3708   5.006   0.259   1.863
  119X2IT   H16 3709   4.903   0.369   1.953
  119X2IT    N2 3710   4.579  -0.089   2.142
  119X2IT    C3 3711   4.521  -0.215   2.093
  119X2IT    C2 3712   4.372  -0.184   2.092
  119X2IT    H2 3713   4.300  -0.266   2.093
  119X2IT    N1 3714   4.341  -0.060   2.018
  119X2IT   H14 3715   4.243  -0.060   1.990
  119X2IT    C1 3716   4.348  -0.058   2.166
  119X2IT    H1 3717   4.258  -0.040   2.225
  119X2IT   C11 3718   4.481  -0.008   2.220
  119X2IT    O3 3719   4.478  -0.046   2.357
  119X2IT   C15 3720   4.604  -0.048   2.426
  120SOL     OW 3721   0.230   0.628   0.113
  120SOL    HW1 3722   0.137   0.626   0.150
  120SOL    HW2 3723   0.231   0.589   0.021
  121SOL     OW 3724   0.225   0.275   0.996
  121SOL    HW1 3725   0.260   0.258   1.088
  121SOL    HW2 3726   0.137   0.230   0.984
  122SOL     OW 3727   0.019   0.368   0.647
  122SOL    HW1 3728  -0.063   0.411   0.686
  122SOL    HW2 3729  -0.009   0.295   0.584
  123SOL     OW 3730   1.555   1.511   0.703
  123SOL    HW1 3731   1.498   1.495   0.784
  123SOL    HW2 3732   1.496   1.521   0.623
  124SOL     OW 3733   1.135   0.703   0.717
  124SOL    HW1 3734   1.192   0.781   0.692
  124SOL    HW2 3735   1.075   0.729   0.793
  125SOL     OW 3736   0.768   1.144   1.023
  125SOL    HW1 3737   0.690   1.161   1.083
  125SOL    HW2 3738   0.802   1.231   0.987
  126SOL     OW 3739   0.850   0.798   1.823
  126SOL    HW1 3740   0.846   0.874   1.888
  126SOL    HW2 3741   0.872   0.834   1.732
  127SOL     OW 3742   0.685   1.012   0.665
  127SOL    HW1 3743   0.754   0.996   0.735
  127SOL    HW2 3744   0.612   1.069   0.703
  128SOL     OW 3745   0.335   1.435   1.061
  128SOL    HW1 3746   0.257   1.404   1.008
  128SOL    HW2 3747   0.393   1.493   1.004
  129SOL     OW 3748   0.438   0.392   1.499
  129SOL    HW1 3749   0.520   0.336   1.508
  129SOL    HW2 3750   0.357   0.334   1.503
  130SOL     OW 3751   0.231   1.713   0.483
  130SOL    HW1 3752   0.265   1.790   0.537
  130SOL    HW2 3753   0.275   1.713   0.393
  131SOL     OW 3754   1.127   1.341   1.690
  131SOL    HW1 3755   1.174   1.341   1.778
  131SOL    HW2 3756   1.079   1.254   1.679
  132SOL     OW 3757   0.230   1.434   0.538
  132SOL    HW1 3758   0.204   1.530   0.538
  132SOL    HW2 3759   0.159   1.380   0.583
  133SOL     OW 3760   0.240   1.091   0.886
  133SOL    HW1 3761   0.254   1.007   0.938
  133SOL    HW2 3762   0.185   1.155   0.941
  134SOL     OW 3763   0.620   1.786   1.439
  134SOL    HW1 3764   0.528   1.769   1.474
  134SOL    HW2 3765   0.648   1.878   1.465
  135SOL     OW 3766   1.594   0.114   1.480
  135SOL    HW1 3767   1.576   0.181   1.408
  135SOL    HW2 3768   1.591   0.160   1.569
  136SOL     OW 3769   0.122   0.643   0.563
  136SOL    HW1 3770   0.077   0.555   0.580
  136SOL    HW2 3771   0.121   0.697   0.647
  137SOL     OW 3772   1.842   1.767   0.359
  137SOL    HW1 3773   1.896   1.738   0.439
  137SOL    HW2 3774   1.872   1.857   0.330
  138SOL     OW 3775   0.027   1.596   0.117
  138SOL    HW1 3776   0.008   1.500   0.138
  138SOL    HW2 3777  -0.006   1.654   0.192
  139SOL     OW 3778   1.689   0.922   0.612
  139SOL    HW1 3779   1.784   0.893   0.620
  139SOL    HW2 3780   1.681   0.987   0.537
  140SOL     OW 3781   1.641   1.108   0.432
  140SOL    HW1 3782   1.727   1.110   0.380
  140SOL    HW2 3783   1.655   1.155   0.520
  141SOL     OW 3784   1.525   0.999   0.190
  141SOL    HW1 3785   1.462   0.923   0.203
  141SOL    HW2 3786   1.573   1.017   0.276
  142SOL     OW 3787   0.317   0.251   1.801
  142SOL    HW1 3788   0.388   0.322   1.807
  142SOL    HW2 3789   0.229   0.290   1.829
  143SOL     OW 3790   1.667   1.714   0.572
  143SOL    HW1 3791   1.626   1.691   0.484
  143SOL    HW2 3792   1.649   1.640   0.637
  144SOL     OW 3793   0.598   0.729   0.270
  144SOL    HW1 3794   0.622   0.798   0.202
  144SOL    HW2 3795   0.520   0.762   0.324
  145SOL     OW 3796   1.281   0.345   0.944
  145SOL    HW1 3797   1.195   0.295   0.931
  145SOL    HW2 3798   1.343   0.291   1.000
  146SOL     OW 3799   1.576   1.662   0.307
  146SOL    HW1 3800   1.665   1.708   0.310
  146SOL    HW2 3801   1.555   1.638   0.212
  147SOL     OW 3802   0.807   0.605   1.465
  147SOL    HW1 3803   0.760   0.602   1.554
  147SOL    HW2 3804   0.756   0.550   1.399
  148SOL     OW 3805   0.973   0.890   1.572
  148SOL    HW1 3806   1.019   0.806   1.543
  148SOL    HW2 3807   0.917   0.924   1.497
  149SOL     OW 3808   0.991   0.410   1.242
  149SOL    HW1 3809   0.914   0.444   1.296
  149SOL    HW2 3810   0.957   0.359   1.163
  150SOL     OW 3811   1.041   0.701   0.429
  150SOL    HW1 3812   1.067   0.697   0.525
  150SOL    HW2 3813   0.956   0.650   0.415
  151SOL     OW 3814   0.130   1.821   1.571
  151SOL    HW1 3815   0.120   1.806   1.670
  151SOL    HW2 3816   0.044   1.857   1.535
  152SOL     OW 3817   0.865   0.348   0.195
  152SOL    HW1 3818   0.924   0.411   0.146
  152SOL    HW2 3819   0.884   0.254   0.166
  153SOL     OW 3820   1.362   1.144   0.545
  153SOL    HW1 3821   1.445   1.115   0.497
  153SOL    HW2 3822   1.313   1.211   0.489
  154SOL     OW 3823   0.351   1.801   0.853
  154SOL    HW1 3824   0.401   1.715   0.859
  154SOL    HW2 3825   0.416   1.878   0.850
  155SOL     OW 3826   0.321   0.943   0.242
  155SOL    HW1 3827   0.403   0.982   0.200
  155SOL    HW2 3828   0.294   0.861   0.193
  156SOL     OW 3829   1.458   0.735   0.728
  156SOL    HW1 3830   1.453   0.670   0.803
  156SOL    HW2 3831   1.538   0.794   0.741
  157SOL     OW 3832   1.632   1.377   0.081
  157SOL    HW1 3833   1.600   1.471   0.071
  157SOL    HW2 3834   1.556   1.314   0.069
  158SOL     OW 3835   1.400   0.107   0.426
  158SOL    HW1 3836   1.376   0.070   0.336
  158SOL    HW2 3837   1.499   0.123   0.430
  159SOL     OW 3838   0.249   1.785   1.241
  159SOL    HW1 3839   0.306   1.720   1.291
  159SOL    HW2 3840   0.233   1.752   1.148
  160SOL     OW 3841   0.940   1.698   0.904
  160SOL    HW1 3842   1.020   1.641   0.925
  160SOL    HW2 3843   0.891   1.658   0.827
  161SOL     OW 3844   0.382   0.700   0.480
  161SOL    HW1 3845   0.427   0.610   0.477
  161SOL    HW2 3846   0.288   0.689   0.513
  162SOL     OW 3847   1.547   0.222   1.729
  162SOL    HW1 3848   1.542   0.259   1.821
  162SOL    HW2 3849   1.475   0.153   1.717
  163SOL     OW 3850   0.614   0.122   0.117
  163SOL    HW1 3851   0.712   0.100   0.124
  163SOL    HW2 3852   0.583   0.105   0.024
  164SOL     OW 3853   0.781   0.264   1.749
  164SOL    HW1 3854   0.848   0.203   1.792
  164SOL    HW2 3855   0.708   0.283   1.814
  165SOL     OW 3856   0.888   1.514   1.195
  165SOL    HW1 3857   0.865   1.489   1.101
  165SOL    HW2 3858   0.949   1.445   1.234
  166SOL     OW 3859   1.351   0.590   1.433
  166SOL    HW1 3860   1.379   0.547   1.518
  166SOL    HW2 3861   1.376   0.686   1.434
  167SOL     OW 3862   1.434   1.188   0.041
  167SOL    HW1 3863   1.466   1.112   0.098
  167SOL    HW2 3864   1.342   1.215   0.071
  168SOL     OW 3865   0.297   0.035   0.171
  168SOL    HW1 3866   0.346   0.119   0.150
  168SOL    HW2 3867   0.359  -0.030   0.216
  169SOL     OW 3868   0.935   0.236   0.480
  169SOL    HW1 3869   0.887   0.277   0.402
  169SOL    HW2 3870   1.034   0.234   0.461
  170SOL     OW 3871   1.076   0.683   1.464
  170SOL    HW1 3872   0.996   0.622   1.467
  170SOL    HW2 3873   1.157   0.630   1.440
  171SOL     OW 3874   0.459   1.152   0.741
  171SOL    HW1 3875   0.388   1.125   0.806
  171SOL    HW2 3876   0.433   1.124   0.648
  172SOL     OW 3877   1.271   1.797   0.591
  172SOL    HW1 3878   1.315   1.861   0.527
  172SOL    HW2 3879   1.221   1.849   0.661
  173SOL     OW 3880   1.032   0.549   0.016
  173SOL    HW1 3881   0.991   0.631  -0.023
  173SOL    HW2 3882   1.096   0.575   0.089
  174SOL     OW 3883   0.561   0.222   1.147
  174SOL    HW1 3884   0.599   0.138   1.184
  174SOL    HW2 3885   0.473   0.241   1.191
  175SOL     OW 3886   0.866   0.454   0.642
  175SOL    HW1 3887   0.834   0.526   0.580
  175SOL    HW2 3888   0.890   0.373   0.589
  176SOL     OW 3889   1.466   0.590   0.992
  176SOL    HW1 3890   1.436   0.495   0.999
  176SOL    HW2 3891   1.539   0.606   1.058
  177SOL     OW 3892   0.488   1.385   0.174
  177SOL    HW1 3893   0.401   1.370   0.221
  177SOL    HW2 3894   0.471   1.411   0.079
  178SOL     OW 3895   1.664   1.280   0.657
  178SOL    HW1 3896   1.763   1.288   0.671
  178SOL    HW2 3897   1.619   1.364   0.688
  179SOL     OW 3898   1.390   0.575   0.078
  179SOL    HW1 3899   1.336   0.554   0.159
  179SOL    HW2 3900   1.481   0.534   0.087
  180SOL     OW 3901   1.064   1.347   1.340
  180SOL    HW1 3902   0.984   1.324   1.395
  180SOL    HW2 3903   1.147   1.321   1.389
  181SOL     OW 3904   1.592   1.629   1.625
  181SOL    HW1 3905   1.619   1.663   1.535
  181SOL    HW2 3906   1.671   1.591   1.671
  182SOL     OW 3907   0.915   0.089   1.402
  182SOL    HW1 3908   0.940   0.069   1.307
  182SOL    HW2 3909   0.987   0.145   1.444
  183SOL     OW 3910   0.980   1.116   1.719
  183SOL    HW1 3911   0.881   1.122   1.729
  183SOL    HW2 3912   1.003   1.036   1.663
  184SOL     OW 3913   0.705   1.050   0.368
  184SOL    HW1 3914   0.691   1.057   0.467
  184SOL    HW2 3915   0.789   0.999   0.350
  185SOL     OW 3916   0.410   0.813   1.251
  185SOL    HW1 3917   0.496   0.825   1.301
  185SOL    HW2 3918   0.368   0.726   1.278
  186SOL     OW 3919   1.274   0.386   1.262
  186SOL    HW1 3920   1.295   0.460   1.326
  186SOL    HW2 3921   1.185   0.403   1.219
  187SOL     OW 3922   0.367   1.100   0.501
  187SOL    HW1 3923   0.360   1.183   0.445
  187SOL    HW2 3924   0.371   1.020   0.441
  188SOL     OW 3925   1.582   0.639   0.472
  188SOL    HW1 3926   1.551   0.700   0.545
  188SOL    HW2 3927   1.632   0.691   0.403
  189SOL     OW 3928   0.354   1.510   1.329
  189SOL    HW1 3929   0.333   1.466   1.242
  189SOL    HW2 3930   0.451   1.536   1.332
  190SOL     OW 3931   0.402   0.751   1.598
  190SOL    HW1 3932   0.470   0.806   1.551
  190SOL    HW2 3933   0.442   0.663   1.625
  191SOL     OW 3934   1.587   0.779   1.670
  191SOL    HW1 3935   1.495   0.817   1.665
  191SOL    HW2 3936   1.647   0.826   1.605
  192SOL     OW 3937   1.013   0.105   1.770
  192SOL    HW1 3938   1.019   0.190   1.718
  192SOL    HW2 3939   1.045   0.029   1.713
  193SOL     OW 3940   0.504   0.050   1.740
  193SOL    HW1 3941   0.462  -0.007   1.670
  193SOL    HW2 3942   0.438   0.119   1.772
  194SOL     OW 3943   0.573   0.870   1.029
  194SOL    HW1 3944   0.617   0.959   1.020
  194SOL    HW2 3945   0.510   0.870   1.106
  195SOL     OW 3946   1.209   0.525   0.275
  195SOL    HW1 3947   1.222   0.441   0.329
  195SOL    HW2 3948   1.180   0.599   0.335
  196SOL     OW 3949   0.307   0.213   1.231
  196SOL    HW1 3950   0.284   0.250   1.321
  196SOL    HW2 3951   0.277   0.118   1.225
  197SOL     OW 3952   0.732   0.634   1.064
  197SOL    HW1 3953   0.791   0.608   0.988
  197SOL    HW2 3954   0.704   0.730   1.053
  198SOL     OW 3955   1.728   0.935   1.854
  198SOL    HW1 3956   1.682   0.928   1.765
  198SOL    HW2 3957   1.666   0.979   1.920
  199SOL     OW 3958   1.622   0.367   0.374
  199SOL    HW1 3959   1.624   0.291   0.438
  199SOL    HW2 3960   1.574   0.444   0.414
  200SOL     OW 3961   0.980   1.573   1.700
  200SOL    HW1 3962   0.960   1.617   1.612
  200SOL    HW2 3963   1.019   1.482   1.684
  201SOL     OW 3964   0.350   0.898   1.804
  201SOL    HW1 3965   0.426   0.942   1.852
  201SOL    HW2 3966   0.385   0.851   1.722
  202SOL     OW 3967   1.540   0.274   0.125
  202SOL    HW1 3968   1.479   0.199   0.148
  202SOL    HW2 3969   1.562   0.326   0.208
  203SOL     OW 3970   1.303   0.838   0.042
  203SOL    HW1 3971   1.337   0.745   0.057
  203SOL    HW2 3972   1.321   0.865  -0.053
  204SOL     OW 3973   0.319   0.810   0.949
  204SOL    HW1 3974   0.412   0.846   0.954
  204SOL    HW2 3975   0.313   0.725   1.001
  205SOL     OW 3976   1.138   0.380   1.678
  205SOL    HW1 3977   1.093   0.443   1.742
  205SOL    HW2 3978   1.231   0.411   1.661
  206SOL     OW 3979   1.160   0.207   1.477
  206SOL    HW1 3980   1.160   0.271   1.554
  206SOL    HW2 3981   1.188   0.255   1.394
  207SOL     OW 3982   0.008   1.326   0.200
  207SOL    HW1 3983  -0.085   1.347   0.169
  207SOL    HW2 3984   0.018   1.227   0.213
  208SOL     OW 3985   0.504   1.568   0.910
  208SOL    HW1 3986   0.570   1.642   0.919
  208SOL    HW2 3987   0.548   1.489   0.868
  209SOL     OW 3988   1.002   0.796   1.238
  209SOL    HW1 3989   1.043   0.764   1.324
  209SOL    HW2 3990   0.906   0.769   1.235
  210SOL     OW 3991   0.189   0.520   1.722
  210SOL    HW1 3992   0.248   0.480   1.652
  210SOL    HW2 3993   0.131   0.591   1.681
  211SOL     OW 3994   1.369   0.950   1.660
  211SOL    HW1 3995   1.408   1.039   1.680
  211SOL    HW2 3996   1.379   0.930   1.563
  212SOL     OW 3997   0.815   0.572   0.325
  212SOL    HW1 3998   0.822   0.483   0.279
  212SOL    HW2 3999   0.721   0.606   0.317
  213SOL     OW 4000   1.657   0.604   1.206
  213SOL    HW1 4001   1.619   0.535   1.268
  213SOL    HW2 4002   1.739   0.568   1.162
  214SOL     OW 4003   0.671   0.464   1.269
  214SOL    HW1 4004   0.637   0.375   1.239
  214SOL    HW2 4005   0.697   0.518   1.189
  215SOL     OW 4006   0.930   1.678   1.465
  215SOL    HW1 4007   0.906   1.660   1.370
  215SOL    HW2 4008   0.960   1.772   1.475
  216SOL     OW 4009   0.473   0.500   0.191
  216SOL    HW1 4010   0.534   0.580   0.195
  216SOL    HW2 4011   0.378   0.531   0.198
  217SOL     OW 4012   1.302   0.855   0.309
  217SOL    HW1 4013   1.216   0.824   0.351
  217SOL    HW2 4014   1.298   0.841   0.210
  218SOL     OW 4015   0.688   1.662   1.716
  218SOL    HW1 4016   0.632   1.743   1.725
  218SOL    HW2 4017   0.740   1.666   1.630
  219SOL     OW 4018   0.903   0.086   0.133
  219SOL    HW1 4019   0.954   0.087   0.047
  219SOL    HW2 4020   0.959   0.044   0.204
  220SOL     OW 4021   1.726   0.135   0.523
  220SOL    HW1 4022   1.799   0.118   0.456
  220SOL    HW2 4023   1.695   0.048   0.561
  221SOL     OW 4024   1.388   1.573   0.477
  221SOL    HW1 4025   1.455   1.585   0.403
  221SOL    HW2 4026   1.348   1.662   0.500
  222SOL     OW 4027   1.280   0.927   0.672
  222SOL    HW1 4028   1.340   0.846   0.674
  222SOL    HW2 4029   1.320   0.996   0.612
  223SOL     OW 4030   0.830   1.273   1.422
  223SOL    HW1 4031   0.825   1.306   1.517
  223SOL    HW2 4032   0.744   1.292   1.376
  224SOL     OW 4033   0.672   1.616   0.154
  224SOL    HW1 4034   0.681   1.626   0.055
  224SOL    HW2 4035   0.632   1.527   0.175
  225SOL     OW 4036   1.650   1.720   1.394
  225SOL    HW1 4037   1.703   1.730   1.310
  225SOL    HW2 4038   1.623   1.810   1.428
  226SOL     OW 4039   1.194   1.612   0.031
  226SOL    HW1 4040   1.200   1.519   0.068
  226SOL    HW2 4041   1.135   1.612  -0.049
  227SOL     OW 4042   0.822   1.002   1.372
  227SOL    HW1 4043   0.862   1.001   1.280
  227SOL    HW2 4044   0.832   1.094   1.412
  228SOL     OW 4045   0.916   0.910   0.291
  228SOL    HW1 4046   0.979   0.948   0.223
  228SOL    HW2 4047   0.956   0.827   0.330
  229SOL     OW 4048   1.504   1.607   0.044
  229SOL    HW1 4049   1.412   1.644   0.051
  229SOL    HW2 4050   1.542   1.627  -0.046
  230SOL     OW 4051   0.372   1.288   1.490
  230SOL    HW1 4052   0.359   1.381   1.456
  230SOL    HW2 4053   0.288   1.236   1.477
  231SOL     OW 4054   1.709   0.385   1.381
  231SOL    HW1 4055   1.782   0.454   1.385
  231SOL    HW2 4056   1.737   0.310   1.322
  232SOL     OW 4057   0.255   1.348   0.290
  232SOL    HW1 4058   0.159   1.349   0.263
  232SOL    HW2 4059   0.267   1.401   0.374
  233SOL     OW 4060   0.105   1.013   1.726
  233SOL    HW1 4061   0.028   0.980   1.780
  233SOL    HW2 4062   0.190   0.983   1.768
  234SOL     OW 4063   0.672   0.203   1.489
  234SOL    HW1 4064   0.762   0.187   1.449
  234SOL    HW2 4065   0.680   0.208   1.588
  235SOL     OW 4066   0.075   0.345   0.033
  235SOL    HW1 4067  -0.017   0.317   0.004
  235SOL    HW2 4068   0.106   0.422  -0.023
  236SOL     OW 4069   1.440   0.856   1.398
  236SOL    HW1 4070   1.383   0.908   1.335
  236SOL    HW2 4071   1.536   0.868   1.374
  237SOL     OW 4072   0.072   0.166   0.318
  237SOL    HW1 4073   0.055   0.249   0.264
  237SOL    HW2 4074   0.162   0.129   0.296
  238SOL     OW 4075   0.613   0.842   1.431
  238SOL    HW1 4076   0.669   0.923   1.414
  238SOL    HW2 4077   0.672   0.762   1.434
  239SOL     OW 4078   0.716   0.565   1.708
  239SOL    HW1 4079   0.735   0.630   1.782
  239SOL    HW2 4080   0.776   0.485   1.717
  240SOL     OW 4081   1.450   1.220   1.633
  240SOL    HW1 4082   1.441   1.210   1.732
  240SOL    HW2 4083   1.546   1.213   1.607
  241SOL     OW 4084   0.390   1.741   1.560
  241SOL    HW1 4085   0.299   1.782   1.558
  241SOL    HW2 4086   0.383   1.647   1.592
  242SOL     OW 4087   1.674   0.883   1.254
  242SOL    HW1 4088   1.647   0.794   1.217
  242SOL    HW2 4089   1.675   0.951   1.181
  243SOL     OW 4090   1.225   0.325   0.449
  243SOL    HW1 4091   1.290   0.251   0.438
  243SOL    HW2 4092   1.245   0.375   0.533
  244SOL     OW 4093   0.594   0.745   0.652
  244SOL    HW1 4094   0.644   0.830   0.633
  244SOL    HW2 4095   0.506   0.747   0.604
  245SOL     OW 4096   1.777   0.342   1.642
  245SOL    HW1 4097   1.760   0.373   1.548
  245SOL    HW2 4098   1.693   0.305   1.680
  246SOL     OW 4099   0.661   1.790   0.953
  246SOL    HW1 4100   0.615   1.878   0.940
  246SOL    HW2 4101   0.760   1.802   0.946
  247SOL     OW 4102   0.221   1.314   1.844
  247SOL    HW1 4103   0.156   1.241   1.823
  247SOL    HW2 4104   0.225   1.328   1.942
  248SOL     OW 4105   0.079   1.240   0.653
  248SOL    HW1 4106   0.078   1.193   0.741
  248SOL    HW2 4107   0.161   1.212   0.602
  249SOL     OW 4108   0.672   1.391   1.624
  249SOL    HW1 4109   0.594   1.341   1.662
  249SOL    HW2 4110   0.669   1.486   1.655
  250SOL     OW 4111   1.824   0.192   1.227
  250SOL    HW1 4112   1.820   0.102   1.271
  250SOL    HW2 4113   1.827   0.181   1.128
  251SOL     OW 4114   1.424   0.214   1.112
  251SOL    HW1 4115   1.476   0.149   1.167
  251SOL    HW2 4116   1.375   0.277   1.173
  252SOL     OW 4117   1.001   0.034   1.154
  252SOL    HW1 4118   0.938  -0.038   1.123
  252SOL    HW2 4119   1.094  -0.002   1.154
  253SOL     OW 4120   0.618   1.567   1.284
  253SOL    HW1 4121   0.613   1.649   1.341
  253SOL    HW2 4122   0.707   1.564   1.239
  254SOL     OW 4123   1.352   0.052   0.168
  254SOL    HW1 4124   1.387   0.011   0.084
  254SOL    HW2 4125   1.262   0.014   0.188
  255SOL     OW 4126   1.300   0.453   0.691
  255SOL    HW1 4127   1.241   0.533   0.695
  255SOL    HW2 4128   1.315   0.418   0.784
  256SOL     OW 4129   1.593   0.221   0.882
  256SOL    HW1 4130   1.509   0.220   0.936
  256SOL    HW2 4131   1.595   0.304   0.826
  257SOL     OW 4132   0.039   1.077   0.300
  257SOL    HW1 4133   0.138   1.066   0.291
  257SOL    HW2 4134  -0.001   0.991   0.332
  258SOL     OW 4135   0.225   0.275   2.858
  258SOL    HW1 4136   0.260   0.258   2.950
  258SOL    HW2 4137   0.137   0.230   2.846
  259SOL     OW 4138   0.569   1.275   3.027
  259SOL    HW1 4139   0.476   1.268   2.990
  259SOL    HW2 4140   0.580   1.364   3.071
  260SOL     OW 4141   1.555   1.511   2.565
  260SOL    HW1 4142   1.498   1.495   2.646
  260SOL    HW2 4143   1.496   1.521   2.485
  261SOL     OW 4144   1.135   0.703   2.579
  261SOL    HW1 4145   1.192   0.781   2.554
  261SOL    HW2 4146   1.075   0.729   2.655
  262SOL     OW 4147   0.768   1.144   2.885
  262SOL    HW1 4148   0.690   1.161   2.945
  262SOL    HW2 4149   0.802   1.231   2.849
  263SOL     OW 4150   0.850   0.798   3.685
  263SOL    HW1 4151   0.846   0.874   3.750
  263SOL    HW2 4152   0.872   0.834   3.594
  264SOL     OW 4153   0.335   1.435   2.923
  264SOL    HW1 4154   0.257   1.404   2.870
  264SOL    HW2 4155   0.393   1.493   2.866
  265SOL     OW 4156   1.460   1.505   3.201
  265SOL    HW1 4157   1.484   1.599   3.227
  265SOL    HW2 4158   1.444   1.451   3.283
  266SOL     OW 4159   1.603   0.447   2.599
  266SOL    HW1 4160   1.529   0.493   2.549
  266SOL    HW2 4161   1.654   0.515   2.652
  267SOL     OW 4162   0.230   1.434   2.400
  267SOL    HW1 4163   0.204   1.530   2.400
  267SOL    HW2 4164   0.159   1.380   2.445
  268SOL     OW 4165   0.240   1.091   2.748
  268SOL    HW1 4166   0.254   1.007   2.800
  268SOL    HW2 4167   0.185   1.155   2.803
  269SOL     OW 4168   0.620   1.786   3.301
  269SOL    HW1 4169   0.528   1.769   3.336
  269SOL    HW2 4170   0.648   1.878   3.327
  270SOL     OW 4171   0.606   0.964   1.985
  270SOL    HW1 4172   0.613   1.048   1.931
  270SOL    HW2 4173   0.652   0.977   2.073
  271SOL     OW 4174   1.842   1.767   2.221
  271SOL    HW1 4175   1.896   1.738   2.301
  271SOL    HW2 4176   1.872   1.857   2.192
  272SOL     OW 4177   0.027   1.596   1.979
  272SOL    HW1 4178   0.008   1.500   2.000
  272SOL    HW2 4179  -0.006   1.654   2.054
  273SOL     OW 4180   1.689   0.922   2.474
  273SOL    HW1 4181   1.784   0.893   2.482
  273SOL    HW2 4182   1.681   0.987   2.399
  274SOL     OW 4183   1.641   1.108   2.294
  274SOL    HW1 4184   1.727   1.110   2.242
  274SOL    HW2 4185   1.655   1.155   2.382
  275SOL     OW 4186   0.113   0.737   3.459
  275SOL    HW1 4187   0.201   0.724   3.504
  275SOL    HW2 4188   0.100   0.834   3.437
  276SOL     OW 4189   0.809   0.004   2.364
  276SOL    HW1 4190   0.849   0.095   2.355
  276SOL    HW2 4191   0.709   0.012   2.370
  277SOL     OW 4192   0.197   0.976   3.126
  277SOL    HW1 4193   0.286   0.931   3.112
  277SOL    HW2 4194   0.124   0.911   3.107
  278SOL     OW 4195   1.525   0.999   2.052
  278SOL    HW1 4196   1.462   0.923   2.065
  278SOL    HW2 4197   1.573   1.017   2.138
  279SOL     OW 4198   1.187   1.792   3.478
  279SOL    HW1 4199   1.211   1.852   3.402
  279SOL    HW2 4200   1.194   1.697   3.448
  280SOL     OW 4201   0.317   0.251   3.663
  280SOL    HW1 4202   0.388   0.322   3.669
  280SOL    HW2 4203   0.229   0.290   3.691
  281SOL     OW 4204   1.466   1.417   2.815
  281SOL    HW1 4205   1.407   1.423   2.895
  281SOL    HW2 4206   1.451   1.329   2.769
  282SOL     OW 4207   1.667   1.714   2.434
  282SOL    HW1 4208   1.626   1.691   2.346
  282SOL    HW2 4209   1.649   1.640   2.499
  283SOL     OW 4210   0.598   0.729   2.132
  283SOL    HW1 4211   0.622   0.798   2.064
  283SOL    HW2 4212   0.520   0.762   2.186
  284SOL     OW 4213   1.281   0.345   2.806
  284SOL    HW1 4214   1.195   0.295   2.793
  284SOL    HW2 4215   1.343   0.291   2.862
  285SOL     OW 4216   1.576   1.662   2.169
  285SOL    HW1 4217   1.665   1.708   2.172
  285SOL    HW2 4218   1.555   1.638   2.074
  286SOL     OW 4219   0.807   0.605   3.327
  286SOL    HW1 4220   0.760   0.602   3.416
  286SOL    HW2 4221   0.756   0.550   3.261
  287SOL     OW 4222   0.973   0.890   3.434
  287SOL    HW1 4223   1.019   0.806   3.405
  287SOL    HW2 4224   0.917   0.924   3.359
  288SOL     OW 4225   0.991   0.410   3.104
  288SOL    HW1 4226   0.914   0.444   3.158
  288SOL    HW2 4227   0.957   0.359   3.025
  289SOL     OW 4228   1.041   0.701   2.291
  289SOL    HW1 4229   1.067   0.697   2.387
  289SOL    HW2 4230   0.956   0.650   2.277
  290SOL     OW 4231   0.076   0.811   2.651
  290SOL    HW1 4232   0.175   0.799   2.660
  290SOL    HW2 4233   0.052   0.906   2.672
  291SOL     OW 4234   0.130   1.821   3.433
  291SOL    HW1 4235   0.120   1.806   3.532
  291SOL    HW2 4236   0.044   1.857   3.397
  292SOL     OW 4237   0.865   0.348   2.057
  292SOL    HW1 4238   0.924   0.411   2.008
  292SOL    HW2 4239   0.884   0.254   2.028
  293SOL     OW 4240   1.362   1.144   2.407
  293SOL    HW1 4241   1.445   1.115   2.359
  293SOL    HW2 4242   1.313   1.211   2.351
  294SOL     OW 4243   0.550   0.196   2.747
  294SOL    HW1 4244   0.545   0.191   2.847
  294SOL    HW2 4245   0.552   0.292   2.718
  295SOL     OW 4246   1.008   1.456   2.339
  295SOL    HW1 4247   0.962   1.528   2.287
  295SOL    HW2 4248   1.004   1.476   2.437
  296SOL     OW 4249   1.795   1.066   2.735
  296SOL    HW1 4250   1.733   1.051   2.659
  296SOL    HW2 4251   1.743   1.077   2.820
  297SOL     OW 4252   1.227   1.550   3.368
  297SOL    HW1 4253   1.233   1.473   3.432
  297SOL    HW2 4254   1.175   1.524   3.288
  298SOL     OW 4255   0.321   0.943   2.104
  298SOL    HW1 4256   0.403   0.982   2.062
  298SOL    HW2 4257   0.294   0.861   2.055
  299SOL     OW 4258   1.458   0.735   2.590
  299SOL    HW1 4259   1.453   0.670   2.665
  299SOL    HW2 4260   1.538   0.794   2.603
  300SOL     OW 4261   1.111   1.776   2.099
  300SOL    HW1 4262   1.051   1.714   2.149
  300SOL    HW2 4263   1.142   1.732   2.014
  301SOL     OW 4264   0.202   0.285   3.360
  301SOL    HW1 4265   0.122   0.345   3.347
  301SOL    HW2 4266   0.192   0.236   3.446
  302SOL     OW 4267   1.632   1.377   1.943
  302SOL    HW1 4268   1.600   1.471   1.933
  302SOL    HW2 4269   1.556   1.314   1.931
  303SOL     OW 4270   0.249   1.785   3.103
  303SOL    HW1 4271   0.306   1.720   3.153
  303SOL    HW2 4272   0.233   1.752   3.010
  304SOL     OW 4273   0.940   1.698   2.766
  304SOL    HW1 4274   1.020   1.641   2.787
  304SOL    HW2 4275   0.891   1.658   2.689
  305SOL     OW 4276   0.382   0.700   2.342
  305SOL    HW1 4277   0.427   0.610   2.339
  305SOL    HW2 4278   0.288   0.689   2.375
  306SOL     OW 4279   0.614   0.122   1.979
  306SOL    HW1 4280   0.712   0.100   1.986
  306SOL    HW2 4281   0.583   0.105   1.886
  307SOL     OW 4282   0.781   0.264   3.611
  307SOL    HW1 4283   0.848   0.203   3.654
  307SOL    HW2 4284   0.708   0.283   3.676
  308SOL     OW 4285   0.888   1.514   3.057
  308SOL    HW1 4286   0.865   1.489   2.963
  308SOL    HW2 4287   0.949   1.445   3.096
  309SOL     OW 4288   0.803   1.402   2.786
  309SOL    HW1 4289   0.893   1.416   2.744
  309SOL    HW2 4290   0.732   1.404   2.715
  310SOL     OW 4291   0.922   0.503   2.761
  310SOL    HW1 4292   0.897   0.494   2.665
  310SOL    HW2 4293   0.970   0.421   2.792
  311SOL     OW 4294   0.539   0.064   2.374
  311SOL    HW1 4295   0.458   0.065   2.432
  311SOL    HW2 4296   0.542   0.147   2.319
  312SOL     OW 4297   1.434   1.188   1.903
  312SOL    HW1 4298   1.466   1.112   1.960
  312SOL    HW2 4299   1.342   1.215   1.933
  313SOL     OW 4300   0.297   0.035   2.033
  313SOL    HW1 4301   0.346   0.119   2.012
  313SOL    HW2 4302   0.359  -0.030   2.078
  314SOL     OW 4303   1.076   0.683   3.326
  314SOL    HW1 4304   0.996   0.622   3.329
  314SOL    HW2 4305   1.157   0.630   3.302
  315SOL     OW 4306   1.227   1.570   2.655
  315SOL    HW1 4307   1.248   1.644   2.590
  315SOL    HW2 4308   1.295   1.570   2.728
  316SOL     OW 4309   0.459   1.152   2.603
  316SOL    HW1 4310   0.388   1.125   2.668
  316SOL    HW2 4311   0.433   1.124   2.510
  317SOL     OW 4312   1.271   1.797   2.453
  317SOL    HW1 4313   1.315   1.861   2.389
  317SOL    HW2 4314   1.221   1.849   2.523
  318SOL     OW 4315   1.032   0.549   1.878
  318SOL    HW1 4316   0.991   0.631   1.839
  318SOL    HW2 4317   1.096   0.575   1.951
  319SOL     OW 4318   0.078   0.556   3.248
  319SOL    HW1 4319   0.170   0.555   3.207
  319SOL    HW2 4320   0.072   0.630   3.315
  320SOL     OW 4321   0.561   0.222   3.009
  320SOL    HW1 4322   0.599   0.138   3.046
  320SOL    HW2 4323   0.473   0.241   3.053
  321SOL     OW 4324   1.017   0.039   2.615
  321SOL    HW1 4325   0.945   0.044   2.546
  321SOL    HW2 4326   0.993  -0.030   2.684
  322SOL     OW 4327   1.429   1.173   2.729
  322SOL    HW1 4328   1.374   1.089   2.722
  322SOL    HW2 4329   1.455   1.202   2.637
  323SOL     OW 4330   1.664   1.280   2.519
  323SOL    HW1 4331   1.763   1.288   2.533
  323SOL    HW2 4332   1.619   1.364   2.550
  324SOL     OW 4333   0.527   0.256   2.190
  324SOL    HW1 4334   0.554   0.197   2.115
  324SOL    HW2 4335   0.527   0.351   2.159
  325SOL     OW 4336   1.754   1.223   3.450
  325SOL    HW1 4337   1.845   1.184   3.437
  325SOL    HW2 4338   1.762   1.319   3.474
  326SOL     OW 4339   1.638   1.099   2.941
  326SOL    HW1 4340   1.643   1.180   3.000
  326SOL    HW2 4341   1.552   1.101   2.890
  327SOL     OW 4342   0.915   0.089   3.264
  327SOL    HW1 4343   0.940   0.069   3.169
  327SOL    HW2 4344   0.987   0.145   3.306
  328SOL     OW 4345   0.410   0.813   3.113
  328SOL    HW1 4346   0.496   0.825   3.163
  328SOL    HW2 4347   0.368   0.726   3.140
  329SOL     OW 4348   0.064   1.564   3.193
  329SOL    HW1 4349   0.018   1.646   3.159
  329SOL    HW2 4350   0.162   1.583   3.202
  330SOL     OW 4351   0.367   1.100   2.363
  330SOL    HW1 4352   0.360   1.183   2.307
  330SOL    HW2 4353   0.371   1.020   2.303
  331SOL     OW 4354   0.566   0.537   2.727
  331SOL    HW1 4355   0.578   0.603   2.653
  331SOL    HW2 4356   0.612   0.571   2.810
  332SOL     OW 4357   1.252   1.348   2.250
  332SOL    HW1 4358   1.302   1.425   2.290
  332SOL    HW2 4359   1.157   1.350   2.282
  333SOL     OW 4360   1.272   1.445   3.004
  333SOL    HW1 4361   1.319   1.458   3.091
  333SOL    HW2 4362   1.206   1.371   3.013
  334SOL     OW 4363   1.582   0.639   2.334
  334SOL    HW1 4364   1.551   0.700   2.407
  334SOL    HW2 4365   1.632   0.691   2.265
  335SOL     OW 4366   0.354   1.510   3.191
  335SOL    HW1 4367   0.333   1.466   3.104
  335SOL    HW2 4368   0.451   1.536   3.194
  336SOL     OW 4369   0.402   0.751   3.460
  336SOL    HW1 4370   0.470   0.806   3.413
  336SOL    HW2 4371   0.442   0.663   3.487
  337SOL     OW 4372   1.013   0.105   3.632
  337SOL    HW1 4373   1.019   0.190   3.580
  337SOL    HW2 4374   1.045   0.029   3.575
  338SOL     OW 4375   0.573   0.870   2.891
  338SOL    HW1 4376   0.617   0.959   2.882
  338SOL    HW2 4377   0.510   0.870   2.968
  339SOL     OW 4378   1.360   0.862   2.907
  339SOL    HW1 4379   1.285   0.862   2.841
  339SOL    HW2 4380   1.397   0.770   2.916
  340SOL     OW 4381   0.037   1.310   3.144
  340SOL    HW1 4382   0.090   1.261   3.212
  340SOL    HW2 4383   0.059   1.408   3.149
  341SOL     OW 4384   0.732   0.634   2.926
  341SOL    HW1 4385   0.791   0.608   2.850
  341SOL    HW2 4386   0.704   0.730   2.915
  342SOL     OW 4387   1.728   0.935   3.716
  342SOL    HW1 4388   1.682   0.928   3.627
  342SOL    HW2 4389   1.666   0.979   3.782
  343SOL     OW 4390   0.307   0.063   2.480
  343SOL    HW1 4391   0.296   0.157   2.513
  343SOL    HW2 4392   0.302   0.000   2.557
  344SOL     OW 4393   1.023   0.766   2.828
  344SOL    HW1 4394   1.038   0.787   2.924
  344SOL    HW2 4395   0.993   0.671   2.819
  345SOL     OW 4396   1.303   0.838   1.904
  345SOL    HW1 4397   1.337   0.745   1.919
  345SOL    HW2 4398   1.321   0.865   1.809
  346SOL     OW 4399   1.068   1.333   2.711
  346SOL    HW1 4400   1.075   1.249   2.656
  346SOL    HW2 4401   1.130   1.402   2.675
  347SOL     OW 4402   0.319   0.810   2.811
  347SOL    HW1 4403   0.412   0.846   2.816
  347SOL    HW2 4404   0.313   0.725   2.863
  348SOL     OW 4405   0.339   0.509   2.868
  348SOL    HW1 4406   0.287   0.426   2.851
  348SOL    HW2 4407   0.416   0.514   2.804
  349SOL     OW 4408   1.002   0.796   3.100
  349SOL    HW1 4409   1.043   0.764   3.186
  349SOL    HW2 4410   0.906   0.769   3.097
  350SOL     OW 4411   0.040   0.544   2.976
  350SOL    HW1 4412   0.125   0.511   2.935
  350SOL    HW2 4413   0.053   0.559   3.074
  351SOL     OW 4414   0.189   0.520   3.584
  351SOL    HW1 4415   0.248   0.480   3.514
  351SOL    HW2 4416   0.131   0.591   3.543
  352SOL     OW 4417   1.369   0.950   3.522
  352SOL    HW1 4418   1.408   1.039   3.542
  352SOL    HW2 4419   1.379   0.930   3.425
  353SOL     OW 4420   0.252   1.564   3.606
  353SOL    HW1 4421   0.222   1.621   3.682
  353SOL    HW2 4422   0.245   1.467   3.632
  354SOL     OW 4423   0.671   0.464   3.131
  354SOL    HW1 4424   0.637   0.375   3.101
  354SOL    HW2 4425   0.697   0.518   3.051
  355SOL     OW 4426   0.930   1.678   3.327
  355SOL    HW1 4427   0.906   1.660   3.232
  355SOL    HW2 4428   0.960   1.772   3.337
  356SOL     OW 4429   0.473   0.500   2.053
  356SOL    HW1 4430   0.534   0.580   2.057
  356SOL    HW2 4431   0.378   0.531   2.060
  357SOL     OW 4432   0.159   1.137   3.328
  357SOL    HW1 4433   0.181   1.076   3.404
  357SOL    HW2 4434   0.169   1.088   3.242
  358SOL     OW 4435   1.302   0.855   2.171
  358SOL    HW1 4436   1.216   0.824   2.213
  358SOL    HW2 4437   1.298   0.841   2.072
  359SOL     OW 4438   1.759   1.747   3.016
  359SOL    HW1 4439   1.820   1.777   2.943
  359SOL    HW2 4440   1.721   1.658   2.994
  360SOL     OW 4441   1.252   1.731   2.990
  360SOL    HW1 4442   1.336   1.736   2.936
  360SOL    HW2 4443   1.229   1.635   3.008
  361SOL     OW 4444   0.083   1.258   2.884
  361SOL    HW1 4445   0.078   1.257   2.984
  361SOL    HW2 4446   0.000   1.217   2.846
  362SOL     OW 4447   0.688   1.662   3.578
  362SOL    HW1 4448   0.632   1.743   3.587
  362SOL    HW2 4449   0.740   1.666   3.492
  363SOL     OW 4450   1.726   0.135   2.385
  363SOL    HW1 4451   1.799   0.118   2.318
  363SOL    HW2 4452   1.695   0.048   2.423
  364SOL     OW 4453   1.388   1.573   2.339
  364SOL    HW1 4454   1.455   1.585   2.265
  364SOL    HW2 4455   1.348   1.662   2.362
  365SOL     OW 4456   0.130   1.794   3.713
  365SOL    HW1 4457   0.089   1.720   3.766
  365SOL    HW2 4458   0.194   1.845   3.771
  366SOL     OW 4459   1.280   0.927   2.534
  366SOL    HW1 4460   1.340   0.846   2.536
  366SOL    HW2 4461   1.320   0.996   2.474
  367SOL     OW 4462   1.650   1.720   3.256
  367SOL    HW1 4463   1.703   1.730   3.172
  367SOL    HW2 4464   1.623   1.810   3.290
  368SOL     OW 4465   1.841   0.175   2.825
  368SOL    HW1 4466   1.880   0.090   2.789
  368SOL    HW2 4467   1.743   0.177   2.806
  369SOL     OW 4468   1.194   1.612   1.893
  369SOL    HW1 4469   1.200   1.519   1.930
  369SOL    HW2 4470   1.135   1.612   1.813
  370SOL     OW 4471   0.916   0.910   2.153
  370SOL    HW1 4472   0.979   0.948   2.085
  370SOL    HW2 4473   0.956   0.827   2.192
  371SOL     OW 4474   1.504   1.607   1.906
  371SOL    HW1 4475   1.412   1.644   1.913
  371SOL    HW2 4476   1.542   1.627   1.816
  372SOL     OW 4477   1.614   1.292   3.151
  372SOL    HW1 4478   1.674   1.295   3.231
  372SOL    HW2 4479   1.539   1.356   3.164
  373SOL     OW 4480   1.039   1.098   2.558
  373SOL    HW1 4481   0.969   1.051   2.612
  373SOL    HW2 4482   1.098   1.030   2.515
  374SOL     OW 4483   1.014   0.236   2.833
  374SOL    HW1 4484   1.006   0.200   2.740
  374SOL    HW2 4485   1.012   0.160   2.898
  375SOL     OW 4486   1.709   0.385   3.243
  375SOL    HW1 4487   1.782   0.454   3.247
  375SOL    HW2 4488   1.737   0.310   3.184
  376SOL     OW 4489   0.255   1.348   2.152
  376SOL    HW1 4490   0.159   1.349   2.125
  376SOL    HW2 4491   0.267   1.401   2.236
  377SOL     OW 4492   0.105   1.013   3.588
  377SOL    HW1 4493   0.028   0.980   3.642
  377SOL    HW2 4494   0.190   0.983   3.630
  378SOL     OW 4495   1.440   0.856   3.260
  378SOL    HW1 4496   1.383   0.908   3.197
  378SOL    HW2 4497   1.536   0.868   3.236
  379SOL     OW 4498   1.183   1.335   1.981
  379SOL    HW1 4499   1.084   1.324   1.983
  379SOL    HW2 4500   1.217   1.350   2.074
  380SOL     OW 4501   1.493   1.767   2.821
  380SOL    HW1 4502   1.526   1.831   2.752
  380SOL    HW2 4503   1.559   1.761   2.896
  381SOL     OW 4504   0.716   0.565   3.570
  381SOL    HW1 4505   0.735   0.630   3.644
  381SOL    HW2 4506   0.776   0.485   3.579
  382SOL     OW 4507   1.450   1.220   3.495
  382SOL    HW1 4508   1.441   1.210   3.594
  382SOL    HW2 4509   1.546   1.213   3.469
  383SOL     OW 4510   0.390   1.741   3.422
  383SOL    HW1 4511   0.299   1.782   3.420
  383SOL    HW2 4512   0.383   1.647   3.454
  384SOL     OW 4513   1.674   0.883   3.116
  384SOL    HW1 4514   1.647   0.794   3.079
  384SOL    HW2 4515   1.675   0.951   3.043
  385SOL     OW 4516   0.594   0.745   2.514
  385SOL    HW1 4517   0.644   0.830   2.495
  385SOL    HW2 4518   0.506   0.747   2.466
  386SOL     OW 4519   1.730   0.934   3.379
  386SOL    HW1 4520   1.768   1.025   3.394
  386SOL    HW2 4521   1.722   0.917   3.280
  387SOL     OW 4522   0.859   1.374   1.878
  387SOL    HW1 4523   0.813   1.389   1.966
  387SOL    HW2 4524   0.903   1.459   1.848
  388SOL     OW 4525   0.859   0.956   2.723
  388SOL    HW1 4526   0.913   0.887   2.771
  388SOL    HW2 4527   0.827   1.025   2.789
  389SOL     OW 4528   1.083   0.984   1.949
  389SOL    HW1 4529   1.060   1.037   1.867
  389SOL    HW2 4530   1.164   0.928   1.930
  390SOL     OW 4531   1.861   1.569   2.713
  390SOL    HW1 4532   1.790   1.557   2.643
  390SOL    HW2 4533   1.862   1.490   2.773
  391SOL     OW 4534   0.221   1.314   3.706
  391SOL    HW1 4535   0.156   1.241   3.685
  391SOL    HW2 4536   0.225   1.328   3.804
  392SOL     OW 4537   0.079   1.240   2.515
  392SOL    HW1 4538   0.078   1.193   2.603
  392SOL    HW2 4539   0.161   1.212   2.464
  393SOL     OW 4540   1.824   0.192   3.089
  393SOL    HW1 4541   1.820   0.102   3.133
  393SOL    HW2 4542   1.827   0.181   2.990
  394SOL     OW 4543   1.705   1.487   2.966
  394SOL    HW1 4544   1.612   1.462   2.939
  394SOL    HW2 4545   1.731   1.437   3.048
  395SOL     OW 4546   0.317   0.547   3.142
  395SOL    HW1 4547   0.355   0.488   3.214
  395SOL    HW2 4548   0.357   0.521   3.054
  396SOL     OW 4549   0.812   1.586   2.549
  396SOL    HW1 4550   0.844   1.596   2.455
  396SOL    HW2 4551   0.733   1.524   2.551
  397SOL     OW 4552   1.001   0.034   3.016
  397SOL    HW1 4553   0.938  -0.038   2.985
  397SOL    HW2 4554   1.094  -0.002   3.016
  398SOL     OW 4555   0.618   1.567   3.146
  398SOL    HW1 4556   0.613   1.649   3.203
  398SOL    HW2 4557   0.707   1.564   3.101
  399SOL     OW 4558   1.300   0.453   2.553
  399SOL    HW1 4559   1.241   0.533   2.557
  399SOL    HW2 4560   1.315   0.418   2.646
  400SOL     OW 4561   1.593   0.221   2.744
  400SOL    HW1 4562   1.509   0.220   2.798
  400SOL    HW2 4563   1.595   0.304   2.688
  401SOL     OW 4564   0.230   0.628   3.837
  401SOL    HW1 4565   0.137   0.626   3.874
  401SOL    HW2 4566   0.231   0.589   3.745
  402SOL     OW 4567   0.019   0.368   4.371
  402SOL    HW1 4568  -0.063   0.411   4.410
  402SOL    HW2 4569  -0.009   0.295   4.308
  403SOL     OW 4570   0.569   1.275   4.889
  403SOL    HW1 4571   0.476   1.268   4.852
  403SOL    HW2 4572   0.580   1.364   4.933
  404SOL     OW 4573   1.555   1.511   4.427
  404SOL    HW1 4574   1.498   1.495   4.508
  404SOL    HW2 4575   1.496   1.521   4.347
  405SOL     OW 4576   1.135   0.703   4.441
  405SOL    HW1 4577   1.192   0.781   4.416
  405SOL    HW2 4578   1.075   0.729   4.517
  406SOL     OW 4579   0.685   1.012   4.389
  406SOL    HW1 4580   0.754   0.996   4.459
  406SOL    HW2 4581   0.612   1.069   4.427
  407SOL     OW 4582   0.335   1.435   4.785
  407SOL    HW1 4583   0.257   1.404   4.732
  407SOL    HW2 4584   0.393   1.493   4.728
  408SOL     OW 4585   1.603   0.447   4.461
  408SOL    HW1 4586   1.529   0.493   4.411
  408SOL    HW2 4587   1.654   0.515   4.514
  409SOL     OW 4588   0.231   1.713   4.207
  409SOL    HW1 4589   0.265   1.790   4.261
  409SOL    HW2 4590   0.275   1.713   4.117
  410SOL     OW 4591   0.230   1.434   4.262
  410SOL    HW1 4592   0.204   1.530   4.262
  410SOL    HW2 4593   0.159   1.380   4.307
  411SOL     OW 4594   0.620   1.786   5.163
  411SOL    HW1 4595   0.528   1.769   5.198
  411SOL    HW2 4596   0.648   1.878   5.189
  412SOL     OW 4597   0.027   1.596   3.841
  412SOL    HW1 4598   0.008   1.500   3.862
  412SOL    HW2 4599  -0.006   1.654   3.916
  413SOL     OW 4600   1.689   0.922   4.336
  413SOL    HW1 4601   1.784   0.893   4.344
  413SOL    HW2 4602   1.681   0.987   4.261
  414SOL     OW 4603   1.641   1.108   4.156
  414SOL    HW1 4604   1.727   1.110   4.104
  414SOL    HW2 4605   1.655   1.155   4.244
  415SOL     OW 4606   0.613   1.365   4.450
  415SOL    HW1 4607   0.564   1.278   4.459
  415SOL    HW2 4608   0.590   1.408   4.363
  416SOL     OW 4609   0.809   0.004   4.226
  416SOL    HW1 4610   0.849   0.095   4.217
  416SOL    HW2 4611   0.709   0.012   4.232
  417SOL     OW 4612   0.197   0.976   4.988
  417SOL    HW1 4613   0.286   0.931   4.974
  417SOL    HW2 4614   0.124   0.911   4.969
  418SOL     OW 4615   1.525   0.999   3.914
  418SOL    HW1 4616   1.462   0.923   3.927
  418SOL    HW2 4617   1.573   1.017   4.000
  419SOL     OW 4618   1.466   1.417   4.677
  419SOL    HW1 4619   1.407   1.423   4.757
  419SOL    HW2 4620   1.451   1.329   4.631
  420SOL     OW 4621   0.598   0.729   3.994
  420SOL    HW1 4622   0.622   0.798   3.926
  420SOL    HW2 4623   0.520   0.762   4.048
  421SOL     OW 4624   1.281   0.345   4.668
  421SOL    HW1 4625   1.195   0.295   4.655
  421SOL    HW2 4626   1.343   0.291   4.724
  422SOL     OW 4627   0.991   0.410   4.966
  422SOL    HW1 4628   0.914   0.444   5.020
  422SOL    HW2 4629   0.957   0.359   4.887
  423SOL     OW 4630   1.041   0.701   4.153
  423SOL    HW1 4631   1.067   0.697   4.249
  423SOL    HW2 4632   0.956   0.650   4.139
  424SOL     OW 4633   0.130   1.821   5.295
  424SOL    HW1 4634   0.120   1.806   5.394
  424SOL    HW2 4635   0.044   1.857   5.259
  425SOL     OW 4636   0.865   0.348   3.919
  425SOL    HW1 4637   0.924   0.411   3.870
  425SOL    HW2 4638   0.884   0.254   3.890
  426SOL     OW 4639   1.362   1.144   4.269
  426SOL    HW1 4640   1.445   1.115   4.221
  426SOL    HW2 4641   1.313   1.211   4.213
  427SOL     OW 4642   0.351   1.801   4.577
  427SOL    HW1 4643   0.401   1.715   4.583
  427SOL    HW2 4644   0.416   1.878   4.574
  428SOL     OW 4645   1.795   1.066   4.597
  428SOL    HW1 4646   1.733   1.051   4.521
  428SOL    HW2 4647   1.743   1.077   4.682
  429SOL     OW 4648   1.458   0.735   4.452
  429SOL    HW1 4649   1.453   0.670   4.527
  429SOL    HW2 4650   1.538   0.794   4.465
  430SOL     OW 4651   1.632   1.377   3.805
  430SOL    HW1 4652   1.600   1.471   3.795
  430SOL    HW2 4653   1.556   1.314   3.793
  431SOL     OW 4654   1.400   0.107   4.150
  431SOL    HW1 4655   1.376   0.070   4.060
  431SOL    HW2 4656   1.499   0.123   4.154
  432SOL     OW 4657   0.940   1.698   4.628
  432SOL    HW1 4658   1.020   1.641   4.649
  432SOL    HW2 4659   0.891   1.658   4.551
  433SOL     OW 4660   0.803   1.402   4.648
  433SOL    HW1 4661   0.893   1.416   4.606
  433SOL    HW2 4662   0.732   1.404   4.577
  434SOL     OW 4663   0.922   0.503   4.623
  434SOL    HW1 4664   0.897   0.494   4.527
  434SOL    HW2 4665   0.970   0.421   4.654
  435SOL     OW 4666   0.539   0.064   4.236
  435SOL    HW1 4667   0.458   0.065   4.294
  435SOL    HW2 4668   0.542   0.147   4.181
  436SOL     OW 4669   1.434   1.188   3.765
  436SOL    HW1 4670   1.466   1.112   3.822
  436SOL    HW2 4671   1.342   1.215   3.795
  437SOL     OW 4672   0.935   0.236   4.204
  437SOL    HW1 4673   0.887   0.277   4.126
  437SOL    HW2 4674   1.034   0.234   4.185
  438SOL     OW 4675   1.227   1.570   4.517
  438SOL    HW1 4676   1.248   1.644   4.452
  438SOL    HW2 4677   1.295   1.570   4.590
  439SOL     OW 4678   0.459   1.152   4.465
  439SOL    HW1 4679   0.388   1.125   4.530
  439SOL    HW2 4680   0.433   1.124   4.372
  440SOL     OW 4681   1.032   0.549   3.740
  440SOL    HW1 4682   0.991   0.631   3.701
  440SOL    HW2 4683   1.096   0.575   3.813
  441SOL     OW 4684   0.866   0.454   4.366
  441SOL    HW1 4685   0.834   0.526   4.304
  441SOL    HW2 4686   0.890   0.373   4.313
  442SOL     OW 4687   1.429   1.173   4.591
  442SOL    HW1 4688   1.374   1.089   4.584
  442SOL    HW2 4689   1.455   1.202   4.499
  443SOL     OW 4690   1.466   0.590   4.716
  443SOL    HW1 4691   1.436   0.495   4.723
  443SOL    HW2 4692   1.539   0.606   4.782
  444SOL     OW 4693   1.857   0.833   4.101
  444SOL    HW1 4694   1.899   0.769   4.165
  444SOL    HW2 4695   1.819   0.782   4.023
  445SOL     OW 4696   0.488   1.385   3.898
  445SOL    HW1 4697   0.401   1.370   3.945
  445SOL    HW2 4698   0.471   1.411   3.803
  446SOL     OW 4699   1.664   1.280   4.381
  446SOL    HW1 4700   1.763   1.288   4.395
  446SOL    HW2 4701   1.619   1.364   4.412
  447SOL     OW 4702   0.527   0.256   4.052
  447SOL    HW1 4703   0.554   0.197   3.977
  447SOL    HW2 4704   0.527   0.351   4.021
  448SOL     OW 4705   1.111   1.195   4.824
  448SOL    HW1 4706   1.071   1.239   4.905
  448SOL    HW2 4707   1.070   1.232   4.741
  449SOL     OW 4708   1.638   1.099   4.803
  449SOL    HW1 4709   1.643   1.180   4.862
  449SOL    HW2 4710   1.552   1.101   4.752
  450SOL     OW 4711   1.274   0.386   4.986
  450SOL    HW1 4712   1.295   0.460   5.050
  450SOL    HW2 4713   1.185   0.403   4.943
  451SOL     OW 4714   0.367   1.100   4.225
  451SOL    HW1 4715   0.360   1.183   4.169
  451SOL    HW2 4716   0.371   1.020   4.165
  452SOL     OW 4717   0.566   0.537   4.589
  452SOL    HW1 4718   0.578   0.603   4.515
  452SOL    HW2 4719   0.612   0.571   4.672
  453SOL     OW 4720   1.252   1.348   4.112
  453SOL    HW1 4721   1.302   1.425   4.152
  453SOL    HW2 4722   1.157   1.350   4.144
  454SOL     OW 4723   1.272   1.445   4.866
  454SOL    HW1 4724   1.319   1.458   4.953
  454SOL    HW2 4725   1.206   1.371   4.875
  455SOL     OW 4726   1.582   0.639   4.196
  455SOL    HW1 4727   1.551   0.700   4.269
  455SOL    HW2 4728   1.632   0.691   4.127
  456SOL     OW 4729   0.354   1.510   5.053
  456SOL    HW1 4730   0.333   1.466   4.966
  456SOL    HW2 4731   0.451   1.536   5.056
  457SOL     OW 4732   0.573   0.870   4.753
  457SOL    HW1 4733   0.617   0.959   4.744
  457SOL    HW2 4734   0.510   0.870   4.830
  458SOL     OW 4735   1.360   0.862   4.769
  458SOL    HW1 4736   1.285   0.862   4.703
  458SOL    HW2 4737   1.397   0.770   4.778
  459SOL     OW 4738   1.209   0.525   3.999
  459SOL    HW1 4739   1.222   0.441   4.053
  459SOL    HW2 4740   1.180   0.599   4.059
  460SOL     OW 4741   0.037   1.310   5.006
  460SOL    HW1 4742   0.090   1.261   5.074
  460SOL    HW2 4743   0.059   1.408   5.011
  461SOL     OW 4744   1.068   1.333   4.573
  461SOL    HW1 4745   1.075   1.249   4.518
  461SOL    HW2 4746   1.130   1.402   4.537
  462SOL     OW 4747   1.160   0.207   5.201
  462SOL    HW1 4748   1.160   0.271   5.278
  462SOL    HW2 4749   1.188   0.255   5.118
  463SOL     OW 4750   0.008   1.326   3.924
  463SOL    HW1 4751  -0.085   1.347   3.893
  463SOL    HW2 4752   0.018   1.227   3.937
  464SOL     OW 4753   0.088   1.801   4.651
  464SOL    HW1 4754   0.046   1.715   4.624
  464SOL    HW2 4755   0.182   1.804   4.617
  465SOL     OW 4756   0.504   1.568   4.634
  465SOL    HW1 4757   0.570   1.642   4.643
  465SOL    HW2 4758   0.548   1.489   4.592
  466SOL     OW 4759   0.040   0.544   4.838
  466SOL    HW1 4760   0.125   0.511   4.797
  466SOL    HW2 4761   0.053   0.559   4.936
  467SOL     OW 4762   0.815   0.572   4.049
  467SOL    HW1 4763   0.822   0.483   4.003
  467SOL    HW2 4764   0.721   0.606   4.041
  468SOL     OW 4765   1.657   0.604   4.930
  468SOL    HW1 4766   1.619   0.535   4.992
  468SOL    HW2 4767   1.739   0.568   4.886
  469SOL     OW 4768   0.671   0.464   4.993
  469SOL    HW1 4769   0.637   0.375   4.963
  469SOL    HW2 4770   0.697   0.518   4.913
  470SOL     OW 4771   0.473   0.500   3.915
  470SOL    HW1 4772   0.534   0.580   3.919
  470SOL    HW2 4773   0.378   0.531   3.922
  471SOL     OW 4774   1.347   1.059   4.958
  471SOL    HW1 4775   1.371   0.996   4.884
  471SOL    HW2 4776   1.257   1.099   4.940
  472SOL     OW 4777   1.302   0.855   4.033
  472SOL    HW1 4778   1.216   0.824   4.075
  472SOL    HW2 4779   1.298   0.841   3.934
  473SOL     OW 4780   1.252   1.731   4.852
  473SOL    HW1 4781   1.336   1.736   4.798
  473SOL    HW2 4782   1.229   1.635   4.870
  474SOL     OW 4783   1.726   0.135   4.247
  474SOL    HW1 4784   1.799   0.118   4.180
  474SOL    HW2 4785   1.695   0.048   4.285
  475SOL     OW 4786   1.388   1.573   4.201
  475SOL    HW1 4787   1.455   1.585   4.127
  475SOL    HW2 4788   1.348   1.662   4.224
  476SOL     OW 4789   1.280   0.927   4.396
  476SOL    HW1 4790   1.340   0.846   4.398
  476SOL    HW2 4791   1.320   0.996   4.336
  477SOL     OW 4792   1.841   0.175   4.687
  477SOL    HW1 4793   1.880   0.090   4.651
  477SOL    HW2 4794   1.743   0.177   4.668
  478SOL     OW 4795   1.194   1.612   3.755
  478SOL    HW1 4796   1.200   1.519   3.792
  478SOL    HW2 4797   1.135   1.612   3.675
  479SOL     OW 4798   0.916   0.910   4.015
  479SOL    HW1 4799   0.979   0.948   3.947
  479SOL    HW2 4800   0.956   0.827   4.054
  480SOL     OW 4801   1.504   1.607   3.768
  480SOL    HW1 4802   1.412   1.644   3.775
  480SOL    HW2 4803   1.542   1.627   3.678
  481SOL     OW 4804   1.039   1.098   4.420
  481SOL    HW1 4805   0.969   1.051   4.474
  481SOL    HW2 4806   1.098   1.030   4.377
  482SOL     OW 4807   1.709   0.385   5.105
  482SOL    HW1 4808   1.782   0.454   5.109
  482SOL    HW2 4809   1.737   0.310   5.046
  483SOL     OW 4810   0.255   1.348   4.014
  483SOL    HW1 4811   0.159   1.349   3.987
  483SOL    HW2 4812   0.267   1.401   4.098
  484SOL     OW 4813   0.075   0.345   3.757
  484SOL    HW1 4814  -0.017   0.317   3.728
  484SOL    HW2 4815   0.106   0.422   3.701
  485SOL     OW 4816   1.183   1.335   3.843
  485SOL    HW1 4817   1.084   1.324   3.845
  485SOL    HW2 4818   1.217   1.350   3.936
  486SOL     OW 4819   1.450   1.220   5.357
  486SOL    HW1 4820   1.441   1.210   5.456
  486SOL    HW2 4821   1.546   1.213   5.331
  487SOL     OW 4822   1.674   0.883   4.978
  487SOL    HW1 4823   1.647   0.794   4.941
  487SOL    HW2 4824   1.675   0.951   4.905
  488SOL     OW 4825   1.225   0.325   4.173
  488SOL    HW1 4826   1.290   0.251   4.162
  488SOL    HW2 4827   1.245   0.375   4.257
  489SOL     OW 4828   0.594   0.745   4.376
  489SOL    HW1 4829   0.644   0.830   4.357
  489SOL    HW2 4830   0.506   0.747   4.328
  490SOL     OW 4831   1.730   0.934   5.241
  490SOL    HW1 4832   1.768   1.025   5.256
  490SOL    HW2 4833   1.722   0.917   5.142
  491SOL     OW 4834   0.661   1.790   4.677
  491SOL    HW1 4835   0.615   1.878   4.664
  491SOL    HW2 4836   0.760   1.802   4.670
  492SOL     OW 4837   0.859   0.956   4.585
  492SOL    HW1 4838   0.913   0.887   4.633
  492SOL    HW2 4839   0.827   1.025   4.651
  493SOL     OW 4840   1.083   0.984   3.811
  493SOL    HW1 4841   1.060   1.037   3.729
  493SOL    HW2 4842   1.164   0.928   3.792
  494SOL     OW 4843   0.079   1.240   4.377
  494SOL    HW1 4844   0.078   1.193   4.465
  494SOL    HW2 4845   0.161   1.212   4.326
  495SOL     OW 4846   1.824   0.192   4.951
  495SOL    HW1 4847   1.820   0.102   4.995
  495SOL    HW2 4848   1.827   0.181   4.852
  496SOL     OW 4849   1.424   0.214   4.836
  496SOL    HW1 4850   1.476   0.149   4.891
  496SOL    HW2 4851   1.375   0.277   4.897
  497SOL     OW 4852   1.352   0.052   3.892
  497SOL    HW1 4853   1.387   0.011   3.808
  497SOL    HW2 4854   1.262   0.014   3.912
  498SOL     OW 4855   1.300   0.453   4.415
  498SOL    HW1 4856   1.241   0.533   4.419
  498SOL    HW2 4857   1.315   0.418   4.508
  499SOL     OW 4858   1.593   0.221   4.606
  499SOL    HW1 4859   1.509   0.220   4.660
  499SOL    HW2 4860   1.595   0.304   4.550
  500SOL     OW 4861   0.039   1.077   4.024
  500SOL    HW1 4862   0.138   1.066   4.015
  500SOL    HW2 4863  -0.001   0.991   4.056
  501SOL     OW 4864   0.019   2.230   0.647
  501SOL    HW1 4865  -0.063   2.273   0.686
  501SOL    HW2 4866  -0.009   2.157   0.584
  502SOL     OW 4867   1.135   2.565   0.717
  502SOL    HW1 4868   1.192   2.643   0.692
  502SOL    HW2 4869   1.075   2.591   0.793
  503SOL     OW 4870   1.755   2.469   0.231
  503SOL    HW1 4871   1.743   2.456   0.132
  503SOL    HW2 4872   1.725   2.388   0.280
  504SOL     OW 4873   0.768   3.006   1.023
  504SOL    HW1 4874   0.690   3.023   1.083
  504SOL    HW2 4875   0.802   3.093   0.987
  505SOL     OW 4876   0.850   2.660   1.823
  505SOL    HW1 4877   0.846   2.736   1.888
  505SOL    HW2 4878   0.872   2.696   1.732
  506SOL     OW 4879   0.686   3.023   1.803
  506SOL    HW1 4880   0.746   3.102   1.817
  506SOL    HW2 4881   0.600   3.054   1.762
  507SOL     OW 4882   1.460   3.367   1.339
  507SOL    HW1 4883   1.484   3.461   1.365
  507SOL    HW2 4884   1.444   3.313   1.421
  508SOL     OW 4885   0.438   2.254   1.499
  508SOL    HW1 4886   0.520   2.198   1.508
  508SOL    HW2 4887   0.357   2.196   1.503
  509SOL     OW 4888   1.603   2.309   0.737
  509SOL    HW1 4889   1.529   2.355   0.687
  509SOL    HW2 4890   1.654   2.377   0.790
  510SOL     OW 4891   0.231   3.575   0.483
  510SOL    HW1 4892   0.265   3.652   0.537
  510SOL    HW2 4893   0.275   3.575   0.393
  511SOL     OW 4894   1.127   3.203   1.690
  511SOL    HW1 4895   1.174   3.203   1.778
  511SOL    HW2 4896   1.079   3.116   1.679
  512SOL     OW 4897   0.240   2.953   0.886
  512SOL    HW1 4898   0.254   2.869   0.938
  512SOL    HW2 4899   0.185   3.017   0.941
  513SOL     OW 4900   0.122   2.505   0.563
  513SOL    HW1 4901   0.077   2.417   0.580
  513SOL    HW2 4902   0.121   2.559   0.647
  514SOL     OW 4903   1.689   2.784   0.612
  514SOL    HW1 4904   1.784   2.755   0.620
  514SOL    HW2 4905   1.681   2.849   0.537
  515SOL     OW 4906   1.641   2.970   0.432
  515SOL    HW1 4907   1.727   2.972   0.380
  515SOL    HW2 4908   1.655   3.017   0.520
  516SOL     OW 4909   0.113   2.599   1.597
  516SOL    HW1 4910   0.201   2.586   1.642
  516SOL    HW2 4911   0.100   2.696   1.575
  517SOL     OW 4912   0.613   3.227   0.726
  517SOL    HW1 4913   0.564   3.140   0.735
  517SOL    HW2 4914   0.590   3.270   0.639
  518SOL     OW 4915   1.293   3.090   1.423
  518SOL    HW1 4916   1.330   3.017   1.365
  518SOL    HW2 4917   1.345   3.095   1.508
  519SOL     OW 4918   0.197   2.838   1.264
  519SOL    HW1 4919   0.286   2.793   1.250
  519SOL    HW2 4920   0.124   2.773   1.245
  520SOL     OW 4921   1.525   2.861   0.190
  520SOL    HW1 4922   1.462   2.785   0.203
  520SOL    HW2 4923   1.573   2.879   0.276
  521SOL     OW 4924   1.187   3.654   1.616
  521SOL    HW1 4925   1.211   3.714   1.540
  521SOL    HW2 4926   1.194   3.559   1.586
  522SOL     OW 4927   0.317   2.113   1.801
  522SOL    HW1 4928   0.388   2.184   1.807
  522SOL    HW2 4929   0.229   2.152   1.829
  523SOL     OW 4930   1.466   3.279   0.953
  523SOL    HW1 4931   1.407   3.285   1.033
  523SOL    HW2 4932   1.451   3.191   0.907
  524SOL     OW 4933   1.281   2.207   0.944
  524SOL    HW1 4934   1.195   2.157   0.931
  524SOL    HW2 4935   1.343   2.153   1.000
  525SOL     OW 4936   1.576   3.524   0.307
  525SOL    HW1 4937   1.665   3.570   0.310
  525SOL    HW2 4938   1.555   3.500   0.212
  526SOL     OW 4939   0.807   2.467   1.465
  526SOL    HW1 4940   0.760   2.464   1.554
  526SOL    HW2 4941   0.756   2.412   1.399
  527SOL     OW 4942   1.394   2.331   1.674
  527SOL    HW1 4943   1.374   2.374   1.762
  527SOL    HW2 4944   1.472   2.269   1.683
  528SOL     OW 4945   0.973   2.752   1.572
  528SOL    HW1 4946   1.019   2.668   1.543
  528SOL    HW2 4947   0.917   2.786   1.497
  529SOL     OW 4948   0.991   2.272   1.242
  529SOL    HW1 4949   0.914   2.306   1.296
  529SOL    HW2 4950   0.957   2.221   1.163
  530SOL     OW 4951   1.041   2.563   0.429
  530SOL    HW1 4952   1.067   2.559   0.525
  530SOL    HW2 4953   0.956   2.512   0.415
  531SOL     OW 4954   0.076   2.673   0.789
  531SOL    HW1 4955   0.175   2.661   0.798
  531SOL    HW2 4956   0.052   2.768   0.810
  532SOL     OW 4957   1.362   3.006   0.545
  532SOL    HW1 4958   1.445   2.977   0.497
  532SOL    HW2 4959   1.313   3.073   0.489
  533SOL     OW 4960   0.550   2.058   0.885
  533SOL    HW1 4961   0.545   2.053   0.985
  533SOL    HW2 4962   0.552   2.154   0.856
  534SOL     OW 4963   1.008   3.318   0.477
  534SOL    HW1 4964   0.962   3.390   0.425
  534SOL    HW2 4965   1.004   3.338   0.575
  535SOL     OW 4966   1.795   2.928   0.873
  535SOL    HW1 4967   1.733   2.913   0.797
  535SOL    HW2 4968   1.743   2.939   0.958
  536SOL     OW 4969   1.227   3.412   1.506
  536SOL    HW1 4970   1.233   3.335   1.570
  536SOL    HW2 4971   1.175   3.386   1.426
  537SOL     OW 4972   1.458   2.597   0.728
  537SOL    HW1 4973   1.453   2.532   0.803
  537SOL    HW2 4974   1.538   2.656   0.741
  538SOL     OW 4975   0.461   3.128   1.727
  538SOL    HW1 4976   0.411   3.129   1.641
  538SOL    HW2 4977   0.398   3.110   1.803
  539SOL     OW 4978   1.111   3.638   0.237
  539SOL    HW1 4979   1.051   3.576   0.287
  539SOL    HW2 4980   1.142   3.594   0.152
  540SOL     OW 4981   0.202   2.147   1.498
  540SOL    HW1 4982   0.122   2.207   1.485
  540SOL    HW2 4983   0.192   2.098   1.584
  541SOL     OW 4984   0.464   3.605   0.323
  541SOL    HW1 4985   0.497   3.644   0.409
  541SOL    HW2 4986   0.540   3.598   0.258
  542SOL     OW 4987   1.400   1.969   0.426
  542SOL    HW1 4988   1.376   1.932   0.336
  542SOL    HW2 4989   1.499   1.985   0.430
  543SOL     OW 4990   0.940   3.560   0.904
  543SOL    HW1 4991   1.020   3.503   0.925
  543SOL    HW2 4992   0.891   3.520   0.827
  544SOL     OW 4993   1.547   2.084   1.729
  544SOL    HW1 4994   1.542   2.121   1.821
  544SOL    HW2 4995   1.475   2.015   1.717
  545SOL     OW 4996   0.888   3.376   1.195
  545SOL    HW1 4997   0.865   3.351   1.101
  545SOL    HW2 4998   0.949   3.307   1.234
  546SOL     OW 4999   0.803   3.264   0.924
  546SOL    HW1 5000   0.893   3.278   0.882
  546SOL    HW2 5001   0.732   3.266   0.853
  547SOL     OW 5002   0.922   2.365   0.899
  547SOL    HW1 5003   0.897   2.356   0.803
  547SOL    HW2 5004   0.970   2.283   0.930
  548SOL     OW 5005   1.434   3.050   0.041
  548SOL    HW1 5006   1.466   2.974   0.098
  548SOL    HW2 5007   1.342   3.077   0.071
  549SOL     OW 5008   0.297   1.897   0.171
  549SOL    HW1 5009   0.346   1.981   0.150
  549SOL    HW2 5010   0.359   1.832   0.216
  550SOL     OW 5011   1.227   3.432   0.793
  550SOL    HW1 5012   1.248   3.506   0.728
  550SOL    HW2 5013   1.295   3.432   0.866
  551SOL     OW 5014   0.459   3.014   0.741
  551SOL    HW1 5015   0.388   2.987   0.806
  551SOL    HW2 5016   0.433   2.986   0.648
  552SOL     OW 5017   1.271   3.659   0.591
  552SOL    HW1 5018   1.315   3.723   0.527
  552SOL    HW2 5019   1.221   3.711   0.661
  553SOL     OW 5020   1.032   2.411   0.016
  553SOL    HW1 5021   0.991   2.493  -0.023
  553SOL    HW2 5022   1.096   2.437   0.089
  554SOL     OW 5023   0.078   2.418   1.386
  554SOL    HW1 5024   0.170   2.417   1.345
  554SOL    HW2 5025   0.072   2.492   1.453
  555SOL     OW 5026   0.561   2.084   1.147
  555SOL    HW1 5027   0.599   2.000   1.184
  555SOL    HW2 5028   0.473   2.103   1.191
  556SOL     OW 5029   0.866   2.316   0.642
  556SOL    HW1 5030   0.834   2.388   0.580
  556SOL    HW2 5031   0.890   2.235   0.589
  557SOL     OW 5032   1.466   2.452   0.992
  557SOL    HW1 5033   1.436   2.357   0.999
  557SOL    HW2 5034   1.539   2.468   1.058
  558SOL     OW 5035   1.857   2.695   0.377
  558SOL    HW1 5036   1.899   2.631   0.441
  558SOL    HW2 5037   1.819   2.644   0.299
  559SOL     OW 5038   0.488   3.247   0.174
  559SOL    HW1 5039   0.401   3.232   0.221
  559SOL    HW2 5040   0.471   3.273   0.079
  560SOL     OW 5041   1.390   2.437   0.078
  560SOL    HW1 5042   1.336   2.416   0.159
  560SOL    HW2 5043   1.481   2.396   0.087
  561SOL     OW 5044   0.527   2.118   0.328
  561SOL    HW1 5045   0.554   2.059   0.253
  561SOL    HW2 5046   0.527   2.213   0.297
  562SOL     OW 5047   1.754   3.085   1.588
  562SOL    HW1 5048   1.845   3.046   1.575
  562SOL    HW2 5049   1.762   3.181   1.612
  563SOL     OW 5050   1.064   3.209   1.340
  563SOL    HW1 5051   0.984   3.186   1.395
  563SOL    HW2 5052   1.147   3.183   1.389
  564SOL     OW 5053   1.592   3.491   1.625
  564SOL    HW1 5054   1.619   3.525   1.535
  564SOL    HW2 5055   1.671   3.453   1.671
  565SOL     OW 5056   1.111   3.057   1.100
  565SOL    HW1 5057   1.071   3.101   1.181
  565SOL    HW2 5058   1.070   3.094   1.017
  566SOL     OW 5059   1.638   2.961   1.079
  566SOL    HW1 5060   1.643   3.042   1.138
  566SOL    HW2 5061   1.552   2.963   1.028
  567SOL     OW 5062   0.915   1.951   1.402
  567SOL    HW1 5063   0.940   1.931   1.307
  567SOL    HW2 5064   0.987   2.007   1.444
  568SOL     OW 5065   0.980   2.978   1.719
  568SOL    HW1 5066   0.881   2.984   1.729
  568SOL    HW2 5067   1.003   2.898   1.663
  569SOL     OW 5068   0.410   2.675   1.251
  569SOL    HW1 5069   0.496   2.687   1.301
  569SOL    HW2 5070   0.368   2.588   1.278
  570SOL     OW 5071   0.367   2.962   0.501
  570SOL    HW1 5072   0.360   3.045   0.445
  570SOL    HW2 5073   0.371   2.882   0.441
  571SOL     OW 5074   0.566   2.399   0.865
  571SOL    HW1 5075   0.578   2.465   0.791
  571SOL    HW2 5076   0.612   2.433   0.948
  572SOL     OW 5077   1.252   3.210   0.388
  572SOL    HW1 5078   1.302   3.287   0.428
  572SOL    HW2 5079   1.157   3.212   0.420
  573SOL     OW 5080   1.272   3.307   1.142
  573SOL    HW1 5081   1.319   3.320   1.229
  573SOL    HW2 5082   1.206   3.233   1.151
  574SOL     OW 5083   1.582   2.501   0.472
  574SOL    HW1 5084   1.551   2.562   0.545
  574SOL    HW2 5085   1.632   2.553   0.403
  575SOL     OW 5086   0.402   2.613   1.598
  575SOL    HW1 5087   0.470   2.668   1.551
  575SOL    HW2 5088   0.442   2.525   1.625
  576SOL     OW 5089   1.587   2.641   1.670
  576SOL    HW1 5090   1.495   2.679   1.665
  576SOL    HW2 5091   1.647   2.688   1.605
  577SOL     OW 5092   0.504   1.912   1.740
  577SOL    HW1 5093   0.462   1.855   1.670
  577SOL    HW2 5094   0.438   1.981   1.772
  578SOL     OW 5095   0.573   2.732   1.029
  578SOL    HW1 5096   0.617   2.821   1.020
  578SOL    HW2 5097   0.510   2.732   1.106
  579SOL     OW 5098   1.360   2.724   1.045
  579SOL    HW1 5099   1.285   2.724   0.979
  579SOL    HW2 5100   1.397   2.632   1.054
  580SOL     OW 5101   1.209   2.387   0.275
  580SOL    HW1 5102   1.222   2.303   0.329
  580SOL    HW2 5103   1.180   2.461   0.335
  581SOL     OW 5104   0.307   2.075   1.231
  581SOL    HW1 5105   0.284   2.112   1.321
  581SOL    HW2 5106   0.277   1.980   1.225
  582SOL     OW 5107   0.732   2.496   1.064
  582SOL    HW1 5108   0.791   2.470   0.988
  582SOL    HW2 5109   0.704   2.592   1.053
  583SOL     OW 5110   0.307   1.925   0.618
  583SOL    HW1 5111   0.296   2.019   0.651
  583SOL    HW2 5112   0.302   1.862   0.695
  584SOL     OW 5113   1.622   2.229   0.374
  584SOL    HW1 5114   1.624   2.153   0.438
  584SOL    HW2 5115   1.574   2.306   0.414
  585SOL     OW 5116   1.023   2.628   0.966
  585SOL    HW1 5117   1.038   2.649   1.062
  585SOL    HW2 5118   0.993   2.533   0.957
  586SOL     OW 5119   0.980   3.435   1.700
  586SOL    HW1 5120   0.960   3.479   1.612
  586SOL    HW2 5121   1.019   3.344   1.684
  587SOL     OW 5122   1.859   3.380   1.605
  587SOL    HW1 5123   1.873   3.407   1.510
  587SOL    HW2 5124   1.942   3.402   1.658
  588SOL     OW 5125   0.350   2.760   1.804
  588SOL    HW1 5126   0.426   2.804   1.852
  588SOL    HW2 5127   0.385   2.713   1.722
  589SOL     OW 5128   1.540   2.136   0.125
  589SOL    HW1 5129   1.479   2.061   0.148
  589SOL    HW2 5130   1.562   2.188   0.208
  590SOL     OW 5131   1.068   3.195   0.849
  590SOL    HW1 5132   1.075   3.111   0.794
  590SOL    HW2 5133   1.130   3.264   0.813
  591SOL     OW 5134   0.319   2.672   0.949
  591SOL    HW1 5135   0.412   2.708   0.954
  591SOL    HW2 5136   0.313   2.587   1.001
  592SOL     OW 5137   1.002   2.658   1.238
  592SOL    HW1 5138   1.043   2.626   1.324
  592SOL    HW2 5139   0.906   2.631   1.235
  593SOL     OW 5140   0.189   2.382   1.722
  593SOL    HW1 5141   0.248   2.342   1.652
  593SOL    HW2 5142   0.131   2.453   1.681
  594SOL     OW 5143   1.369   2.812   1.660
  594SOL    HW1 5144   1.408   2.901   1.680
  594SOL    HW2 5145   1.379   2.792   1.563
  595SOL     OW 5146   0.815   2.434   0.325
  595SOL    HW1 5147   0.822   2.345   0.279
  595SOL    HW2 5148   0.721   2.468   0.317
  596SOL     OW 5149   1.657   2.466   1.206
  596SOL    HW1 5150   1.619   2.397   1.268
  596SOL    HW2 5151   1.739   2.430   1.162
  597SOL     OW 5152   0.252   3.426   1.744
  597SOL    HW1 5153   0.222   3.483   1.820
  597SOL    HW2 5154   0.245   3.329   1.770
  598SOL     OW 5155   0.671   2.326   1.269
  598SOL    HW1 5156   0.637   2.237   1.239
  598SOL    HW2 5157   0.697   2.380   1.189
  599SOL     OW 5158   0.930   3.540   1.465
  599SOL    HW1 5159   0.906   3.522   1.370
  599SOL    HW2 5160   0.960   3.634   1.475
  600SOL     OW 5161   0.159   2.999   1.466
  600SOL    HW1 5162   0.181   2.938   1.542
  600SOL    HW2 5163   0.169   2.950   1.380
  601SOL     OW 5164   1.347   2.921   1.234
  601SOL    HW1 5165   1.371   2.858   1.160
  601SOL    HW2 5166   1.257   2.961   1.216
  602SOL     OW 5167   1.302   2.717   0.309
  602SOL    HW1 5168   1.216   2.686   0.351
  602SOL    HW2 5169   1.298   2.703   0.210
  603SOL     OW 5170   1.759   3.609   1.154
  603SOL    HW1 5171   1.820   3.639   1.081
  603SOL    HW2 5172   1.721   3.520   1.132
  604SOL     OW 5173   1.252   3.593   1.128
  604SOL    HW1 5174   1.336   3.598   1.074
  604SOL    HW2 5175   1.229   3.497   1.146
  605SOL     OW 5176   0.688   3.524   1.716
  605SOL    HW1 5177   0.632   3.605   1.725
  605SOL    HW2 5178   0.740   3.528   1.630
  606SOL     OW 5179   1.726   1.997   0.523
  606SOL    HW1 5180   1.799   1.980   0.456
  606SOL    HW2 5181   1.695   1.910   0.561
  607SOL     OW 5182   1.388   3.435   0.477
  607SOL    HW1 5183   1.455   3.447   0.403
  607SOL    HW2 5184   1.348   3.524   0.500
  608SOL     OW 5185   1.280   2.789   0.672
  608SOL    HW1 5186   1.340   2.708   0.674
  608SOL    HW2 5187   1.320   2.858   0.612
  609SOL     OW 5188   0.830   3.135   1.422
  609SOL    HW1 5189   0.825   3.168   1.517
  609SOL    HW2 5190   0.744   3.154   1.376
  610SOL     OW 5191   0.672   3.478   0.154
  610SOL    HW1 5192   0.681   3.488   0.055
  610SOL    HW2 5193   0.632   3.389   0.175
  611SOL     OW 5194   1.650   3.582   1.394
  611SOL    HW1 5195   1.703   3.592   1.310
  611SOL    HW2 5196   1.623   3.672   1.428
  612SOL     OW 5197   1.194   3.474   0.031
  612SOL    HW1 5198   1.200   3.381   0.068
  612SOL    HW2 5199   1.135   3.474  -0.049
  613SOL     OW 5200   0.822   2.864   1.372
  613SOL    HW1 5201   0.862   2.863   1.280
  613SOL    HW2 5202   0.832   2.956   1.412
  614SOL     OW 5203   1.504   3.469   0.044
  614SOL    HW1 5204   1.412   3.506   0.051
  614SOL    HW2 5205   1.542   3.489  -0.046
  615SOL     OW 5206   0.372   3.150   1.490
  615SOL    HW1 5207   0.359   3.243   1.456
  615SOL    HW2 5208   0.288   3.098   1.477
  616SOL     OW 5209   1.614   3.154   1.289
  616SOL    HW1 5210   1.674   3.157   1.369
  616SOL    HW2 5211   1.539   3.218   1.302
  617SOL     OW 5212   1.014   2.098   0.971
  617SOL    HW1 5213   1.006   2.062   0.878
  617SOL    HW2 5214   1.012   2.022   1.036
  618SOL     OW 5215   0.590   3.349   0.491
  618SOL    HW1 5216   0.632   3.291   0.421
  618SOL    HW2 5217   0.546   3.428   0.447
  619SOL     OW 5218   0.255   3.210   0.290
  619SOL    HW1 5219   0.159   3.211   0.263
  619SOL    HW2 5220   0.267   3.263   0.374
  620SOL     OW 5221   0.105   2.875   1.726
  620SOL    HW1 5222   0.028   2.842   1.780
  620SOL    HW2 5223   0.190   2.845   1.768
  621SOL     OW 5224   0.672   2.065   1.489
  621SOL    HW1 5225   0.762   2.049   1.449
  621SOL    HW2 5226   0.680   2.070   1.588
  622SOL     OW 5227   1.440   2.718   1.398
  622SOL    HW1 5228   1.383   2.770   1.335
  622SOL    HW2 5229   1.536   2.730   1.374
  623SOL     OW 5230   1.183   3.197   0.119
  623SOL    HW1 5231   1.084   3.186   0.121
  623SOL    HW2 5232   1.217   3.212   0.212
  624SOL     OW 5233   0.613   2.704   1.431
  624SOL    HW1 5234   0.669   2.785   1.414
  624SOL    HW2 5235   0.672   2.624   1.434
  625SOL     OW 5236   1.493   3.629   0.959
  625SOL    HW1 5237   1.526   3.693   0.890
  625SOL    HW2 5238   1.559   3.623   1.034
  626SOL     OW 5239   1.450   3.082   1.633
  626SOL    HW1 5240   1.441   3.072   1.732
  626SOL    HW2 5241   1.546   3.075   1.607
  627SOL     OW 5242   1.674   2.745   1.254
  627SOL    HW1 5243   1.647   2.656   1.217
  627SOL    HW2 5244   1.675   2.813   1.181
  628SOL     OW 5245   1.225   2.187   0.449
  628SOL    HW1 5246   1.290   2.113   0.438
  628SOL    HW2 5247   1.245   2.237   0.533
  629SOL     OW 5248   1.730   2.796   1.517
  629SOL    HW1 5249   1.768   2.887   1.532
  629SOL    HW2 5250   1.722   2.779   1.418
  630SOL     OW 5251   0.859   3.236   0.016
  630SOL    HW1 5252   0.813   3.251   0.104
  630SOL    HW2 5253   0.903   3.321  -0.014
  631SOL     OW 5254   0.661   3.652   0.953
  631SOL    HW1 5255   0.615   3.740   0.940
  631SOL    HW2 5256   0.760   3.664   0.946
  632SOL     OW 5257   1.083   2.846   0.087
  632SOL    HW1 5258   1.060   2.899   0.005
  632SOL    HW2 5259   1.164   2.790   0.068
  633SOL     OW 5260   0.221   3.176   1.844
  633SOL    HW1 5261   0.156   3.103   1.823
  633SOL    HW2 5262   0.225   3.190   1.942
  634SOL     OW 5263   0.079   3.102   0.653
  634SOL    HW1 5264   0.078   3.055   0.741
  634SOL    HW2 5265   0.161   3.074   0.602
  635SOL     OW 5266   0.672   3.253   1.624
  635SOL    HW1 5267   0.594   3.203   1.662
  635SOL    HW2 5268   0.669   3.348   1.655
  636SOL     OW 5269   0.428   2.286   0.520
  636SOL    HW1 5270   0.458   2.214   0.458
  636SOL    HW2 5271   0.389   2.246   0.603
  637SOL     OW 5272   1.705   3.349   1.104
  637SOL    HW1 5273   1.612   3.324   1.077
  637SOL    HW2 5274   1.731   3.299   1.186
  638SOL     OW 5275   0.317   2.409   1.280
  638SOL    HW1 5276   0.355   2.350   1.352
  638SOL    HW2 5277   0.357   2.383   1.192
  639SOL     OW 5278   0.812   3.448   0.687
  639SOL    HW1 5279   0.844   3.458   0.593
  639SOL    HW2 5280   0.733   3.386   0.689
  640SOL     OW 5281   1.001   1.896   1.154
  640SOL    HW1 5282   0.938   1.824   1.123
  640SOL    HW2 5283   1.094   1.860   1.154
  641SOL     OW 5284   0.770   3.192   0.301
  641SOL    HW1 5285   0.724   3.105   0.318
  641SOL    HW2 5286   0.861   3.189   0.342
  642SOL     OW 5287   0.618   3.429   1.284
  642SOL    HW1 5288   0.613   3.511   1.341
  642SOL    HW2 5289   0.707   3.426   1.239
  643SOL     OW 5290   1.352   1.914   0.168
  643SOL    HW1 5291   1.387   1.873   0.084
  643SOL    HW2 5292   1.262   1.876   0.188
  644SOL     OW 5293   1.300   2.315   0.691
  644SOL    HW1 5294   1.241   2.395   0.695
  644SOL    HW2 5295   1.315   2.280   0.784
  645SOL     OW 5296   0.875   3.508   0.337
  645SOL    HW1 5297   0.798   3.473   0.283
  645SOL    HW2 5298   0.843   3.579   0.399
  646SOL     OW 5299   0.230   2.490   1.975
  646SOL    HW1 5300   0.137   2.488   2.012
  646SOL    HW2 5301   0.231   2.451   1.883
  647SOL     OW 5302   0.569   3.137   3.027
  647SOL    HW1 5303   0.476   3.130   2.990
  647SOL    HW2 5304   0.580   3.226   3.071
  648SOL     OW 5305   1.555   3.373   2.565
  648SOL    HW1 5306   1.498   3.357   2.646
  648SOL    HW2 5307   1.496   3.383   2.485
  649SOL     OW 5308   1.135   2.565   2.579
  649SOL    HW1 5309   1.192   2.643   2.554
  649SOL    HW2 5310   1.075   2.591   2.655
  650SOL     OW 5311   1.755   2.469   2.093
  650SOL    HW1 5312   1.743   2.456   1.994
  650SOL    HW2 5313   1.725   2.388   2.142
  651SOL     OW 5314   0.850   2.660   3.685
  651SOL    HW1 5315   0.846   2.736   3.750
  651SOL    HW2 5316   0.872   2.696   3.594
  652SOL     OW 5317   0.685   2.874   2.527
  652SOL    HW1 5318   0.754   2.858   2.597
  652SOL    HW2 5319   0.612   2.931   2.565
  653SOL     OW 5320   0.686   3.023   3.665
  653SOL    HW1 5321   0.746   3.102   3.679
  653SOL    HW2 5322   0.600   3.054   3.624
  654SOL     OW 5323   0.335   3.297   2.923
  654SOL    HW1 5324   0.257   3.266   2.870
  654SOL    HW2 5325   0.393   3.355   2.866
  655SOL     OW 5326   0.438   2.254   3.361
  655SOL    HW1 5327   0.520   2.198   3.370
  655SOL    HW2 5328   0.357   2.196   3.365
  656SOL     OW 5329   1.603   2.309   2.599
  656SOL    HW1 5330   1.529   2.355   2.549
  656SOL    HW2 5331   1.654   2.377   2.652
  657SOL     OW 5332   0.231   3.575   2.345
  657SOL    HW1 5333   0.265   3.652   2.399
  657SOL    HW2 5334   0.275   3.575   2.255
  658SOL     OW 5335   0.230   3.296   2.400
  658SOL    HW1 5336   0.204   3.392   2.400
  658SOL    HW2 5337   0.159   3.242   2.445
  659SOL     OW 5338   0.620   3.648   3.301
  659SOL    HW1 5339   0.528   3.631   3.336
  659SOL    HW2 5340   0.648   3.740   3.327
  660SOL     OW 5341   0.606   2.826   1.985
  660SOL    HW1 5342   0.613   2.910   1.931
  660SOL    HW2 5343   0.652   2.839   2.073
  661SOL     OW 5344   1.594   1.976   3.342
  661SOL    HW1 5345   1.576   2.043   3.270
  661SOL    HW2 5346   1.591   2.022   3.431
  662SOL     OW 5347   1.842   3.629   2.221
  662SOL    HW1 5348   1.896   3.600   2.301
  662SOL    HW2 5349   1.872   3.719   2.192
  663SOL     OW 5350   0.027   3.458   1.979
  663SOL    HW1 5351   0.008   3.362   2.000
  663SOL    HW2 5352  -0.006   3.516   2.054
  664SOL     OW 5353   0.113   2.599   3.459
  664SOL    HW1 5354   0.201   2.586   3.504
  664SOL    HW2 5355   0.100   2.696   3.437
  665SOL     OW 5356   0.613   3.227   2.588
  665SOL    HW1 5357   0.564   3.140   2.597
  665SOL    HW2 5358   0.590   3.270   2.501
  666SOL     OW 5359   0.809   1.866   2.364
  666SOL    HW1 5360   0.849   1.957   2.355
  666SOL    HW2 5361   0.709   1.874   2.370
  667SOL     OW 5362   1.525   2.861   2.052
  667SOL    HW1 5363   1.462   2.785   2.065
  667SOL    HW2 5364   1.573   2.879   2.138
  668SOL     OW 5365   1.187   3.654   3.478
  668SOL    HW1 5366   1.211   3.714   3.402
  668SOL    HW2 5367   1.194   3.559   3.448
  669SOL     OW 5368   1.667   3.576   2.434
  669SOL    HW1 5369   1.626   3.553   2.346
  669SOL    HW2 5370   1.649   3.502   2.499
  670SOL     OW 5371   0.598   2.591   2.132
  670SOL    HW1 5372   0.622   2.660   2.064
  670SOL    HW2 5373   0.520   2.624   2.186
  671SOL     OW 5374   1.576   3.524   2.169
  671SOL    HW1 5375   1.665   3.570   2.172
  671SOL    HW2 5376   1.555   3.500   2.074
  672SOL     OW 5377   0.807   2.467   3.327
  672SOL    HW1 5378   0.760   2.464   3.416
  672SOL    HW2 5379   0.756   2.412   3.261
  673SOL     OW 5380   1.394   2.331   3.536
  673SOL    HW1 5381   1.374   2.374   3.624
  673SOL    HW2 5382   1.472   2.269   3.545
  674SOL     OW 5383   0.973   2.752   3.434
  674SOL    HW1 5384   1.019   2.668   3.405
  674SOL    HW2 5385   0.917   2.786   3.359
  675SOL     OW 5386   1.041   2.563   2.291
  675SOL    HW1 5387   1.067   2.559   2.387
  675SOL    HW2 5388   0.956   2.512   2.277
  676SOL     OW 5389   0.130   3.683   3.433
  676SOL    HW1 5390   0.120   3.668   3.532
  676SOL    HW2 5391   0.044   3.719   3.397
  677SOL     OW 5392   1.719   2.447   3.693
  677SOL    HW1 5393   1.693   2.536   3.657
  677SOL    HW2 5394   1.717   2.379   3.620
  678SOL     OW 5395   1.362   3.006   2.407
  678SOL    HW1 5396   1.445   2.977   2.359
  678SOL    HW2 5397   1.313   3.073   2.351
  679SOL     OW 5398   1.008   3.318   2.339
  679SOL    HW1 5399   0.962   3.390   2.287
  679SOL    HW2 5400   1.004   3.338   2.437
  680SOL     OW 5401   1.795   2.928   2.735
  680SOL    HW1 5402   1.733   2.913   2.659
  680SOL    HW2 5403   1.743   2.939   2.820
  681SOL     OW 5404   1.227   3.412   3.368
  681SOL    HW1 5405   1.233   3.335   3.432
  681SOL    HW2 5406   1.175   3.386   3.288
  682SOL     OW 5407   0.321   2.805   2.104
  682SOL    HW1 5408   0.403   2.844   2.062
  682SOL    HW2 5409   0.294   2.723   2.055
  683SOL     OW 5410   1.458   2.597   2.590
  683SOL    HW1 5411   1.453   2.532   2.665
  683SOL    HW2 5412   1.538   2.656   2.603
  684SOL     OW 5413   1.111   3.638   2.099
  684SOL    HW1 5414   1.051   3.576   2.149
  684SOL    HW2 5415   1.142   3.594   2.014
  685SOL     OW 5416   0.202   2.147   3.360
  685SOL    HW1 5417   0.122   2.207   3.347
  685SOL    HW2 5418   0.192   2.098   3.446
  686SOL     OW 5419   1.632   3.239   1.943
  686SOL    HW1 5420   1.600   3.333   1.933
  686SOL    HW2 5421   1.556   3.176   1.931
  687SOL     OW 5422   0.464   3.605   2.185
  687SOL    HW1 5423   0.497   3.644   2.271
  687SOL    HW2 5424   0.540   3.598   2.120
  688SOL     OW 5425   1.400   1.969   2.288
  688SOL    HW1 5426   1.376   1.932   2.198
  688SOL    HW2 5427   1.499   1.985   2.292
  689SOL     OW 5428   0.940   3.560   2.766
  689SOL    HW1 5429   1.020   3.503   2.787
  689SOL    HW2 5430   0.891   3.520   2.689
  690SOL     OW 5431   0.382   2.562   2.342
  690SOL    HW1 5432   0.427   2.472   2.339
  690SOL    HW2 5433   0.288   2.551   2.375
  691SOL     OW 5434   1.547   2.084   3.591
  691SOL    HW1 5435   1.542   2.121   3.683
  691SOL    HW2 5436   1.475   2.015   3.579
  692SOL     OW 5437   0.781   2.126   3.611
  692SOL    HW1 5438   0.848   2.065   3.654
  692SOL    HW2 5439   0.708   2.145   3.676
  693SOL     OW 5440   1.351   2.452   3.295
  693SOL    HW1 5441   1.379   2.409   3.380
  693SOL    HW2 5442   1.376   2.548   3.296
  694SOL     OW 5443   0.539   1.926   2.374
  694SOL    HW1 5444   0.458   1.927   2.432
  694SOL    HW2 5445   0.542   2.009   2.319
  695SOL     OW 5446   1.434   3.050   1.903
  695SOL    HW1 5447   1.466   2.974   1.960
  695SOL    HW2 5448   1.342   3.077   1.933
  696SOL     OW 5449   1.076   2.545   3.326
  696SOL    HW1 5450   0.996   2.484   3.329
  696SOL    HW2 5451   1.157   2.492   3.302
  697SOL     OW 5452   1.227   3.432   2.655
  697SOL    HW1 5453   1.248   3.506   2.590
  697SOL    HW2 5454   1.295   3.432   2.728
  698SOL     OW 5455   0.459   3.014   2.603
  698SOL    HW1 5456   0.388   2.987   2.668
  698SOL    HW2 5457   0.433   2.986   2.510
  699SOL     OW 5458   1.271   3.659   2.453
  699SOL    HW1 5459   1.315   3.723   2.389
  699SOL    HW2 5460   1.221   3.711   2.523
  700SOL     OW 5461   0.078   2.418   3.248
  700SOL    HW1 5462   0.170   2.417   3.207
  700SOL    HW2 5463   0.072   2.492   3.315
  701SOL     OW 5464   0.561   2.084   3.009
  701SOL    HW1 5465   0.599   2.000   3.046
  701SOL    HW2 5466   0.473   2.103   3.053
  702SOL     OW 5467   0.866   2.316   2.504
  702SOL    HW1 5468   0.834   2.388   2.442
  702SOL    HW2 5469   0.890   2.235   2.451
  703SOL     OW 5470   1.017   1.901   2.615
  703SOL    HW1 5471   0.945   1.906   2.546
  703SOL    HW2 5472   0.993   1.832   2.684
  704SOL     OW 5473   1.429   3.035   2.729
  704SOL    HW1 5474   1.374   2.951   2.722
  704SOL    HW2 5475   1.455   3.064   2.637
  705SOL     OW 5476   1.466   2.452   2.854
  705SOL    HW1 5477   1.436   2.357   2.861
  705SOL    HW2 5478   1.539   2.468   2.920
  706SOL     OW 5479   0.488   3.247   2.036
  706SOL    HW1 5480   0.401   3.232   2.083
  706SOL    HW2 5481   0.471   3.273   1.941
  707SOL     OW 5482   1.664   3.142   2.519
  707SOL    HW1 5483   1.763   3.150   2.533
  707SOL    HW2 5484   1.619   3.226   2.550
  708SOL     OW 5485   1.390   2.437   1.940
  708SOL    HW1 5486   1.336   2.416   2.021
  708SOL    HW2 5487   1.481   2.396   1.949
  709SOL     OW 5488   0.527   2.118   2.190
  709SOL    HW1 5489   0.554   2.059   2.115
  709SOL    HW2 5490   0.527   2.213   2.159
  710SOL     OW 5491   1.592   3.491   3.487
  710SOL    HW1 5492   1.619   3.525   3.397
  710SOL    HW2 5493   1.671   3.453   3.533
  711SOL     OW 5494   0.915   1.951   3.264
  711SOL    HW1 5495   0.940   1.931   3.169
  711SOL    HW2 5496   0.987   2.007   3.306
  712SOL     OW 5497   0.980   2.978   3.581
  712SOL    HW1 5498   0.881   2.984   3.591
  712SOL    HW2 5499   1.003   2.898   3.525
  713SOL     OW 5500   0.705   2.912   2.230
  713SOL    HW1 5501   0.691   2.919   2.329
  713SOL    HW2 5502   0.789   2.861   2.212
  714SOL     OW 5503   0.410   2.675   3.113
  714SOL    HW1 5504   0.496   2.687   3.163
  714SOL    HW2 5505   0.368   2.588   3.140
  715SOL     OW 5506   1.274   2.248   3.124
  715SOL    HW1 5507   1.295   2.322   3.188
  715SOL    HW2 5508   1.185   2.265   3.081
  716SOL     OW 5509   0.064   3.426   3.193
  716SOL    HW1 5510   0.018   3.508   3.159
  716SOL    HW2 5511   0.162   3.445   3.202
  717SOL     OW 5512   0.367   2.962   2.363
  717SOL    HW1 5513   0.360   3.045   2.307
  717SOL    HW2 5514   0.371   2.882   2.303
  718SOL     OW 5515   1.252   3.210   2.250
  718SOL    HW1 5516   1.302   3.287   2.290
  718SOL    HW2 5517   1.157   3.212   2.282
  719SOL     OW 5518   1.582   2.501   2.334
  719SOL    HW1 5519   1.551   2.562   2.407
  719SOL    HW2 5520   1.632   2.553   2.265
  720SOL     OW 5521   0.402   2.613   3.460
  720SOL    HW1 5522   0.470   2.668   3.413
  720SOL    HW2 5523   0.442   2.525   3.487
  721SOL     OW 5524   1.587   2.641   3.532
  721SOL    HW1 5525   1.495   2.679   3.527
  721SOL    HW2 5526   1.647   2.688   3.467
  722SOL     OW 5527   1.013   1.967   3.632
  722SOL    HW1 5528   1.019   2.052   3.580
  722SOL    HW2 5529   1.045   1.891   3.575
  723SOL     OW 5530   0.573   2.732   2.891
  723SOL    HW1 5531   0.617   2.821   2.882
  723SOL    HW2 5532   0.510   2.732   2.968
  724SOL     OW 5533   1.360   2.724   2.907
  724SOL    HW1 5534   1.285   2.724   2.841
  724SOL    HW2 5535   1.397   2.632   2.916
  725SOL     OW 5536   1.209   2.387   2.137
  725SOL    HW1 5537   1.222   2.303   2.191
  725SOL    HW2 5538   1.180   2.461   2.197
  726SOL     OW 5539   0.307   2.075   3.093
  726SOL    HW1 5540   0.284   2.112   3.183
  726SOL    HW2 5541   0.277   1.980   3.087
  727SOL     OW 5542   1.728   2.797   3.716
  727SOL    HW1 5543   1.682   2.790   3.627
  727SOL    HW2 5544   1.666   2.841   3.782
  728SOL     OW 5545   0.307   1.925   2.480
  728SOL    HW1 5546   0.296   2.019   2.513
  728SOL    HW2 5547   0.302   1.862   2.557
  729SOL     OW 5548   1.622   2.229   2.236
  729SOL    HW1 5549   1.624   2.153   2.300
  729SOL    HW2 5550   1.574   2.306   2.276
  730SOL     OW 5551   1.023   2.628   2.828
  730SOL    HW1 5552   1.038   2.649   2.924
  730SOL    HW2 5553   0.993   2.533   2.819
  731SOL     OW 5554   0.980   3.435   3.562
  731SOL    HW1 5555   0.960   3.479   3.474
  731SOL    HW2 5556   1.019   3.344   3.546
  732SOL     OW 5557   1.859   3.380   3.467
  732SOL    HW1 5558   1.873   3.407   3.372
  732SOL    HW2 5559   1.942   3.402   3.520
  733SOL     OW 5560   0.350   2.760   3.666
  733SOL    HW1 5561   0.426   2.804   3.714
  733SOL    HW2 5562   0.385   2.713   3.584
  734SOL     OW 5563   1.540   2.136   1.987
  734SOL    HW1 5564   1.479   2.061   2.010
  734SOL    HW2 5565   1.562   2.188   2.070
  735SOL     OW 5566   1.303   2.700   1.904
  735SOL    HW1 5567   1.337   2.607   1.919
  735SOL    HW2 5568   1.321   2.727   1.809
  736SOL     OW 5569   1.068   3.195   2.711
  736SOL    HW1 5570   1.075   3.111   2.656
  736SOL    HW2 5571   1.130   3.264   2.675
  737SOL     OW 5572   1.138   2.242   3.540
  737SOL    HW1 5573   1.093   2.305   3.604
  737SOL    HW2 5574   1.231   2.273   3.523
  738SOL     OW 5575   1.160   2.069   3.339
  738SOL    HW1 5576   1.160   2.133   3.416
  738SOL    HW2 5577   1.188   2.117   3.256
  739SOL     OW 5578   0.504   3.430   2.772
  739SOL    HW1 5579   0.570   3.504   2.781
  739SOL    HW2 5580   0.548   3.351   2.730
  740SOL     OW 5581   1.002   2.658   3.100
  740SOL    HW1 5582   1.043   2.626   3.186
  740SOL    HW2 5583   0.906   2.631   3.097
  741SOL     OW 5584   0.040   2.406   2.976
  741SOL    HW1 5585   0.125   2.373   2.935
  741SOL    HW2 5586   0.053   2.421   3.074
  742SOL     OW 5587   0.189   2.382   3.584
  742SOL    HW1 5588   0.248   2.342   3.514
  742SOL    HW2 5589   0.131   2.453   3.543
  743SOL     OW 5590   0.815   2.434   2.187
  743SOL    HW1 5591   0.822   2.345   2.141
  743SOL    HW2 5592   0.721   2.468   2.179
  744SOL     OW 5593   1.657   2.466   3.068
  744SOL    HW1 5594   1.619   2.397   3.130
  744SOL    HW2 5595   1.739   2.430   3.024
  745SOL     OW 5596   0.671   2.326   3.131
  745SOL    HW1 5597   0.637   2.237   3.101
  745SOL    HW2 5598   0.697   2.380   3.051
  746SOL     OW 5599   0.930   3.540   3.327
  746SOL    HW1 5600   0.906   3.522   3.232
  746SOL    HW2 5601   0.960   3.634   3.337
  747SOL     OW 5602   0.473   2.362   2.053
  747SOL    HW1 5603   0.534   2.442   2.057
  747SOL    HW2 5604   0.378   2.393   2.060
  748SOL     OW 5605   1.302   2.717   2.171
  748SOL    HW1 5606   1.216   2.686   2.213
  748SOL    HW2 5607   1.298   2.703   2.072
  749SOL     OW 5608   1.759   3.609   3.016
  749SOL    HW1 5609   1.820   3.639   2.943
  749SOL    HW2 5610   1.721   3.520   2.994
  750SOL     OW 5611   1.726   1.997   2.385
  750SOL    HW1 5612   1.799   1.980   2.318
  750SOL    HW2 5613   1.695   1.910   2.423
  751SOL     OW 5614   1.388   3.435   2.339
  751SOL    HW1 5615   1.455   3.447   2.265
  751SOL    HW2 5616   1.348   3.524   2.362
  752SOL     OW 5617   0.130   3.656   3.713
  752SOL    HW1 5618   0.089   3.582   3.766
  752SOL    HW2 5619   0.194   3.707   3.771
  753SOL     OW 5620   1.280   2.789   2.534
  753SOL    HW1 5621   1.340   2.708   2.536
  753SOL    HW2 5622   1.320   2.858   2.474
  754SOL     OW 5623   0.830   3.135   3.284
  754SOL    HW1 5624   0.825   3.168   3.379
  754SOL    HW2 5625   0.744   3.154   3.238
  755SOL     OW 5626   0.672   3.478   2.016
  755SOL    HW1 5627   0.681   3.488   1.917
  755SOL    HW2 5628   0.632   3.389   2.037
  756SOL     OW 5629   1.650   3.582   3.256
  756SOL    HW1 5630   1.703   3.592   3.172
  756SOL    HW2 5631   1.623   3.672   3.290
  757SOL     OW 5632   1.841   2.037   2.825
  757SOL    HW1 5633   1.880   1.952   2.789
  757SOL    HW2 5634   1.743   2.039   2.806
  758SOL     OW 5635   1.194   3.474   1.893
  758SOL    HW1 5636   1.200   3.381   1.930
  758SOL    HW2 5637   1.135   3.474   1.813
  759SOL     OW 5638   0.822   2.864   3.234
  759SOL    HW1 5639   0.862   2.863   3.142
  759SOL    HW2 5640   0.832   2.956   3.274
  760SOL     OW 5641   0.916   2.772   2.153
  760SOL    HW1 5642   0.979   2.810   2.085
  760SOL    HW2 5643   0.956   2.689   2.192
  761SOL     OW 5644   1.504   3.469   1.906
  761SOL    HW1 5645   1.412   3.506   1.913
  761SOL    HW2 5646   1.542   3.489   1.816
  762SOL     OW 5647   1.039   2.960   2.558
  762SOL    HW1 5648   0.969   2.913   2.612
  762SOL    HW2 5649   1.098   2.892   2.515
  763SOL     OW 5650   0.590   3.349   2.353
  763SOL    HW1 5651   0.632   3.291   2.283
  763SOL    HW2 5652   0.546   3.428   2.309
  764SOL     OW 5653   1.709   2.247   3.243
  764SOL    HW1 5654   1.782   2.316   3.247
  764SOL    HW2 5655   1.737   2.172   3.184
  765SOL     OW 5656   0.255   3.210   2.152
  765SOL    HW1 5657   0.159   3.211   2.125
  765SOL    HW2 5658   0.267   3.263   2.236
  766SOL     OW 5659   0.105   2.875   3.588
  766SOL    HW1 5660   0.028   2.842   3.642
  766SOL    HW2 5661   0.190   2.845   3.630
  767SOL     OW 5662   0.672   2.065   3.351
  767SOL    HW1 5663   0.762   2.049   3.311
  767SOL    HW2 5664   0.680   2.070   3.450
  768SOL     OW 5665   0.075   2.207   1.895
  768SOL    HW1 5666  -0.017   2.179   1.866
  768SOL    HW2 5667   0.106   2.284   1.839
  769SOL     OW 5668   1.440   2.718   3.260
  769SOL    HW1 5669   1.383   2.770   3.197
  769SOL    HW2 5670   1.536   2.730   3.236
  770SOL     OW 5671   1.183   3.197   1.981
  770SOL    HW1 5672   1.084   3.186   1.983
  770SOL    HW2 5673   1.217   3.212   2.074
  771SOL     OW 5674   0.613   2.704   3.293
  771SOL    HW1 5675   0.669   2.785   3.276
  771SOL    HW2 5676   0.672   2.624   3.296
  772SOL     OW 5677   1.493   3.629   2.821
  772SOL    HW1 5678   1.526   3.693   2.752
  772SOL    HW2 5679   1.559   3.623   2.896
  773SOL     OW 5680   0.716   2.427   3.570
  773SOL    HW1 5681   0.735   2.492   3.644
  773SOL    HW2 5682   0.776   2.347   3.579
  774SOL     OW 5683   1.674   2.745   3.116
  774SOL    HW1 5684   1.647   2.656   3.079
  774SOL    HW2 5685   1.675   2.813   3.043
  775SOL     OW 5686   1.225   2.187   2.311
  775SOL    HW1 5687   1.290   2.113   2.300
  775SOL    HW2 5688   1.245   2.237   2.395
  776SOL     OW 5689   0.594   2.607   2.514
  776SOL    HW1 5690   0.644   2.692   2.495
  776SOL    HW2 5691   0.506   2.609   2.466
  777SOL     OW 5692   1.730   2.796   3.379
  777SOL    HW1 5693   1.768   2.887   3.394
  777SOL    HW2 5694   1.722   2.779   3.280
  778SOL     OW 5695   0.859   3.236   1.878
  778SOL    HW1 5696   0.813   3.251   1.966
  778SOL    HW2 5697   0.903   3.321   1.848
  779SOL     OW 5698   0.661   3.652   2.815
  779SOL    HW1 5699   0.615   3.740   2.802
  779SOL    HW2 5700   0.760   3.664   2.808
  780SOL     OW 5701   0.859   2.818   2.723
  780SOL    HW1 5702   0.913   2.749   2.771
  780SOL    HW2 5703   0.827   2.887   2.789
  781SOL     OW 5704   1.083   2.846   1.949
  781SOL    HW1 5705   1.060   2.899   1.867
  781SOL    HW2 5706   1.164   2.790   1.930
  782SOL     OW 5707   1.861   3.431   2.713
  782SOL    HW1 5708   1.790   3.419   2.643
  782SOL    HW2 5709   1.862   3.352   2.773
  783SOL     OW 5710   0.221   3.176   3.706
  783SOL    HW1 5711   0.156   3.103   3.685
  783SOL    HW2 5712   0.225   3.190   3.804
  784SOL     OW 5713   1.824   2.054   3.089
  784SOL    HW1 5714   1.820   1.964   3.133
  784SOL    HW2 5715   1.827   2.043   2.990
  785SOL     OW 5716   0.428   2.286   2.382
  785SOL    HW1 5717   0.458   2.214   2.320
  785SOL    HW2 5718   0.389   2.246   2.465
  786SOL     OW 5719   0.317   2.409   3.142
  786SOL    HW1 5720   0.355   2.350   3.214
  786SOL    HW2 5721   0.357   2.383   3.054
  787SOL     OW 5722   0.812   3.448   2.549
  787SOL    HW1 5723   0.844   3.458   2.455
  787SOL    HW2 5724   0.733   3.386   2.551
  788SOL     OW 5725   1.424   2.076   2.974
  788SOL    HW1 5726   1.476   2.011   3.029
  788SOL    HW2 5727   1.375   2.139   3.035
  789SOL     OW 5728   1.001   1.896   3.016
  789SOL    HW1 5729   0.938   1.824   2.985
  789SOL    HW2 5730   1.094   1.860   3.016
  790SOL     OW 5731   0.770   3.192   2.163
  790SOL    HW1 5732   0.724   3.105   2.180
  790SOL    HW2 5733   0.861   3.189   2.204
  791SOL     OW 5734   0.618   3.429   3.146
  791SOL    HW1 5735   0.613   3.511   3.203
  791SOL    HW2 5736   0.707   3.426   3.101
  792SOL     OW 5737   1.352   1.914   2.030
  792SOL    HW1 5738   1.387   1.873   1.946
  792SOL    HW2 5739   1.262   1.876   2.050
  793SOL     OW 5740   1.300   2.315   2.553
  793SOL    HW1 5741   1.241   2.395   2.557
  793SOL    HW2 5742   1.315   2.280   2.646
  794SOL     OW 5743   1.593   2.083   2.744
  794SOL    HW1 5744   1.509   2.082   2.798
  794SOL    HW2 5745   1.595   2.166   2.688
  795SOL     OW 5746   0.039   2.939   2.162
  795SOL    HW1 5747   0.138   2.928   2.153
  795SOL    HW2 5748  -0.001   2.853   2.194
  796SOL     OW 5749   0.875   3.508   2.199
  796SOL    HW1 5750   0.798   3.473   2.145
  796SOL    HW2 5751   0.843   3.579   2.261
  797SOL     OW 5752   0.230   2.490   3.837
  797SOL    HW1 5753   0.137   2.488   3.874
  797SOL    HW2 5754   0.231   2.451   3.745
  798SOL     OW 5755   0.019   2.230   4.371
  798SOL    HW1 5756  -0.063   2.273   4.410
  798SOL    HW2 5757  -0.009   2.157   4.308
  799SOL     OW 5758   0.569   3.137   4.889
  799SOL    HW1 5759   0.476   3.130   4.852
  799SOL    HW2 5760   0.580   3.226   4.933
  800SOL     OW 5761   1.555   3.373   4.427
  800SOL    HW1 5762   1.498   3.357   4.508
  800SOL    HW2 5763   1.496   3.383   4.347
  801SOL     OW 5764   1.755   2.469   3.955
  801SOL    HW1 5765   1.743   2.456   3.856
  801SOL    HW2 5766   1.725   2.388   4.004
  802SOL     OW 5767   0.768   3.006   4.747
  802SOL    HW1 5768   0.690   3.023   4.807
  802SOL    HW2 5769   0.802   3.093   4.711
  803SOL     OW 5770   0.685   2.874   4.389
  803SOL    HW1 5771   0.754   2.858   4.459
  803SOL    HW2 5772   0.612   2.931   4.427
  804SOL     OW 5773   1.603   2.309   4.461
  804SOL    HW1 5774   1.529   2.355   4.411
  804SOL    HW2 5775   1.654   2.377   4.514
  805SOL     OW 5776   0.231   3.575   4.207
  805SOL    HW1 5777   0.265   3.652   4.261
  805SOL    HW2 5778   0.275   3.575   4.117
  806SOL     OW 5779   0.230   3.296   4.262
  806SOL    HW1 5780   0.204   3.392   4.262
  806SOL    HW2 5781   0.159   3.242   4.307
  807SOL     OW 5782   0.240   2.953   4.610
  807SOL    HW1 5783   0.254   2.869   4.662
  807SOL    HW2 5784   0.185   3.017   4.665
  808SOL     OW 5785   0.620   3.648   5.163
  808SOL    HW1 5786   0.528   3.631   5.198
  808SOL    HW2 5787   0.648   3.740   5.189
  809SOL     OW 5788   0.606   2.826   3.847
  809SOL    HW1 5789   0.613   2.910   3.793
  809SOL    HW2 5790   0.652   2.839   3.935
  810SOL     OW 5791   0.122   2.505   4.287
  810SOL    HW1 5792   0.077   2.417   4.304
  810SOL    HW2 5793   0.121   2.559   4.371
  811SOL     OW 5794   1.842   3.629   4.083
  811SOL    HW1 5795   1.896   3.600   4.163
  811SOL    HW2 5796   1.872   3.719   4.054
  812SOL     OW 5797   0.027   3.458   3.841
  812SOL    HW1 5798   0.008   3.362   3.862
  812SOL    HW2 5799  -0.006   3.516   3.916
  813SOL     OW 5800   1.641   2.970   4.156
  813SOL    HW1 5801   1.727   2.972   4.104
  813SOL    HW2 5802   1.655   3.017   4.244
  814SOL     OW 5803   0.613   3.227   4.450
  814SOL    HW1 5804   0.564   3.140   4.459
  814SOL    HW2 5805   0.590   3.270   4.363
  815SOL     OW 5806   0.197   2.838   4.988
  815SOL    HW1 5807   0.286   2.793   4.974
  815SOL    HW2 5808   0.124   2.773   4.969
  816SOL     OW 5809   1.525   2.861   3.914
  816SOL    HW1 5810   1.462   2.785   3.927
  816SOL    HW2 5811   1.573   2.879   4.000
  817SOL     OW 5812   1.667   3.576   4.296
  817SOL    HW1 5813   1.626   3.553   4.208
  817SOL    HW2 5814   1.649   3.502   4.361
  818SOL     OW 5815   0.598   2.591   3.994
  818SOL    HW1 5816   0.622   2.660   3.926
  818SOL    HW2 5817   0.520   2.624   4.048
  819SOL     OW 5818   0.991   2.272   4.966
  819SOL    HW1 5819   0.914   2.306   5.020
  819SOL    HW2 5820   0.957   2.221   4.887
  820SOL     OW 5821   0.076   2.673   4.513
  820SOL    HW1 5822   0.175   2.661   4.522
  820SOL    HW2 5823   0.052   2.768   4.534
  821SOL     OW 5824   0.865   2.210   3.919
  821SOL    HW1 5825   0.924   2.273   3.870
  821SOL    HW2 5826   0.884   2.116   3.890
  822SOL     OW 5827   1.008   3.318   4.201
  822SOL    HW1 5828   0.962   3.390   4.149
  822SOL    HW2 5829   1.004   3.338   4.299
  823SOL     OW 5830   0.351   3.663   4.577
  823SOL    HW1 5831   0.401   3.577   4.583
  823SOL    HW2 5832   0.416   3.740   4.574
  824SOL     OW 5833   0.321   2.805   3.966
  824SOL    HW1 5834   0.403   2.844   3.924
  824SOL    HW2 5835   0.294   2.723   3.917
  825SOL     OW 5836   1.111   3.638   3.961
  825SOL    HW1 5837   1.051   3.576   4.011
  825SOL    HW2 5838   1.142   3.594   3.876
  826SOL     OW 5839   1.632   3.239   3.805
  826SOL    HW1 5840   1.600   3.333   3.795
  826SOL    HW2 5841   1.556   3.176   3.793
  827SOL     OW 5842   1.400   1.969   4.150
  827SOL    HW1 5843   1.376   1.932   4.060
  827SOL    HW2 5844   1.499   1.985   4.154
  828SOL     OW 5845   0.940   3.560   4.628
  828SOL    HW1 5846   1.020   3.503   4.649
  828SOL    HW2 5847   0.891   3.520   4.551
  829SOL     OW 5848   0.382   2.562   4.204
  829SOL    HW1 5849   0.427   2.472   4.201
  829SOL    HW2 5850   0.288   2.551   4.237
  830SOL     OW 5851   0.614   1.984   3.841
  830SOL    HW1 5852   0.712   1.962   3.848
  830SOL    HW2 5853   0.583   1.967   3.748
  831SOL     OW 5854   0.922   2.365   4.623
  831SOL    HW1 5855   0.897   2.356   4.527
  831SOL    HW2 5856   0.970   2.283   4.654
  832SOL     OW 5857   0.539   1.926   4.236
  832SOL    HW1 5858   0.458   1.927   4.294
  832SOL    HW2 5859   0.542   2.009   4.181
  833SOL     OW 5860   1.227   3.432   4.517
  833SOL    HW1 5861   1.248   3.506   4.452
  833SOL    HW2 5862   1.295   3.432   4.590
  834SOL     OW 5863   0.459   3.014   4.465
  834SOL    HW1 5864   0.388   2.987   4.530
  834SOL    HW2 5865   0.433   2.986   4.372
  835SOL     OW 5866   1.271   3.659   4.315
  835SOL    HW1 5867   1.315   3.723   4.251
  835SOL    HW2 5868   1.221   3.711   4.385
  836SOL     OW 5869   1.032   2.411   3.740
  836SOL    HW1 5870   0.991   2.493   3.701
  836SOL    HW2 5871   1.096   2.437   3.813
  837SOL     OW 5872   1.466   2.452   4.716
  837SOL    HW1 5873   1.436   2.357   4.723
  837SOL    HW2 5874   1.539   2.468   4.782
  838SOL     OW 5875   1.857   2.695   4.101
  838SOL    HW1 5876   1.899   2.631   4.165
  838SOL    HW2 5877   1.819   2.644   4.023
  839SOL     OW 5878   1.390   2.437   3.802
  839SOL    HW1 5879   1.336   2.416   3.883
  839SOL    HW2 5880   1.481   2.396   3.811
  840SOL     OW 5881   1.111   3.057   4.824
  840SOL    HW1 5882   1.071   3.101   4.905
  840SOL    HW2 5883   1.070   3.094   4.741
  841SOL     OW 5884   0.705   2.912   4.092
  841SOL    HW1 5885   0.691   2.919   4.191
  841SOL    HW2 5886   0.789   2.861   4.074
  842SOL     OW 5887   0.410   2.675   4.975
  842SOL    HW1 5888   0.496   2.687   5.025
  842SOL    HW2 5889   0.368   2.588   5.002
  843SOL     OW 5890   1.274   2.248   4.986
  843SOL    HW1 5891   1.295   2.322   5.050
  843SOL    HW2 5892   1.185   2.265   4.943
  844SOL     OW 5893   0.367   2.962   4.225
  844SOL    HW1 5894   0.360   3.045   4.169
  844SOL    HW2 5895   0.371   2.882   4.165
  845SOL     OW 5896   1.582   2.501   4.196
  845SOL    HW1 5897   1.551   2.562   4.269
  845SOL    HW2 5898   1.632   2.553   4.127
  846SOL     OW 5899   0.573   2.732   4.753
  846SOL    HW1 5900   0.617   2.821   4.744
  846SOL    HW2 5901   0.510   2.732   4.830
  847SOL     OW 5902   1.360   2.724   4.769
  847SOL    HW1 5903   1.285   2.724   4.703
  847SOL    HW2 5904   1.397   2.632   4.778
  848SOL     OW 5905   1.209   2.387   3.999
  848SOL    HW1 5906   1.222   2.303   4.053
  848SOL    HW2 5907   1.180   2.461   4.059
  849SOL     OW 5908   0.732   2.496   4.788
  849SOL    HW1 5909   0.791   2.470   4.712
  849SOL    HW2 5910   0.704   2.592   4.777
  850SOL     OW 5911   0.307   1.925   4.342
  850SOL    HW1 5912   0.296   2.019   4.375
  850SOL    HW2 5913   0.302   1.862   4.419
  851SOL     OW 5914   1.622   2.229   4.098
  851SOL    HW1 5915   1.624   2.153   4.162
  851SOL    HW2 5916   1.574   2.306   4.138
  852SOL     OW 5917   1.023   2.628   4.690
  852SOL    HW1 5918   1.038   2.649   4.786
  852SOL    HW2 5919   0.993   2.533   4.681
  853SOL     OW 5920   1.540   2.136   3.849
  853SOL    HW1 5921   1.479   2.061   3.872
  853SOL    HW2 5922   1.562   2.188   3.932
  854SOL     OW 5923   1.303   2.700   3.766
  854SOL    HW1 5924   1.337   2.607   3.781
  854SOL    HW2 5925   1.321   2.727   3.671
  855SOL     OW 5926   0.319   2.672   4.673
  855SOL    HW1 5927   0.412   2.708   4.678
  855SOL    HW2 5928   0.313   2.587   4.725
  856SOL     OW 5929   0.339   2.371   4.730
  856SOL    HW1 5930   0.287   2.288   4.713
  856SOL    HW2 5931   0.416   2.376   4.666
  857SOL     OW 5932   1.160   2.069   5.201
  857SOL    HW1 5933   1.160   2.133   5.278
  857SOL    HW2 5934   1.188   2.117   5.118
  858SOL     OW 5935   0.008   3.188   3.924
  858SOL    HW1 5936  -0.085   3.209   3.893
  858SOL    HW2 5937   0.018   3.089   3.937
  859SOL     OW 5938   0.504   3.430   4.634
  859SOL    HW1 5939   0.570   3.504   4.643
  859SOL    HW2 5940   0.548   3.351   4.592
  860SOL     OW 5941   1.002   2.658   4.962
  860SOL    HW1 5942   1.043   2.626   5.048
  860SOL    HW2 5943   0.906   2.631   4.959
  861SOL     OW 5944   0.040   2.406   4.838
  861SOL    HW1 5945   0.125   2.373   4.797
  861SOL    HW2 5946   0.053   2.421   4.936
  862SOL     OW 5947   1.657   2.466   4.930
  862SOL    HW1 5948   1.619   2.397   4.992
  862SOL    HW2 5949   1.739   2.430   4.886
  863SOL     OW 5950   0.671   2.326   4.993
  863SOL    HW1 5951   0.637   2.237   4.963
  863SOL    HW2 5952   0.697   2.380   4.913
  864SOL     OW 5953   0.930   3.540   5.189
  864SOL    HW1 5954   0.906   3.522   5.094
  864SOL    HW2 5955   0.960   3.634   5.199
  865SOL     OW 5956   1.302   2.717   4.033
  865SOL    HW1 5957   1.216   2.686   4.075
  865SOL    HW2 5958   1.298   2.703   3.934
  866SOL     OW 5959   0.083   3.120   4.746
  866SOL    HW1 5960   0.078   3.119   4.846
  866SOL    HW2 5961   0.000   3.079   4.708
  867SOL     OW 5962   1.280   2.789   4.396
  867SOL    HW1 5963   1.340   2.708   4.398
  867SOL    HW2 5964   1.320   2.858   4.336
  868SOL     OW 5965   1.841   2.037   4.687
  868SOL    HW1 5966   1.880   1.952   4.651
  868SOL    HW2 5967   1.743   2.039   4.668
  869SOL     OW 5968   0.263   2.188   4.444
  869SOL    HW1 5969   0.184   2.239   4.410
  869SOL    HW2 5970   0.254   2.173   4.542
  870SOL     OW 5971   1.194   3.474   3.755
  870SOL    HW1 5972   1.200   3.381   3.792
  870SOL    HW2 5973   1.135   3.474   3.675
  871SOL     OW 5974   0.916   2.772   4.015
  871SOL    HW1 5975   0.979   2.810   3.947
  871SOL    HW2 5976   0.956   2.689   4.054
  872SOL     OW 5977   1.504   3.469   3.768
  872SOL    HW1 5978   1.412   3.506   3.775
  872SOL    HW2 5979   1.542   3.489   3.678
  873SOL     OW 5980   1.039   2.960   4.420
  873SOL    HW1 5981   0.969   2.913   4.474
  873SOL    HW2 5982   1.098   2.892   4.377
  874SOL     OW 5983   1.014   2.098   4.695
  874SOL    HW1 5984   1.006   2.062   4.602
  874SOL    HW2 5985   1.012   2.022   4.760
  875SOL     OW 5986   1.709   2.247   5.105
  875SOL    HW1 5987   1.782   2.316   5.109
  875SOL    HW2 5988   1.737   2.172   5.046
  876SOL     OW 5989   0.255   3.210   4.014
  876SOL    HW1 5990   0.159   3.211   3.987
  876SOL    HW2 5991   0.267   3.263   4.098
  877SOL     OW 5992   1.493   3.629   4.683
  877SOL    HW1 5993   1.526   3.693   4.614
  877SOL    HW2 5994   1.559   3.623   4.758
  878SOL     OW 5995   1.450   3.082   5.357
  878SOL    HW1 5996   1.441   3.072   5.456
  878SOL    HW2 5997   1.546   3.075   5.331
  879SOL     OW 5998   1.225   2.187   4.173
  879SOL    HW1 5999   1.290   2.113   4.162
  879SOL    HW2 6000   1.245   2.237   4.257
  880SOL     OW 6001   1.730   2.796   5.241
  880SOL    HW1 6002   1.768   2.887   5.256
  880SOL    HW2 6003   1.722   2.779   5.142
  881SOL     OW 6004   0.859   3.236   3.740
  881SOL    HW1 6005   0.813   3.251   3.828
  881SOL    HW2 6006   0.903   3.321   3.710
  882SOL     OW 6007   0.661   3.652   4.677
  882SOL    HW1 6008   0.615   3.740   4.664
  882SOL    HW2 6009   0.760   3.664   4.670
  883SOL     OW 6010   0.859   2.818   4.585
  883SOL    HW1 6011   0.913   2.749   4.633
  883SOL    HW2 6012   0.827   2.887   4.651
  884SOL     OW 6013   1.083   2.846   3.811
  884SOL    HW1 6014   1.060   2.899   3.729
  884SOL    HW2 6015   1.164   2.790   3.792
  885SOL     OW 6016   1.861   3.431   4.575
  885SOL    HW1 6017   1.790   3.419   4.505
  885SOL    HW2 6018   1.862   3.352   4.635
  886SOL     OW 6019   0.079   3.102   4.377
  886SOL    HW1 6020   0.078   3.055   4.465
  886SOL    HW2 6021   0.161   3.074   4.326
  887SOL     OW 6022   1.824   2.054   4.951
  887SOL    HW1 6023   1.820   1.964   4.995
  887SOL    HW2 6024   1.827   2.043   4.852
  888SOL     OW 6025   0.812   3.448   4.411
  888SOL    HW1 6026   0.844   3.458   4.317
  888SOL    HW2 6027   0.733   3.386   4.413
  889SOL     OW 6028   1.424   2.076   4.836
  889SOL    HW1 6029   1.476   2.011   4.891
  889SOL    HW2 6030   1.375   2.139   4.897
  890SOL     OW 6031   1.001   1.896   4.878
  890SOL    HW1 6032   0.938   1.824   4.847
  890SOL    HW2 6033   1.094   1.860   4.878
  891SOL     OW 6034   1.352   1.914   3.892
  891SOL    HW1 6035   1.387   1.873   3.808
  891SOL    HW2 6036   1.262   1.876   3.912
  892SOL     OW 6037   1.593   2.083   4.606
  892SOL    HW1 6038   1.509   2.082   4.660
  892SOL    HW2 6039   1.595   2.166   4.550
  893SOL     OW 6040   0.039   2.939   4.024
  893SOL    HW1 6041   0.138   2.928   4.015
  893SOL    HW2 6042  -0.001   2.853   4.056
  894SOL     OW 6043   0.875   3.508   4.061
  894SOL    HW1 6044   0.798   3.473   4.007
  894SOL    HW2 6045   0.843   3.579   4.123
  895SOL     OW 6046   0.230   4.352   0.113
  895SOL    HW1 6047   0.137   4.350   0.150
  895SOL    HW2 6048   0.231   4.313   0.021
  896SOL     OW 6049   0.225   3.999   0.996
  896SOL    HW1 6050   0.260   3.982   1.088
  896SOL    HW2 6051   0.137   3.954   0.984
  897SOL     OW 6052   0.019   4.092   0.647
  897SOL    HW1 6053  -0.063   4.135   0.686
  897SOL    HW2 6054  -0.009   4.019   0.584
  898SOL     OW 6055   0.569   4.999   1.165
  898SOL    HW1 6056   0.476   4.992   1.128
  898SOL    HW2 6057   0.580   5.088   1.209
  899SOL     OW 6058   1.555   5.235   0.703
  899SOL    HW1 6059   1.498   5.219   0.784
  899SOL    HW2 6060   1.496   5.245   0.623
  900SOL     OW 6061   1.135   4.427   0.717
  900SOL    HW1 6062   1.192   4.505   0.692
  900SOL    HW2 6063   1.075   4.453   0.793
  901SOL     OW 6064   1.755   4.331   0.231
  901SOL    HW1 6065   1.743   4.318   0.132
  901SOL    HW2 6066   1.725   4.250   0.280
  902SOL     OW 6067   0.768   4.868   1.023
  902SOL    HW1 6068   0.690   4.885   1.083
  902SOL    HW2 6069   0.802   4.955   0.987
  903SOL     OW 6070   0.850   4.522   1.823
  903SOL    HW1 6071   0.846   4.598   1.888
  903SOL    HW2 6072   0.872   4.558   1.732
  904SOL     OW 6073   0.686   4.885   1.803
  904SOL    HW1 6074   0.746   4.964   1.817
  904SOL    HW2 6075   0.600   4.916   1.762
  905SOL     OW 6076   0.335   5.159   1.061
  905SOL    HW1 6077   0.257   5.128   1.008
  905SOL    HW2 6078   0.393   5.217   1.004
  906SOL     OW 6079   0.438   4.116   1.499
  906SOL    HW1 6080   0.520   4.060   1.508
  906SOL    HW2 6081   0.357   4.058   1.503
  907SOL     OW 6082   1.603   4.171   0.737
  907SOL    HW1 6083   1.529   4.217   0.687
  907SOL    HW2 6084   1.654   4.239   0.790
  908SOL     OW 6085   1.594   3.838   1.480
  908SOL    HW1 6086   1.576   3.905   1.408
  908SOL    HW2 6087   1.591   3.884   1.569
  909SOL     OW 6088   0.122   4.367   0.563
  909SOL    HW1 6089   0.077   4.279   0.580
  909SOL    HW2 6090   0.121   4.421   0.647
  910SOL     OW 6091   1.689   4.646   0.612
  910SOL    HW1 6092   1.784   4.617   0.620
  910SOL    HW2 6093   1.681   4.711   0.537
  911SOL     OW 6094   1.641   4.832   0.432
  911SOL    HW1 6095   1.727   4.834   0.380
  911SOL    HW2 6096   1.655   4.879   0.520
  912SOL     OW 6097   0.113   4.461   1.597
  912SOL    HW1 6098   0.201   4.448   1.642
  912SOL    HW2 6099   0.100   4.558   1.575
  913SOL     OW 6100   1.293   4.952   1.423
  913SOL    HW1 6101   1.330   4.879   1.365
  913SOL    HW2 6102   1.345   4.957   1.508
  914SOL     OW 6103   0.809   3.728   0.502
  914SOL    HW1 6104   0.849   3.819   0.493
  914SOL    HW2 6105   0.709   3.736   0.508
  915SOL     OW 6106   0.317   3.975   1.801
  915SOL    HW1 6107   0.388   4.046   1.807
  915SOL    HW2 6108   0.229   4.014   1.829
  916SOL     OW 6109   1.466   5.141   0.953
  916SOL    HW1 6110   1.407   5.147   1.033
  916SOL    HW2 6111   1.451   5.053   0.907
  917SOL     OW 6112   0.598   4.453   0.270
  917SOL    HW1 6113   0.622   4.522   0.202
  917SOL    HW2 6114   0.520   4.486   0.324
  918SOL     OW 6115   1.281   4.069   0.944
  918SOL    HW1 6116   1.195   4.019   0.931
  918SOL    HW2 6117   1.343   4.015   1.000
  919SOL     OW 6118   1.394   4.193   1.674
  919SOL    HW1 6119   1.374   4.236   1.762
  919SOL    HW2 6120   1.472   4.131   1.683
  920SOL     OW 6121   0.973   4.614   1.572
  920SOL    HW1 6122   1.019   4.530   1.543
  920SOL    HW2 6123   0.917   4.648   1.497
  921SOL     OW 6124   0.991   4.134   1.242
  921SOL    HW1 6125   0.914   4.168   1.296
  921SOL    HW2 6126   0.957   4.083   1.163
  922SOL     OW 6127   1.041   4.425   0.429
  922SOL    HW1 6128   1.067   4.421   0.525
  922SOL    HW2 6129   0.956   4.374   0.415
  923SOL     OW 6130   1.362   4.868   0.545
  923SOL    HW1 6131   1.445   4.839   0.497
  923SOL    HW2 6132   1.313   4.935   0.489
  924SOL     OW 6133   0.550   3.920   0.885
  924SOL    HW1 6134   0.545   3.915   0.985
  924SOL    HW2 6135   0.552   4.016   0.856
  925SOL     OW 6136   1.795   4.790   0.873
  925SOL    HW1 6137   1.733   4.775   0.797
  925SOL    HW2 6138   1.743   4.801   0.958
  926SOL     OW 6139   0.321   4.667   0.242
  926SOL    HW1 6140   0.403   4.706   0.200
  926SOL    HW2 6141   0.294   4.585   0.193
  927SOL     OW 6142   1.458   4.459   0.728
  927SOL    HW1 6143   1.453   4.394   0.803
  927SOL    HW2 6144   1.538   4.518   0.741
  928SOL     OW 6145   1.400   3.831   0.426
  928SOL    HW1 6146   1.376   3.794   0.336
  928SOL    HW2 6147   1.499   3.847   0.430
  929SOL     OW 6148   0.382   4.424   0.480
  929SOL    HW1 6149   0.427   4.334   0.477
  929SOL    HW2 6150   0.288   4.413   0.513
  930SOL     OW 6151   1.547   3.946   1.729
  930SOL    HW1 6152   1.542   3.983   1.821
  930SOL    HW2 6153   1.475   3.877   1.717
  931SOL     OW 6154   1.351   4.314   1.433
  931SOL    HW1 6155   1.379   4.271   1.518
  931SOL    HW2 6156   1.376   4.410   1.434
  932SOL     OW 6157   0.922   4.227   0.899
  932SOL    HW1 6158   0.897   4.218   0.803
  932SOL    HW2 6159   0.970   4.145   0.930
  933SOL     OW 6160   0.539   3.788   0.512
  933SOL    HW1 6161   0.458   3.789   0.570
  933SOL    HW2 6162   0.542   3.871   0.457
  934SOL     OW 6163   0.297   3.759   0.171
  934SOL    HW1 6164   0.346   3.843   0.150
  934SOL    HW2 6165   0.359   3.694   0.216
  935SOL     OW 6166   0.935   3.960   0.480
  935SOL    HW1 6167   0.887   4.001   0.402
  935SOL    HW2 6168   1.034   3.958   0.461
  936SOL     OW 6169   1.076   4.407   1.464
  936SOL    HW1 6170   0.996   4.346   1.467
  936SOL    HW2 6171   1.157   4.354   1.440
  937SOL     OW 6172   0.078   4.280   1.386
  937SOL    HW1 6173   0.170   4.279   1.345
  937SOL    HW2 6174   0.072   4.354   1.453
  938SOL     OW 6175   0.561   3.946   1.147
  938SOL    HW1 6176   0.599   3.862   1.184
  938SOL    HW2 6177   0.473   3.965   1.191
  939SOL     OW 6178   0.866   4.178   0.642
  939SOL    HW1 6179   0.834   4.250   0.580
  939SOL    HW2 6180   0.890   4.097   0.589
  940SOL     OW 6181   1.017   3.763   0.753
  940SOL    HW1 6182   0.945   3.768   0.684
  940SOL    HW2 6183   0.993   3.694   0.822
  941SOL     OW 6184   1.429   4.897   0.867
  941SOL    HW1 6185   1.374   4.813   0.860
  941SOL    HW2 6186   1.455   4.926   0.775
  942SOL     OW 6187   1.466   4.314   0.992
  942SOL    HW1 6188   1.436   4.219   0.999
  942SOL    HW2 6189   1.539   4.330   1.058
  943SOL     OW 6190   1.664   5.004   0.657
  943SOL    HW1 6191   1.763   5.012   0.671
  943SOL    HW2 6192   1.619   5.088   0.688
  944SOL     OW 6193   0.527   3.980   0.328
  944SOL    HW1 6194   0.554   3.921   0.253
  944SOL    HW2 6195   0.527   4.075   0.297
  945SOL     OW 6196   1.754   4.947   1.588
  945SOL    HW1 6197   1.845   4.908   1.575
  945SOL    HW2 6198   1.762   5.043   1.612
  946SOL     OW 6199   1.638   4.823   1.079
  946SOL    HW1 6200   1.643   4.904   1.138
  946SOL    HW2 6201   1.552   4.825   1.028
  947SOL     OW 6202   0.915   3.813   1.402
  947SOL    HW1 6203   0.940   3.793   1.307
  947SOL    HW2 6204   0.987   3.869   1.444
  948SOL     OW 6205   0.980   4.840   1.719
  948SOL    HW1 6206   0.881   4.846   1.729
  948SOL    HW2 6207   1.003   4.760   1.663
  949SOL     OW 6208   1.274   4.110   1.262
  949SOL    HW1 6209   1.295   4.184   1.326
  949SOL    HW2 6210   1.185   4.127   1.219
  950SOL     OW 6211   0.566   4.261   0.865
  950SOL    HW1 6212   0.578   4.327   0.791
  950SOL    HW2 6213   0.612   4.295   0.948
  951SOL     OW 6214   1.582   4.363   0.472
  951SOL    HW1 6215   1.551   4.424   0.545
  951SOL    HW2 6216   1.632   4.415   0.403
  952SOL     OW 6217   0.504   3.774   1.740
  952SOL    HW1 6218   0.462   3.717   1.670
  952SOL    HW2 6219   0.438   3.843   1.772
  953SOL     OW 6220   1.360   4.586   1.045
  953SOL    HW1 6221   1.285   4.586   0.979
  953SOL    HW2 6222   1.397   4.494   1.054
  954SOL     OW 6223   0.307   3.937   1.231
  954SOL    HW1 6224   0.284   3.974   1.321
  954SOL    HW2 6225   0.277   3.842   1.225
  955SOL     OW 6226   0.037   5.034   1.282
  955SOL    HW1 6227   0.090   4.985   1.350
  955SOL    HW2 6228   0.059   5.132   1.287
  956SOL     OW 6229   0.732   4.358   1.064
  956SOL    HW1 6230   0.791   4.332   0.988
  956SOL    HW2 6231   0.704   4.454   1.053
  957SOL     OW 6232   0.307   3.787   0.618
  957SOL    HW1 6233   0.296   3.881   0.651
  957SOL    HW2 6234   0.302   3.724   0.695
  958SOL     OW 6235   1.622   4.091   0.374
  958SOL    HW1 6236   1.624   4.015   0.438
  958SOL    HW2 6237   1.574   4.168   0.414
  959SOL     OW 6238   1.023   4.490   0.966
  959SOL    HW1 6239   1.038   4.511   1.062
  959SOL    HW2 6240   0.993   4.395   0.957
  960SOL     OW 6241   1.859   5.242   1.605
  960SOL    HW1 6242   1.873   5.269   1.510
  960SOL    HW2 6243   1.942   5.264   1.658
  961SOL     OW 6244   0.350   4.622   1.804
  961SOL    HW1 6245   0.426   4.666   1.852
  961SOL    HW2 6246   0.385   4.575   1.722
  962SOL     OW 6247   0.339   4.233   1.006
  962SOL    HW1 6248   0.287   4.150   0.989
  962SOL    HW2 6249   0.416   4.238   0.942
  963SOL     OW 6250   0.008   5.050   0.200
  963SOL    HW1 6251  -0.085   5.071   0.169
  963SOL    HW2 6252   0.018   4.951   0.213
  964SOL     OW 6253   1.002   4.520   1.238
  964SOL    HW1 6254   1.043   4.488   1.324
  964SOL    HW2 6255   0.906   4.493   1.235
  965SOL     OW 6256   0.040   4.268   1.114
  965SOL    HW1 6257   0.125   4.235   1.073
  965SOL    HW2 6258   0.053   4.283   1.212
  966SOL     OW 6259   0.189   4.244   1.722
  966SOL    HW1 6260   0.248   4.204   1.652
  966SOL    HW2 6261   0.131   4.315   1.681
  967SOL     OW 6262   0.815   4.296   0.325
  967SOL    HW1 6263   0.822   4.207   0.279
  967SOL    HW2 6264   0.721   4.330   0.317
  968SOL     OW 6265   0.671   4.188   1.269
  968SOL    HW1 6266   0.637   4.099   1.239
  968SOL    HW2 6267   0.697   4.242   1.189
  969SOL     OW 6268   0.473   4.224   0.191
  969SOL    HW1 6269   0.534   4.304   0.195
  969SOL    HW2 6270   0.378   4.255   0.198
  970SOL     OW 6271   0.159   4.861   1.466
  970SOL    HW1 6272   0.181   4.800   1.542
  970SOL    HW2 6273   0.169   4.812   1.380
  971SOL     OW 6274   1.347   4.783   1.234
  971SOL    HW1 6275   1.371   4.720   1.160
  971SOL    HW2 6276   1.257   4.823   1.216
  972SOL     OW 6277   0.083   4.982   1.022
  972SOL    HW1 6278   0.078   4.981   1.122
  972SOL    HW2 6279   0.000   4.941   0.984
  973SOL     OW 6280   0.903   3.810   0.133
  973SOL    HW1 6281   0.954   3.811   0.047
  973SOL    HW2 6282   0.959   3.768   0.204
  974SOL     OW 6283   1.280   4.651   0.672
  974SOL    HW1 6284   1.340   4.570   0.674
  974SOL    HW2 6285   1.320   4.720   0.612
  975SOL     OW 6286   0.830   4.997   1.422
  975SOL    HW1 6287   0.825   5.030   1.517
  975SOL    HW2 6288   0.744   5.016   1.376
  976SOL     OW 6289   1.841   3.899   0.963
  976SOL    HW1 6290   1.880   3.814   0.927
  976SOL    HW2 6291   1.743   3.901   0.944
  977SOL     OW 6292   0.263   4.050   0.720
  977SOL    HW1 6293   0.184   4.101   0.686
  977SOL    HW2 6294   0.254   4.035   0.818
  978SOL     OW 6295   0.822   4.726   1.372
  978SOL    HW1 6296   0.862   4.725   1.280
  978SOL    HW2 6297   0.832   4.818   1.412
  979SOL     OW 6298   0.372   5.012   1.490
  979SOL    HW1 6299   0.359   5.105   1.456
  979SOL    HW2 6300   0.288   4.960   1.477
  980SOL     OW 6301   1.614   5.016   1.289
  980SOL    HW1 6302   1.674   5.019   1.369
  980SOL    HW2 6303   1.539   5.080   1.302
  981SOL     OW 6304   1.014   3.960   0.971
  981SOL    HW1 6305   1.006   3.924   0.878
  981SOL    HW2 6306   1.012   3.884   1.036
  982SOL     OW 6307   0.105   4.737   1.726
  982SOL    HW1 6308   0.028   4.704   1.780
  982SOL    HW2 6309   0.190   4.707   1.768
  983SOL     OW 6310   0.672   3.927   1.489
  983SOL    HW1 6311   0.762   3.911   1.449
  983SOL    HW2 6312   0.680   3.932   1.588
  984SOL     OW 6313   0.075   4.069   0.033
  984SOL    HW1 6314  -0.017   4.041   0.004
  984SOL    HW2 6315   0.106   4.146  -0.023
  985SOL     OW 6316   0.072   3.890   0.318
  985SOL    HW1 6317   0.055   3.973   0.264
  985SOL    HW2 6318   0.162   3.853   0.296
  986SOL     OW 6319   1.225   4.049   0.449
  986SOL    HW1 6320   1.290   3.975   0.438
  986SOL    HW2 6321   1.245   4.099   0.533
  987SOL     OW 6322   1.730   4.658   1.517
  987SOL    HW1 6323   1.768   4.749   1.532
  987SOL    HW2 6324   1.722   4.641   1.418
  988SOL     OW 6325   0.859   4.680   0.861
  988SOL    HW1 6326   0.913   4.611   0.909
  988SOL    HW2 6327   0.827   4.749   0.927
  989SOL     OW 6328   0.079   4.964   0.653
  989SOL    HW1 6329   0.078   4.917   0.741
  989SOL    HW2 6330   0.161   4.936   0.602
  990SOL     OW 6331   1.824   3.916   1.227
  990SOL    HW1 6332   1.820   3.826   1.271
  990SOL    HW2 6333   1.827   3.905   1.128
  991SOL     OW 6334   0.428   4.148   0.520
  991SOL    HW1 6335   0.458   4.076   0.458
  991SOL    HW2 6336   0.389   4.108   0.603
  992SOL     OW 6337   0.317   4.271   1.280
  992SOL    HW1 6338   0.355   4.212   1.352
  992SOL    HW2 6339   0.357   4.245   1.192
  993SOL     OW 6340   1.424   3.938   1.112
  993SOL    HW1 6341   1.476   3.873   1.167
  993SOL    HW2 6342   1.375   4.001   1.173
  994SOL     OW 6343   1.001   3.758   1.154
  994SOL    HW1 6344   0.938   3.686   1.123
  994SOL    HW2 6345   1.094   3.722   1.154
  995SOL     OW 6346   0.770   5.054   0.301
  995SOL    HW1 6347   0.724   4.967   0.318
  995SOL    HW2 6348   0.861   5.051   0.342
  996SOL     OW 6349   1.300   4.177   0.691
  996SOL    HW1 6350   1.241   4.257   0.695
  996SOL    HW2 6351   1.315   4.142   0.784
  997SOL     OW 6352   1.593   3.945   0.882
  997SOL    HW1 6353   1.509   3.944   0.936
  997SOL    HW2 6354   1.595   4.028   0.826
  998SOL     OW 6355   0.039   4.801   0.300
  998SOL    HW1 6356   0.138   4.790   0.291
  998SOL    HW2 6357  -0.001   4.715   0.332
  999SOL     OW 6358   0.230   4.352   1.975
  999SOL    HW1 6359   0.137   4.350   2.012
  999SOL    HW2 6360   0.231   4.313   1.883
 1000SOL     OW 6361   0.019   4.092   2.509
 1000SOL    HW1 6362  -0.063   4.135   2.548
 1000SOL    HW2 6363  -0.009   4.019   2.446
 1001SOL     OW 6364   1.135   4.427   2.579
 1001SOL    HW1 6365   1.192   4.505   2.554
 1001SOL    HW2 6366   1.075   4.453   2.655
 1002SOL     OW 6367   1.755   4.331   2.093
 1002SOL    HW1 6368   1.743   4.318   1.994
 1002SOL    HW2 6369   1.725   4.250   2.142
 1003SOL     OW 6370   0.850   4.522   3.685
 1003SOL    HW1 6371   0.846   4.598   3.750
 1003SOL    HW2 6372   0.872   4.558   3.594
 1004SOL     OW 6373   0.685   4.736   2.527
 1004SOL    HW1 6374   0.754   4.720   2.597
 1004SOL    HW2 6375   0.612   4.793   2.565
 1005SOL     OW 6376   0.686   4.885   3.665
 1005SOL    HW1 6377   0.746   4.964   3.679
 1005SOL    HW2 6378   0.600   4.916   3.624
 1006SOL     OW 6379   0.335   5.159   2.923
 1006SOL    HW1 6380   0.257   5.128   2.870
 1006SOL    HW2 6381   0.393   5.217   2.866
 1007SOL     OW 6382   0.438   4.116   3.361
 1007SOL    HW1 6383   0.520   4.060   3.370
 1007SOL    HW2 6384   0.357   4.058   3.365
 1008SOL     OW 6385   1.603   4.171   2.599
 1008SOL    HW1 6386   1.529   4.217   2.549
 1008SOL    HW2 6387   1.654   4.239   2.652
 1009SOL     OW 6388   0.240   4.815   2.748
 1009SOL    HW1 6389   0.254   4.731   2.800
 1009SOL    HW2 6390   0.185   4.879   2.803
 1010SOL     OW 6391   0.122   4.367   2.425
 1010SOL    HW1 6392   0.077   4.279   2.442
 1010SOL    HW2 6393   0.121   4.421   2.509
 1011SOL     OW 6394   1.689   4.646   2.474
 1011SOL    HW1 6395   1.784   4.617   2.482
 1011SOL    HW2 6396   1.681   4.711   2.399
 1012SOL     OW 6397   1.641   4.832   2.294
 1012SOL    HW1 6398   1.727   4.834   2.242
 1012SOL    HW2 6399   1.655   4.879   2.382
 1013SOL     OW 6400   0.113   4.461   3.459
 1013SOL    HW1 6401   0.201   4.448   3.504
 1013SOL    HW2 6402   0.100   4.558   3.437
 1014SOL     OW 6403   0.809   3.728   2.364
 1014SOL    HW1 6404   0.849   3.819   2.355
 1014SOL    HW2 6405   0.709   3.736   2.370
 1015SOL     OW 6406   1.281   4.069   2.806
 1015SOL    HW1 6407   1.195   4.019   2.793
 1015SOL    HW2 6408   1.343   4.015   2.862
 1016SOL     OW 6409   0.991   4.134   3.104
 1016SOL    HW1 6410   0.914   4.168   3.158
 1016SOL    HW2 6411   0.957   4.083   3.025
 1017SOL     OW 6412   1.041   4.425   2.291
 1017SOL    HW1 6413   1.067   4.421   2.387
 1017SOL    HW2 6414   0.956   4.374   2.277
 1018SOL     OW 6415   0.076   4.535   2.651
 1018SOL    HW1 6416   0.175   4.523   2.660
 1018SOL    HW2 6417   0.052   4.630   2.672
 1019SOL     OW 6418   1.362   4.868   2.407
 1019SOL    HW1 6419   1.445   4.839   2.359
 1019SOL    HW2 6420   1.313   4.935   2.351
 1020SOL     OW 6421   0.550   3.920   2.747
 1020SOL    HW1 6422   0.545   3.915   2.847
 1020SOL    HW2 6423   0.552   4.016   2.718
 1021SOL     OW 6424   1.795   4.790   2.735
 1021SOL    HW1 6425   1.733   4.775   2.659
 1021SOL    HW2 6426   1.743   4.801   2.820
 1022SOL     OW 6427   0.321   4.667   2.104
 1022SOL    HW1 6428   0.403   4.706   2.062
 1022SOL    HW2 6429   0.294   4.585   2.055
 1023SOL     OW 6430   1.458   4.459   2.590
 1023SOL    HW1 6431   1.453   4.394   2.665
 1023SOL    HW2 6432   1.538   4.518   2.603
 1024SOL     OW 6433   0.202   4.009   3.360
 1024SOL    HW1 6434   0.122   4.069   3.347
 1024SOL    HW2 6435   0.192   3.960   3.446
 1025SOL     OW 6436   1.632   5.101   1.943
 1025SOL    HW1 6437   1.600   5.195   1.933
 1025SOL    HW2 6438   1.556   5.038   1.931
 1026SOL     OW 6439   1.400   3.831   2.288
 1026SOL    HW1 6440   1.376   3.794   2.198
 1026SOL    HW2 6441   1.499   3.847   2.292
 1027SOL     OW 6442   0.382   4.424   2.342
 1027SOL    HW1 6443   0.427   4.334   2.339
 1027SOL    HW2 6444   0.288   4.413   2.375
 1028SOL     OW 6445   1.547   3.946   3.591
 1028SOL    HW1 6446   1.542   3.983   3.683
 1028SOL    HW2 6447   1.475   3.877   3.579
 1029SOL     OW 6448   0.614   3.846   1.979
 1029SOL    HW1 6449   0.712   3.824   1.986
 1029SOL    HW2 6450   0.583   3.829   1.886
 1030SOL     OW 6451   0.781   3.988   3.611
 1030SOL    HW1 6452   0.848   3.927   3.654
 1030SOL    HW2 6453   0.708   4.007   3.676
 1031SOL     OW 6454   0.803   5.126   2.786
 1031SOL    HW1 6455   0.893   5.140   2.744
 1031SOL    HW2 6456   0.732   5.128   2.715
 1032SOL     OW 6457   0.922   4.227   2.761
 1032SOL    HW1 6458   0.897   4.218   2.665
 1032SOL    HW2 6459   0.970   4.145   2.792
 1033SOL     OW 6460   0.539   3.788   2.374
 1033SOL    HW1 6461   0.458   3.789   2.432
 1033SOL    HW2 6462   0.542   3.871   2.319
 1034SOL     OW 6463   0.297   3.759   2.033
 1034SOL    HW1 6464   0.346   3.843   2.012
 1034SOL    HW2 6465   0.359   3.694   2.078
 1035SOL     OW 6466   0.935   3.960   2.342
 1035SOL    HW1 6467   0.887   4.001   2.264
 1035SOL    HW2 6468   1.034   3.958   2.323
 1036SOL     OW 6469   1.076   4.407   3.326
 1036SOL    HW1 6470   0.996   4.346   3.329
 1036SOL    HW2 6471   1.157   4.354   3.302
 1037SOL     OW 6472   0.459   4.876   2.603
 1037SOL    HW1 6473   0.388   4.849   2.668
 1037SOL    HW2 6474   0.433   4.848   2.510
 1038SOL     OW 6475   1.032   4.273   1.878
 1038SOL    HW1 6476   0.991   4.355   1.839
 1038SOL    HW2 6477   1.096   4.299   1.951
 1039SOL     OW 6478   0.561   3.946   3.009
 1039SOL    HW1 6479   0.599   3.862   3.046
 1039SOL    HW2 6480   0.473   3.965   3.053
 1040SOL     OW 6481   0.866   4.178   2.504
 1040SOL    HW1 6482   0.834   4.250   2.442
 1040SOL    HW2 6483   0.890   4.097   2.451
 1041SOL     OW 6484   1.017   3.763   2.615
 1041SOL    HW1 6485   0.945   3.768   2.546
 1041SOL    HW2 6486   0.993   3.694   2.684
 1042SOL     OW 6487   1.466   4.314   2.854
 1042SOL    HW1 6488   1.436   4.219   2.861
 1042SOL    HW2 6489   1.539   4.330   2.920
 1043SOL     OW 6490   1.857   4.557   2.239
 1043SOL    HW1 6491   1.899   4.493   2.303
 1043SOL    HW2 6492   1.819   4.506   2.161
 1044SOL     OW 6493   1.664   5.004   2.519
 1044SOL    HW1 6494   1.763   5.012   2.533
 1044SOL    HW2 6495   1.619   5.088   2.550
 1045SOL     OW 6496   1.390   4.299   1.940
 1045SOL    HW1 6497   1.336   4.278   2.021
 1045SOL    HW2 6498   1.481   4.258   1.949
 1046SOL     OW 6499   0.527   3.980   2.190
 1046SOL    HW1 6500   0.554   3.921   2.115
 1046SOL    HW2 6501   0.527   4.075   2.159
 1047SOL     OW 6502   1.754   4.947   3.450
 1047SOL    HW1 6503   1.845   4.908   3.437
 1047SOL    HW2 6504   1.762   5.043   3.474
 1048SOL     OW 6505   1.638   4.823   2.941
 1048SOL    HW1 6506   1.643   4.904   3.000
 1048SOL    HW2 6507   1.552   4.825   2.890
 1049SOL     OW 6508   0.915   3.813   3.264
 1049SOL    HW1 6509   0.940   3.793   3.169
 1049SOL    HW2 6510   0.987   3.869   3.306
 1050SOL     OW 6511   0.980   4.840   3.581
 1050SOL    HW1 6512   0.881   4.846   3.591
 1050SOL    HW2 6513   1.003   4.760   3.525
 1051SOL     OW 6514   0.705   4.774   2.230
 1051SOL    HW1 6515   0.691   4.781   2.329
 1051SOL    HW2 6516   0.789   4.723   2.212
 1052SOL     OW 6517   0.367   4.824   2.363
 1052SOL    HW1 6518   0.360   4.907   2.307
 1052SOL    HW2 6519   0.371   4.744   2.303
 1053SOL     OW 6520   0.566   4.261   2.727
 1053SOL    HW1 6521   0.578   4.327   2.653
 1053SOL    HW2 6522   0.612   4.295   2.810
 1054SOL     OW 6523   1.582   4.363   2.334
 1054SOL    HW1 6524   1.551   4.424   2.407
 1054SOL    HW2 6525   1.632   4.415   2.265
 1055SOL     OW 6526   0.402   4.475   3.460
 1055SOL    HW1 6527   0.470   4.530   3.413
 1055SOL    HW2 6528   0.442   4.387   3.487
 1056SOL     OW 6529   1.013   3.829   3.632
 1056SOL    HW1 6530   1.019   3.914   3.580
 1056SOL    HW2 6531   1.045   3.753   3.575
 1057SOL     OW 6532   1.360   4.586   2.907
 1057SOL    HW1 6533   1.285   4.586   2.841
 1057SOL    HW2 6534   1.397   4.494   2.916
 1058SOL     OW 6535   1.209   4.249   2.137
 1058SOL    HW1 6536   1.222   4.165   2.191
 1058SOL    HW2 6537   1.180   4.323   2.197
 1059SOL     OW 6538   0.037   5.034   3.144
 1059SOL    HW1 6539   0.090   4.985   3.212
 1059SOL    HW2 6540   0.059   5.132   3.149
 1060SOL     OW 6541   0.732   4.358   2.926
 1060SOL    HW1 6542   0.791   4.332   2.850
 1060SOL    HW2 6543   0.704   4.454   2.915
 1061SOL     OW 6544   1.728   4.659   3.716
 1061SOL    HW1 6545   1.682   4.652   3.627
 1061SOL    HW2 6546   1.666   4.703   3.782
 1062SOL     OW 6547   0.307   3.787   2.480
 1062SOL    HW1 6548   0.296   3.881   2.513
 1062SOL    HW2 6549   0.302   3.724   2.557
 1063SOL     OW 6550   1.622   4.091   2.236
 1063SOL    HW1 6551   1.624   4.015   2.300
 1063SOL    HW2 6552   1.574   4.168   2.276
 1064SOL     OW 6553   1.023   4.490   2.828
 1064SOL    HW1 6554   1.038   4.511   2.924
 1064SOL    HW2 6555   0.993   4.395   2.819
 1065SOL     OW 6556   1.859   5.242   3.467
 1065SOL    HW1 6557   1.873   5.269   3.372
 1065SOL    HW2 6558   1.942   5.264   3.520
 1066SOL     OW 6559   1.540   3.998   1.987
 1066SOL    HW1 6560   1.479   3.923   2.010
 1066SOL    HW2 6561   1.562   4.050   2.070
 1067SOL     OW 6562   1.138   4.104   3.540
 1067SOL    HW1 6563   1.093   4.167   3.604
 1067SOL    HW2 6564   1.231   4.135   3.523
 1068SOL     OW 6565   1.160   3.931   3.339
 1068SOL    HW1 6566   1.160   3.995   3.416
 1068SOL    HW2 6567   1.188   3.979   3.256
 1069SOL     OW 6568   0.008   5.050   2.062
 1069SOL    HW1 6569  -0.085   5.071   2.031
 1069SOL    HW2 6570   0.018   4.951   2.075
 1070SOL     OW 6571   1.002   4.520   3.100
 1070SOL    HW1 6572   1.043   4.488   3.186
 1070SOL    HW2 6573   0.906   4.493   3.097
 1071SOL     OW 6574   0.189   4.244   3.584
 1071SOL    HW1 6575   0.248   4.204   3.514
 1071SOL    HW2 6576   0.131   4.315   3.543
 1072SOL     OW 6577   0.671   4.188   3.131
 1072SOL    HW1 6578   0.637   4.099   3.101
 1072SOL    HW2 6579   0.697   4.242   3.051
 1073SOL     OW 6580   0.473   4.224   2.053
 1073SOL    HW1 6581   0.534   4.304   2.057
 1073SOL    HW2 6582   0.378   4.255   2.060
 1074SOL     OW 6583   0.159   4.861   3.328
 1074SOL    HW1 6584   0.181   4.800   3.404
 1074SOL    HW2 6585   0.169   4.812   3.242
 1075SOL     OW 6586   1.302   4.579   2.171
 1075SOL    HW1 6587   1.216   4.548   2.213
 1075SOL    HW2 6588   1.298   4.565   2.072
 1076SOL     OW 6589   0.083   4.982   2.884
 1076SOL    HW1 6590   0.078   4.981   2.984
 1076SOL    HW2 6591   0.000   4.941   2.846
 1077SOL     OW 6592   1.726   3.859   2.385
 1077SOL    HW1 6593   1.799   3.842   2.318
 1077SOL    HW2 6594   1.695   3.772   2.423
 1078SOL     OW 6595   1.280   4.651   2.534
 1078SOL    HW1 6596   1.340   4.570   2.536
 1078SOL    HW2 6597   1.320   4.720   2.474
 1079SOL     OW 6598   0.830   4.997   3.284
 1079SOL    HW1 6599   0.825   5.030   3.379
 1079SOL    HW2 6600   0.744   5.016   3.238
 1080SOL     OW 6601   1.841   3.899   2.825
 1080SOL    HW1 6602   1.880   3.814   2.789
 1080SOL    HW2 6603   1.743   3.901   2.806
 1081SOL     OW 6604   0.263   4.050   2.582
 1081SOL    HW1 6605   0.184   4.101   2.548
 1081SOL    HW2 6606   0.254   4.035   2.680
 1082SOL     OW 6607   1.194   5.336   1.893
 1082SOL    HW1 6608   1.200   5.243   1.930
 1082SOL    HW2 6609   1.135   5.336   1.813
 1083SOL     OW 6610   0.916   4.634   2.153
 1083SOL    HW1 6611   0.979   4.672   2.085
 1083SOL    HW2 6612   0.956   4.551   2.192
 1084SOL     OW 6613   1.039   4.822   2.558
 1084SOL    HW1 6614   0.969   4.775   2.612
 1084SOL    HW2 6615   1.098   4.754   2.515
 1085SOL     OW 6616   1.014   3.960   2.833
 1085SOL    HW1 6617   1.006   3.924   2.740
 1085SOL    HW2 6618   1.012   3.884   2.898
 1086SOL     OW 6619   1.709   4.109   3.243
 1086SOL    HW1 6620   1.782   4.178   3.247
 1086SOL    HW2 6621   1.737   4.034   3.184
 1087SOL     OW 6622   0.672   3.927   3.351
 1087SOL    HW1 6623   0.762   3.911   3.311
 1087SOL    HW2 6624   0.680   3.932   3.450
 1088SOL     OW 6625   0.075   4.069   1.895
 1088SOL    HW1 6626  -0.017   4.041   1.866
 1088SOL    HW2 6627   0.106   4.146   1.839
 1089SOL     OW 6628   0.716   4.289   3.570
 1089SOL    HW1 6629   0.735   4.354   3.644
 1089SOL    HW2 6630   0.776   4.209   3.579
 1090SOL     OW 6631   1.674   4.607   3.116
 1090SOL    HW1 6632   1.647   4.518   3.079
 1090SOL    HW2 6633   1.675   4.675   3.043
 1091SOL     OW 6634   1.225   4.049   2.311
 1091SOL    HW1 6635   1.290   3.975   2.300
 1091SOL    HW2 6636   1.245   4.099   2.395
 1092SOL     OW 6637   0.594   4.469   2.514
 1092SOL    HW1 6638   0.644   4.554   2.495
 1092SOL    HW2 6639   0.506   4.471   2.466
 1093SOL     OW 6640   1.777   4.066   3.504
 1093SOL    HW1 6641   1.760   4.097   3.410
 1093SOL    HW2 6642   1.693   4.029   3.542
 1094SOL     OW 6643   0.859   4.680   2.723
 1094SOL    HW1 6644   0.913   4.611   2.771
 1094SOL    HW2 6645   0.827   4.749   2.789
 1095SOL     OW 6646   1.083   4.708   1.949
 1095SOL    HW1 6647   1.060   4.761   1.867
 1095SOL    HW2 6648   1.164   4.652   1.930
 1096SOL     OW 6649   0.079   4.964   2.515
 1096SOL    HW1 6650   0.078   4.917   2.603
 1096SOL    HW2 6651   0.161   4.936   2.464
 1097SOL     OW 6652   1.824   3.916   3.089
 1097SOL    HW1 6653   1.820   3.826   3.133
 1097SOL    HW2 6654   1.827   3.905   2.990
 1098SOL     OW 6655   0.428   4.148   2.382
 1098SOL    HW1 6656   0.458   4.076   2.320
 1098SOL    HW2 6657   0.389   4.108   2.465
 1099SOL     OW 6658   1.001   3.758   3.016
 1099SOL    HW1 6659   0.938   3.686   2.985
 1099SOL    HW2 6660   1.094   3.722   3.016
 1100SOL     OW 6661   0.770   5.054   2.163
 1100SOL    HW1 6662   0.724   4.967   2.180
 1100SOL    HW2 6663   0.861   5.051   2.204
 1101SOL     OW 6664   1.352   3.776   2.030
 1101SOL    HW1 6665   1.387   3.735   1.946
 1101SOL    HW2 6666   1.262   3.738   2.050
 1102SOL     OW 6667   1.300   4.177   2.553
 1102SOL    HW1 6668   1.241   4.257   2.557
 1102SOL    HW2 6669   1.315   4.142   2.646
 1103SOL     OW 6670   0.039   4.801   2.162
 1103SOL    HW1 6671   0.138   4.790   2.153
 1103SOL    HW2 6672  -0.001   4.715   2.194
 1104SOL     OW 6673   0.230   4.352   3.837
 1104SOL    HW1 6674   0.137   4.350   3.874
 1104SOL    HW2 6675   0.231   4.313   3.745
 1105SOL     OW 6676   0.225   3.999   4.720
 1105SOL    HW1 6677   0.260   3.982   4.812
 1105SOL    HW2 6678   0.137   3.954   4.708
 1106SOL     OW 6679   0.019   4.092   4.371
 1106SOL    HW1 6680  -0.063   4.135   4.410
 1106SOL    HW2 6681  -0.009   4.019   4.308
 1107SOL     OW 6682   0.569   4.999   4.889
 1107SOL    HW1 6683   0.476   4.992   4.852
 1107SOL    HW2 6684   0.580   5.088   4.933
 1108SOL     OW 6685   1.135   4.427   4.441
 1108SOL    HW1 6686   1.192   4.505   4.416
 1108SOL    HW2 6687   1.075   4.453   4.517
 1109SOL     OW 6688   1.603   4.171   4.461
 1109SOL    HW1 6689   1.529   4.217   4.411
 1109SOL    HW2 6690   1.654   4.239   4.514
 1110SOL     OW 6691   0.240   4.815   4.610
 1110SOL    HW1 6692   0.254   4.731   4.662
 1110SOL    HW2 6693   0.185   4.879   4.665
 1111SOL     OW 6694   0.606   4.688   3.847
 1111SOL    HW1 6695   0.613   4.772   3.793
 1111SOL    HW2 6696   0.652   4.701   3.935
 1112SOL     OW 6697   0.122   4.367   4.287
 1112SOL    HW1 6698   0.077   4.279   4.304
 1112SOL    HW2 6699   0.121   4.421   4.371
 1113SOL     OW 6700   1.689   4.646   4.336
 1113SOL    HW1 6701   1.784   4.617   4.344
 1113SOL    HW2 6702   1.681   4.711   4.261
 1114SOL     OW 6703   1.641   4.832   4.156
 1114SOL    HW1 6704   1.727   4.834   4.104
 1114SOL    HW2 6705   1.655   4.879   4.244
 1115SOL     OW 6706   0.809   3.728   4.226
 1115SOL    HW1 6707   0.849   3.819   4.217
 1115SOL    HW2 6708   0.709   3.736   4.232
 1116SOL     OW 6709   0.197   4.700   4.988
 1116SOL    HW1 6710   0.286   4.655   4.974
 1116SOL    HW2 6711   0.124   4.635   4.969
 1117SOL     OW 6712   0.598   4.453   3.994
 1117SOL    HW1 6713   0.622   4.522   3.926
 1117SOL    HW2 6714   0.520   4.486   4.048
 1118SOL     OW 6715   0.076   4.535   4.513
 1118SOL    HW1 6716   0.175   4.523   4.522
 1118SOL    HW2 6717   0.052   4.630   4.534
 1119SOL     OW 6718   0.865   4.072   3.919
 1119SOL    HW1 6719   0.924   4.135   3.870
 1119SOL    HW2 6720   0.884   3.978   3.890
 1120SOL     OW 6721   1.362   4.868   4.269
 1120SOL    HW1 6722   1.445   4.839   4.221
 1120SOL    HW2 6723   1.313   4.935   4.213
 1121SOL     OW 6724   1.795   4.790   4.597
 1121SOL    HW1 6725   1.733   4.775   4.521
 1121SOL    HW2 6726   1.743   4.801   4.682
 1122SOL     OW 6727   0.321   4.667   3.966
 1122SOL    HW1 6728   0.403   4.706   3.924
 1122SOL    HW2 6729   0.294   4.585   3.917
 1123SOL     OW 6730   1.458   4.459   4.452
 1123SOL    HW1 6731   1.453   4.394   4.527
 1123SOL    HW2 6732   1.538   4.518   4.465
 1124SOL     OW 6733   1.632   5.101   3.805
 1124SOL    HW1 6734   1.600   5.195   3.795
 1124SOL    HW2 6735   1.556   5.038   3.793
 1125SOL     OW 6736   1.400   3.831   4.150
 1125SOL    HW1 6737   1.376   3.794   4.060
 1125SOL    HW2 6738   1.499   3.847   4.154
 1126SOL     OW 6739   0.382   4.424   4.204
 1126SOL    HW1 6740   0.427   4.334   4.201
 1126SOL    HW2 6741   0.288   4.413   4.237
 1127SOL     OW 6742   0.614   3.846   3.841
 1127SOL    HW1 6743   0.712   3.824   3.848
 1127SOL    HW2 6744   0.583   3.829   3.748
 1128SOL     OW 6745   1.434   4.912   3.765
 1128SOL    HW1 6746   1.466   4.836   3.822
 1128SOL    HW2 6747   1.342   4.939   3.795
 1129SOL     OW 6748   0.459   4.876   4.465
 1129SOL    HW1 6749   0.388   4.849   4.530
 1129SOL    HW2 6750   0.433   4.848   4.372
 1130SOL     OW 6751   1.032   4.273   3.740
 1130SOL    HW1 6752   0.991   4.355   3.701
 1130SOL    HW2 6753   1.096   4.299   3.813
 1131SOL     OW 6754   0.866   4.178   4.366
 1131SOL    HW1 6755   0.834   4.250   4.304
 1131SOL    HW2 6756   0.890   4.097   4.313
 1132SOL     OW 6757   1.017   3.763   4.477
 1132SOL    HW1 6758   0.945   3.768   4.408
 1132SOL    HW2 6759   0.993   3.694   4.546
 1133SOL     OW 6760   1.638   4.823   4.803
 1133SOL    HW1 6761   1.643   4.904   4.862
 1133SOL    HW2 6762   1.552   4.825   4.752
 1134SOL     OW 6763   0.705   4.774   4.092
 1134SOL    HW1 6764   0.691   4.781   4.191
 1134SOL    HW2 6765   0.789   4.723   4.074
 1135SOL     OW 6766   0.410   4.537   4.975
 1135SOL    HW1 6767   0.496   4.549   5.025
 1135SOL    HW2 6768   0.368   4.450   5.002
 1136SOL     OW 6769   0.573   4.594   4.753
 1136SOL    HW1 6770   0.617   4.683   4.744
 1136SOL    HW2 6771   0.510   4.594   4.830
 1137SOL     OW 6772   0.307   3.937   4.955
 1137SOL    HW1 6773   0.284   3.974   5.045
 1137SOL    HW2 6774   0.277   3.842   4.949
 1138SOL     OW 6775   0.037   5.034   5.006
 1138SOL    HW1 6776   0.090   4.985   5.074
 1138SOL    HW2 6777   0.059   5.132   5.011
 1139SOL     OW 6778   0.307   3.787   4.342
 1139SOL    HW1 6779   0.296   3.881   4.375
 1139SOL    HW2 6780   0.302   3.724   4.419
 1140SOL     OW 6781   1.023   4.490   4.690
 1140SOL    HW1 6782   1.038   4.511   4.786
 1140SOL    HW2 6783   0.993   4.395   4.681
 1141SOL     OW 6784   1.540   3.998   3.849
 1141SOL    HW1 6785   1.479   3.923   3.872
 1141SOL    HW2 6786   1.562   4.050   3.932
 1142SOL     OW 6787   0.319   4.534   4.673
 1142SOL    HW1 6788   0.412   4.570   4.678
 1142SOL    HW2 6789   0.313   4.449   4.725
 1143SOL     OW 6790   0.339   4.233   4.730
 1143SOL    HW1 6791   0.287   4.150   4.713
 1143SOL    HW2 6792   0.416   4.238   4.666
 1144SOL     OW 6793   1.160   3.931   5.201
 1144SOL    HW1 6794   1.160   3.995   5.278
 1144SOL    HW2 6795   1.188   3.979   5.118
 1145SOL     OW 6796   0.040   4.268   4.838
 1145SOL    HW1 6797   0.125   4.235   4.797
 1145SOL    HW2 6798   0.053   4.283   4.936
 1146SOL     OW 6799   0.815   4.296   4.049
 1146SOL    HW1 6800   0.822   4.207   4.003
 1146SOL    HW2 6801   0.721   4.330   4.041
 1147SOL     OW 6802   1.657   4.328   4.930
 1147SOL    HW1 6803   1.619   4.259   4.992
 1147SOL    HW2 6804   1.739   4.292   4.886
 1148SOL     OW 6805   0.473   4.224   3.915
 1148SOL    HW1 6806   0.534   4.304   3.919
 1148SOL    HW2 6807   0.378   4.255   3.922
 1149SOL     OW 6808   1.347   4.783   4.958
 1149SOL    HW1 6809   1.371   4.720   4.884
 1149SOL    HW2 6810   1.257   4.823   4.940
 1150SOL     OW 6811   0.083   4.982   4.746
 1150SOL    HW1 6812   0.078   4.981   4.846
 1150SOL    HW2 6813   0.000   4.941   4.708
 1151SOL     OW 6814   1.726   3.859   4.247
 1151SOL    HW1 6815   1.799   3.842   4.180
 1151SOL    HW2 6816   1.695   3.772   4.285
 1152SOL     OW 6817   1.280   4.651   4.396
 1152SOL    HW1 6818   1.340   4.570   4.398
 1152SOL    HW2 6819   1.320   4.720   4.336
 1153SOL     OW 6820   0.830   4.997   5.146
 1153SOL    HW1 6821   0.825   5.030   5.241
 1153SOL    HW2 6822   0.744   5.016   5.100
 1154SOL     OW 6823   0.263   4.050   4.444
 1154SOL    HW1 6824   0.184   4.101   4.410
 1154SOL    HW2 6825   0.254   4.035   4.542
 1155SOL     OW 6826   1.194   5.336   3.755
 1155SOL    HW1 6827   1.200   5.243   3.792
 1155SOL    HW2 6828   1.135   5.336   3.675
 1156SOL     OW 6829   0.822   4.726   5.096
 1156SOL    HW1 6830   0.862   4.725   5.004
 1156SOL    HW2 6831   0.832   4.818   5.136
 1157SOL     OW 6832   0.916   4.634   4.015
 1157SOL    HW1 6833   0.979   4.672   3.947
 1157SOL    HW2 6834   0.956   4.551   4.054
 1158SOL     OW 6835   1.709   4.109   5.105
 1158SOL    HW1 6836   1.782   4.178   5.109
 1158SOL    HW2 6837   1.737   4.034   5.046
 1159SOL     OW 6838   0.075   4.069   3.757
 1159SOL    HW1 6839  -0.017   4.041   3.728
 1159SOL    HW2 6840   0.106   4.146   3.701
 1160SOL     OW 6841   0.072   3.890   4.042
 1160SOL    HW1 6842   0.055   3.973   3.988
 1160SOL    HW2 6843   0.162   3.853   4.020
 1161SOL     OW 6844   0.594   4.469   4.376
 1161SOL    HW1 6845   0.644   4.554   4.357
 1161SOL    HW2 6846   0.506   4.471   4.328
 1162SOL     OW 6847   1.730   4.658   5.241
 1162SOL    HW1 6848   1.768   4.749   5.256
 1162SOL    HW2 6849   1.722   4.641   5.142
 1163SOL     OW 6850   0.079   4.964   4.377
 1163SOL    HW1 6851   0.078   4.917   4.465
 1163SOL    HW2 6852   0.161   4.936   4.326
 1164SOL     OW 6853   0.428   4.148   4.244
 1164SOL    HW1 6854   0.458   4.076   4.182
 1164SOL    HW2 6855   0.389   4.108   4.327
 1165SOL     OW 6856   1.001   3.758   4.878
 1165SOL    HW1 6857   0.938   3.686   4.847
 1165SOL    HW2 6858   1.094   3.722   4.878
 1166SOL     OW 6859   1.352   3.776   3.892
 1166SOL    HW1 6860   1.387   3.735   3.808
 1166SOL    HW2 6861   1.262   3.738   3.912
 1167SOL     OW 6862   1.300   4.177   4.415
 1167SOL    HW1 6863   1.241   4.257   4.419
 1167SOL    HW2 6864   1.315   4.142   4.508
 1168SOL     OW 6865   1.593   3.945   4.606
 1168SOL    HW1 6866   1.509   3.944   4.660
 1168SOL    HW2 6867   1.595   4.028   4.550
 1169SOL     OW 6868   2.431   1.275   1.165
 1169SOL    HW1 6869   2.338   1.268   1.128
 1169SOL    HW2 6870   2.442   1.364   1.209
 1170SOL     OW 6871   2.997   0.703   0.717
 1170SOL    HW1 6872   3.054   0.781   0.692
 1170SOL    HW2 6873   2.937   0.729   0.793
 1171SOL     OW 6874   3.617   0.607   0.231
 1171SOL    HW1 6875   3.605   0.594   0.132
 1171SOL    HW2 6876   3.587   0.526   0.280
 1172SOL     OW 6877   2.712   0.798   1.823
 1172SOL    HW1 6878   2.708   0.874   1.888
 1172SOL    HW2 6879   2.734   0.834   1.732
 1173SOL     OW 6880   2.547   1.012   0.665
 1173SOL    HW1 6881   2.616   0.996   0.735
 1173SOL    HW2 6882   2.474   1.069   0.703
 1174SOL     OW 6883   2.548   1.161   1.803
 1174SOL    HW1 6884   2.608   1.240   1.817
 1174SOL    HW2 6885   2.462   1.192   1.762
 1175SOL     OW 6886   2.197   1.435   1.061
 1175SOL    HW1 6887   2.119   1.404   1.008
 1175SOL    HW2 6888   2.255   1.493   1.004
 1176SOL     OW 6889   2.300   0.392   1.499
 1176SOL    HW1 6890   2.382   0.336   1.508
 1176SOL    HW2 6891   2.219   0.334   1.503
 1177SOL     OW 6892   3.465   0.447   0.737
 1177SOL    HW1 6893   3.391   0.493   0.687
 1177SOL    HW2 6894   3.516   0.515   0.790
 1178SOL     OW 6895   2.093   1.713   0.483
 1178SOL    HW1 6896   2.127   1.790   0.537
 1178SOL    HW2 6897   2.137   1.713   0.393
 1179SOL     OW 6898   2.989   1.341   1.690
 1179SOL    HW1 6899   3.036   1.341   1.778
 1179SOL    HW2 6900   2.941   1.254   1.679
 1180SOL     OW 6901   3.456   0.114   1.480
 1180SOL    HW1 6902   3.438   0.181   1.408
 1180SOL    HW2 6903   3.453   0.160   1.569
 1181SOL     OW 6904   3.704   1.767   0.359
 1181SOL    HW1 6905   3.758   1.738   0.439
 1181SOL    HW2 6906   3.734   1.857   0.330
 1182SOL     OW 6907   1.889   1.596   0.117
 1182SOL    HW1 6908   1.870   1.500   0.138
 1182SOL    HW2 6909   1.856   1.654   0.192
 1183SOL     OW 6910   3.551   0.922   0.612
 1183SOL    HW1 6911   3.646   0.893   0.620
 1183SOL    HW2 6912   3.543   0.987   0.537
 1184SOL     OW 6913   3.503   1.108   0.432
 1184SOL    HW1 6914   3.589   1.110   0.380
 1184SOL    HW2 6915   3.517   1.155   0.520
 1185SOL     OW 6916   3.155   1.228   1.423
 1185SOL    HW1 6917   3.192   1.155   1.365
 1185SOL    HW2 6918   3.207   1.233   1.508
 1186SOL     OW 6919   2.671   0.004   0.502
 1186SOL    HW1 6920   2.711   0.095   0.493
 1186SOL    HW2 6921   2.571   0.012   0.508
 1187SOL     OW 6922   3.387   0.999   0.190
 1187SOL    HW1 6923   3.324   0.923   0.203
 1187SOL    HW2 6924   3.435   1.017   0.276
 1188SOL     OW 6925   3.049   1.792   1.616
 1188SOL    HW1 6926   3.073   1.852   1.540
 1188SOL    HW2 6927   3.056   1.697   1.586
 1189SOL     OW 6928   2.179   0.251   1.801
 1189SOL    HW1 6929   2.250   0.322   1.807
 1189SOL    HW2 6930   2.091   0.290   1.829
 1190SOL     OW 6931   3.328   1.417   0.953
 1190SOL    HW1 6932   3.269   1.423   1.033
 1190SOL    HW2 6933   3.313   1.329   0.907
 1191SOL     OW 6934   3.529   1.714   0.572
 1191SOL    HW1 6935   3.488   1.691   0.484
 1191SOL    HW2 6936   3.511   1.640   0.637
 1192SOL     OW 6937   3.143   0.345   0.944
 1192SOL    HW1 6938   3.057   0.295   0.931
 1192SOL    HW2 6939   3.205   0.291   1.000
 1193SOL     OW 6940   3.438   1.662   0.307
 1193SOL    HW1 6941   3.527   1.708   0.310
 1193SOL    HW2 6942   3.417   1.638   0.212
 1194SOL     OW 6943   2.669   0.605   1.465
 1194SOL    HW1 6944   2.622   0.602   1.554
 1194SOL    HW2 6945   2.618   0.550   1.399
 1195SOL     OW 6946   3.256   0.469   1.674
 1195SOL    HW1 6947   3.236   0.512   1.762
 1195SOL    HW2 6948   3.334   0.407   1.683
 1196SOL     OW 6949   2.835   0.890   1.572
 1196SOL    HW1 6950   2.881   0.806   1.543
 1196SOL    HW2 6951   2.779   0.924   1.497
 1197SOL     OW 6952   2.903   0.701   0.429
 1197SOL    HW1 6953   2.929   0.697   0.525
 1197SOL    HW2 6954   2.818   0.650   0.415
 1198SOL     OW 6955   1.938   0.811   0.789
 1198SOL    HW1 6956   2.037   0.799   0.798
 1198SOL    HW2 6957   1.914   0.906   0.810
 1199SOL     OW 6958   1.992   1.821   1.571
 1199SOL    HW1 6959   1.982   1.806   1.670
 1199SOL    HW2 6960   1.906   1.857   1.535
 1200SOL     OW 6961   2.727   0.348   0.195
 1200SOL    HW1 6962   2.786   0.411   0.146
 1200SOL    HW2 6963   2.746   0.254   0.166
 1201SOL     OW 6964   2.213   1.801   0.853
 1201SOL    HW1 6965   2.263   1.715   0.859
 1201SOL    HW2 6966   2.278   1.878   0.850
 1202SOL     OW 6967   3.657   1.066   0.873
 1202SOL    HW1 6968   3.595   1.051   0.797
 1202SOL    HW2 6969   3.605   1.077   0.958
 1203SOL     OW 6970   3.089   1.550   1.506
 1203SOL    HW1 6971   3.095   1.473   1.570
 1203SOL    HW2 6972   3.037   1.524   1.426
 1204SOL     OW 6973   3.320   0.735   0.728
 1204SOL    HW1 6974   3.315   0.670   0.803
 1204SOL    HW2 6975   3.400   0.794   0.741
 1205SOL     OW 6976   2.323   1.266   1.727
 1205SOL    HW1 6977   2.273   1.267   1.641
 1205SOL    HW2 6978   2.260   1.248   1.803
 1206SOL     OW 6979   2.064   0.285   1.498
 1206SOL    HW1 6980   1.984   0.345   1.485
 1206SOL    HW2 6981   2.054   0.236   1.584
 1207SOL     OW 6982   3.494   1.377   0.081
 1207SOL    HW1 6983   3.462   1.471   0.071
 1207SOL    HW2 6984   3.418   1.314   0.069
 1208SOL     OW 6985   2.111   1.785   1.241
 1208SOL    HW1 6986   2.168   1.720   1.291
 1208SOL    HW2 6987   2.095   1.752   1.148
 1209SOL     OW 6988   2.802   1.698   0.904
 1209SOL    HW1 6989   2.882   1.641   0.925
 1209SOL    HW2 6990   2.753   1.658   0.827
 1210SOL     OW 6991   2.244   0.700   0.480
 1210SOL    HW1 6992   2.289   0.610   0.477
 1210SOL    HW2 6993   2.150   0.689   0.513
 1211SOL     OW 6994   3.409   0.222   1.729
 1211SOL    HW1 6995   3.404   0.259   1.821
 1211SOL    HW2 6996   3.337   0.153   1.717
 1212SOL     OW 6997   2.476   0.122   0.117
 1212SOL    HW1 6998   2.574   0.100   0.124
 1212SOL    HW2 6999   2.445   0.105   0.024
 1213SOL     OW 7000   2.750   1.514   1.195
 1213SOL    HW1 7001   2.727   1.489   1.101
 1213SOL    HW2 7002   2.811   1.445   1.234
 1214SOL     OW 7003   3.213   0.590   1.433
 1214SOL    HW1 7004   3.241   0.547   1.518
 1214SOL    HW2 7005   3.238   0.686   1.434
 1215SOL     OW 7006   2.401   0.064   0.512
 1215SOL    HW1 7007   2.320   0.065   0.570
 1215SOL    HW2 7008   2.404   0.147   0.457
 1216SOL     OW 7009   2.159   0.035   0.171
 1216SOL    HW1 7010   2.208   0.119   0.150
 1216SOL    HW2 7011   2.221  -0.030   0.216
 1217SOL     OW 7012   2.797   0.236   0.480
 1217SOL    HW1 7013   2.749   0.277   0.402
 1217SOL    HW2 7014   2.896   0.234   0.461
 1218SOL     OW 7015   2.938   0.683   1.464
 1218SOL    HW1 7016   2.858   0.622   1.467
 1218SOL    HW2 7017   3.019   0.630   1.440
 1219SOL     OW 7018   2.894   0.549   0.016
 1219SOL    HW1 7019   2.853   0.631  -0.023
 1219SOL    HW2 7020   2.958   0.575   0.089
 1220SOL     OW 7021   2.728   0.454   0.642
 1220SOL    HW1 7022   2.696   0.526   0.580
 1220SOL    HW2 7023   2.752   0.373   0.589
 1221SOL     OW 7024   2.879   0.039   0.753
 1221SOL    HW1 7025   2.807   0.044   0.684
 1221SOL    HW2 7026   2.855  -0.030   0.822
 1222SOL     OW 7027   3.291   1.173   0.867
 1222SOL    HW1 7028   3.236   1.089   0.860
 1222SOL    HW2 7029   3.317   1.202   0.775
 1223SOL     OW 7030   3.328   0.590   0.992
 1223SOL    HW1 7031   3.298   0.495   0.999
 1223SOL    HW2 7032   3.401   0.606   1.058
 1224SOL     OW 7033   2.350   1.385   0.174
 1224SOL    HW1 7034   2.263   1.370   0.221
 1224SOL    HW2 7035   2.333   1.411   0.079
 1225SOL     OW 7036   3.252   0.575   0.078
 1225SOL    HW1 7037   3.198   0.554   0.159
 1225SOL    HW2 7038   3.343   0.534   0.087
 1226SOL     OW 7039   2.389   0.256   0.328
 1226SOL    HW1 7040   2.416   0.197   0.253
 1226SOL    HW2 7041   2.389   0.351   0.297
 1227SOL     OW 7042   3.616   1.223   1.588
 1227SOL    HW1 7043   3.707   1.184   1.575
 1227SOL    HW2 7044   3.624   1.319   1.612
 1228SOL     OW 7045   2.926   1.347   1.340
 1228SOL    HW1 7046   2.846   1.324   1.395
 1228SOL    HW2 7047   3.009   1.321   1.389
 1229SOL     OW 7048   3.454   1.629   1.625
 1229SOL    HW1 7049   3.481   1.663   1.535
 1229SOL    HW2 7050   3.533   1.591   1.671
 1230SOL     OW 7051   3.500   1.099   1.079
 1230SOL    HW1 7052   3.505   1.180   1.138
 1230SOL    HW2 7053   3.414   1.101   1.028
 1231SOL     OW 7054   2.567   1.050   0.368
 1231SOL    HW1 7055   2.553   1.057   0.467
 1231SOL    HW2 7056   2.651   0.999   0.350
 1232SOL     OW 7057   2.229   1.100   0.501
 1232SOL    HW1 7058   2.222   1.183   0.445
 1232SOL    HW2 7059   2.233   1.020   0.441
 1233SOL     OW 7060   2.428   0.537   0.865
 1233SOL    HW1 7061   2.440   0.603   0.791
 1233SOL    HW2 7062   2.474   0.571   0.948
 1234SOL     OW 7063   3.444   0.639   0.472
 1234SOL    HW1 7064   3.413   0.700   0.545
 1234SOL    HW2 7065   3.494   0.691   0.403
 1235SOL     OW 7066   2.216   1.510   1.329
 1235SOL    HW1 7067   2.195   1.466   1.242
 1235SOL    HW2 7068   2.313   1.536   1.332
 1236SOL     OW 7069   2.264   0.751   1.598
 1236SOL    HW1 7070   2.332   0.806   1.551
 1236SOL    HW2 7071   2.304   0.663   1.625
 1237SOL     OW 7072   3.449   0.779   1.670
 1237SOL    HW1 7073   3.357   0.817   1.665
 1237SOL    HW2 7074   3.509   0.826   1.605
 1238SOL     OW 7075   2.366   0.050   1.740
 1238SOL    HW1 7076   2.324  -0.007   1.670
 1238SOL    HW2 7077   2.300   0.119   1.772
 1239SOL     OW 7078   3.222   0.862   1.045
 1239SOL    HW1 7079   3.147   0.862   0.979
 1239SOL    HW2 7080   3.259   0.770   1.054
 1240SOL     OW 7081   3.071   0.525   0.275
 1240SOL    HW1 7082   3.084   0.441   0.329
 1240SOL    HW2 7083   3.042   0.599   0.335
 1241SOL     OW 7084   2.594   0.634   1.064
 1241SOL    HW1 7085   2.653   0.608   0.988
 1241SOL    HW2 7086   2.566   0.730   1.053
 1242SOL     OW 7087   3.590   0.935   1.854
 1242SOL    HW1 7088   3.544   0.928   1.765
 1242SOL    HW2 7089   3.528   0.979   1.920
 1243SOL     OW 7090   2.169   0.063   0.618
 1243SOL    HW1 7091   2.158   0.157   0.651
 1243SOL    HW2 7092   2.164   0.000   0.695
 1244SOL     OW 7093   3.484   0.367   0.374
 1244SOL    HW1 7094   3.486   0.291   0.438
 1244SOL    HW2 7095   3.436   0.444   0.414
 1245SOL     OW 7096   2.885   0.766   0.966
 1245SOL    HW1 7097   2.900   0.787   1.062
 1245SOL    HW2 7098   2.855   0.671   0.957
 1246SOL     OW 7099   3.165   0.838   0.042
 1246SOL    HW1 7100   3.199   0.745   0.057
 1246SOL    HW2 7101   3.183   0.865  -0.053
 1247SOL     OW 7102   2.201   0.509   1.006
 1247SOL    HW1 7103   2.149   0.426   0.989
 1247SOL    HW2 7104   2.278   0.514   0.942
 1248SOL     OW 7105   3.000   0.380   1.678
 1248SOL    HW1 7106   2.955   0.443   1.742
 1248SOL    HW2 7107   3.093   0.411   1.661
 1249SOL     OW 7108   3.022   0.207   1.477
 1249SOL    HW1 7109   3.022   0.271   1.554
 1249SOL    HW2 7110   3.050   0.255   1.394
 1250SOL     OW 7111   2.366   1.568   0.910
 1250SOL    HW1 7112   2.432   1.642   0.919
 1250SOL    HW2 7113   2.410   1.489   0.868
 1251SOL     OW 7114   3.231   0.950   1.660
 1251SOL    HW1 7115   3.270   1.039   1.680
 1251SOL    HW2 7116   3.241   0.930   1.563
 1252SOL     OW 7117   2.677   0.572   0.325
 1252SOL    HW1 7118   2.684   0.483   0.279
 1252SOL    HW2 7119   2.583   0.606   0.317
 1253SOL     OW 7120   3.519   0.604   1.206
 1253SOL    HW1 7121   3.481   0.535   1.268
 1253SOL    HW2 7122   3.601   0.568   1.162
 1254SOL     OW 7123   2.114   1.564   1.744
 1254SOL    HW1 7124   2.084   1.621   1.820
 1254SOL    HW2 7125   2.107   1.467   1.770
 1255SOL     OW 7126   2.533   0.464   1.269
 1255SOL    HW1 7127   2.499   0.375   1.239
 1255SOL    HW2 7128   2.559   0.518   1.189
 1256SOL     OW 7129   3.209   1.059   1.234
 1256SOL    HW1 7130   3.233   0.996   1.160
 1256SOL    HW2 7131   3.119   1.099   1.216
 1257SOL     OW 7132   3.164   0.855   0.309
 1257SOL    HW1 7133   3.078   0.824   0.351
 1257SOL    HW2 7134   3.160   0.841   0.210
 1258SOL     OW 7135   3.621   1.747   1.154
 1258SOL    HW1 7136   3.682   1.777   1.081
 1258SOL    HW2 7137   3.583   1.658   1.132
 1259SOL     OW 7138   3.114   1.731   1.128
 1259SOL    HW1 7139   3.198   1.736   1.074
 1259SOL    HW2 7140   3.091   1.635   1.146
 1260SOL     OW 7141   2.765   0.086   0.133
 1260SOL    HW1 7142   2.816   0.087   0.047
 1260SOL    HW2 7143   2.821   0.044   0.204
 1261SOL     OW 7144   3.588   0.135   0.523
 1261SOL    HW1 7145   3.661   0.118   0.456
 1261SOL    HW2 7146   3.557   0.048   0.561
 1262SOL     OW 7147   1.992   1.794   1.851
 1262SOL    HW1 7148   1.951   1.720   1.904
 1262SOL    HW2 7149   2.056   1.845   1.909
 1263SOL     OW 7150   3.142   0.927   0.672
 1263SOL    HW1 7151   3.202   0.846   0.674
 1263SOL    HW2 7152   3.182   0.996   0.612
 1264SOL     OW 7153   3.512   1.720   1.394
 1264SOL    HW1 7154   3.565   1.730   1.310
 1264SOL    HW2 7155   3.485   1.810   1.428
 1265SOL     OW 7156   3.703   0.175   0.963
 1265SOL    HW1 7157   3.742   0.090   0.927
 1265SOL    HW2 7158   3.605   0.177   0.944
 1266SOL     OW 7159   2.778   0.910   0.291
 1266SOL    HW1 7160   2.841   0.948   0.223
 1266SOL    HW2 7161   2.818   0.827   0.330
 1267SOL     OW 7162   3.366   1.607   0.044
 1267SOL    HW1 7163   3.274   1.644   0.051
 1267SOL    HW2 7164   3.404   1.627  -0.046
 1268SOL     OW 7165   2.234   1.288   1.490
 1268SOL    HW1 7166   2.221   1.381   1.456
 1268SOL    HW2 7167   2.150   1.236   1.477
 1269SOL     OW 7168   3.476   1.292   1.289
 1269SOL    HW1 7169   3.536   1.295   1.369
 1269SOL    HW2 7170   3.401   1.356   1.302
 1270SOL     OW 7171   2.901   1.098   0.696
 1270SOL    HW1 7172   2.831   1.051   0.750
 1270SOL    HW2 7173   2.960   1.030   0.653
 1271SOL     OW 7174   3.571   0.385   1.381
 1271SOL    HW1 7175   3.644   0.454   1.385
 1271SOL    HW2 7176   3.599   0.310   1.322
 1272SOL     OW 7177   2.117   1.348   0.290
 1272SOL    HW1 7178   2.021   1.349   0.263
 1272SOL    HW2 7179   2.129   1.401   0.374
 1273SOL     OW 7180   3.302   0.856   1.398
 1273SOL    HW1 7181   3.245   0.908   1.335
 1273SOL    HW2 7182   3.398   0.868   1.374
 1274SOL     OW 7183   1.934   0.166   0.318
 1274SOL    HW1 7184   1.917   0.249   0.264
 1274SOL    HW2 7185   2.024   0.129   0.296
 1275SOL     OW 7186   2.475   0.842   1.431
 1275SOL    HW1 7187   2.531   0.923   1.414
 1275SOL    HW2 7188   2.534   0.762   1.434
 1276SOL     OW 7189   3.355   1.767   0.959
 1276SOL    HW1 7190   3.388   1.831   0.890
 1276SOL    HW2 7191   3.421   1.761   1.034
 1277SOL     OW 7192   2.578   0.565   1.708
 1277SOL    HW1 7193   2.597   0.630   1.782
 1277SOL    HW2 7194   2.638   0.485   1.717
 1278SOL     OW 7195   3.312   1.220   1.633
 1278SOL    HW1 7196   3.303   1.210   1.732
 1278SOL    HW2 7197   3.408   1.213   1.607
 1279SOL     OW 7198   2.252   1.741   1.560
 1279SOL    HW1 7199   2.161   1.782   1.558
 1279SOL    HW2 7200   2.245   1.647   1.592
 1280SOL     OW 7201   3.536   0.883   1.254
 1280SOL    HW1 7202   3.509   0.794   1.217
 1280SOL    HW2 7203   3.537   0.951   1.181
 1281SOL     OW 7204   3.087   0.325   0.449
 1281SOL    HW1 7205   3.152   0.251   0.438
 1281SOL    HW2 7206   3.107   0.375   0.533
 1282SOL     OW 7207   2.456   0.745   0.652
 1282SOL    HW1 7208   2.506   0.830   0.633
 1282SOL    HW2 7209   2.368   0.747   0.604
 1283SOL     OW 7210   3.639   0.342   1.642
 1283SOL    HW1 7211   3.622   0.373   1.548
 1283SOL    HW2 7212   3.555   0.305   1.680
 1284SOL     OW 7213   3.592   0.934   1.517
 1284SOL    HW1 7214   3.630   1.025   1.532
 1284SOL    HW2 7215   3.584   0.917   1.418
 1285SOL     OW 7216   2.523   1.790   0.953
 1285SOL    HW1 7217   2.477   1.878   0.940
 1285SOL    HW2 7218   2.622   1.802   0.946
 1286SOL     OW 7219   2.083   1.314   1.844
 1286SOL    HW1 7220   2.018   1.241   1.823
 1286SOL    HW2 7221   2.087   1.328   1.942
 1287SOL     OW 7222   1.941   1.240   0.653
 1287SOL    HW1 7223   1.940   1.193   0.741
 1287SOL    HW2 7224   2.023   1.212   0.602
 1288SOL     OW 7225   3.686   0.192   1.227
 1288SOL    HW1 7226   3.682   0.102   1.271
 1288SOL    HW2 7227   3.689   0.181   1.128
 1289SOL     OW 7228   2.179   0.547   1.280
 1289SOL    HW1 7229   2.217   0.488   1.352
 1289SOL    HW2 7230   2.219   0.521   1.192
 1290SOL     OW 7231   2.863   0.034   1.154
 1290SOL    HW1 7232   2.800  -0.038   1.123
 1290SOL    HW2 7233   2.956  -0.002   1.154
 1291SOL     OW 7234   2.632   1.330   0.301
 1291SOL    HW1 7235   2.586   1.243   0.318
 1291SOL    HW2 7236   2.723   1.327   0.342
 1292SOL     OW 7237   2.480   1.567   1.284
 1292SOL    HW1 7238   2.475   1.649   1.341
 1292SOL    HW2 7239   2.569   1.564   1.239
 1293SOL     OW 7240   3.162   0.453   0.691
 1293SOL    HW1 7241   3.103   0.533   0.695
 1293SOL    HW2 7242   3.177   0.418   0.784
 1294SOL     OW 7243   3.455   0.221   0.882
 1294SOL    HW1 7244   3.371   0.220   0.936
 1294SOL    HW2 7245   3.457   0.304   0.826
 1295SOL     OW 7246   1.901   1.077   0.300
 1295SOL    HW1 7247   2.000   1.066   0.291
 1295SOL    HW2 7248   1.861   0.991   0.332
 1296SOL     OW 7249   2.737   1.646   0.337
 1296SOL    HW1 7250   2.660   1.611   0.283
 1296SOL    HW2 7251   2.705   1.717   0.399
 1297SOL     OW 7252   1.881   0.368   2.509
 1297SOL    HW1 7253   1.799   0.411   2.548
 1297SOL    HW2 7254   1.853   0.295   2.446
 1298SOL     OW 7255   3.417   1.511   2.565
 1298SOL    HW1 7256   3.360   1.495   2.646
 1298SOL    HW2 7257   3.358   1.521   2.485
 1299SOL     OW 7258   2.997   0.703   2.579
 1299SOL    HW1 7259   3.054   0.781   2.554
 1299SOL    HW2 7260   2.937   0.729   2.655
 1300SOL     OW 7261   2.712   0.798   3.685
 1300SOL    HW1 7262   2.708   0.874   3.750
 1300SOL    HW2 7263   2.734   0.834   3.594
 1301SOL     OW 7264   2.547   1.012   2.527
 1301SOL    HW1 7265   2.616   0.996   2.597
 1301SOL    HW2 7266   2.474   1.069   2.565
 1302SOL     OW 7267   2.300   0.392   3.361
 1302SOL    HW1 7268   2.382   0.336   3.370
 1302SOL    HW2 7269   2.219   0.334   3.365
 1303SOL     OW 7270   3.465   0.447   2.599
 1303SOL    HW1 7271   3.391   0.493   2.549
 1303SOL    HW2 7272   3.516   0.515   2.652
 1304SOL     OW 7273   2.093   1.713   2.345
 1304SOL    HW1 7274   2.127   1.790   2.399
 1304SOL    HW2 7275   2.137   1.713   2.255
 1305SOL     OW 7276   2.989   1.341   3.552
 1305SOL    HW1 7277   3.036   1.341   3.640
 1305SOL    HW2 7278   2.941   1.254   3.541
 1306SOL     OW 7279   2.092   1.434   2.400
 1306SOL    HW1 7280   2.066   1.530   2.400
 1306SOL    HW2 7281   2.021   1.380   2.445
 1307SOL     OW 7282   2.102   1.091   2.748
 1307SOL    HW1 7283   2.116   1.007   2.800
 1307SOL    HW2 7284   2.047   1.155   2.803
 1308SOL     OW 7285   2.482   1.786   3.301
 1308SOL    HW1 7286   2.390   1.769   3.336
 1308SOL    HW2 7287   2.510   1.878   3.327
 1309SOL     OW 7288   1.984   0.643   2.425
 1309SOL    HW1 7289   1.939   0.555   2.442
 1309SOL    HW2 7290   1.983   0.697   2.509
 1310SOL     OW 7291   1.889   1.596   1.979
 1310SOL    HW1 7292   1.870   1.500   2.000
 1310SOL    HW2 7293   1.856   1.654   2.054
 1311SOL     OW 7294   3.551   0.922   2.474
 1311SOL    HW1 7295   3.646   0.893   2.482
 1311SOL    HW2 7296   3.543   0.987   2.399
 1312SOL     OW 7297   3.503   1.108   2.294
 1312SOL    HW1 7298   3.589   1.110   2.242
 1312SOL    HW2 7299   3.517   1.155   2.382
 1313SOL     OW 7300   1.975   0.737   3.459
 1313SOL    HW1 7301   2.063   0.724   3.504
 1313SOL    HW2 7302   1.962   0.834   3.437
 1314SOL     OW 7303   2.671   0.004   2.364
 1314SOL    HW1 7304   2.711   0.095   2.355
 1314SOL    HW2 7305   2.571   0.012   2.370
 1315SOL     OW 7306   2.059   0.976   3.126
 1315SOL    HW1 7307   2.148   0.931   3.112
 1315SOL    HW2 7308   1.986   0.911   3.107
 1316SOL     OW 7309   3.049   1.792   3.478
 1316SOL    HW1 7310   3.073   1.852   3.402
 1316SOL    HW2 7311   3.056   1.697   3.448
 1317SOL     OW 7312   3.529   1.714   2.434
 1317SOL    HW1 7313   3.488   1.691   2.346
 1317SOL    HW2 7314   3.511   1.640   2.499
 1318SOL     OW 7315   3.143   0.345   2.806
 1318SOL    HW1 7316   3.057   0.295   2.793
 1318SOL    HW2 7317   3.205   0.291   2.862
 1319SOL     OW 7318   3.438   1.662   2.169
 1319SOL    HW1 7319   3.527   1.708   2.172
 1319SOL    HW2 7320   3.417   1.638   2.074
 1320SOL     OW 7321   2.669   0.605   3.327
 1320SOL    HW1 7322   2.622   0.602   3.416
 1320SOL    HW2 7323   2.618   0.550   3.261
 1321SOL     OW 7324   2.835   0.890   3.434
 1321SOL    HW1 7325   2.881   0.806   3.405
 1321SOL    HW2 7326   2.779   0.924   3.359
 1322SOL     OW 7327   2.853   0.410   3.104
 1322SOL    HW1 7328   2.776   0.444   3.158
 1322SOL    HW2 7329   2.819   0.359   3.025
 1323SOL     OW 7330   1.938   0.811   2.651
 1323SOL    HW1 7331   2.037   0.799   2.660
 1323SOL    HW2 7332   1.914   0.906   2.672
 1324SOL     OW 7333   2.727   0.348   2.057
 1324SOL    HW1 7334   2.786   0.411   2.008
 1324SOL    HW2 7335   2.746   0.254   2.028
 1325SOL     OW 7336   3.581   0.585   3.693
 1325SOL    HW1 7337   3.555   0.674   3.657
 1325SOL    HW2 7338   3.579   0.517   3.620
 1326SOL     OW 7339   2.870   1.456   2.339
 1326SOL    HW1 7340   2.824   1.528   2.287
 1326SOL    HW2 7341   2.866   1.476   2.437
 1327SOL     OW 7342   2.213   1.801   2.715
 1327SOL    HW1 7343   2.263   1.715   2.721
 1327SOL    HW2 7344   2.278   1.878   2.712
 1328SOL     OW 7345   3.089   1.550   3.368
 1328SOL    HW1 7346   3.095   1.473   3.432
 1328SOL    HW2 7347   3.037   1.524   3.288
 1329SOL     OW 7348   2.323   1.266   3.589
 1329SOL    HW1 7349   2.273   1.267   3.503
 1329SOL    HW2 7350   2.260   1.248   3.665
 1330SOL     OW 7351   2.973   1.776   2.099
 1330SOL    HW1 7352   2.913   1.714   2.149
 1330SOL    HW2 7353   3.004   1.732   2.014
 1331SOL     OW 7354   2.064   0.285   3.360
 1331SOL    HW1 7355   1.984   0.345   3.347
 1331SOL    HW2 7356   2.054   0.236   3.446
 1332SOL     OW 7357   3.494   1.377   1.943
 1332SOL    HW1 7358   3.462   1.471   1.933
 1332SOL    HW2 7359   3.418   1.314   1.931
 1333SOL     OW 7360   2.326   1.743   2.185
 1333SOL    HW1 7361   2.359   1.782   2.271
 1333SOL    HW2 7362   2.402   1.736   2.120
 1334SOL     OW 7363   3.262   0.107   2.288
 1334SOL    HW1 7364   3.238   0.070   2.198
 1334SOL    HW2 7365   3.361   0.123   2.292
 1335SOL     OW 7366   2.111   1.785   3.103
 1335SOL    HW1 7367   2.168   1.720   3.153
 1335SOL    HW2 7368   2.095   1.752   3.010
 1336SOL     OW 7369   2.802   1.698   2.766
 1336SOL    HW1 7370   2.882   1.641   2.787
 1336SOL    HW2 7371   2.753   1.658   2.689
 1337SOL     OW 7372   2.244   0.700   2.342
 1337SOL    HW1 7373   2.289   0.610   2.339
 1337SOL    HW2 7374   2.150   0.689   2.375
 1338SOL     OW 7375   3.409   0.222   3.591
 1338SOL    HW1 7376   3.404   0.259   3.683
 1338SOL    HW2 7377   3.337   0.153   3.579
 1339SOL     OW 7378   2.476   0.122   1.979
 1339SOL    HW1 7379   2.574   0.100   1.986
 1339SOL    HW2 7380   2.445   0.105   1.886
 1340SOL     OW 7381   2.784   0.503   2.761
 1340SOL    HW1 7382   2.759   0.494   2.665
 1340SOL    HW2 7383   2.832   0.421   2.792
 1341SOL     OW 7384   2.401   0.064   2.374
 1341SOL    HW1 7385   2.320   0.065   2.432
 1341SOL    HW2 7386   2.404   0.147   2.319
 1342SOL     OW 7387   3.296   1.188   1.903
 1342SOL    HW1 7388   3.328   1.112   1.960
 1342SOL    HW2 7389   3.204   1.215   1.933
 1343SOL     OW 7390   2.159   0.035   2.033
 1343SOL    HW1 7391   2.208   0.119   2.012
 1343SOL    HW2 7392   2.221  -0.030   2.078
 1344SOL     OW 7393   2.797   0.236   2.342
 1344SOL    HW1 7394   2.749   0.277   2.264
 1344SOL    HW2 7395   2.896   0.234   2.323
 1345SOL     OW 7396   2.938   0.683   3.326
 1345SOL    HW1 7397   2.858   0.622   3.329
 1345SOL    HW2 7398   3.019   0.630   3.302
 1346SOL     OW 7399   2.321   1.152   2.603
 1346SOL    HW1 7400   2.250   1.125   2.668
 1346SOL    HW2 7401   2.295   1.124   2.510
 1347SOL     OW 7402   3.133   1.797   2.453
 1347SOL    HW1 7403   3.177   1.861   2.389
 1347SOL    HW2 7404   3.083   1.849   2.523
 1348SOL     OW 7405   2.894   0.549   1.878
 1348SOL    HW1 7406   2.853   0.631   1.839
 1348SOL    HW2 7407   2.958   0.575   1.951
 1349SOL     OW 7408   1.940   0.556   3.248
 1349SOL    HW1 7409   2.032   0.555   3.207
 1349SOL    HW2 7410   1.934   0.630   3.315
 1350SOL     OW 7411   2.728   0.454   2.504
 1350SOL    HW1 7412   2.696   0.526   2.442
 1350SOL    HW2 7413   2.752   0.373   2.451
 1351SOL     OW 7414   2.879   0.039   2.615
 1351SOL    HW1 7415   2.807   0.044   2.546
 1351SOL    HW2 7416   2.855  -0.030   2.684
 1352SOL     OW 7417   3.719   0.833   2.239
 1352SOL    HW1 7418   3.761   0.769   2.303
 1352SOL    HW2 7419   3.681   0.782   2.161
 1353SOL     OW 7420   2.350   1.385   2.036
 1353SOL    HW1 7421   2.263   1.370   2.083
 1353SOL    HW2 7422   2.333   1.411   1.941
 1354SOL     OW 7423   2.389   0.256   2.190
 1354SOL    HW1 7424   2.416   0.197   2.115
 1354SOL    HW2 7425   2.389   0.351   2.159
 1355SOL     OW 7426   2.567   1.050   2.230
 1355SOL    HW1 7427   2.553   1.057   2.329
 1355SOL    HW2 7428   2.651   0.999   2.212
 1356SOL     OW 7429   2.272   0.813   3.113
 1356SOL    HW1 7430   2.358   0.825   3.163
 1356SOL    HW2 7431   2.230   0.726   3.140
 1357SOL     OW 7432   3.136   0.386   3.124
 1357SOL    HW1 7433   3.157   0.460   3.188
 1357SOL    HW2 7434   3.047   0.403   3.081
 1358SOL     OW 7435   2.229   1.100   2.363
 1358SOL    HW1 7436   2.222   1.183   2.307
 1358SOL    HW2 7437   2.233   1.020   2.303
 1359SOL     OW 7438   3.114   1.348   2.250
 1359SOL    HW1 7439   3.164   1.425   2.290
 1359SOL    HW2 7440   3.019   1.350   2.282
 1360SOL     OW 7441   2.264   0.751   3.460
 1360SOL    HW1 7442   2.332   0.806   3.413
 1360SOL    HW2 7443   2.304   0.663   3.487
 1361SOL     OW 7444   2.435   0.870   2.891
 1361SOL    HW1 7445   2.479   0.959   2.882
 1361SOL    HW2 7446   2.372   0.870   2.968
 1362SOL     OW 7447   3.222   0.862   2.907
 1362SOL    HW1 7448   3.147   0.862   2.841
 1362SOL    HW2 7449   3.259   0.770   2.916
 1363SOL     OW 7450   2.594   0.634   2.926
 1363SOL    HW1 7451   2.653   0.608   2.850
 1363SOL    HW2 7452   2.566   0.730   2.915
 1364SOL     OW 7453   3.590   0.935   3.716
 1364SOL    HW1 7454   3.544   0.928   3.627
 1364SOL    HW2 7455   3.528   0.979   3.782
 1365SOL     OW 7456   2.169   0.063   2.480
 1365SOL    HW1 7457   2.158   0.157   2.513
 1365SOL    HW2 7458   2.164   0.000   2.557
 1366SOL     OW 7459   2.842   1.573   3.562
 1366SOL    HW1 7460   2.822   1.617   3.474
 1366SOL    HW2 7461   2.881   1.482   3.546
 1367SOL     OW 7462   2.212   0.898   3.666
 1367SOL    HW1 7463   2.288   0.942   3.714
 1367SOL    HW2 7464   2.247   0.851   3.584
 1368SOL     OW 7465   3.402   0.274   1.987
 1368SOL    HW1 7466   3.341   0.199   2.010
 1368SOL    HW2 7467   3.424   0.326   2.070
 1369SOL     OW 7468   2.181   0.810   2.811
 1369SOL    HW1 7469   2.274   0.846   2.816
 1369SOL    HW2 7470   2.175   0.725   2.863
 1370SOL     OW 7471   2.201   0.509   2.868
 1370SOL    HW1 7472   2.149   0.426   2.851
 1370SOL    HW2 7473   2.278   0.514   2.804
 1371SOL     OW 7474   1.870   1.326   2.062
 1371SOL    HW1 7475   1.777   1.347   2.031
 1371SOL    HW2 7476   1.880   1.227   2.075
 1372SOL     OW 7477   1.950   1.801   2.789
 1372SOL    HW1 7478   1.908   1.715   2.762
 1372SOL    HW2 7479   2.044   1.804   2.755
 1373SOL     OW 7480   1.902   0.544   2.976
 1373SOL    HW1 7481   1.987   0.511   2.935
 1373SOL    HW2 7482   1.915   0.559   3.074
 1374SOL     OW 7483   3.231   0.950   3.522
 1374SOL    HW1 7484   3.270   1.039   3.542
 1374SOL    HW2 7485   3.241   0.930   3.425
 1375SOL     OW 7486   2.114   1.564   3.606
 1375SOL    HW1 7487   2.084   1.621   3.682
 1375SOL    HW2 7488   2.107   1.467   3.632
 1376SOL     OW 7489   2.533   0.464   3.131
 1376SOL    HW1 7490   2.499   0.375   3.101
 1376SOL    HW2 7491   2.559   0.518   3.051
 1377SOL     OW 7492   2.792   1.678   3.327
 1377SOL    HW1 7493   2.768   1.660   3.232
 1377SOL    HW2 7494   2.822   1.772   3.337
 1378SOL     OW 7495   2.021   1.137   3.328
 1378SOL    HW1 7496   2.043   1.076   3.404
 1378SOL    HW2 7497   2.031   1.088   3.242
 1379SOL     OW 7498   3.114   1.731   2.990
 1379SOL    HW1 7499   3.198   1.736   2.936
 1379SOL    HW2 7500   3.091   1.635   3.008
 1380SOL     OW 7501   1.945   1.258   2.884
 1380SOL    HW1 7502   1.940   1.257   2.984
 1380SOL    HW2 7503   1.862   1.217   2.846
 1381SOL     OW 7504   2.550   1.662   3.578
 1381SOL    HW1 7505   2.494   1.743   3.587
 1381SOL    HW2 7506   2.602   1.666   3.492
 1382SOL     OW 7507   3.588   0.135   2.385
 1382SOL    HW1 7508   3.661   0.118   2.318
 1382SOL    HW2 7509   3.557   0.048   2.423
 1383SOL     OW 7510   3.250   1.573   2.339
 1383SOL    HW1 7511   3.317   1.585   2.265
 1383SOL    HW2 7512   3.210   1.662   2.362
 1384SOL     OW 7513   2.534   1.616   2.016
 1384SOL    HW1 7514   2.543   1.626   1.917
 1384SOL    HW2 7515   2.494   1.527   2.037
 1385SOL     OW 7516   3.703   0.175   2.825
 1385SOL    HW1 7517   3.742   0.090   2.789
 1385SOL    HW2 7518   3.605   0.177   2.806
 1386SOL     OW 7519   2.125   0.326   2.582
 1386SOL    HW1 7520   2.046   0.377   2.548
 1386SOL    HW2 7521   2.116   0.311   2.680
 1387SOL     OW 7522   3.056   1.612   1.893
 1387SOL    HW1 7523   3.062   1.519   1.930
 1387SOL    HW2 7524   2.997   1.612   1.813
 1388SOL     OW 7525   2.778   0.910   2.153
 1388SOL    HW1 7526   2.841   0.948   2.085
 1388SOL    HW2 7527   2.818   0.827   2.192
 1389SOL     OW 7528   3.366   1.607   1.906
 1389SOL    HW1 7529   3.274   1.644   1.913
 1389SOL    HW2 7530   3.404   1.627   1.816
 1390SOL     OW 7531   2.876   0.236   2.833
 1390SOL    HW1 7532   2.868   0.200   2.740
 1390SOL    HW2 7533   2.874   0.160   2.898
 1391SOL     OW 7534   2.452   1.487   2.353
 1391SOL    HW1 7535   2.494   1.429   2.283
 1391SOL    HW2 7536   2.408   1.566   2.309
 1392SOL     OW 7537   2.117   1.348   2.152
 1392SOL    HW1 7538   2.021   1.349   2.125
 1392SOL    HW2 7539   2.129   1.401   2.236
 1393SOL     OW 7540   1.967   1.013   3.588
 1393SOL    HW1 7541   1.890   0.980   3.642
 1393SOL    HW2 7542   2.052   0.983   3.630
 1394SOL     OW 7543   1.934   0.166   2.180
 1394SOL    HW1 7544   1.917   0.249   2.126
 1394SOL    HW2 7545   2.024   0.129   2.158
 1395SOL     OW 7546   3.045   1.335   1.981
 1395SOL    HW1 7547   2.946   1.324   1.983
 1395SOL    HW2 7548   3.079   1.350   2.074
 1396SOL     OW 7549   2.475   0.842   3.293
 1396SOL    HW1 7550   2.531   0.923   3.276
 1396SOL    HW2 7551   2.534   0.762   3.296
 1397SOL     OW 7552   3.355   1.767   2.821
 1397SOL    HW1 7553   3.388   1.831   2.752
 1397SOL    HW2 7554   3.421   1.761   2.896
 1398SOL     OW 7555   2.578   0.565   3.570
 1398SOL    HW1 7556   2.597   0.630   3.644
 1398SOL    HW2 7557   2.638   0.485   3.579
 1399SOL     OW 7558   3.087   0.325   2.311
 1399SOL    HW1 7559   3.152   0.251   2.300
 1399SOL    HW2 7560   3.107   0.375   2.395
 1400SOL     OW 7561   2.456   0.745   2.514
 1400SOL    HW1 7562   2.506   0.830   2.495
 1400SOL    HW2 7563   2.368   0.747   2.466
 1401SOL     OW 7564   2.523   1.790   2.815
 1401SOL    HW1 7565   2.477   1.878   2.802
 1401SOL    HW2 7566   2.622   1.802   2.808
 1402SOL     OW 7567   2.083   1.314   3.706
 1402SOL    HW1 7568   2.018   1.241   3.685
 1402SOL    HW2 7569   2.087   1.328   3.804
 1403SOL     OW 7570   1.941   1.240   2.515
 1403SOL    HW1 7571   1.940   1.193   2.603
 1403SOL    HW2 7572   2.023   1.212   2.464
 1404SOL     OW 7573   2.290   0.424   2.382
 1404SOL    HW1 7574   2.320   0.352   2.320
 1404SOL    HW2 7575   2.251   0.384   2.465
 1405SOL     OW 7576   3.567   1.487   2.966
 1405SOL    HW1 7577   3.474   1.462   2.939
 1405SOL    HW2 7578   3.593   1.437   3.048
 1406SOL     OW 7579   2.179   0.547   3.142
 1406SOL    HW1 7580   2.217   0.488   3.214
 1406SOL    HW2 7581   2.219   0.521   3.054
 1407SOL     OW 7582   2.674   1.586   2.549
 1407SOL    HW1 7583   2.706   1.596   2.455
 1407SOL    HW2 7584   2.595   1.524   2.551
 1408SOL     OW 7585   2.863   0.034   3.016
 1408SOL    HW1 7586   2.800  -0.038   2.985
 1408SOL    HW2 7587   2.956  -0.002   3.016
 1409SOL     OW 7588   2.632   1.330   2.163
 1409SOL    HW1 7589   2.586   1.243   2.180
 1409SOL    HW2 7590   2.723   1.327   2.204
 1410SOL     OW 7591   3.214   0.052   2.030
 1410SOL    HW1 7592   3.249   0.011   1.946
 1410SOL    HW2 7593   3.124   0.014   2.050
 1411SOL     OW 7594   3.162   0.453   2.553
 1411SOL    HW1 7595   3.103   0.533   2.557
 1411SOL    HW2 7596   3.177   0.418   2.646
 1412SOL     OW 7597   3.455   0.221   2.744
 1412SOL    HW1 7598   3.371   0.220   2.798
 1412SOL    HW2 7599   3.457   0.304   2.688
 1413SOL     OW 7600   2.737   1.646   2.199
 1413SOL    HW1 7601   2.660   1.611   2.145
 1413SOL    HW2 7602   2.705   1.717   2.261
 1414SOL     OW 7603   2.092   0.628   3.837
 1414SOL    HW1 7604   1.999   0.626   3.874
 1414SOL    HW2 7605   2.093   0.589   3.745
 1415SOL     OW 7606   2.997   0.703   4.441
 1415SOL    HW1 7607   3.054   0.781   4.416
 1415SOL    HW2 7608   2.937   0.729   4.517
 1416SOL     OW 7609   3.617   0.607   3.955
 1416SOL    HW1 7610   3.605   0.594   3.856
 1416SOL    HW2 7611   3.587   0.526   4.004
 1417SOL     OW 7612   3.465   0.447   4.461
 1417SOL    HW1 7613   3.391   0.493   4.411
 1417SOL    HW2 7614   3.516   0.515   4.514
 1418SOL     OW 7615   2.102   1.091   4.610
 1418SOL    HW1 7616   2.116   1.007   4.662
 1418SOL    HW2 7617   2.047   1.155   4.665
 1419SOL     OW 7618   2.482   1.786   5.163
 1419SOL    HW1 7619   2.390   1.769   5.198
 1419SOL    HW2 7620   2.510   1.878   5.189
 1420SOL     OW 7621   2.468   0.964   3.847
 1420SOL    HW1 7622   2.475   1.048   3.793
 1420SOL    HW2 7623   2.514   0.977   3.935
 1421SOL     OW 7624   3.551   0.922   4.336
 1421SOL    HW1 7625   3.646   0.893   4.344
 1421SOL    HW2 7626   3.543   0.987   4.261
 1422SOL     OW 7627   3.503   1.108   4.156
 1422SOL    HW1 7628   3.589   1.110   4.104
 1422SOL    HW2 7629   3.517   1.155   4.244
 1423SOL     OW 7630   2.475   1.365   4.450
 1423SOL    HW1 7631   2.426   1.278   4.459
 1423SOL    HW2 7632   2.452   1.408   4.363
 1424SOL     OW 7633   2.671   0.004   4.226
 1424SOL    HW1 7634   2.711   0.095   4.217
 1424SOL    HW2 7635   2.571   0.012   4.232
 1425SOL     OW 7636   3.387   0.999   3.914
 1425SOL    HW1 7637   3.324   0.923   3.927
 1425SOL    HW2 7638   3.435   1.017   4.000
 1426SOL     OW 7639   3.328   1.417   4.677
 1426SOL    HW1 7640   3.269   1.423   4.757
 1426SOL    HW2 7641   3.313   1.329   4.631
 1427SOL     OW 7642   2.460   0.729   3.994
 1427SOL    HW1 7643   2.484   0.798   3.926
 1427SOL    HW2 7644   2.382   0.762   4.048
 1428SOL     OW 7645   2.853   0.410   4.966
 1428SOL    HW1 7646   2.776   0.444   5.020
 1428SOL    HW2 7647   2.819   0.359   4.887
 1429SOL     OW 7648   2.903   0.701   4.153
 1429SOL    HW1 7649   2.929   0.697   4.249
 1429SOL    HW2 7650   2.818   0.650   4.139
 1430SOL     OW 7651   1.938   0.811   4.513
 1430SOL    HW1 7652   2.037   0.799   4.522
 1430SOL    HW2 7653   1.914   0.906   4.534
 1431SOL     OW 7654   2.213   1.801   4.577
 1431SOL    HW1 7655   2.263   1.715   4.583
 1431SOL    HW2 7656   2.278   1.878   4.574
 1432SOL     OW 7657   2.183   0.943   3.966
 1432SOL    HW1 7658   2.265   0.982   3.924
 1432SOL    HW2 7659   2.156   0.861   3.917
 1433SOL     OW 7660   3.320   0.735   4.452
 1433SOL    HW1 7661   3.315   0.670   4.527
 1433SOL    HW2 7662   3.400   0.794   4.465
 1434SOL     OW 7663   2.244   0.700   4.204
 1434SOL    HW1 7664   2.289   0.610   4.201
 1434SOL    HW2 7665   2.150   0.689   4.237
 1435SOL     OW 7666   2.665   1.402   4.648
 1435SOL    HW1 7667   2.755   1.416   4.606
 1435SOL    HW2 7668   2.594   1.404   4.577
 1436SOL     OW 7669   2.784   0.503   4.623
 1436SOL    HW1 7670   2.759   0.494   4.527
 1436SOL    HW2 7671   2.832   0.421   4.654
 1437SOL     OW 7672   2.401   0.064   4.236
 1437SOL    HW1 7673   2.320   0.065   4.294
 1437SOL    HW2 7674   2.404   0.147   4.181
 1438SOL     OW 7675   3.089   1.570   4.517
 1438SOL    HW1 7676   3.110   1.644   4.452
 1438SOL    HW2 7677   3.157   1.570   4.590
 1439SOL     OW 7678   2.321   1.152   4.465
 1439SOL    HW1 7679   2.250   1.125   4.530
 1439SOL    HW2 7680   2.295   1.124   4.372
 1440SOL     OW 7681   3.133   1.797   4.315
 1440SOL    HW1 7682   3.177   1.861   4.251
 1440SOL    HW2 7683   3.083   1.849   4.385
 1441SOL     OW 7684   2.894   0.549   3.740
 1441SOL    HW1 7685   2.853   0.631   3.701
 1441SOL    HW2 7686   2.958   0.575   3.813
 1442SOL     OW 7687   2.423   0.222   4.871
 1442SOL    HW1 7688   2.461   0.138   4.908
 1442SOL    HW2 7689   2.335   0.241   4.915
 1443SOL     OW 7690   2.879   0.039   4.477
 1443SOL    HW1 7691   2.807   0.044   4.408
 1443SOL    HW2 7692   2.855  -0.030   4.546
 1444SOL     OW 7693   3.291   1.173   4.591
 1444SOL    HW1 7694   3.236   1.089   4.584
 1444SOL    HW2 7695   3.317   1.202   4.499
 1445SOL     OW 7696   3.719   0.833   4.101
 1445SOL    HW1 7697   3.761   0.769   4.165
 1445SOL    HW2 7698   3.681   0.782   4.023
 1446SOL     OW 7699   2.350   1.385   3.898
 1446SOL    HW1 7700   2.263   1.370   3.945
 1446SOL    HW2 7701   2.333   1.411   3.803
 1447SOL     OW 7702   3.526   1.280   4.381
 1447SOL    HW1 7703   3.625   1.288   4.395
 1447SOL    HW2 7704   3.481   1.364   4.412
 1448SOL     OW 7705   3.252   0.575   3.802
 1448SOL    HW1 7706   3.198   0.554   3.883
 1448SOL    HW2 7707   3.343   0.534   3.811
 1449SOL     OW 7708   3.500   1.099   4.803
 1449SOL    HW1 7709   3.505   1.180   4.862
 1449SOL    HW2 7710   3.414   1.101   4.752
 1450SOL     OW 7711   2.229   1.100   4.225
 1450SOL    HW1 7712   2.222   1.183   4.169
 1450SOL    HW2 7713   2.233   1.020   4.165
 1451SOL     OW 7714   3.134   1.445   4.866
 1451SOL    HW1 7715   3.181   1.458   4.953
 1451SOL    HW2 7716   3.068   1.371   4.875
 1452SOL     OW 7717   3.444   0.639   4.196
 1452SOL    HW1 7718   3.413   0.700   4.269
 1452SOL    HW2 7719   3.494   0.691   4.127
 1453SOL     OW 7720   2.216   1.510   5.053
 1453SOL    HW1 7721   2.195   1.466   4.966
 1453SOL    HW2 7722   2.313   1.536   5.056
 1454SOL     OW 7723   2.435   0.870   4.753
 1454SOL    HW1 7724   2.479   0.959   4.744
 1454SOL    HW2 7725   2.372   0.870   4.830
 1455SOL     OW 7726   3.222   0.862   4.769
 1455SOL    HW1 7727   3.147   0.862   4.703
 1455SOL    HW2 7728   3.259   0.770   4.778
 1456SOL     OW 7729   3.071   0.525   3.999
 1456SOL    HW1 7730   3.084   0.441   4.053
 1456SOL    HW2 7731   3.042   0.599   4.059
 1457SOL     OW 7732   2.169   0.213   4.955
 1457SOL    HW1 7733   2.146   0.250   5.045
 1457SOL    HW2 7734   2.139   0.118   4.949
 1458SOL     OW 7735   2.169   0.063   4.342
 1458SOL    HW1 7736   2.158   0.157   4.375
 1458SOL    HW2 7737   2.164   0.000   4.419
 1459SOL     OW 7738   3.484   0.367   4.098
 1459SOL    HW1 7739   3.486   0.291   4.162
 1459SOL    HW2 7740   3.436   0.444   4.138
 1460SOL     OW 7741   3.165   0.838   3.766
 1460SOL    HW1 7742   3.199   0.745   3.781
 1460SOL    HW2 7743   3.183   0.865   3.671
 1461SOL     OW 7744   2.181   0.810   4.673
 1461SOL    HW1 7745   2.274   0.846   4.678
 1461SOL    HW2 7746   2.175   0.725   4.725
 1462SOL     OW 7747   2.366   1.568   4.634
 1462SOL    HW1 7748   2.432   1.642   4.643
 1462SOL    HW2 7749   2.410   1.489   4.592
 1463SOL     OW 7750   2.864   0.796   4.962
 1463SOL    HW1 7751   2.905   0.764   5.048
 1463SOL    HW2 7752   2.768   0.769   4.959
 1464SOL     OW 7753   1.902   0.544   4.838
 1464SOL    HW1 7754   1.987   0.511   4.797
 1464SOL    HW2 7755   1.915   0.559   4.936
 1465SOL     OW 7756   2.677   0.572   4.049
 1465SOL    HW1 7757   2.684   0.483   4.003
 1465SOL    HW2 7758   2.583   0.606   4.041
 1466SOL     OW 7759   3.519   0.604   4.930
 1466SOL    HW1 7760   3.481   0.535   4.992
 1466SOL    HW2 7761   3.601   0.568   4.886
 1467SOL     OW 7762   2.533   0.464   4.993
 1467SOL    HW1 7763   2.499   0.375   4.963
 1467SOL    HW2 7764   2.559   0.518   4.913
 1468SOL     OW 7765   2.335   0.500   3.915
 1468SOL    HW1 7766   2.396   0.580   3.919
 1468SOL    HW2 7767   2.240   0.531   3.922
 1469SOL     OW 7768   3.209   1.059   4.958
 1469SOL    HW1 7769   3.233   0.996   4.884
 1469SOL    HW2 7770   3.119   1.099   4.940
 1470SOL     OW 7771   3.164   0.855   4.033
 1470SOL    HW1 7772   3.078   0.824   4.075
 1470SOL    HW2 7773   3.160   0.841   3.934
 1471SOL     OW 7774   3.621   1.747   4.878
 1471SOL    HW1 7775   3.682   1.777   4.805
 1471SOL    HW2 7776   3.583   1.658   4.856
 1472SOL     OW 7777   3.588   0.135   4.247
 1472SOL    HW1 7778   3.661   0.118   4.180
 1472SOL    HW2 7779   3.557   0.048   4.285
 1473SOL     OW 7780   3.142   0.927   4.396
 1473SOL    HW1 7781   3.202   0.846   4.398
 1473SOL    HW2 7782   3.182   0.996   4.336
 1474SOL     OW 7783   3.512   1.720   5.118
 1474SOL    HW1 7784   3.565   1.730   5.034
 1474SOL    HW2 7785   3.485   1.810   5.152
 1475SOL     OW 7786   3.056   1.612   3.755
 1475SOL    HW1 7787   3.062   1.519   3.792
 1475SOL    HW2 7788   2.997   1.612   3.675
 1476SOL     OW 7789   2.778   0.910   4.015
 1476SOL    HW1 7790   2.841   0.948   3.947
 1476SOL    HW2 7791   2.818   0.827   4.054
 1477SOL     OW 7792   2.876   0.236   4.695
 1477SOL    HW1 7793   2.868   0.200   4.602
 1477SOL    HW2 7794   2.874   0.160   4.760
 1478SOL     OW 7795   3.571   0.385   5.105
 1478SOL    HW1 7796   3.644   0.454   5.109
 1478SOL    HW2 7797   3.599   0.310   5.046
 1479SOL     OW 7798   3.045   1.335   3.843
 1479SOL    HW1 7799   2.946   1.324   3.845
 1479SOL    HW2 7800   3.079   1.350   3.936
 1480SOL     OW 7801   3.355   1.767   4.683
 1480SOL    HW1 7802   3.388   1.831   4.614
 1480SOL    HW2 7803   3.421   1.761   4.758
 1481SOL     OW 7804   3.312   1.220   5.357
 1481SOL    HW1 7805   3.303   1.210   5.456
 1481SOL    HW2 7806   3.408   1.213   5.331
 1482SOL     OW 7807   3.536   0.883   4.978
 1482SOL    HW1 7808   3.509   0.794   4.941
 1482SOL    HW2 7809   3.537   0.951   4.905
 1483SOL     OW 7810   3.592   0.934   5.241
 1483SOL    HW1 7811   3.630   1.025   5.256
 1483SOL    HW2 7812   3.584   0.917   5.142
 1484SOL     OW 7813   2.721   1.374   3.740
 1484SOL    HW1 7814   2.675   1.389   3.828
 1484SOL    HW2 7815   2.765   1.459   3.710
 1485SOL     OW 7816   2.523   1.790   4.677
 1485SOL    HW1 7817   2.477   1.878   4.664
 1485SOL    HW2 7818   2.622   1.802   4.670
 1486SOL     OW 7819   2.945   0.984   3.811
 1486SOL    HW1 7820   2.922   1.037   3.729
 1486SOL    HW2 7821   3.026   0.928   3.792
 1487SOL     OW 7822   3.723   1.569   4.575
 1487SOL    HW1 7823   3.652   1.557   4.505
 1487SOL    HW2 7824   3.724   1.490   4.635
 1488SOL     OW 7825   1.941   1.240   4.377
 1488SOL    HW1 7826   1.940   1.193   4.465
 1488SOL    HW2 7827   2.023   1.212   4.326
 1489SOL     OW 7828   3.567   1.487   4.828
 1489SOL    HW1 7829   3.474   1.462   4.801
 1489SOL    HW2 7830   3.593   1.437   4.910
 1490SOL     OW 7831   2.863   0.034   4.878
 1490SOL    HW1 7832   2.800  -0.038   4.847
 1490SOL    HW2 7833   2.956  -0.002   4.878
 1491SOL     OW 7834   1.901   1.077   4.024
 1491SOL    HW1 7835   2.000   1.066   4.015
 1491SOL    HW2 7836   1.861   0.991   4.056
 1492SOL     OW 7837   2.092   2.490   0.113
 1492SOL    HW1 7838   1.999   2.488   0.150
 1492SOL    HW2 7839   2.093   2.451   0.021
 1493SOL     OW 7840   1.881   2.230   0.647
 1493SOL    HW1 7841   1.799   2.273   0.686
 1493SOL    HW2 7842   1.853   2.157   0.584
 1494SOL     OW 7843   2.997   2.565   0.717
 1494SOL    HW1 7844   3.054   2.643   0.692
 1494SOL    HW2 7845   2.937   2.591   0.793
 1495SOL     OW 7846   2.630   3.006   1.023
 1495SOL    HW1 7847   2.552   3.023   1.083
 1495SOL    HW2 7848   2.664   3.093   0.987
 1496SOL     OW 7849   2.712   2.660   1.823
 1496SOL    HW1 7850   2.708   2.736   1.888
 1496SOL    HW2 7851   2.734   2.696   1.732
 1497SOL     OW 7852   2.547   2.874   0.665
 1497SOL    HW1 7853   2.616   2.858   0.735
 1497SOL    HW2 7854   2.474   2.931   0.703
 1498SOL     OW 7855   2.548   3.023   1.803
 1498SOL    HW1 7856   2.608   3.102   1.817
 1498SOL    HW2 7857   2.462   3.054   1.762
 1499SOL     OW 7858   2.197   3.297   1.061
 1499SOL    HW1 7859   2.119   3.266   1.008
 1499SOL    HW2 7860   2.255   3.355   1.004
 1500SOL     OW 7861   2.300   2.254   1.499
 1500SOL    HW1 7862   2.382   2.198   1.508
 1500SOL    HW2 7863   2.219   2.196   1.503
 1501SOL     OW 7864   3.465   2.309   0.737
 1501SOL    HW1 7865   3.391   2.355   0.687
 1501SOL    HW2 7866   3.516   2.377   0.790
 1502SOL     OW 7867   2.093   3.575   0.483
 1502SOL    HW1 7868   2.127   3.652   0.537
 1502SOL    HW2 7869   2.137   3.575   0.393
 1503SOL     OW 7870   2.468   2.826   0.123
 1503SOL    HW1 7871   2.475   2.910   0.069
 1503SOL    HW2 7872   2.514   2.839   0.211
 1504SOL     OW 7873   3.456   1.976   1.480
 1504SOL    HW1 7874   3.438   2.043   1.408
 1504SOL    HW2 7875   3.453   2.022   1.569
 1505SOL     OW 7876   1.984   2.505   0.563
 1505SOL    HW1 7877   1.939   2.417   0.580
 1505SOL    HW2 7878   1.983   2.559   0.647
 1506SOL     OW 7879   3.704   3.629   0.359
 1506SOL    HW1 7880   3.758   3.600   0.439
 1506SOL    HW2 7881   3.734   3.719   0.330
 1507SOL     OW 7882   1.889   3.458   0.117
 1507SOL    HW1 7883   1.870   3.362   0.138
 1507SOL    HW2 7884   1.856   3.516   0.192
 1508SOL     OW 7885   3.551   2.784   0.612
 1508SOL    HW1 7886   3.646   2.755   0.620
 1508SOL    HW2 7887   3.543   2.849   0.537
 1509SOL     OW 7888   3.503   2.970   0.432
 1509SOL    HW1 7889   3.589   2.972   0.380
 1509SOL    HW2 7890   3.517   3.017   0.520
 1510SOL     OW 7891   1.975   2.599   1.597
 1510SOL    HW1 7892   2.063   2.586   1.642
 1510SOL    HW2 7893   1.962   2.696   1.575
 1511SOL     OW 7894   2.475   3.227   0.726
 1511SOL    HW1 7895   2.426   3.140   0.735
 1511SOL    HW2 7896   2.452   3.270   0.639
 1512SOL     OW 7897   2.671   1.866   0.502
 1512SOL    HW1 7898   2.711   1.957   0.493
 1512SOL    HW2 7899   2.571   1.874   0.508
 1513SOL     OW 7900   3.387   2.861   0.190
 1513SOL    HW1 7901   3.324   2.785   0.203
 1513SOL    HW2 7902   3.435   2.879   0.276
 1514SOL     OW 7903   2.460   2.591   0.270
 1514SOL    HW1 7904   2.484   2.660   0.202
 1514SOL    HW2 7905   2.382   2.624   0.324
 1515SOL     OW 7906   3.143   2.207   0.944
 1515SOL    HW1 7907   3.057   2.157   0.931
 1515SOL    HW2 7908   3.205   2.153   1.000
 1516SOL     OW 7909   2.669   2.467   1.465
 1516SOL    HW1 7910   2.622   2.464   1.554
 1516SOL    HW2 7911   2.618   2.412   1.399
 1517SOL     OW 7912   3.256   2.331   1.674
 1517SOL    HW1 7913   3.236   2.374   1.762
 1517SOL    HW2 7914   3.334   2.269   1.683
 1518SOL     OW 7915   2.835   2.752   1.572
 1518SOL    HW1 7916   2.881   2.668   1.543
 1518SOL    HW2 7917   2.779   2.786   1.497
 1519SOL     OW 7918   2.853   2.272   1.242
 1519SOL    HW1 7919   2.776   2.306   1.296
 1519SOL    HW2 7920   2.819   2.221   1.163
 1520SOL     OW 7921   2.903   2.563   0.429
 1520SOL    HW1 7922   2.929   2.559   0.525
 1520SOL    HW2 7923   2.818   2.512   0.415
 1521SOL     OW 7924   1.938   2.673   0.789
 1521SOL    HW1 7925   2.037   2.661   0.798
 1521SOL    HW2 7926   1.914   2.768   0.810
 1522SOL     OW 7927   1.992   3.683   1.571
 1522SOL    HW1 7928   1.982   3.668   1.670
 1522SOL    HW2 7929   1.906   3.719   1.535
 1523SOL     OW 7930   2.727   2.210   0.195
 1523SOL    HW1 7931   2.786   2.273   0.146
 1523SOL    HW2 7932   2.746   2.116   0.166
 1524SOL     OW 7933   3.224   3.006   0.545
 1524SOL    HW1 7934   3.307   2.977   0.497
 1524SOL    HW2 7935   3.175   3.073   0.489
 1525SOL     OW 7936   2.412   2.058   0.885
 1525SOL    HW1 7937   2.407   2.053   0.985
 1525SOL    HW2 7938   2.414   2.154   0.856
 1526SOL     OW 7939   2.870   3.318   0.477
 1526SOL    HW1 7940   2.824   3.390   0.425
 1526SOL    HW2 7941   2.866   3.338   0.575
 1527SOL     OW 7942   2.183   2.805   0.242
 1527SOL    HW1 7943   2.265   2.844   0.200
 1527SOL    HW2 7944   2.156   2.723   0.193
 1528SOL     OW 7945   3.320   2.597   0.728
 1528SOL    HW1 7946   3.315   2.532   0.803
 1528SOL    HW2 7947   3.400   2.656   0.741
 1529SOL     OW 7948   2.323   3.128   1.727
 1529SOL    HW1 7949   2.273   3.129   1.641
 1529SOL    HW2 7950   2.260   3.110   1.803
 1530SOL     OW 7951   3.494   3.239   0.081
 1530SOL    HW1 7952   3.462   3.333   0.071
 1530SOL    HW2 7953   3.418   3.176   0.069
 1531SOL     OW 7954   3.262   1.969   0.426
 1531SOL    HW1 7955   3.238   1.932   0.336
 1531SOL    HW2 7956   3.361   1.985   0.430
 1532SOL     OW 7957   2.244   2.562   0.480
 1532SOL    HW1 7958   2.289   2.472   0.477
 1532SOL    HW2 7959   2.150   2.551   0.513
 1533SOL     OW 7960   3.409   2.084   1.729
 1533SOL    HW1 7961   3.404   2.121   1.821
 1533SOL    HW2 7962   3.337   2.015   1.717
 1534SOL     OW 7963   2.643   2.126   1.749
 1534SOL    HW1 7964   2.710   2.065   1.792
 1534SOL    HW2 7965   2.570   2.145   1.814
 1535SOL     OW 7966   2.750   3.376   1.195
 1535SOL    HW1 7967   2.727   3.351   1.101
 1535SOL    HW2 7968   2.811   3.307   1.234
 1536SOL     OW 7969   3.213   2.452   1.433
 1536SOL    HW1 7970   3.241   2.409   1.518
 1536SOL    HW2 7971   3.238   2.548   1.434
 1537SOL     OW 7972   2.665   3.264   0.924
 1537SOL    HW1 7973   2.755   3.278   0.882
 1537SOL    HW2 7974   2.594   3.266   0.853
 1538SOL     OW 7975   2.784   2.365   0.899
 1538SOL    HW1 7976   2.759   2.356   0.803
 1538SOL    HW2 7977   2.832   2.283   0.930
 1539SOL     OW 7978   2.401   1.926   0.512
 1539SOL    HW1 7979   2.320   1.927   0.570
 1539SOL    HW2 7980   2.404   2.009   0.457
 1540SOL     OW 7981   2.797   2.098   0.480
 1540SOL    HW1 7982   2.749   2.139   0.402
 1540SOL    HW2 7983   2.896   2.096   0.461
 1541SOL     OW 7984   2.938   2.545   1.464
 1541SOL    HW1 7985   2.858   2.484   1.467
 1541SOL    HW2 7986   3.019   2.492   1.440
 1542SOL     OW 7987   2.321   3.014   0.741
 1542SOL    HW1 7988   2.250   2.987   0.806
 1542SOL    HW2 7989   2.295   2.986   0.648
 1543SOL     OW 7990   2.728   2.316   0.642
 1543SOL    HW1 7991   2.696   2.388   0.580
 1543SOL    HW2 7992   2.752   2.235   0.589
 1544SOL     OW 7993   2.879   1.901   0.753
 1544SOL    HW1 7994   2.807   1.906   0.684
 1544SOL    HW2 7995   2.855   1.832   0.822
 1545SOL     OW 7996   3.291   3.035   0.867
 1545SOL    HW1 7997   3.236   2.951   0.860
 1545SOL    HW2 7998   3.317   3.064   0.775
 1546SOL     OW 7999   3.328   2.452   0.992
 1546SOL    HW1 8000   3.298   2.357   0.999
 1546SOL    HW2 8001   3.401   2.468   1.058
 1547SOL     OW 8002   2.350   3.247   0.174
 1547SOL    HW1 8003   2.263   3.232   0.221
 1547SOL    HW2 8004   2.333   3.273   0.079
 1548SOL     OW 8005   3.526   3.142   0.657
 1548SOL    HW1 8006   3.625   3.150   0.671
 1548SOL    HW2 8007   3.481   3.226   0.688
 1549SOL     OW 8008   3.252   2.437   0.078
 1549SOL    HW1 8009   3.198   2.416   0.159
 1549SOL    HW2 8010   3.343   2.396   0.087
 1550SOL     OW 8011   3.616   3.085   1.588
 1550SOL    HW1 8012   3.707   3.046   1.575
 1550SOL    HW2 8013   3.624   3.181   1.612
 1551SOL     OW 8014   2.926   3.209   1.340
 1551SOL    HW1 8015   2.846   3.186   1.395
 1551SOL    HW2 8016   3.009   3.183   1.389
 1552SOL     OW 8017   2.973   3.057   1.100
 1552SOL    HW1 8018   2.933   3.101   1.181
 1552SOL    HW2 8019   2.932   3.094   1.017
 1553SOL     OW 8020   3.500   2.961   1.079
 1553SOL    HW1 8021   3.505   3.042   1.138
 1553SOL    HW2 8022   3.414   2.963   1.028
 1554SOL     OW 8023   2.777   1.951   1.402
 1554SOL    HW1 8024   2.802   1.931   1.307
 1554SOL    HW2 8025   2.849   2.007   1.444
 1555SOL     OW 8026   2.842   2.978   1.719
 1555SOL    HW1 8027   2.743   2.984   1.729
 1555SOL    HW2 8028   2.865   2.898   1.663
 1556SOL     OW 8029   2.567   2.912   0.368
 1556SOL    HW1 8030   2.553   2.919   0.467
 1556SOL    HW2 8031   2.651   2.861   0.350
 1557SOL     OW 8032   2.272   2.675   1.251
 1557SOL    HW1 8033   2.358   2.687   1.301
 1557SOL    HW2 8034   2.230   2.588   1.278
 1558SOL     OW 8035   3.136   2.248   1.262
 1558SOL    HW1 8036   3.157   2.322   1.326
 1558SOL    HW2 8037   3.047   2.265   1.219
 1559SOL     OW 8038   1.926   3.426   1.331
 1559SOL    HW1 8039   1.880   3.508   1.297
 1559SOL    HW2 8040   2.024   3.445   1.340
 1560SOL     OW 8041   2.229   2.962   0.501
 1560SOL    HW1 8042   2.222   3.045   0.445
 1560SOL    HW2 8043   2.233   2.882   0.441
 1561SOL     OW 8044   3.134   3.307   1.142
 1561SOL    HW1 8045   3.181   3.320   1.229
 1561SOL    HW2 8046   3.068   3.233   1.151
 1562SOL     OW 8047   3.444   2.501   0.472
 1562SOL    HW1 8048   3.413   2.562   0.545
 1562SOL    HW2 8049   3.494   2.553   0.403
 1563SOL     OW 8050   2.216   3.372   1.329
 1563SOL    HW1 8051   2.195   3.328   1.242
 1563SOL    HW2 8052   2.313   3.398   1.332
 1564SOL     OW 8053   2.264   2.613   1.598
 1564SOL    HW1 8054   2.332   2.668   1.551
 1564SOL    HW2 8055   2.304   2.525   1.625
 1565SOL     OW 8056   3.449   2.641   1.670
 1565SOL    HW1 8057   3.357   2.679   1.665
 1565SOL    HW2 8058   3.509   2.688   1.605
 1566SOL     OW 8059   2.875   1.967   1.770
 1566SOL    HW1 8060   2.881   2.052   1.718
 1566SOL    HW2 8061   2.907   1.891   1.713
 1567SOL     OW 8062   3.222   2.724   1.045
 1567SOL    HW1 8063   3.147   2.724   0.979
 1567SOL    HW2 8064   3.259   2.632   1.054
 1568SOL     OW 8065   3.071   2.387   0.275
 1568SOL    HW1 8066   3.084   2.303   0.329
 1568SOL    HW2 8067   3.042   2.461   0.335
 1569SOL     OW 8068   1.899   3.172   1.282
 1569SOL    HW1 8069   1.952   3.123   1.350
 1569SOL    HW2 8070   1.921   3.270   1.287
 1570SOL     OW 8071   3.590   2.797   1.854
 1570SOL    HW1 8072   3.544   2.790   1.765
 1570SOL    HW2 8073   3.528   2.841   1.920
 1571SOL     OW 8074   2.169   1.925   0.618
 1571SOL    HW1 8075   2.158   2.019   0.651
 1571SOL    HW2 8076   2.164   1.862   0.695
 1572SOL     OW 8077   3.484   2.229   0.374
 1572SOL    HW1 8078   3.486   2.153   0.438
 1572SOL    HW2 8079   3.436   2.306   0.414
 1573SOL     OW 8080   2.885   2.628   0.966
 1573SOL    HW1 8081   2.900   2.649   1.062
 1573SOL    HW2 8082   2.855   2.533   0.957
 1574SOL     OW 8083   2.842   3.435   1.700
 1574SOL    HW1 8084   2.822   3.479   1.612
 1574SOL    HW2 8085   2.881   3.344   1.684
 1575SOL     OW 8086   3.721   3.380   1.605
 1575SOL    HW1 8087   3.735   3.407   1.510
 1575SOL    HW2 8088   3.804   3.402   1.658
 1576SOL     OW 8089   2.212   2.760   1.804
 1576SOL    HW1 8090   2.288   2.804   1.852
 1576SOL    HW2 8091   2.247   2.713   1.722
 1577SOL     OW 8092   3.402   2.136   0.125
 1577SOL    HW1 8093   3.341   2.061   0.148
 1577SOL    HW2 8094   3.424   2.188   0.208
 1578SOL     OW 8095   3.165   2.700   0.042
 1578SOL    HW1 8096   3.199   2.607   0.057
 1578SOL    HW2 8097   3.183   2.727  -0.053
 1579SOL     OW 8098   3.000   2.242   1.678
 1579SOL    HW1 8099   2.955   2.305   1.742
 1579SOL    HW2 8100   3.093   2.273   1.661
 1580SOL     OW 8101   3.022   2.069   1.477
 1580SOL    HW1 8102   3.022   2.133   1.554
 1580SOL    HW2 8103   3.050   2.117   1.394
 1581SOL     OW 8104   2.366   3.430   0.910
 1581SOL    HW1 8105   2.432   3.504   0.919
 1581SOL    HW2 8106   2.410   3.351   0.868
 1582SOL     OW 8107   2.864   2.658   1.238
 1582SOL    HW1 8108   2.905   2.626   1.324
 1582SOL    HW2 8109   2.768   2.631   1.235
 1583SOL     OW 8110   1.902   2.406   1.114
 1583SOL    HW1 8111   1.987   2.373   1.073
 1583SOL    HW2 8112   1.915   2.421   1.212
 1584SOL     OW 8113   2.051   2.382   1.722
 1584SOL    HW1 8114   2.110   2.342   1.652
 1584SOL    HW2 8115   1.993   2.453   1.681
 1585SOL     OW 8116   3.519   2.466   1.206
 1585SOL    HW1 8117   3.481   2.397   1.268
 1585SOL    HW2 8118   3.601   2.430   1.162
 1586SOL     OW 8119   2.114   3.426   1.744
 1586SOL    HW1 8120   2.084   3.483   1.820
 1586SOL    HW2 8121   2.107   3.329   1.770
 1587SOL     OW 8122   2.335   2.362   0.191
 1587SOL    HW1 8123   2.396   2.442   0.195
 1587SOL    HW2 8124   2.240   2.393   0.198
 1588SOL     OW 8125   2.021   2.999   1.466
 1588SOL    HW1 8126   2.043   2.938   1.542
 1588SOL    HW2 8127   2.031   2.950   1.380
 1589SOL     OW 8128   3.164   2.717   0.309
 1589SOL    HW1 8129   3.078   2.686   0.351
 1589SOL    HW2 8130   3.160   2.703   0.210
 1590SOL     OW 8131   2.550   3.524   1.716
 1590SOL    HW1 8132   2.494   3.605   1.725
 1590SOL    HW2 8133   2.602   3.528   1.630
 1591SOL     OW 8134   2.765   1.948   0.133
 1591SOL    HW1 8135   2.816   1.949   0.047
 1591SOL    HW2 8136   2.821   1.906   0.204
 1592SOL     OW 8137   3.588   1.997   0.523
 1592SOL    HW1 8138   3.661   1.980   0.456
 1592SOL    HW2 8139   3.557   1.910   0.561
 1593SOL     OW 8140   1.992   3.656   1.851
 1593SOL    HW1 8141   1.951   3.582   1.904
 1593SOL    HW2 8142   2.056   3.707   1.909
 1594SOL     OW 8143   3.142   2.789   0.672
 1594SOL    HW1 8144   3.202   2.708   0.674
 1594SOL    HW2 8145   3.182   2.858   0.612
 1595SOL     OW 8146   2.692   3.135   1.422
 1595SOL    HW1 8147   2.687   3.168   1.517
 1595SOL    HW2 8148   2.606   3.154   1.376
 1596SOL     OW 8149   3.703   2.037   0.963
 1596SOL    HW1 8150   3.742   1.952   0.927
 1596SOL    HW2 8151   3.605   2.039   0.944
 1597SOL     OW 8152   2.125   2.188   0.720
 1597SOL    HW1 8153   2.046   2.239   0.686
 1597SOL    HW2 8154   2.116   2.173   0.818
 1598SOL     OW 8155   2.684   2.864   1.372
 1598SOL    HW1 8156   2.724   2.863   1.280
 1598SOL    HW2 8157   2.694   2.956   1.412
 1599SOL     OW 8158   2.778   2.772   0.291
 1599SOL    HW1 8159   2.841   2.810   0.223
 1599SOL    HW2 8160   2.818   2.689   0.330
 1600SOL     OW 8161   2.234   3.150   1.490
 1600SOL    HW1 8162   2.221   3.243   1.456
 1600SOL    HW2 8163   2.150   3.098   1.477
 1601SOL     OW 8164   2.901   2.960   0.696
 1601SOL    HW1 8165   2.831   2.913   0.750
 1601SOL    HW2 8166   2.960   2.892   0.653
 1602SOL     OW 8167   2.876   2.098   0.971
 1602SOL    HW1 8168   2.868   2.062   0.878
 1602SOL    HW2 8169   2.874   2.022   1.036
 1603SOL     OW 8170   2.452   3.349   0.491
 1603SOL    HW1 8171   2.494   3.291   0.421
 1603SOL    HW2 8172   2.408   3.428   0.447
 1604SOL     OW 8173   3.571   2.247   1.381
 1604SOL    HW1 8174   3.644   2.316   1.385
 1604SOL    HW2 8175   3.599   2.172   1.322
 1605SOL     OW 8176   2.117   3.210   0.290
 1605SOL    HW1 8177   2.021   3.211   0.263
 1605SOL    HW2 8178   2.129   3.263   0.374
 1606SOL     OW 8179   1.967   2.875   1.726
 1606SOL    HW1 8180   1.890   2.842   1.780
 1606SOL    HW2 8181   2.052   2.845   1.768
 1607SOL     OW 8182   2.534   2.065   1.489
 1607SOL    HW1 8183   2.624   2.049   1.449
 1607SOL    HW2 8184   2.542   2.070   1.588
 1608SOL     OW 8185   3.302   2.718   1.398
 1608SOL    HW1 8186   3.245   2.770   1.335
 1608SOL    HW2 8187   3.398   2.730   1.374
 1609SOL     OW 8188   1.934   2.028   0.318
 1609SOL    HW1 8189   1.917   2.111   0.264
 1609SOL    HW2 8190   2.024   1.991   0.296
 1610SOL     OW 8191   3.045   3.197   0.119
 1610SOL    HW1 8192   2.946   3.186   0.121
 1610SOL    HW2 8193   3.079   3.212   0.212
 1611SOL     OW 8194   2.475   2.704   1.431
 1611SOL    HW1 8195   2.531   2.785   1.414
 1611SOL    HW2 8196   2.534   2.624   1.434
 1612SOL     OW 8197   3.355   3.629   0.959
 1612SOL    HW1 8198   3.388   3.693   0.890
 1612SOL    HW2 8199   3.421   3.623   1.034
 1613SOL     OW 8200   2.578   2.427   1.708
 1613SOL    HW1 8201   2.597   2.492   1.782
 1613SOL    HW2 8202   2.638   2.347   1.717
 1614SOL     OW 8203   2.252   3.603   1.560
 1614SOL    HW1 8204   2.161   3.644   1.558
 1614SOL    HW2 8205   2.245   3.509   1.592
 1615SOL     OW 8206   3.536   2.745   1.254
 1615SOL    HW1 8207   3.509   2.656   1.217
 1615SOL    HW2 8208   3.537   2.813   1.181
 1616SOL     OW 8209   3.087   2.187   0.449
 1616SOL    HW1 8210   3.152   2.113   0.438
 1616SOL    HW2 8211   3.107   2.237   0.533
 1617SOL     OW 8212   2.456   2.607   0.652
 1617SOL    HW1 8213   2.506   2.692   0.633
 1617SOL    HW2 8214   2.368   2.609   0.604
 1618SOL     OW 8215   2.721   3.236   0.016
 1618SOL    HW1 8216   2.675   3.251   0.104
 1618SOL    HW2 8217   2.765   3.321  -0.014
 1619SOL     OW 8218   2.721   2.818   0.861
 1619SOL    HW1 8219   2.775   2.749   0.909
 1619SOL    HW2 8220   2.689   2.887   0.927
 1620SOL     OW 8221   2.945   2.846   0.087
 1620SOL    HW1 8222   2.922   2.899   0.005
 1620SOL    HW2 8223   3.026   2.790   0.068
 1621SOL     OW 8224   3.723   3.431   0.851
 1621SOL    HW1 8225   3.652   3.419   0.781
 1621SOL    HW2 8226   3.724   3.352   0.911
 1622SOL     OW 8227   2.083   3.176   1.844
 1622SOL    HW1 8228   2.018   3.103   1.823
 1622SOL    HW2 8229   2.087   3.190   1.942
 1623SOL     OW 8230   2.534   3.253   1.624
 1623SOL    HW1 8231   2.456   3.203   1.662
 1623SOL    HW2 8232   2.531   3.348   1.655
 1624SOL     OW 8233   3.686   2.054   1.227
 1624SOL    HW1 8234   3.682   1.964   1.271
 1624SOL    HW2 8235   3.689   2.043   1.128
 1625SOL     OW 8236   2.179   2.409   1.280
 1625SOL    HW1 8237   2.217   2.350   1.352
 1625SOL    HW2 8238   2.219   2.383   1.192
 1626SOL     OW 8239   2.674   3.448   0.687
 1626SOL    HW1 8240   2.706   3.458   0.593
 1626SOL    HW2 8241   2.595   3.386   0.689
 1627SOL     OW 8242   3.286   2.076   1.112
 1627SOL    HW1 8243   3.338   2.011   1.167
 1627SOL    HW2 8244   3.237   2.139   1.173
 1628SOL     OW 8245   2.863   1.896   1.154
 1628SOL    HW1 8246   2.800   1.824   1.123
 1628SOL    HW2 8247   2.956   1.860   1.154
 1629SOL     OW 8248   2.632   3.192   0.301
 1629SOL    HW1 8249   2.586   3.105   0.318
 1629SOL    HW2 8250   2.723   3.189   0.342
 1630SOL     OW 8251   2.480   3.429   1.284
 1630SOL    HW1 8252   2.475   3.511   1.341
 1630SOL    HW2 8253   2.569   3.426   1.239
 1631SOL     OW 8254   3.214   1.914   0.168
 1631SOL    HW1 8255   3.249   1.873   0.084
 1631SOL    HW2 8256   3.124   1.876   0.188
 1632SOL     OW 8257   3.162   2.315   0.691
 1632SOL    HW1 8258   3.103   2.395   0.695
 1632SOL    HW2 8259   3.177   2.280   0.784
 1633SOL     OW 8260   3.455   2.083   0.882
 1633SOL    HW1 8261   3.371   2.082   0.936
 1633SOL    HW2 8262   3.457   2.166   0.826
 1634SOL     OW 8263   2.737   3.508   0.337
 1634SOL    HW1 8264   2.660   3.473   0.283
 1634SOL    HW2 8265   2.705   3.579   0.399
 1635SOL     OW 8266   2.092   2.490   1.975
 1635SOL    HW1 8267   1.999   2.488   2.012
 1635SOL    HW2 8268   2.093   2.451   1.883
 1636SOL     OW 8269   2.087   2.137   2.858
 1636SOL    HW1 8270   2.122   2.120   2.950
 1636SOL    HW2 8271   1.999   2.092   2.846
 1637SOL     OW 8272   1.881   2.230   2.509
 1637SOL    HW1 8273   1.799   2.273   2.548
 1637SOL    HW2 8274   1.853   2.157   2.446
 1638SOL     OW 8275   2.431   3.137   3.027
 1638SOL    HW1 8276   2.338   3.130   2.990
 1638SOL    HW2 8277   2.442   3.226   3.071
 1639SOL     OW 8278   3.417   3.373   2.565
 1639SOL    HW1 8279   3.360   3.357   2.646
 1639SOL    HW2 8280   3.358   3.383   2.485
 1640SOL     OW 8281   2.630   3.006   2.885
 1640SOL    HW1 8282   2.552   3.023   2.945
 1640SOL    HW2 8283   2.664   3.093   2.849
 1641SOL     OW 8284   2.712   2.660   3.685
 1641SOL    HW1 8285   2.708   2.736   3.750
 1641SOL    HW2 8286   2.734   2.696   3.594
 1642SOL     OW 8287   2.548   3.023   3.665
 1642SOL    HW1 8288   2.608   3.102   3.679
 1642SOL    HW2 8289   2.462   3.054   3.624
 1643SOL     OW 8290   2.197   3.297   2.923
 1643SOL    HW1 8291   2.119   3.266   2.870
 1643SOL    HW2 8292   2.255   3.355   2.866
 1644SOL     OW 8293   3.322   3.367   3.201
 1644SOL    HW1 8294   3.346   3.461   3.227
 1644SOL    HW2 8295   3.306   3.313   3.283
 1645SOL     OW 8296   2.093   3.575   2.345
 1645SOL    HW1 8297   2.127   3.652   2.399
 1645SOL    HW2 8298   2.137   3.575   2.255
 1646SOL     OW 8299   2.468   2.826   1.985
 1646SOL    HW1 8300   2.475   2.910   1.931
 1646SOL    HW2 8301   2.514   2.839   2.073
 1647SOL     OW 8302   1.889   3.458   1.979
 1647SOL    HW1 8303   1.870   3.362   2.000
 1647SOL    HW2 8304   1.856   3.516   2.054
 1648SOL     OW 8305   3.551   2.784   2.474
 1648SOL    HW1 8306   3.646   2.755   2.482
 1648SOL    HW2 8307   3.543   2.849   2.399
 1649SOL     OW 8308   3.503   2.970   2.294
 1649SOL    HW1 8309   3.589   2.972   2.242
 1649SOL    HW2 8310   3.517   3.017   2.382
 1650SOL     OW 8311   1.975   2.599   3.459
 1650SOL    HW1 8312   2.063   2.586   3.504
 1650SOL    HW2 8313   1.962   2.696   3.437
 1651SOL     OW 8314   3.155   3.090   3.285
 1651SOL    HW1 8315   3.192   3.017   3.227
 1651SOL    HW2 8316   3.207   3.095   3.370
 1652SOL     OW 8317   2.671   1.866   2.364
 1652SOL    HW1 8318   2.711   1.957   2.355
 1652SOL    HW2 8319   2.571   1.874   2.370
 1653SOL     OW 8320   2.059   2.838   3.126
 1653SOL    HW1 8321   2.148   2.793   3.112
 1653SOL    HW2 8322   1.986   2.773   3.107
 1654SOL     OW 8323   3.387   2.861   2.052
 1654SOL    HW1 8324   3.324   2.785   2.065
 1654SOL    HW2 8325   3.435   2.879   2.138
 1655SOL     OW 8326   3.328   3.279   2.815
 1655SOL    HW1 8327   3.269   3.285   2.895
 1655SOL    HW2 8328   3.313   3.191   2.769
 1656SOL     OW 8329   3.529   3.576   2.434
 1656SOL    HW1 8330   3.488   3.553   2.346
 1656SOL    HW2 8331   3.511   3.502   2.499
 1657SOL     OW 8332   2.460   2.591   2.132
 1657SOL    HW1 8333   2.484   2.660   2.064
 1657SOL    HW2 8334   2.382   2.624   2.186
 1658SOL     OW 8335   3.143   2.207   2.806
 1658SOL    HW1 8336   3.057   2.157   2.793
 1658SOL    HW2 8337   3.205   2.153   2.862
 1659SOL     OW 8338   3.438   3.524   2.169
 1659SOL    HW1 8339   3.527   3.570   2.172
 1659SOL    HW2 8340   3.417   3.500   2.074
 1660SOL     OW 8341   2.835   2.752   3.434
 1660SOL    HW1 8342   2.881   2.668   3.405
 1660SOL    HW2 8343   2.779   2.786   3.359
 1661SOL     OW 8344   2.853   2.272   3.104
 1661SOL    HW1 8345   2.776   2.306   3.158
 1661SOL    HW2 8346   2.819   2.221   3.025
 1662SOL     OW 8347   2.903   2.563   2.291
 1662SOL    HW1 8348   2.929   2.559   2.387
 1662SOL    HW2 8349   2.818   2.512   2.277
 1663SOL     OW 8350   1.938   2.673   2.651
 1663SOL    HW1 8351   2.037   2.661   2.660
 1663SOL    HW2 8352   1.914   2.768   2.672
 1664SOL     OW 8353   1.992   3.683   3.433
 1664SOL    HW1 8354   1.982   3.668   3.532
 1664SOL    HW2 8355   1.906   3.719   3.397
 1665SOL     OW 8356   2.727   2.210   2.057
 1665SOL    HW1 8357   2.786   2.273   2.008
 1665SOL    HW2 8358   2.746   2.116   2.028
 1666SOL     OW 8359   2.412   2.058   2.747
 1666SOL    HW1 8360   2.407   2.053   2.847
 1666SOL    HW2 8361   2.414   2.154   2.718
 1667SOL     OW 8362   2.213   3.663   2.715
 1667SOL    HW1 8363   2.263   3.577   2.721
 1667SOL    HW2 8364   2.278   3.740   2.712
 1668SOL     OW 8365   3.657   2.928   2.735
 1668SOL    HW1 8366   3.595   2.913   2.659
 1668SOL    HW2 8367   3.605   2.939   2.820
 1669SOL     OW 8368   2.183   2.805   2.104
 1669SOL    HW1 8369   2.265   2.844   2.062
 1669SOL    HW2 8370   2.156   2.723   2.055
 1670SOL     OW 8371   2.323   3.128   3.589
 1670SOL    HW1 8372   2.273   3.129   3.503
 1670SOL    HW2 8373   2.260   3.110   3.665
 1671SOL     OW 8374   2.973   3.638   2.099
 1671SOL    HW1 8375   2.913   3.576   2.149
 1671SOL    HW2 8376   3.004   3.594   2.014
 1672SOL     OW 8377   2.326   3.605   2.185
 1672SOL    HW1 8378   2.359   3.644   2.271
 1672SOL    HW2 8379   2.402   3.598   2.120
 1673SOL     OW 8380   2.111   3.647   3.103
 1673SOL    HW1 8381   2.168   3.582   3.153
 1673SOL    HW2 8382   2.095   3.614   3.010
 1674SOL     OW 8383   2.244   2.562   2.342
 1674SOL    HW1 8384   2.289   2.472   2.339
 1674SOL    HW2 8385   2.150   2.551   2.375
 1675SOL     OW 8386   3.409   2.084   3.591
 1675SOL    HW1 8387   3.404   2.121   3.683
 1675SOL    HW2 8388   3.337   2.015   3.579
 1676SOL     OW 8389   2.750   3.376   3.057
 1676SOL    HW1 8390   2.727   3.351   2.963
 1676SOL    HW2 8391   2.811   3.307   3.096
 1677SOL     OW 8392   2.665   3.264   2.786
 1677SOL    HW1 8393   2.755   3.278   2.744
 1677SOL    HW2 8394   2.594   3.266   2.715
 1678SOL     OW 8395   2.401   1.926   2.374
 1678SOL    HW1 8396   2.320   1.927   2.432
 1678SOL    HW2 8397   2.404   2.009   2.319
 1679SOL     OW 8398   2.797   2.098   2.342
 1679SOL    HW1 8399   2.749   2.139   2.264
 1679SOL    HW2 8400   2.896   2.096   2.323
 1680SOL     OW 8401   2.938   2.545   3.326
 1680SOL    HW1 8402   2.858   2.484   3.329
 1680SOL    HW2 8403   3.019   2.492   3.302
 1681SOL     OW 8404   3.089   3.432   2.655
 1681SOL    HW1 8405   3.110   3.506   2.590
 1681SOL    HW2 8406   3.157   3.432   2.728
 1682SOL     OW 8407   3.133   3.659   2.453
 1682SOL    HW1 8408   3.177   3.723   2.389
 1682SOL    HW2 8409   3.083   3.711   2.523
 1683SOL     OW 8410   2.894   2.411   1.878
 1683SOL    HW1 8411   2.853   2.493   1.839
 1683SOL    HW2 8412   2.958   2.437   1.951
 1684SOL     OW 8413   1.940   2.418   3.248
 1684SOL    HW1 8414   2.032   2.417   3.207
 1684SOL    HW2 8415   1.934   2.492   3.315
 1685SOL     OW 8416   2.423   2.084   3.009
 1685SOL    HW1 8417   2.461   2.000   3.046
 1685SOL    HW2 8418   2.335   2.103   3.053
 1686SOL     OW 8419   2.879   1.901   2.615
 1686SOL    HW1 8420   2.807   1.906   2.546
 1686SOL    HW2 8421   2.855   1.832   2.684
 1687SOL     OW 8422   3.328   2.452   2.854
 1687SOL    HW1 8423   3.298   2.357   2.861
 1687SOL    HW2 8424   3.401   2.468   2.920
 1688SOL     OW 8425   3.719   2.695   2.239
 1688SOL    HW1 8426   3.761   2.631   2.303
 1688SOL    HW2 8427   3.681   2.644   2.161
 1689SOL     OW 8428   2.350   3.247   2.036
 1689SOL    HW1 8429   2.263   3.232   2.083
 1689SOL    HW2 8430   2.333   3.273   1.941
 1690SOL     OW 8431   3.526   3.142   2.519
 1690SOL    HW1 8432   3.625   3.150   2.533
 1690SOL    HW2 8433   3.481   3.226   2.550
 1691SOL     OW 8434   2.389   2.118   2.190
 1691SOL    HW1 8435   2.416   2.059   2.115
 1691SOL    HW2 8436   2.389   2.213   2.159
 1692SOL     OW 8437   2.926   3.209   3.202
 1692SOL    HW1 8438   2.846   3.186   3.257
 1692SOL    HW2 8439   3.009   3.183   3.251
 1693SOL     OW 8440   3.454   3.491   3.487
 1693SOL    HW1 8441   3.481   3.525   3.397
 1693SOL    HW2 8442   3.533   3.453   3.533
 1694SOL     OW 8443   2.973   3.057   2.962
 1694SOL    HW1 8444   2.933   3.101   3.043
 1694SOL    HW2 8445   2.932   3.094   2.879
 1695SOL     OW 8446   3.500   2.961   2.941
 1695SOL    HW1 8447   3.505   3.042   3.000
 1695SOL    HW2 8448   3.414   2.963   2.890
 1696SOL     OW 8449   2.777   1.951   3.264
 1696SOL    HW1 8450   2.802   1.931   3.169
 1696SOL    HW2 8451   2.849   2.007   3.306
 1697SOL     OW 8452   2.842   2.978   3.581
 1697SOL    HW1 8453   2.743   2.984   3.591
 1697SOL    HW2 8454   2.865   2.898   3.525
 1698SOL     OW 8455   2.272   2.675   3.113
 1698SOL    HW1 8456   2.358   2.687   3.163
 1698SOL    HW2 8457   2.230   2.588   3.140
 1699SOL     OW 8458   3.136   2.248   3.124
 1699SOL    HW1 8459   3.157   2.322   3.188
 1699SOL    HW2 8460   3.047   2.265   3.081
 1700SOL     OW 8461   1.926   3.426   3.193
 1700SOL    HW1 8462   1.880   3.508   3.159
 1700SOL    HW2 8463   2.024   3.445   3.202
 1701SOL     OW 8464   3.134   3.307   3.004
 1701SOL    HW1 8465   3.181   3.320   3.091
 1701SOL    HW2 8466   3.068   3.233   3.013
 1702SOL     OW 8467   2.216   3.372   3.191
 1702SOL    HW1 8468   2.195   3.328   3.104
 1702SOL    HW2 8469   2.313   3.398   3.194
 1703SOL     OW 8470   2.264   2.613   3.460
 1703SOL    HW1 8471   2.332   2.668   3.413
 1703SOL    HW2 8472   2.304   2.525   3.487
 1704SOL     OW 8473   2.435   2.732   2.891
 1704SOL    HW1 8474   2.479   2.821   2.882
 1704SOL    HW2 8475   2.372   2.732   2.968
 1705SOL     OW 8476   3.222   2.724   2.907
 1705SOL    HW1 8477   3.147   2.724   2.841
 1705SOL    HW2 8478   3.259   2.632   2.916
 1706SOL     OW 8479   2.169   2.075   3.093
 1706SOL    HW1 8480   2.146   2.112   3.183
 1706SOL    HW2 8481   2.139   1.980   3.087
 1707SOL     OW 8482   1.899   3.172   3.144
 1707SOL    HW1 8483   1.952   3.123   3.212
 1707SOL    HW2 8484   1.921   3.270   3.149
 1708SOL     OW 8485   3.590   2.797   3.716
 1708SOL    HW1 8486   3.544   2.790   3.627
 1708SOL    HW2 8487   3.528   2.841   3.782
 1709SOL     OW 8488   2.169   1.925   2.480
 1709SOL    HW1 8489   2.158   2.019   2.513
 1709SOL    HW2 8490   2.164   1.862   2.557
 1710SOL     OW 8491   2.885   2.628   2.828
 1710SOL    HW1 8492   2.900   2.649   2.924
 1710SOL    HW2 8493   2.855   2.533   2.819
 1711SOL     OW 8494   3.721   3.380   3.467
 1711SOL    HW1 8495   3.735   3.407   3.372
 1711SOL    HW2 8496   3.804   3.402   3.520
 1712SOL     OW 8497   2.212   2.760   3.666
 1712SOL    HW1 8498   2.288   2.804   3.714
 1712SOL    HW2 8499   2.247   2.713   3.584
 1713SOL     OW 8500   3.165   2.700   1.904
 1713SOL    HW1 8501   3.199   2.607   1.919
 1713SOL    HW2 8502   3.183   2.727   1.809
 1714SOL     OW 8503   2.930   3.195   2.711
 1714SOL    HW1 8504   2.937   3.111   2.656
 1714SOL    HW2 8505   2.992   3.264   2.675
 1715SOL     OW 8506   2.181   2.672   2.811
 1715SOL    HW1 8507   2.274   2.708   2.816
 1715SOL    HW2 8508   2.175   2.587   2.863
 1716SOL     OW 8509   2.201   2.371   2.868
 1716SOL    HW1 8510   2.149   2.288   2.851
 1716SOL    HW2 8511   2.278   2.376   2.804
 1717SOL     OW 8512   3.000   2.242   3.540
 1717SOL    HW1 8513   2.955   2.305   3.604
 1717SOL    HW2 8514   3.093   2.273   3.523
 1718SOL     OW 8515   3.022   2.069   3.339
 1718SOL    HW1 8516   3.022   2.133   3.416
 1718SOL    HW2 8517   3.050   2.117   3.256
 1719SOL     OW 8518   1.950   3.663   2.789
 1719SOL    HW1 8519   1.908   3.577   2.762
 1719SOL    HW2 8520   2.044   3.666   2.755
 1720SOL     OW 8521   2.864   2.658   3.100
 1720SOL    HW1 8522   2.905   2.626   3.186
 1720SOL    HW2 8523   2.768   2.631   3.097
 1721SOL     OW 8524   1.902   2.406   2.976
 1721SOL    HW1 8525   1.987   2.373   2.935
 1721SOL    HW2 8526   1.915   2.421   3.074
 1722SOL     OW 8527   3.231   2.812   3.522
 1722SOL    HW1 8528   3.270   2.901   3.542
 1722SOL    HW2 8529   3.241   2.792   3.425
 1723SOL     OW 8530   2.677   2.434   2.187
 1723SOL    HW1 8531   2.684   2.345   2.141
 1723SOL    HW2 8532   2.583   2.468   2.179
 1724SOL     OW 8533   3.519   2.466   3.068
 1724SOL    HW1 8534   3.481   2.397   3.130
 1724SOL    HW2 8535   3.601   2.430   3.024
 1725SOL     OW 8536   2.114   3.426   3.606
 1725SOL    HW1 8537   2.084   3.483   3.682
 1725SOL    HW2 8538   2.107   3.329   3.632
 1726SOL     OW 8539   2.533   2.326   3.131
 1726SOL    HW1 8540   2.499   2.237   3.101
 1726SOL    HW2 8541   2.559   2.380   3.051
 1727SOL     OW 8542   2.335   2.362   2.053
 1727SOL    HW1 8543   2.396   2.442   2.057
 1727SOL    HW2 8544   2.240   2.393   2.060
 1728SOL     OW 8545   2.021   2.999   3.328
 1728SOL    HW1 8546   2.043   2.938   3.404
 1728SOL    HW2 8547   2.031   2.950   3.242
 1729SOL     OW 8548   3.209   2.921   3.096
 1729SOL    HW1 8549   3.233   2.858   3.022
 1729SOL    HW2 8550   3.119   2.961   3.078
 1730SOL     OW 8551   3.621   3.609   3.016
 1730SOL    HW1 8552   3.682   3.639   2.943
 1730SOL    HW2 8553   3.583   3.520   2.994
 1731SOL     OW 8554   3.114   3.593   2.990
 1731SOL    HW1 8555   3.198   3.598   2.936
 1731SOL    HW2 8556   3.091   3.497   3.008
 1732SOL     OW 8557   1.945   3.120   2.884
 1732SOL    HW1 8558   1.940   3.119   2.984
 1732SOL    HW2 8559   1.862   3.079   2.846
 1733SOL     OW 8560   2.550   3.524   3.578
 1733SOL    HW1 8561   2.494   3.605   3.587
 1733SOL    HW2 8562   2.602   3.528   3.492
 1734SOL     OW 8563   3.588   1.997   2.385
 1734SOL    HW1 8564   3.661   1.980   2.318
 1734SOL    HW2 8565   3.557   1.910   2.423
 1735SOL     OW 8566   1.992   3.656   3.713
 1735SOL    HW1 8567   1.951   3.582   3.766
 1735SOL    HW2 8568   2.056   3.707   3.771
 1736SOL     OW 8569   2.692   3.135   3.284
 1736SOL    HW1 8570   2.687   3.168   3.379
 1736SOL    HW2 8571   2.606   3.154   3.238
 1737SOL     OW 8572   2.534   3.478   2.016
 1737SOL    HW1 8573   2.543   3.488   1.917
 1737SOL    HW2 8574   2.494   3.389   2.037
 1738SOL     OW 8575   3.512   3.582   3.256
 1738SOL    HW1 8576   3.565   3.592   3.172
 1738SOL    HW2 8577   3.485   3.672   3.290
 1739SOL     OW 8578   3.703   2.037   2.825
 1739SOL    HW1 8579   3.742   1.952   2.789
 1739SOL    HW2 8580   3.605   2.039   2.806
 1740SOL     OW 8581   3.056   3.474   1.893
 1740SOL    HW1 8582   3.062   3.381   1.930
 1740SOL    HW2 8583   2.997   3.474   1.813
 1741SOL     OW 8584   2.684   2.864   3.234
 1741SOL    HW1 8585   2.724   2.863   3.142
 1741SOL    HW2 8586   2.694   2.956   3.274
 1742SOL     OW 8587   2.234   3.150   3.352
 1742SOL    HW1 8588   2.221   3.243   3.318
 1742SOL    HW2 8589   2.150   3.098   3.339
 1743SOL     OW 8590   3.476   3.154   3.151
 1743SOL    HW1 8591   3.536   3.157   3.231
 1743SOL    HW2 8592   3.401   3.218   3.164
 1744SOL     OW 8593   2.901   2.960   2.558
 1744SOL    HW1 8594   2.831   2.913   2.612
 1744SOL    HW2 8595   2.960   2.892   2.515
 1745SOL     OW 8596   2.876   2.098   2.833
 1745SOL    HW1 8597   2.868   2.062   2.740
 1745SOL    HW2 8598   2.874   2.022   2.898
 1746SOL     OW 8599   1.967   2.875   3.588
 1746SOL    HW1 8600   1.890   2.842   3.642
 1746SOL    HW2 8601   2.052   2.845   3.630
 1747SOL     OW 8602   2.534   2.065   3.351
 1747SOL    HW1 8603   2.624   2.049   3.311
 1747SOL    HW2 8604   2.542   2.070   3.450
 1748SOL     OW 8605   3.302   2.718   3.260
 1748SOL    HW1 8606   3.245   2.770   3.197
 1748SOL    HW2 8607   3.398   2.730   3.236
 1749SOL     OW 8608   2.475   2.704   3.293
 1749SOL    HW1 8609   2.531   2.785   3.276
 1749SOL    HW2 8610   2.534   2.624   3.296
 1750SOL     OW 8611   3.355   3.629   2.821
 1750SOL    HW1 8612   3.388   3.693   2.752
 1750SOL    HW2 8613   3.421   3.623   2.896
 1751SOL     OW 8614   3.312   3.082   3.495
 1751SOL    HW1 8615   3.303   3.072   3.594
 1751SOL    HW2 8616   3.408   3.075   3.469
 1752SOL     OW 8617   3.536   2.745   3.116
 1752SOL    HW1 8618   3.509   2.656   3.079
 1752SOL    HW2 8619   3.537   2.813   3.043
 1753SOL     OW 8620   3.639   2.204   3.504
 1753SOL    HW1 8621   3.622   2.235   3.410
 1753SOL    HW2 8622   3.555   2.167   3.542
 1754SOL     OW 8623   2.721   3.236   1.878
 1754SOL    HW1 8624   2.675   3.251   1.966
 1754SOL    HW2 8625   2.765   3.321   1.848
 1755SOL     OW 8626   3.723   3.431   2.713
 1755SOL    HW1 8627   3.652   3.419   2.643
 1755SOL    HW2 8628   3.724   3.352   2.773
 1756SOL     OW 8629   2.083   3.176   3.706
 1756SOL    HW1 8630   2.018   3.103   3.685
 1756SOL    HW2 8631   2.087   3.190   3.804
 1757SOL     OW 8632   2.534   3.253   3.486
 1757SOL    HW1 8633   2.456   3.203   3.524
 1757SOL    HW2 8634   2.531   3.348   3.517
 1758SOL     OW 8635   2.179   2.409   3.142
 1758SOL    HW1 8636   2.217   2.350   3.214
 1758SOL    HW2 8637   2.219   2.383   3.054
 1759SOL     OW 8638   3.286   2.076   2.974
 1759SOL    HW1 8639   3.338   2.011   3.029
 1759SOL    HW2 8640   3.237   2.139   3.035
 1760SOL     OW 8641   2.863   1.896   3.016
 1760SOL    HW1 8642   2.800   1.824   2.985
 1760SOL    HW2 8643   2.956   1.860   3.016
 1761SOL     OW 8644   2.632   3.192   2.163
 1761SOL    HW1 8645   2.586   3.105   2.180
 1761SOL    HW2 8646   2.723   3.189   2.204
 1762SOL     OW 8647   2.737   3.508   2.199
 1762SOL    HW1 8648   2.660   3.473   2.145
 1762SOL    HW2 8649   2.705   3.579   2.261
 1763SOL     OW 8650   1.881   2.230   4.371
 1763SOL    HW1 8651   1.799   2.273   4.410
 1763SOL    HW2 8652   1.853   2.157   4.308
 1764SOL     OW 8653   2.431   3.137   4.889
 1764SOL    HW1 8654   2.338   3.130   4.852
 1764SOL    HW2 8655   2.442   3.226   4.933
 1765SOL     OW 8656   3.465   2.309   4.461
 1765SOL    HW1 8657   3.391   2.355   4.411
 1765SOL    HW2 8658   3.516   2.377   4.514
 1766SOL     OW 8659   2.093   3.575   4.207
 1766SOL    HW1 8660   2.127   3.652   4.261
 1766SOL    HW2 8661   2.137   3.575   4.117
 1767SOL     OW 8662   2.092   3.296   4.262
 1767SOL    HW1 8663   2.066   3.392   4.262
 1767SOL    HW2 8664   2.021   3.242   4.307
 1768SOL     OW 8665   2.102   2.953   4.610
 1768SOL    HW1 8666   2.116   2.869   4.662
 1768SOL    HW2 8667   2.047   3.017   4.665
 1769SOL     OW 8668   1.889   3.458   3.841
 1769SOL    HW1 8669   1.870   3.362   3.862
 1769SOL    HW2 8670   1.856   3.516   3.916
 1770SOL     OW 8671   3.551   2.784   4.336
 1770SOL    HW1 8672   3.646   2.755   4.344
 1770SOL    HW2 8673   3.543   2.849   4.261
 1771SOL     OW 8674   3.503   2.970   4.156
 1771SOL    HW1 8675   3.589   2.972   4.104
 1771SOL    HW2 8676   3.517   3.017   4.244
 1772SOL     OW 8677   2.475   3.227   4.450
 1772SOL    HW1 8678   2.426   3.140   4.459
 1772SOL    HW2 8679   2.452   3.270   4.363
 1773SOL     OW 8680   2.671   1.866   4.226
 1773SOL    HW1 8681   2.711   1.957   4.217
 1773SOL    HW2 8682   2.571   1.874   4.232
 1774SOL     OW 8683   2.059   2.838   4.988
 1774SOL    HW1 8684   2.148   2.793   4.974
 1774SOL    HW2 8685   1.986   2.773   4.969
 1775SOL     OW 8686   3.328   3.279   4.677
 1775SOL    HW1 8687   3.269   3.285   4.757
 1775SOL    HW2 8688   3.313   3.191   4.631
 1776SOL     OW 8689   3.143   2.207   4.668
 1776SOL    HW1 8690   3.057   2.157   4.655
 1776SOL    HW2 8691   3.205   2.153   4.724
 1777SOL     OW 8692   2.853   2.272   4.966
 1777SOL    HW1 8693   2.776   2.306   5.020
 1777SOL    HW2 8694   2.819   2.221   4.887
 1778SOL     OW 8695   2.727   2.210   3.919
 1778SOL    HW1 8696   2.786   2.273   3.870
 1778SOL    HW2 8697   2.746   2.116   3.890
 1779SOL     OW 8698   3.224   3.006   4.269
 1779SOL    HW1 8699   3.307   2.977   4.221
 1779SOL    HW2 8700   3.175   3.073   4.213
 1780SOL     OW 8701   2.412   2.058   4.609
 1780SOL    HW1 8702   2.407   2.053   4.709
 1780SOL    HW2 8703   2.414   2.154   4.580
 1781SOL     OW 8704   2.870   3.318   4.201
 1781SOL    HW1 8705   2.824   3.390   4.149
 1781SOL    HW2 8706   2.866   3.338   4.299
 1782SOL     OW 8707   2.213   3.663   4.577
 1782SOL    HW1 8708   2.263   3.577   4.583
 1782SOL    HW2 8709   2.278   3.740   4.574
 1783SOL     OW 8710   3.657   2.928   4.597
 1783SOL    HW1 8711   3.595   2.913   4.521
 1783SOL    HW2 8712   3.605   2.939   4.682
 1784SOL     OW 8713   3.320   2.597   4.452
 1784SOL    HW1 8714   3.315   2.532   4.527
 1784SOL    HW2 8715   3.400   2.656   4.465
 1785SOL     OW 8716   3.494   3.239   3.805
 1785SOL    HW1 8717   3.462   3.333   3.795
 1785SOL    HW2 8718   3.418   3.176   3.793
 1786SOL     OW 8719   3.262   1.969   4.150
 1786SOL    HW1 8720   3.238   1.932   4.060
 1786SOL    HW2 8721   3.361   1.985   4.154
 1787SOL     OW 8722   2.111   3.647   4.965
 1787SOL    HW1 8723   2.168   3.582   5.015
 1787SOL    HW2 8724   2.095   3.614   4.872
 1788SOL     OW 8725   2.476   1.984   3.841
 1788SOL    HW1 8726   2.574   1.962   3.848
 1788SOL    HW2 8727   2.445   1.967   3.748
 1789SOL     OW 8728   2.784   2.365   4.623
 1789SOL    HW1 8729   2.759   2.356   4.527
 1789SOL    HW2 8730   2.832   2.283   4.654
 1790SOL     OW 8731   2.401   1.926   4.236
 1790SOL    HW1 8732   2.320   1.927   4.294
 1790SOL    HW2 8733   2.404   2.009   4.181
 1791SOL     OW 8734   3.296   3.050   3.765
 1791SOL    HW1 8735   3.328   2.974   3.822
 1791SOL    HW2 8736   3.204   3.077   3.795
 1792SOL     OW 8737   2.797   2.098   4.204
 1792SOL    HW1 8738   2.749   2.139   4.126
 1792SOL    HW2 8739   2.896   2.096   4.185
 1793SOL     OW 8740   3.089   3.432   4.517
 1793SOL    HW1 8741   3.110   3.506   4.452
 1793SOL    HW2 8742   3.157   3.432   4.590
 1794SOL     OW 8743   2.321   3.014   4.465
 1794SOL    HW1 8744   2.250   2.987   4.530
 1794SOL    HW2 8745   2.295   2.986   4.372
 1795SOL     OW 8746   3.133   3.659   4.315
 1795SOL    HW1 8747   3.177   3.723   4.251
 1795SOL    HW2 8748   3.083   3.711   4.385
 1796SOL     OW 8749   2.894   2.411   3.740
 1796SOL    HW1 8750   2.853   2.493   3.701
 1796SOL    HW2 8751   2.958   2.437   3.813
 1797SOL     OW 8752   2.728   2.316   4.366
 1797SOL    HW1 8753   2.696   2.388   4.304
 1797SOL    HW2 8754   2.752   2.235   4.313
 1798SOL     OW 8755   2.879   1.901   4.477
 1798SOL    HW1 8756   2.807   1.906   4.408
 1798SOL    HW2 8757   2.855   1.832   4.546
 1799SOL     OW 8758   3.291   3.035   4.591
 1799SOL    HW1 8759   3.236   2.951   4.584
 1799SOL    HW2 8760   3.317   3.064   4.499
 1800SOL     OW 8761   3.328   2.452   4.716
 1800SOL    HW1 8762   3.298   2.357   4.723
 1800SOL    HW2 8763   3.401   2.468   4.782
 1801SOL     OW 8764   3.719   2.695   4.101
 1801SOL    HW1 8765   3.761   2.631   4.165
 1801SOL    HW2 8766   3.681   2.644   4.023
 1802SOL     OW 8767   2.350   3.247   3.898
 1802SOL    HW1 8768   2.263   3.232   3.945
 1802SOL    HW2 8769   2.333   3.273   3.803
 1803SOL     OW 8770   3.526   3.142   4.381
 1803SOL    HW1 8771   3.625   3.150   4.395
 1803SOL    HW2 8772   3.481   3.226   4.412
 1804SOL     OW 8773   2.389   2.118   4.052
 1804SOL    HW1 8774   2.416   2.059   3.977
 1804SOL    HW2 8775   2.389   2.213   4.021
 1805SOL     OW 8776   2.973   3.057   4.824
 1805SOL    HW1 8777   2.933   3.101   4.905
 1805SOL    HW2 8778   2.932   3.094   4.741
 1806SOL     OW 8779   3.500   2.961   4.803
 1806SOL    HW1 8780   3.505   3.042   4.862
 1806SOL    HW2 8781   3.414   2.963   4.752
 1807SOL     OW 8782   2.272   2.675   4.975
 1807SOL    HW1 8783   2.358   2.687   5.025
 1807SOL    HW2 8784   2.230   2.588   5.002
 1808SOL     OW 8785   3.136   2.248   4.986
 1808SOL    HW1 8786   3.157   2.322   5.050
 1808SOL    HW2 8787   3.047   2.265   4.943
 1809SOL     OW 8788   2.229   2.962   4.225
 1809SOL    HW1 8789   2.222   3.045   4.169
 1809SOL    HW2 8790   2.233   2.882   4.165
 1810SOL     OW 8791   2.428   2.399   4.589
 1810SOL    HW1 8792   2.440   2.465   4.515
 1810SOL    HW2 8793   2.474   2.433   4.672
 1811SOL     OW 8794   3.114   3.210   4.112
 1811SOL    HW1 8795   3.164   3.287   4.152
 1811SOL    HW2 8796   3.019   3.212   4.144
 1812SOL     OW 8797   3.444   2.501   4.196
 1812SOL    HW1 8798   3.413   2.562   4.269
 1812SOL    HW2 8799   3.494   2.553   4.127
 1813SOL     OW 8800   2.435   2.732   4.753
 1813SOL    HW1 8801   2.479   2.821   4.744
 1813SOL    HW2 8802   2.372   2.732   4.830
 1814SOL     OW 8803   3.222   2.724   4.769
 1814SOL    HW1 8804   3.147   2.724   4.703
 1814SOL    HW2 8805   3.259   2.632   4.778
 1815SOL     OW 8806   3.071   2.387   3.999
 1815SOL    HW1 8807   3.084   2.303   4.053
 1815SOL    HW2 8808   3.042   2.461   4.059
 1816SOL     OW 8809   1.899   3.172   5.006
 1816SOL    HW1 8810   1.952   3.123   5.074
 1816SOL    HW2 8811   1.921   3.270   5.011
 1817SOL     OW 8812   2.594   2.496   4.788
 1817SOL    HW1 8813   2.653   2.470   4.712
 1817SOL    HW2 8814   2.566   2.592   4.777
 1818SOL     OW 8815   2.169   1.925   4.342
 1818SOL    HW1 8816   2.158   2.019   4.375
 1818SOL    HW2 8817   2.164   1.862   4.419
 1819SOL     OW 8818   2.201   2.371   4.730
 1819SOL    HW1 8819   2.149   2.288   4.713
 1819SOL    HW2 8820   2.278   2.376   4.666
 1820SOL     OW 8821   3.022   2.069   5.201
 1820SOL    HW1 8822   3.022   2.133   5.278
 1820SOL    HW2 8823   3.050   2.117   5.118
 1821SOL     OW 8824   1.870   3.188   3.924
 1821SOL    HW1 8825   1.777   3.209   3.893
 1821SOL    HW2 8826   1.880   3.089   3.937
 1822SOL     OW 8827   1.902   2.406   4.838
 1822SOL    HW1 8828   1.987   2.373   4.797
 1822SOL    HW2 8829   1.915   2.421   4.936
 1823SOL     OW 8830   3.519   2.466   4.930
 1823SOL    HW1 8831   3.481   2.397   4.992
 1823SOL    HW2 8832   3.601   2.430   4.886
 1824SOL     OW 8833   3.209   2.921   4.958
 1824SOL    HW1 8834   3.233   2.858   4.884
 1824SOL    HW2 8835   3.119   2.961   4.940
 1825SOL     OW 8836   3.164   2.717   4.033
 1825SOL    HW1 8837   3.078   2.686   4.075
 1825SOL    HW2 8838   3.160   2.703   3.934
 1826SOL     OW 8839   3.621   3.609   4.878
 1826SOL    HW1 8840   3.682   3.639   4.805
 1826SOL    HW2 8841   3.583   3.520   4.856
 1827SOL     OW 8842   3.114   3.593   4.852
 1827SOL    HW1 8843   3.198   3.598   4.798
 1827SOL    HW2 8844   3.091   3.497   4.870
 1828SOL     OW 8845   1.945   3.120   4.746
 1828SOL    HW1 8846   1.940   3.119   4.846
 1828SOL    HW2 8847   1.862   3.079   4.708
 1829SOL     OW 8848   3.142   2.789   4.396
 1829SOL    HW1 8849   3.202   2.708   4.398
 1829SOL    HW2 8850   3.182   2.858   4.336
 1830SOL     OW 8851   3.703   2.037   4.687
 1830SOL    HW1 8852   3.742   1.952   4.651
 1830SOL    HW2 8853   3.605   2.039   4.668
 1831SOL     OW 8854   2.125   2.188   4.444
 1831SOL    HW1 8855   2.046   2.239   4.410
 1831SOL    HW2 8856   2.116   2.173   4.542
 1832SOL     OW 8857   2.876   2.098   4.695
 1832SOL    HW1 8858   2.868   2.062   4.602
 1832SOL    HW2 8859   2.874   2.022   4.760
 1833SOL     OW 8860   2.452   3.349   4.215
 1833SOL    HW1 8861   2.494   3.291   4.145
 1833SOL    HW2 8862   2.408   3.428   4.171
 1834SOL     OW 8863   3.571   2.247   5.105
 1834SOL    HW1 8864   3.644   2.316   5.109
 1834SOL    HW2 8865   3.599   2.172   5.046
 1835SOL     OW 8866   2.117   3.210   4.014
 1835SOL    HW1 8867   2.021   3.211   3.987
 1835SOL    HW2 8868   2.129   3.263   4.098
 1836SOL     OW 8869   1.934   2.028   4.042
 1836SOL    HW1 8870   1.917   2.111   3.988
 1836SOL    HW2 8871   2.024   1.991   4.020
 1837SOL     OW 8872   3.045   3.197   3.843
 1837SOL    HW1 8873   2.946   3.186   3.845
 1837SOL    HW2 8874   3.079   3.212   3.936
 1838SOL     OW 8875   3.355   3.629   4.683
 1838SOL    HW1 8876   3.388   3.693   4.614
 1838SOL    HW2 8877   3.421   3.623   4.758
 1839SOL     OW 8878   3.312   3.082   5.357
 1839SOL    HW1 8879   3.303   3.072   5.456
 1839SOL    HW2 8880   3.408   3.075   5.331
 1840SOL     OW 8881   3.536   2.745   4.978
 1840SOL    HW1 8882   3.509   2.656   4.941
 1840SOL    HW2 8883   3.537   2.813   4.905
 1841SOL     OW 8884   3.087   2.187   4.173
 1841SOL    HW1 8885   3.152   2.113   4.162
 1841SOL    HW2 8886   3.107   2.237   4.257
 1842SOL     OW 8887   3.592   2.796   5.241
 1842SOL    HW1 8888   3.630   2.887   5.256
 1842SOL    HW2 8889   3.584   2.779   5.142
 1843SOL     OW 8890   1.941   3.102   4.377
 1843SOL    HW1 8891   1.940   3.055   4.465
 1843SOL    HW2 8892   2.023   3.074   4.326
 1844SOL     OW 8893   3.686   2.054   4.951
 1844SOL    HW1 8894   3.682   1.964   4.995
 1844SOL    HW2 8895   3.689   2.043   4.852
 1845SOL     OW 8896   2.290   2.286   4.244
 1845SOL    HW1 8897   2.320   2.214   4.182
 1845SOL    HW2 8898   2.251   2.246   4.327
 1846SOL     OW 8899   3.567   3.349   4.828
 1846SOL    HW1 8900   3.474   3.324   4.801
 1846SOL    HW2 8901   3.593   3.299   4.910
 1847SOL     OW 8902   3.286   2.076   4.836
 1847SOL    HW1 8903   3.338   2.011   4.891
 1847SOL    HW2 8904   3.237   2.139   4.897
 1848SOL     OW 8905   2.632   3.192   4.025
 1848SOL    HW1 8906   2.586   3.105   4.042
 1848SOL    HW2 8907   2.723   3.189   4.066
 1849SOL     OW 8908   3.214   1.914   3.892
 1849SOL    HW1 8909   3.249   1.873   3.808
 1849SOL    HW2 8910   3.124   1.876   3.912
 1850SOL     OW 8911   3.162   2.315   4.415
 1850SOL    HW1 8912   3.103   2.395   4.419
 1850SOL    HW2 8913   3.177   2.280   4.508
 1851SOL     OW 8914   3.455   2.083   4.606
 1851SOL    HW1 8915   3.371   2.082   4.660
 1851SOL    HW2 8916   3.457   2.166   4.550
 1852SOL     OW 8917   1.901   2.939   4.024
 1852SOL    HW1 8918   2.000   2.928   4.015
 1852SOL    HW2 8919   1.861   2.853   4.056
 1853SOL     OW 8920   2.737   3.508   4.061
 1853SOL    HW1 8921   2.660   3.473   4.007
 1853SOL    HW2 8922   2.705   3.579   4.123
 1854SOL     OW 8923   2.087   3.999   0.996
 1854SOL    HW1 8924   2.122   3.982   1.088
 1854SOL    HW2 8925   1.999   3.954   0.984
 1855SOL     OW 8926   1.881   4.092   0.647
 1855SOL    HW1 8927   1.799   4.135   0.686
 1855SOL    HW2 8928   1.853   4.019   0.584
 1856SOL     OW 8929   3.417   5.235   0.703
 1856SOL    HW1 8930   3.360   5.219   0.784
 1856SOL    HW2 8931   3.358   5.245   0.623
 1857SOL     OW 8932   3.617   4.331   0.231
 1857SOL    HW1 8933   3.605   4.318   0.132
 1857SOL    HW2 8934   3.587   4.250   0.280
 1858SOL     OW 8935   2.630   4.868   1.023
 1858SOL    HW1 8936   2.552   4.885   1.083
 1858SOL    HW2 8937   2.664   4.955   0.987
 1859SOL     OW 8938   2.712   4.522   1.823
 1859SOL    HW1 8939   2.708   4.598   1.888
 1859SOL    HW2 8940   2.734   4.558   1.732
 1860SOL     OW 8941   2.300   4.116   1.499
 1860SOL    HW1 8942   2.382   4.060   1.508
 1860SOL    HW2 8943   2.219   4.058   1.503
 1861SOL     OW 8944   2.102   4.815   0.886
 1861SOL    HW1 8945   2.116   4.731   0.938
 1861SOL    HW2 8946   2.047   4.879   0.941
 1862SOL     OW 8947   2.468   4.688   0.123
 1862SOL    HW1 8948   2.475   4.772   0.069
 1862SOL    HW2 8949   2.514   4.701   0.211
 1863SOL     OW 8950   3.503   4.832   0.432
 1863SOL    HW1 8951   3.589   4.834   0.380
 1863SOL    HW2 8952   3.517   4.879   0.520
 1864SOL     OW 8953   1.975   4.461   1.597
 1864SOL    HW1 8954   2.063   4.448   1.642
 1864SOL    HW2 8955   1.962   4.558   1.575
 1865SOL     OW 8956   3.155   4.952   1.423
 1865SOL    HW1 8957   3.192   4.879   1.365
 1865SOL    HW2 8958   3.207   4.957   1.508
 1866SOL     OW 8959   2.671   3.728   0.502
 1866SOL    HW1 8960   2.711   3.819   0.493
 1866SOL    HW2 8961   2.571   3.736   0.508
 1867SOL     OW 8962   2.059   4.700   1.264
 1867SOL    HW1 8963   2.148   4.655   1.250
 1867SOL    HW2 8964   1.986   4.635   1.245
 1868SOL     OW 8965   3.387   4.723   0.190
 1868SOL    HW1 8966   3.324   4.647   0.203
 1868SOL    HW2 8967   3.435   4.741   0.276
 1869SOL     OW 8968   2.179   3.975   1.801
 1869SOL    HW1 8969   2.250   4.046   1.807
 1869SOL    HW2 8970   2.091   4.014   1.829
 1870SOL     OW 8971   3.328   5.141   0.953
 1870SOL    HW1 8972   3.269   5.147   1.033
 1870SOL    HW2 8973   3.313   5.053   0.907
 1871SOL     OW 8974   3.256   4.193   1.674
 1871SOL    HW1 8975   3.236   4.236   1.762
 1871SOL    HW2 8976   3.334   4.131   1.683
 1872SOL     OW 8977   2.835   4.614   1.572
 1872SOL    HW1 8978   2.881   4.530   1.543
 1872SOL    HW2 8979   2.779   4.648   1.497
 1873SOL     OW 8980   2.853   4.134   1.242
 1873SOL    HW1 8981   2.776   4.168   1.296
 1873SOL    HW2 8982   2.819   4.083   1.163
 1874SOL     OW 8983   3.224   4.868   0.545
 1874SOL    HW1 8984   3.307   4.839   0.497
 1874SOL    HW2 8985   3.175   4.935   0.489
 1875SOL     OW 8986   3.657   4.790   0.873
 1875SOL    HW1 8987   3.595   4.775   0.797
 1875SOL    HW2 8988   3.605   4.801   0.958
 1876SOL     OW 8989   2.183   4.667   0.242
 1876SOL    HW1 8990   2.265   4.706   0.200
 1876SOL    HW2 8991   2.156   4.585   0.193
 1877SOL     OW 8992   3.320   4.459   0.728
 1877SOL    HW1 8993   3.315   4.394   0.803
 1877SOL    HW2 8994   3.400   4.518   0.741
 1878SOL     OW 8995   2.064   4.009   1.498
 1878SOL    HW1 8996   1.984   4.069   1.485
 1878SOL    HW2 8997   2.054   3.960   1.584
 1879SOL     OW 8998   3.409   3.946   1.729
 1879SOL    HW1 8999   3.404   3.983   1.821
 1879SOL    HW2 9000   3.337   3.877   1.717
 1880SOL     OW 9001   3.213   4.314   1.433
 1880SOL    HW1 9002   3.241   4.271   1.518
 1880SOL    HW2 9003   3.238   4.410   1.434
 1881SOL     OW 9004   2.665   5.126   0.924
 1881SOL    HW1 9005   2.755   5.140   0.882
 1881SOL    HW2 9006   2.594   5.128   0.853
 1882SOL     OW 9007   2.401   3.788   0.512
 1882SOL    HW1 9008   2.320   3.789   0.570
 1882SOL    HW2 9009   2.404   3.871   0.457
 1883SOL     OW 9010   3.296   4.912   0.041
 1883SOL    HW1 9011   3.328   4.836   0.098
 1883SOL    HW2 9012   3.204   4.939   0.071
 1884SOL     OW 9013   2.938   4.407   1.464
 1884SOL    HW1 9014   2.858   4.346   1.467
 1884SOL    HW2 9015   3.019   4.354   1.440
 1885SOL     OW 9016   2.321   4.876   0.741
 1885SOL    HW1 9017   2.250   4.849   0.806
 1885SOL    HW2 9018   2.295   4.848   0.648
 1886SOL     OW 9019   2.894   4.273   0.016
 1886SOL    HW1 9020   2.853   4.355  -0.023
 1886SOL    HW2 9021   2.958   4.299   0.089
 1887SOL     OW 9022   1.940   4.280   1.386
 1887SOL    HW1 9023   2.032   4.279   1.345
 1887SOL    HW2 9024   1.934   4.354   1.453
 1888SOL     OW 9025   3.291   4.897   0.867
 1888SOL    HW1 9026   3.236   4.813   0.860
 1888SOL    HW2 9027   3.317   4.926   0.775
 1889SOL     OW 9028   3.526   5.004   0.657
 1889SOL    HW1 9029   3.625   5.012   0.671
 1889SOL    HW2 9030   3.481   5.088   0.688
 1890SOL     OW 9031   3.252   4.299   0.078
 1890SOL    HW1 9032   3.198   4.278   0.159
 1890SOL    HW2 9033   3.343   4.258   0.087
 1891SOL     OW 9034   3.616   4.947   1.588
 1891SOL    HW1 9035   3.707   4.908   1.575
 1891SOL    HW2 9036   3.624   5.043   1.612
 1892SOL     OW 9037   3.500   4.823   1.079
 1892SOL    HW1 9038   3.505   4.904   1.138
 1892SOL    HW2 9039   3.414   4.825   1.028
 1893SOL     OW 9040   2.567   4.774   0.368
 1893SOL    HW1 9041   2.553   4.781   0.467
 1893SOL    HW2 9042   2.651   4.723   0.350
 1894SOL     OW 9043   2.272   4.537   1.251
 1894SOL    HW1 9044   2.358   4.549   1.301
 1894SOL    HW2 9045   2.230   4.450   1.278
 1895SOL     OW 9046   3.136   4.110   1.262
 1895SOL    HW1 9047   3.157   4.184   1.326
 1895SOL    HW2 9048   3.047   4.127   1.219
 1896SOL     OW 9049   2.229   4.824   0.501
 1896SOL    HW1 9050   2.222   4.907   0.445
 1896SOL    HW2 9051   2.233   4.744   0.441
 1897SOL     OW 9052   2.428   4.261   0.865
 1897SOL    HW1 9053   2.440   4.327   0.791
 1897SOL    HW2 9054   2.474   4.295   0.948
 1898SOL     OW 9055   2.264   4.475   1.598
 1898SOL    HW1 9056   2.332   4.530   1.551
 1898SOL    HW2 9057   2.304   4.387   1.625
 1899SOL     OW 9058   2.875   3.829   1.770
 1899SOL    HW1 9059   2.881   3.914   1.718
 1899SOL    HW2 9060   2.907   3.753   1.713
 1900SOL     OW 9061   2.366   3.774   1.740
 1900SOL    HW1 9062   2.324   3.717   1.670
 1900SOL    HW2 9063   2.300   3.843   1.772
 1901SOL     OW 9064   2.435   4.594   1.029
 1901SOL    HW1 9065   2.479   4.683   1.020
 1901SOL    HW2 9066   2.372   4.594   1.106
 1902SOL     OW 9067   3.071   4.249   0.275
 1902SOL    HW1 9068   3.084   4.165   0.329
 1902SOL    HW2 9069   3.042   4.323   0.335
 1903SOL     OW 9070   2.169   3.937   1.231
 1903SOL    HW1 9071   2.146   3.974   1.321
 1903SOL    HW2 9072   2.139   3.842   1.225
 1904SOL     OW 9073   2.594   4.358   1.064
 1904SOL    HW1 9074   2.653   4.332   0.988
 1904SOL    HW2 9075   2.566   4.454   1.053
 1905SOL     OW 9076   2.212   4.622   1.804
 1905SOL    HW1 9077   2.288   4.666   1.852
 1905SOL    HW2 9078   2.247   4.575   1.722
 1906SOL     OW 9079   3.165   4.562   0.042
 1906SOL    HW1 9080   3.199   4.469   0.057
 1906SOL    HW2 9081   3.183   4.589  -0.053
 1907SOL     OW 9082   2.201   4.233   1.006
 1907SOL    HW1 9083   2.149   4.150   0.989
 1907SOL    HW2 9084   2.278   4.238   0.942
 1908SOL     OW 9085   3.000   4.104   1.678
 1908SOL    HW1 9086   2.955   4.167   1.742
 1908SOL    HW2 9087   3.093   4.135   1.661
 1909SOL     OW 9088   3.022   3.931   1.477
 1909SOL    HW1 9089   3.022   3.995   1.554
 1909SOL    HW2 9090   3.050   3.979   1.394
 1910SOL     OW 9091   2.051   4.244   1.722
 1910SOL    HW1 9092   2.110   4.204   1.652
 1910SOL    HW2 9093   1.993   4.315   1.681
 1911SOL     OW 9094   3.231   4.674   1.660
 1911SOL    HW1 9095   3.270   4.763   1.680
 1911SOL    HW2 9096   3.241   4.654   1.563
 1912SOL     OW 9097   2.677   4.296   0.325
 1912SOL    HW1 9098   2.684   4.207   0.279
 1912SOL    HW2 9099   2.583   4.330   0.317
 1913SOL     OW 9100   2.021   4.861   1.466
 1913SOL    HW1 9101   2.043   4.800   1.542
 1913SOL    HW2 9102   2.031   4.812   1.380
 1914SOL     OW 9103   3.209   4.783   1.234
 1914SOL    HW1 9104   3.233   4.720   1.160
 1914SOL    HW2 9105   3.119   4.823   1.216
 1915SOL     OW 9106   1.945   4.982   1.022
 1915SOL    HW1 9107   1.940   4.981   1.122
 1915SOL    HW2 9108   1.862   4.941   0.984
 1916SOL     OW 9109   3.588   3.859   0.523
 1916SOL    HW1 9110   3.661   3.842   0.456
 1916SOL    HW2 9111   3.557   3.772   0.561
 1917SOL     OW 9112   3.703   3.899   0.963
 1917SOL    HW1 9113   3.742   3.814   0.927
 1917SOL    HW2 9114   3.605   3.901   0.944
 1918SOL     OW 9115   2.125   4.050   0.720
 1918SOL    HW1 9116   2.046   4.101   0.686
 1918SOL    HW2 9117   2.116   4.035   0.818
 1919SOL     OW 9118   2.684   4.726   1.372
 1919SOL    HW1 9119   2.724   4.725   1.280
 1919SOL    HW2 9120   2.694   4.818   1.412
 1920SOL     OW 9121   2.234   5.012   1.490
 1920SOL    HW1 9122   2.221   5.105   1.456
 1920SOL    HW2 9123   2.150   4.960   1.477
 1921SOL     OW 9124   3.476   5.016   1.289
 1921SOL    HW1 9125   3.536   5.019   1.369
 1921SOL    HW2 9126   3.401   5.080   1.302
 1922SOL     OW 9127   2.901   4.822   0.696
 1922SOL    HW1 9128   2.831   4.775   0.750
 1922SOL    HW2 9129   2.960   4.754   0.653
 1923SOL     OW 9130   1.967   4.737   1.726
 1923SOL    HW1 9131   1.890   4.704   1.780
 1923SOL    HW2 9132   2.052   4.707   1.768
 1924SOL     OW 9133   3.302   4.580   1.398
 1924SOL    HW1 9134   3.245   4.632   1.335
 1924SOL    HW2 9135   3.398   4.592   1.374
 1925SOL     OW 9136   2.475   4.566   1.431
 1925SOL    HW1 9137   2.531   4.647   1.414
 1925SOL    HW2 9138   2.534   4.486   1.434
 1926SOL     OW 9139   2.578   4.289   1.708
 1926SOL    HW1 9140   2.597   4.354   1.782
 1926SOL    HW2 9141   2.638   4.209   1.717
 1927SOL     OW 9142   3.312   4.944   1.633
 1927SOL    HW1 9143   3.303   4.934   1.732
 1927SOL    HW2 9144   3.408   4.937   1.607
 1928SOL     OW 9145   3.639   4.066   1.642
 1928SOL    HW1 9146   3.622   4.097   1.548
 1928SOL    HW2 9147   3.555   4.029   1.680
 1929SOL     OW 9148   2.945   4.708   0.087
 1929SOL    HW1 9149   2.922   4.761   0.005
 1929SOL    HW2 9150   3.026   4.652   0.068
 1930SOL     OW 9151   2.290   4.148   0.520
 1930SOL    HW1 9152   2.320   4.076   0.458
 1930SOL    HW2 9153   2.251   4.108   0.603
 1931SOL     OW 9154   2.179   4.271   1.280
 1931SOL    HW1 9155   2.217   4.212   1.352
 1931SOL    HW2 9156   2.219   4.245   1.192
 1932SOL     OW 9157   2.632   5.054   0.301
 1932SOL    HW1 9158   2.586   4.967   0.318
 1932SOL    HW2 9159   2.723   5.051   0.342
 1933SOL     OW 9160   3.162   4.177   0.691
 1933SOL    HW1 9161   3.103   4.257   0.695
 1933SOL    HW2 9162   3.177   4.142   0.784
 1934SOL     OW 9163   1.901   4.801   0.300
 1934SOL    HW1 9164   2.000   4.790   0.291
 1934SOL    HW2 9165   1.861   4.715   0.332
 1935SOL     OW 9166   2.092   4.352   1.975
 1935SOL    HW1 9167   1.999   4.350   2.012
 1935SOL    HW2 9168   2.093   4.313   1.883
 1936SOL     OW 9169   1.881   4.092   2.509
 1936SOL    HW1 9170   1.799   4.135   2.548
 1936SOL    HW2 9171   1.853   4.019   2.446
 1937SOL     OW 9172   3.417   5.235   2.565
 1937SOL    HW1 9173   3.360   5.219   2.646
 1937SOL    HW2 9174   3.358   5.245   2.485
 1938SOL     OW 9175   3.617   4.331   2.093
 1938SOL    HW1 9176   3.605   4.318   1.994
 1938SOL    HW2 9177   3.587   4.250   2.142
 1939SOL     OW 9178   2.630   4.868   2.885
 1939SOL    HW1 9179   2.552   4.885   2.945
 1939SOL    HW2 9180   2.664   4.955   2.849
 1940SOL     OW 9181   2.712   4.522   3.685
 1940SOL    HW1 9182   2.708   4.598   3.750
 1940SOL    HW2 9183   2.734   4.558   3.594
 1941SOL     OW 9184   2.547   4.736   2.527
 1941SOL    HW1 9185   2.616   4.720   2.597
 1941SOL    HW2 9186   2.474   4.793   2.565
 1942SOL     OW 9187   2.300   4.116   3.361
 1942SOL    HW1 9188   2.382   4.060   3.370
 1942SOL    HW2 9189   2.219   4.058   3.365
 1943SOL     OW 9190   3.465   4.171   2.599
 1943SOL    HW1 9191   3.391   4.217   2.549
 1943SOL    HW2 9192   3.516   4.239   2.652
 1944SOL     OW 9193   3.551   4.646   2.474
 1944SOL    HW1 9194   3.646   4.617   2.482
 1944SOL    HW2 9195   3.543   4.711   2.399
 1945SOL     OW 9196   3.503   4.832   2.294
 1945SOL    HW1 9197   3.589   4.834   2.242
 1945SOL    HW2 9198   3.517   4.879   2.382
 1946SOL     OW 9199   1.975   4.461   3.459
 1946SOL    HW1 9200   2.063   4.448   3.504
 1946SOL    HW2 9201   1.962   4.558   3.437
 1947SOL     OW 9202   3.155   4.952   3.285
 1947SOL    HW1 9203   3.192   4.879   3.227
 1947SOL    HW2 9204   3.207   4.957   3.370
 1948SOL     OW 9205   2.671   3.728   2.364
 1948SOL    HW1 9206   2.711   3.819   2.355
 1948SOL    HW2 9207   2.571   3.736   2.370
 1949SOL     OW 9208   2.179   3.975   3.663
 1949SOL    HW1 9209   2.250   4.046   3.669
 1949SOL    HW2 9210   2.091   4.014   3.691
 1950SOL     OW 9211   3.328   5.141   2.815
 1950SOL    HW1 9212   3.269   5.147   2.895
 1950SOL    HW2 9213   3.313   5.053   2.769
 1951SOL     OW 9214   3.143   4.069   2.806
 1951SOL    HW1 9215   3.057   4.019   2.793
 1951SOL    HW2 9216   3.205   4.015   2.862
 1952SOL     OW 9217   2.669   4.329   3.327
 1952SOL    HW1 9218   2.622   4.326   3.416
 1952SOL    HW2 9219   2.618   4.274   3.261
 1953SOL     OW 9220   2.835   4.614   3.434
 1953SOL    HW1 9221   2.881   4.530   3.405
 1953SOL    HW2 9222   2.779   4.648   3.359
 1954SOL     OW 9223   2.853   4.134   3.104
 1954SOL    HW1 9224   2.776   4.168   3.158
 1954SOL    HW2 9225   2.819   4.083   3.025
 1955SOL     OW 9226   2.727   4.072   2.057
 1955SOL    HW1 9227   2.786   4.135   2.008
 1955SOL    HW2 9228   2.746   3.978   2.028
 1956SOL     OW 9229   2.412   3.920   2.747
 1956SOL    HW1 9230   2.407   3.915   2.847
 1956SOL    HW2 9231   2.414   4.016   2.718
 1957SOL     OW 9232   3.657   4.790   2.735
 1957SOL    HW1 9233   3.595   4.775   2.659
 1957SOL    HW2 9234   3.605   4.801   2.820
 1958SOL     OW 9235   2.064   4.009   3.360
 1958SOL    HW1 9236   1.984   4.069   3.347
 1958SOL    HW2 9237   2.054   3.960   3.446
 1959SOL     OW 9238   3.494   5.101   1.943
 1959SOL    HW1 9239   3.462   5.195   1.933
 1959SOL    HW2 9240   3.418   5.038   1.931
 1960SOL     OW 9241   2.244   4.424   2.342
 1960SOL    HW1 9242   2.289   4.334   2.339
 1960SOL    HW2 9243   2.150   4.413   2.375
 1961SOL     OW 9244   2.476   3.846   1.979
 1961SOL    HW1 9245   2.574   3.824   1.986
 1961SOL    HW2 9246   2.445   3.829   1.886
 1962SOL     OW 9247   2.643   3.988   3.611
 1962SOL    HW1 9248   2.710   3.927   3.654
 1962SOL    HW2 9249   2.570   4.007   3.676
 1963SOL     OW 9250   2.784   4.227   2.761
 1963SOL    HW1 9251   2.759   4.218   2.665
 1963SOL    HW2 9252   2.832   4.145   2.792
 1964SOL     OW 9253   2.401   3.788   2.374
 1964SOL    HW1 9254   2.320   3.789   2.432
 1964SOL    HW2 9255   2.404   3.871   2.319
 1965SOL     OW 9256   2.159   3.759   2.033
 1965SOL    HW1 9257   2.208   3.843   2.012
 1965SOL    HW2 9258   2.221   3.694   2.078
 1966SOL     OW 9259   2.797   3.960   2.342
 1966SOL    HW1 9260   2.749   4.001   2.264
 1966SOL    HW2 9261   2.896   3.958   2.323
 1967SOL     OW 9262   2.938   4.407   3.326
 1967SOL    HW1 9263   2.858   4.346   3.329
 1967SOL    HW2 9264   3.019   4.354   3.302
 1968SOL     OW 9265   3.089   5.294   2.655
 1968SOL    HW1 9266   3.110   5.368   2.590
 1968SOL    HW2 9267   3.157   5.294   2.728
 1969SOL     OW 9268   2.894   4.273   1.878
 1969SOL    HW1 9269   2.853   4.355   1.839
 1969SOL    HW2 9270   2.958   4.299   1.951
 1970SOL     OW 9271   1.940   4.280   3.248
 1970SOL    HW1 9272   2.032   4.279   3.207
 1970SOL    HW2 9273   1.934   4.354   3.315
 1971SOL     OW 9274   2.728   4.178   2.504
 1971SOL    HW1 9275   2.696   4.250   2.442
 1971SOL    HW2 9276   2.752   4.097   2.451
 1972SOL     OW 9277   2.879   3.763   2.615
 1972SOL    HW1 9278   2.807   3.768   2.546
 1972SOL    HW2 9279   2.855   3.694   2.684
 1973SOL     OW 9280   3.291   4.897   2.729
 1973SOL    HW1 9281   3.236   4.813   2.722
 1973SOL    HW2 9282   3.317   4.926   2.637
 1974SOL     OW 9283   3.328   4.314   2.854
 1974SOL    HW1 9284   3.298   4.219   2.861
 1974SOL    HW2 9285   3.401   4.330   2.920
 1975SOL     OW 9286   3.526   5.004   2.519
 1975SOL    HW1 9287   3.625   5.012   2.533
 1975SOL    HW2 9288   3.481   5.088   2.550
 1976SOL     OW 9289   3.500   4.823   2.941
 1976SOL    HW1 9290   3.505   4.904   3.000
 1976SOL    HW2 9291   3.414   4.825   2.890
 1977SOL     OW 9292   2.842   4.840   3.581
 1977SOL    HW1 9293   2.743   4.846   3.591
 1977SOL    HW2 9294   2.865   4.760   3.525
 1978SOL     OW 9295   2.272   4.537   3.113
 1978SOL    HW1 9296   2.358   4.549   3.163
 1978SOL    HW2 9297   2.230   4.450   3.140
 1979SOL     OW 9298   3.136   4.110   3.124
 1979SOL    HW1 9299   3.157   4.184   3.188
 1979SOL    HW2 9300   3.047   4.127   3.081
 1980SOL     OW 9301   2.229   4.824   2.363
 1980SOL    HW1 9302   2.222   4.907   2.307
 1980SOL    HW2 9303   2.233   4.744   2.303
 1981SOL     OW 9304   2.264   4.475   3.460
 1981SOL    HW1 9305   2.332   4.530   3.413
 1981SOL    HW2 9306   2.304   4.387   3.487
 1982SOL     OW 9307   3.449   4.503   3.532
 1982SOL    HW1 9308   3.357   4.541   3.527
 1982SOL    HW2 9309   3.509   4.550   3.467
 1983SOL     OW 9310   2.435   4.594   2.891
 1983SOL    HW1 9311   2.479   4.683   2.882
 1983SOL    HW2 9312   2.372   4.594   2.968
 1984SOL     OW 9313   2.169   3.937   3.093
 1984SOL    HW1 9314   2.146   3.974   3.183
 1984SOL    HW2 9315   2.139   3.842   3.087
 1985SOL     OW 9316   3.590   4.659   3.716
 1985SOL    HW1 9317   3.544   4.652   3.627
 1985SOL    HW2 9318   3.528   4.703   3.782
 1986SOL     OW 9319   2.885   4.490   2.828
 1986SOL    HW1 9320   2.900   4.511   2.924
 1986SOL    HW2 9321   2.855   4.395   2.819
 1987SOL     OW 9322   3.402   3.998   1.987
 1987SOL    HW1 9323   3.341   3.923   2.010
 1987SOL    HW2 9324   3.424   4.050   2.070
 1988SOL     OW 9325   3.165   4.562   1.904
 1988SOL    HW1 9326   3.199   4.469   1.919
 1988SOL    HW2 9327   3.183   4.589   1.809
 1989SOL     OW 9328   1.870   5.050   2.062
 1989SOL    HW1 9329   1.777   5.071   2.031
 1989SOL    HW2 9330   1.880   4.951   2.075
 1990SOL     OW 9331   2.864   4.520   3.100
 1990SOL    HW1 9332   2.905   4.488   3.186
 1990SOL    HW2 9333   2.768   4.493   3.097
 1991SOL     OW 9334   2.051   4.244   3.584
 1991SOL    HW1 9335   2.110   4.204   3.514
 1991SOL    HW2 9336   1.993   4.315   3.543
 1992SOL     OW 9337   3.231   4.674   3.522
 1992SOL    HW1 9338   3.270   4.763   3.542
 1992SOL    HW2 9339   3.241   4.654   3.425
 1993SOL     OW 9340   3.519   4.328   3.068
 1993SOL    HW1 9341   3.481   4.259   3.130
 1993SOL    HW2 9342   3.601   4.292   3.024
 1994SOL     OW 9343   2.021   4.861   3.328
 1994SOL    HW1 9344   2.043   4.800   3.404
 1994SOL    HW2 9345   2.031   4.812   3.242
 1995SOL     OW 9346   1.945   4.982   2.884
 1995SOL    HW1 9347   1.940   4.981   2.984
 1995SOL    HW2 9348   1.862   4.941   2.846
 1996SOL     OW 9349   3.588   3.859   2.385
 1996SOL    HW1 9350   3.661   3.842   2.318
 1996SOL    HW2 9351   3.557   3.772   2.423
 1997SOL     OW 9352   2.692   4.997   3.284
 1997SOL    HW1 9353   2.687   5.030   3.379
 1997SOL    HW2 9354   2.606   5.016   3.238
 1998SOL     OW 9355   3.703   3.899   2.825
 1998SOL    HW1 9356   3.742   3.814   2.789
 1998SOL    HW2 9357   3.605   3.901   2.806
 1999SOL     OW 9358   2.684   4.726   3.234
 1999SOL    HW1 9359   2.724   4.725   3.142
 1999SOL    HW2 9360   2.694   4.818   3.274
 2000SOL     OW 9361   2.234   5.012   3.352
 2000SOL    HW1 9362   2.221   5.105   3.318
 2000SOL    HW2 9363   2.150   4.960   3.339
 2001SOL     OW 9364   3.476   5.016   3.151
 2001SOL    HW1 9365   3.536   5.019   3.231
 2001SOL    HW2 9366   3.401   5.080   3.164
 2002SOL     OW 9367   3.571   4.109   3.243
 2002SOL    HW1 9368   3.644   4.178   3.247
 2002SOL    HW2 9369   3.599   4.034   3.184
 2003SOL     OW 9370   2.534   3.927   3.351
 2003SOL    HW1 9371   2.624   3.911   3.311
 2003SOL    HW2 9372   2.542   3.932   3.450
 2004SOL     OW 9373   1.937   4.069   1.895
 2004SOL    HW1 9374   1.845   4.041   1.866
 2004SOL    HW2 9375   1.968   4.146   1.839
 2005SOL     OW 9376   1.934   3.890   2.180
 2005SOL    HW1 9377   1.917   3.973   2.126
 2005SOL    HW2 9378   2.024   3.853   2.158
 2006SOL     OW 9379   2.475   4.566   3.293
 2006SOL    HW1 9380   2.531   4.647   3.276
 2006SOL    HW2 9381   2.534   4.486   3.296
 2007SOL     OW 9382   2.578   4.289   3.570
 2007SOL    HW1 9383   2.597   4.354   3.644
 2007SOL    HW2 9384   2.638   4.209   3.579
 2008SOL     OW 9385   3.312   4.944   3.495
 2008SOL    HW1 9386   3.303   4.934   3.594
 2008SOL    HW2 9387   3.408   4.937   3.469
 2009SOL     OW 9388   3.536   4.607   3.116
 2009SOL    HW1 9389   3.509   4.518   3.079
 2009SOL    HW2 9390   3.537   4.675   3.043
 2010SOL     OW 9391   3.087   4.049   2.311
 2010SOL    HW1 9392   3.152   3.975   2.300
 2010SOL    HW2 9393   3.107   4.099   2.395
 2011SOL     OW 9394   2.456   4.469   2.514
 2011SOL    HW1 9395   2.506   4.554   2.495
 2011SOL    HW2 9396   2.368   4.471   2.466
 2012SOL     OW 9397   2.945   4.708   1.949
 2012SOL    HW1 9398   2.922   4.761   1.867
 2012SOL    HW2 9399   3.026   4.652   1.930
 2013SOL     OW 9400   1.941   4.964   2.515
 2013SOL    HW1 9401   1.940   4.917   2.603
 2013SOL    HW2 9402   2.023   4.936   2.464
 2014SOL     OW 9403   3.686   3.916   3.089
 2014SOL    HW1 9404   3.682   3.826   3.133
 2014SOL    HW2 9405   3.689   3.905   2.990
 2015SOL     OW 9406   2.179   4.271   3.142
 2015SOL    HW1 9407   2.217   4.212   3.214
 2015SOL    HW2 9408   2.219   4.245   3.054
 2016SOL     OW 9409   3.286   3.938   2.974
 2016SOL    HW1 9410   3.338   3.873   3.029
 2016SOL    HW2 9411   3.237   4.001   3.035
 2017SOL     OW 9412   2.632   5.054   2.163
 2017SOL    HW1 9413   2.586   4.967   2.180
 2017SOL    HW2 9414   2.723   5.051   2.204
 2018SOL     OW 9415   3.214   3.776   2.030
 2018SOL    HW1 9416   3.249   3.735   1.946
 2018SOL    HW2 9417   3.124   3.738   2.050
 2019SOL     OW 9418   3.162   4.177   2.553
 2019SOL    HW1 9419   3.103   4.257   2.557
 2019SOL    HW2 9420   3.177   4.142   2.646
 2020SOL     OW 9421   3.455   3.945   2.744
 2020SOL    HW1 9422   3.371   3.944   2.798
 2020SOL    HW2 9423   3.457   4.028   2.688
 2021SOL     OW 9424   1.901   4.801   2.162
 2021SOL    HW1 9425   2.000   4.790   2.153
 2021SOL    HW2 9426   1.861   4.715   2.194
 2022SOL     OW 9427   1.881   4.092   4.371
 2022SOL    HW1 9428   1.799   4.135   4.410
 2022SOL    HW2 9429   1.853   4.019   4.308
 2023SOL     OW 9430   2.431   4.999   4.889
 2023SOL    HW1 9431   2.338   4.992   4.852
 2023SOL    HW2 9432   2.442   5.088   4.933
 2024SOL     OW 9433   2.997   4.427   4.441
 2024SOL    HW1 9434   3.054   4.505   4.416
 2024SOL    HW2 9435   2.937   4.453   4.517
 2025SOL     OW 9436   3.617   4.331   3.955
 2025SOL    HW1 9437   3.605   4.318   3.856
 2025SOL    HW2 9438   3.587   4.250   4.004
 2026SOL     OW 9439   2.630   4.868   4.747
 2026SOL    HW1 9440   2.552   4.885   4.807
 2026SOL    HW2 9441   2.664   4.955   4.711
 2027SOL     OW 9442   2.197   5.159   4.785
 2027SOL    HW1 9443   2.119   5.128   4.732
 2027SOL    HW2 9444   2.255   5.217   4.728
 2028SOL     OW 9445   2.102   4.815   4.610
 2028SOL    HW1 9446   2.116   4.731   4.662
 2028SOL    HW2 9447   2.047   4.879   4.665
 2029SOL     OW 9448   2.468   4.688   3.847
 2029SOL    HW1 9449   2.475   4.772   3.793
 2029SOL    HW2 9450   2.514   4.701   3.935
 2030SOL     OW 9451   1.984   4.367   4.287
 2030SOL    HW1 9452   1.939   4.279   4.304
 2030SOL    HW2 9453   1.983   4.421   4.371
 2031SOL     OW 9454   3.551   4.646   4.336
 2031SOL    HW1 9455   3.646   4.617   4.344
 2031SOL    HW2 9456   3.543   4.711   4.261
 2032SOL     OW 9457   3.503   4.832   4.156
 2032SOL    HW1 9458   3.589   4.834   4.104
 2032SOL    HW2 9459   3.517   4.879   4.244
 2033SOL     OW 9460   2.671   3.728   4.226
 2033SOL    HW1 9461   2.711   3.819   4.217
 2033SOL    HW2 9462   2.571   3.736   4.232
 2034SOL     OW 9463   2.059   4.700   4.988
 2034SOL    HW1 9464   2.148   4.655   4.974
 2034SOL    HW2 9465   1.986   4.635   4.969
 2035SOL     OW 9466   3.387   4.723   3.914
 2035SOL    HW1 9467   3.324   4.647   3.927
 2035SOL    HW2 9468   3.435   4.741   4.000
 2036SOL     OW 9469   3.328   5.141   4.677
 2036SOL    HW1 9470   3.269   5.147   4.757
 2036SOL    HW2 9471   3.313   5.053   4.631
 2037SOL     OW 9472   2.460   4.453   3.994
 2037SOL    HW1 9473   2.484   4.522   3.926
 2037SOL    HW2 9474   2.382   4.486   4.048
 2038SOL     OW 9475   3.143   4.069   4.668
 2038SOL    HW1 9476   3.057   4.019   4.655
 2038SOL    HW2 9477   3.205   4.015   4.724
 2039SOL     OW 9478   2.903   4.425   4.153
 2039SOL    HW1 9479   2.929   4.421   4.249
 2039SOL    HW2 9480   2.818   4.374   4.139
 2040SOL     OW 9481   1.938   4.535   4.513
 2040SOL    HW1 9482   2.037   4.523   4.522
 2040SOL    HW2 9483   1.914   4.630   4.534
 2041SOL     OW 9484   2.727   4.072   3.919
 2041SOL    HW1 9485   2.786   4.135   3.870
 2041SOL    HW2 9486   2.746   3.978   3.890
 2042SOL     OW 9487   2.412   3.920   4.609
 2042SOL    HW1 9488   2.407   3.915   4.709
 2042SOL    HW2 9489   2.414   4.016   4.580
 2043SOL     OW 9490   3.320   4.459   4.452
 2043SOL    HW1 9491   3.315   4.394   4.527
 2043SOL    HW2 9492   3.400   4.518   4.465
 2044SOL     OW 9493   3.494   5.101   3.805
 2044SOL    HW1 9494   3.462   5.195   3.795
 2044SOL    HW2 9495   3.418   5.038   3.793
 2045SOL     OW 9496   3.262   3.831   4.150
 2045SOL    HW1 9497   3.238   3.794   4.060
 2045SOL    HW2 9498   3.361   3.847   4.154
 2046SOL     OW 9499   2.244   4.424   4.204
 2046SOL    HW1 9500   2.289   4.334   4.201
 2046SOL    HW2 9501   2.150   4.413   4.237
 2047SOL     OW 9502   2.665   5.126   4.648
 2047SOL    HW1 9503   2.755   5.140   4.606
 2047SOL    HW2 9504   2.594   5.128   4.577
 2048SOL     OW 9505   2.784   4.227   4.623
 2048SOL    HW1 9506   2.759   4.218   4.527
 2048SOL    HW2 9507   2.832   4.145   4.654
 2049SOL     OW 9508   3.296   4.912   3.765
 2049SOL    HW1 9509   3.328   4.836   3.822
 2049SOL    HW2 9510   3.204   4.939   3.795
 2050SOL     OW 9511   2.159   3.759   3.895
 2050SOL    HW1 9512   2.208   3.843   3.874
 2050SOL    HW2 9513   2.221   3.694   3.940
 2051SOL     OW 9514   2.797   3.960   4.204
 2051SOL    HW1 9515   2.749   4.001   4.126
 2051SOL    HW2 9516   2.896   3.958   4.185
 2052SOL     OW 9517   2.423   3.946   4.871
 2052SOL    HW1 9518   2.461   3.862   4.908
 2052SOL    HW2 9519   2.335   3.965   4.915
 2053SOL     OW 9520   2.728   4.178   4.366
 2053SOL    HW1 9521   2.696   4.250   4.304
 2053SOL    HW2 9522   2.752   4.097   4.313
 2054SOL     OW 9523   2.879   3.763   4.477
 2054SOL    HW1 9524   2.807   3.768   4.408
 2054SOL    HW2 9525   2.855   3.694   4.546
 2055SOL     OW 9526   3.291   4.897   4.591
 2055SOL    HW1 9527   3.236   4.813   4.584
 2055SOL    HW2 9528   3.317   4.926   4.499
 2056SOL     OW 9529   3.328   4.314   4.716
 2056SOL    HW1 9530   3.298   4.219   4.723
 2056SOL    HW2 9531   3.401   4.330   4.782
 2057SOL     OW 9532   3.719   4.557   4.101
 2057SOL    HW1 9533   3.761   4.493   4.165
 2057SOL    HW2 9534   3.681   4.506   4.023
 2058SOL     OW 9535   3.526   5.004   4.381
 2058SOL    HW1 9536   3.625   5.012   4.395
 2058SOL    HW2 9537   3.481   5.088   4.412
 2059SOL     OW 9538   3.252   4.299   3.802
 2059SOL    HW1 9539   3.198   4.278   3.883
 2059SOL    HW2 9540   3.343   4.258   3.811
 2060SOL     OW 9541   2.389   3.980   4.052
 2060SOL    HW1 9542   2.416   3.921   3.977
 2060SOL    HW2 9543   2.389   4.075   4.021
 2061SOL     OW 9544   2.567   4.774   4.092
 2061SOL    HW1 9545   2.553   4.781   4.191
 2061SOL    HW2 9546   2.651   4.723   4.074
 2062SOL     OW 9547   2.272   4.537   4.975
 2062SOL    HW1 9548   2.358   4.549   5.025
 2062SOL    HW2 9549   2.230   4.450   5.002
 2063SOL     OW 9550   3.136   4.110   4.986
 2063SOL    HW1 9551   3.157   4.184   5.050
 2063SOL    HW2 9552   3.047   4.127   4.943
 2064SOL     OW 9553   2.428   4.261   4.589
 2064SOL    HW1 9554   2.440   4.327   4.515
 2064SOL    HW2 9555   2.474   4.295   4.672
 2065SOL     OW 9556   3.444   4.363   4.196
 2065SOL    HW1 9557   3.413   4.424   4.269
 2065SOL    HW2 9558   3.494   4.415   4.127
 2066SOL     OW 9559   2.435   4.594   4.753
 2066SOL    HW1 9560   2.479   4.683   4.744
 2066SOL    HW2 9561   2.372   4.594   4.830
 2067SOL     OW 9562   3.222   4.586   4.769
 2067SOL    HW1 9563   3.147   4.586   4.703
 2067SOL    HW2 9564   3.259   4.494   4.778
 2068SOL     OW 9565   3.071   4.249   3.999
 2068SOL    HW1 9566   3.084   4.165   4.053
 2068SOL    HW2 9567   3.042   4.323   4.059
 2069SOL     OW 9568   2.169   3.937   4.955
 2069SOL    HW1 9569   2.146   3.974   5.045
 2069SOL    HW2 9570   2.139   3.842   4.949
 2070SOL     OW 9571   2.594   4.358   4.788
 2070SOL    HW1 9572   2.653   4.332   4.712
 2070SOL    HW2 9573   2.566   4.454   4.777
 2071SOL     OW 9574   2.169   3.787   4.342
 2071SOL    HW1 9575   2.158   3.881   4.375
 2071SOL    HW2 9576   2.164   3.724   4.419
 2072SOL     OW 9577   3.484   4.091   4.098
 2072SOL    HW1 9578   3.486   4.015   4.162
 2072SOL    HW2 9579   3.436   4.168   4.138
 2073SOL     OW 9580   2.885   4.490   4.690
 2073SOL    HW1 9581   2.900   4.511   4.786
 2073SOL    HW2 9582   2.855   4.395   4.681
 2074SOL     OW 9583   3.402   3.998   3.849
 2074SOL    HW1 9584   3.341   3.923   3.872
 2074SOL    HW2 9585   3.424   4.050   3.932
 2075SOL     OW 9586   3.165   4.562   3.766
 2075SOL    HW1 9587   3.199   4.469   3.781
 2075SOL    HW2 9588   3.183   4.589   3.671
 2076SOL     OW 9589   2.181   4.534   4.673
 2076SOL    HW1 9590   2.274   4.570   4.678
 2076SOL    HW2 9591   2.175   4.449   4.725
 2077SOL     OW 9592   2.201   4.233   4.730
 2077SOL    HW1 9593   2.149   4.150   4.713
 2077SOL    HW2 9594   2.278   4.238   4.666
 2078SOL     OW 9595   3.022   3.931   5.201
 2078SOL    HW1 9596   3.022   3.995   5.278
 2078SOL    HW2 9597   3.050   3.979   5.118
 2079SOL     OW 9598   2.864   4.520   4.962
 2079SOL    HW1 9599   2.905   4.488   5.048
 2079SOL    HW2 9600   2.768   4.493   4.959
 2080SOL     OW 9601   2.677   4.296   4.049
 2080SOL    HW1 9602   2.684   4.207   4.003
 2080SOL    HW2 9603   2.583   4.330   4.041
 2081SOL     OW 9604   3.519   4.328   4.930
 2081SOL    HW1 9605   3.481   4.259   4.992
 2081SOL    HW2 9606   3.601   4.292   4.886
 2082SOL     OW 9607   2.533   4.188   4.993
 2082SOL    HW1 9608   2.499   4.099   4.963
 2082SOL    HW2 9609   2.559   4.242   4.913
 2083SOL     OW 9610   2.335   4.224   3.915
 2083SOL    HW1 9611   2.396   4.304   3.919
 2083SOL    HW2 9612   2.240   4.255   3.922
 2084SOL     OW 9613   3.209   4.783   4.958
 2084SOL    HW1 9614   3.233   4.720   4.884
 2084SOL    HW2 9615   3.119   4.823   4.940
 2085SOL     OW 9616   3.164   4.579   4.033
 2085SOL    HW1 9617   3.078   4.548   4.075
 2085SOL    HW2 9618   3.160   4.565   3.934
 2086SOL     OW 9619   1.945   4.982   4.746
 2086SOL    HW1 9620   1.940   4.981   4.846
 2086SOL    HW2 9621   1.862   4.941   4.708
 2087SOL     OW 9622   3.142   4.651   4.396
 2087SOL    HW1 9623   3.202   4.570   4.398
 2087SOL    HW2 9624   3.182   4.720   4.336
 2088SOL     OW 9625   2.692   4.997   5.146
 2088SOL    HW1 9626   2.687   5.030   5.241
 2088SOL    HW2 9627   2.606   5.016   5.100
 2089SOL     OW 9628   3.703   3.899   4.687
 2089SOL    HW1 9629   3.742   3.814   4.651
 2089SOL    HW2 9630   3.605   3.901   4.668
 2090SOL     OW 9631   2.684   4.726   5.096
 2090SOL    HW1 9632   2.724   4.725   5.004
 2090SOL    HW2 9633   2.694   4.818   5.136
 2091SOL     OW 9634   2.778   4.634   4.015
 2091SOL    HW1 9635   2.841   4.672   3.947
 2091SOL    HW2 9636   2.818   4.551   4.054
 2092SOL     OW 9637   2.901   4.822   4.420
 2092SOL    HW1 9638   2.831   4.775   4.474
 2092SOL    HW2 9639   2.960   4.754   4.377
 2093SOL     OW 9640   2.876   3.960   4.695
 2093SOL    HW1 9641   2.868   3.924   4.602
 2093SOL    HW2 9642   2.874   3.884   4.760
 2094SOL     OW 9643   3.571   4.109   5.105
 2094SOL    HW1 9644   3.644   4.178   5.109
 2094SOL    HW2 9645   3.599   4.034   5.046
 2095SOL     OW 9646   1.937   4.069   3.757
 2095SOL    HW1 9647   1.845   4.041   3.728
 2095SOL    HW2 9648   1.968   4.146   3.701
 2096SOL     OW 9649   1.934   3.890   4.042
 2096SOL    HW1 9650   1.917   3.973   3.988
 2096SOL    HW2 9651   2.024   3.853   4.020
 2097SOL     OW 9652   3.312   4.944   5.357
 2097SOL    HW1 9653   3.303   4.934   5.456
 2097SOL    HW2 9654   3.408   4.937   5.331
 2098SOL     OW 9655   3.536   4.607   4.978
 2098SOL    HW1 9656   3.509   4.518   4.941
 2098SOL    HW2 9657   3.537   4.675   4.905
 2099SOL     OW 9658   3.087   4.049   4.173
 2099SOL    HW1 9659   3.152   3.975   4.162
 2099SOL    HW2 9660   3.107   4.099   4.257
 2100SOL     OW 9661   2.456   4.469   4.376
 2100SOL    HW1 9662   2.506   4.554   4.357
 2100SOL    HW2 9663   2.368   4.471   4.328
 2101SOL     OW 9664   3.592   4.658   5.241
 2101SOL    HW1 9665   3.630   4.749   5.256
 2101SOL    HW2 9666   3.584   4.641   5.142
 2102SOL     OW 9667   2.721   4.680   4.585
 2102SOL    HW1 9668   2.775   4.611   4.633
 2102SOL    HW2 9669   2.689   4.749   4.651
 2103SOL     OW 9670   2.945   4.708   3.811
 2103SOL    HW1 9671   2.922   4.761   3.729
 2103SOL    HW2 9672   3.026   4.652   3.792
 2104SOL     OW 9673   1.941   4.964   4.377
 2104SOL    HW1 9674   1.940   4.917   4.465
 2104SOL    HW2 9675   2.023   4.936   4.326
 2105SOL     OW 9676   3.686   3.916   4.951
 2105SOL    HW1 9677   3.682   3.826   4.995
 2105SOL    HW2 9678   3.689   3.905   4.852
 2106SOL     OW 9679   2.290   4.148   4.244
 2106SOL    HW1 9680   2.320   4.076   4.182
 2106SOL    HW2 9681   2.251   4.108   4.327
 2107SOL     OW 9682   3.286   3.938   4.836
 2107SOL    HW1 9683   3.338   3.873   4.891
 2107SOL    HW2 9684   3.237   4.001   4.897
 2108SOL     OW 9685   2.863   3.758   4.878
 2108SOL    HW1 9686   2.800   3.686   4.847
 2108SOL    HW2 9687   2.956   3.722   4.878
 2109SOL     OW 9688   2.632   5.054   4.025
 2109SOL    HW1 9689   2.586   4.967   4.042
 2109SOL    HW2 9690   2.723   5.051   4.066
 2110SOL     OW 9691   3.162   4.177   4.415
 2110SOL    HW1 9692   3.103   4.257   4.419
 2110SOL    HW2 9693   3.177   4.142   4.508
 2111SOL     OW 9694   3.954   0.628   0.113
 2111SOL    HW1 9695   3.861   0.626   0.150
 2111SOL    HW2 9696   3.955   0.589   0.021
 2112SOL     OW 9697   3.949   0.275   0.996
 2112SOL    HW1 9698   3.984   0.258   1.088
 2112SOL    HW2 9699   3.861   0.230   0.984
 2113SOL     OW 9700   3.743   0.368   0.647
 2113SOL    HW1 9701   3.661   0.411   0.686
 2113SOL    HW2 9702   3.715   0.295   0.584
 2114SOL     OW 9703   4.293   1.275   1.165
 2114SOL    HW1 9704   4.200   1.268   1.128
 2114SOL    HW2 9705   4.304   1.364   1.209
 2115SOL     OW 9706   4.859   0.703   0.717
 2115SOL    HW1 9707   4.916   0.781   0.692
 2115SOL    HW2 9708   4.799   0.729   0.793
 2116SOL     OW 9709   4.492   1.144   1.023
 2116SOL    HW1 9710   4.414   1.161   1.083
 2116SOL    HW2 9711   4.526   1.231   0.987
 2117SOL     OW 9712   4.574   0.798   1.823
 2117SOL    HW1 9713   4.570   0.874   1.888
 2117SOL    HW2 9714   4.596   0.834   1.732
 2118SOL     OW 9715   4.410   1.161   1.803
 2118SOL    HW1 9716   4.470   1.240   1.817
 2118SOL    HW2 9717   4.324   1.192   1.762
 2119SOL     OW 9718   4.162   0.392   1.499
 2119SOL    HW1 9719   4.244   0.336   1.508
 2119SOL    HW2 9720   4.081   0.334   1.503
 2120SOL     OW 9721   3.954   1.434   0.538
 2120SOL    HW1 9722   3.928   1.530   0.538
 2120SOL    HW2 9723   3.883   1.380   0.583
 2121SOL     OW 9724   3.751   1.596   0.117
 2121SOL    HW1 9725   3.732   1.500   0.138
 2121SOL    HW2 9726   3.718   1.654   0.192
 2122SOL     OW 9727   4.911   1.792   1.616
 2122SOL    HW1 9728   4.935   1.852   1.540
 2122SOL    HW2 9729   4.918   1.697   1.586
 2123SOL     OW 9730   4.322   0.729   0.270
 2123SOL    HW1 9731   4.346   0.798   0.202
 2123SOL    HW2 9732   4.244   0.762   0.324
 2124SOL     OW 9733   5.005   0.345   0.944
 2124SOL    HW1 9734   4.919   0.295   0.931
 2124SOL    HW2 9735   5.067   0.291   1.000
 2125SOL     OW 9736   4.697   0.890   1.572
 2125SOL    HW1 9737   4.743   0.806   1.543
 2125SOL    HW2 9738   4.641   0.924   1.497
 2126SOL     OW 9739   4.765   0.701   0.429
 2126SOL    HW1 9740   4.791   0.697   0.525
 2126SOL    HW2 9741   4.680   0.650   0.415
 2127SOL     OW 9742   3.854   1.821   1.571
 2127SOL    HW1 9743   3.844   1.806   1.670
 2127SOL    HW2 9744   3.768   1.857   1.535
 2128SOL     OW 9745   4.589   0.348   0.195
 2128SOL    HW1 9746   4.648   0.411   0.146
 2128SOL    HW2 9747   4.608   0.254   0.166
 2129SOL     OW 9748   4.274   0.196   0.885
 2129SOL    HW1 9749   4.269   0.191   0.985
 2129SOL    HW2 9750   4.276   0.292   0.856
 2130SOL     OW 9751   4.951   1.550   1.506
 2130SOL    HW1 9752   4.957   1.473   1.570
 2130SOL    HW2 9753   4.899   1.524   1.426
 2131SOL     OW 9754   4.045   0.943   0.242
 2131SOL    HW1 9755   4.127   0.982   0.200
 2131SOL    HW2 9756   4.018   0.861   0.193
 2132SOL     OW 9757   4.185   1.266   1.727
 2132SOL    HW1 9758   4.135   1.267   1.641
 2132SOL    HW2 9759   4.122   1.248   1.803
 2133SOL     OW 9760   3.926   0.285   1.498
 2133SOL    HW1 9761   3.846   0.345   1.485
 2133SOL    HW2 9762   3.916   0.236   1.584
 2134SOL     OW 9763   5.356   1.377   0.081
 2134SOL    HW1 9764   5.324   1.471   0.071
 2134SOL    HW2 9765   5.280   1.314   0.069
 2135SOL     OW 9766   4.505   0.264   1.749
 2135SOL    HW1 9767   4.572   0.203   1.792
 2135SOL    HW2 9768   4.432   0.283   1.814
 2136SOL     OW 9769   4.612   1.514   1.195
 2136SOL    HW1 9770   4.589   1.489   1.101
 2136SOL    HW2 9771   4.673   1.445   1.234
 2137SOL     OW 9772   4.527   1.402   0.924
 2137SOL    HW1 9773   4.617   1.416   0.882
 2137SOL    HW2 9774   4.456   1.404   0.853
 2138SOL     OW 9775   4.263   0.064   0.512
 2138SOL    HW1 9776   4.182   0.065   0.570
 2138SOL    HW2 9777   4.266   0.147   0.457
 2139SOL     OW 9778   4.021   0.035   0.171
 2139SOL    HW1 9779   4.070   0.119   0.150
 2139SOL    HW2 9780   4.083  -0.030   0.216
 2140SOL     OW 9781   4.951   1.570   0.793
 2140SOL    HW1 9782   4.972   1.644   0.728
 2140SOL    HW2 9783   5.019   1.570   0.866
 2141SOL     OW 9784   4.756   0.549   0.016
 2141SOL    HW1 9785   4.715   0.631  -0.023
 2141SOL    HW2 9786   4.820   0.575   0.089
 2142SOL     OW 9787   4.285   0.222   1.147
 2142SOL    HW1 9788   4.323   0.138   1.184
 2142SOL    HW2 9789   4.197   0.241   1.191
 2143SOL     OW 9790   4.590   0.454   0.642
 2143SOL    HW1 9791   4.558   0.526   0.580
 2143SOL    HW2 9792   4.614   0.373   0.589
 2144SOL     OW 9793   4.212   1.385   0.174
 2144SOL    HW1 9794   4.125   1.370   0.221
 2144SOL    HW2 9795   4.195   1.411   0.079
 2145SOL     OW 9796   5.388   1.280   0.657
 2145SOL    HW1 9797   5.487   1.288   0.671
 2145SOL    HW2 9798   5.343   1.364   0.688
 2146SOL     OW 9799   4.788   1.347   1.340
 2146SOL    HW1 9800   4.708   1.324   1.395
 2146SOL    HW2 9801   4.871   1.321   1.389
 2147SOL     OW 9802   4.639   0.089   1.402
 2147SOL    HW1 9803   4.664   0.069   1.307
 2147SOL    HW2 9804   4.711   0.145   1.444
 2148SOL     OW 9805   4.429   1.050   0.368
 2148SOL    HW1 9806   4.415   1.057   0.467
 2148SOL    HW2 9807   4.513   0.999   0.350
 2149SOL     OW 9808   4.134   0.813   1.251
 2149SOL    HW1 9809   4.220   0.825   1.301
 2149SOL    HW2 9810   4.092   0.726   1.278
 2150SOL     OW 9811   4.091   1.100   0.501
 2150SOL    HW1 9812   4.084   1.183   0.445
 2150SOL    HW2 9813   4.095   1.020   0.441
 2151SOL     OW 9814   4.290   0.537   0.865
 2151SOL    HW1 9815   4.302   0.603   0.791
 2151SOL    HW2 9816   4.336   0.571   0.948
 2152SOL     OW 9817   4.976   1.348   0.388
 2152SOL    HW1 9818   5.026   1.425   0.428
 2152SOL    HW2 9819   4.881   1.350   0.420
 2153SOL     OW 9820   4.078   1.510   1.329
 2153SOL    HW1 9821   4.057   1.466   1.242
 2153SOL    HW2 9822   4.175   1.536   1.332
 2154SOL     OW 9823   4.737   0.105   1.770
 2154SOL    HW1 9824   4.743   0.190   1.718
 2154SOL    HW2 9825   4.769   0.029   1.713
 2155SOL     OW 9826   4.297   0.870   1.029
 2155SOL    HW1 9827   4.341   0.959   1.020
 2155SOL    HW2 9828   4.234   0.870   1.106
 2156SOL     OW 9829   4.933   0.525   0.275
 2156SOL    HW1 9830   4.946   0.441   0.329
 2156SOL    HW2 9831   4.904   0.599   0.335
 2157SOL     OW 9832   4.031   0.213   1.231
 2157SOL    HW1 9833   4.008   0.250   1.321
 2157SOL    HW2 9834   4.001   0.118   1.225
 2158SOL     OW 9835   4.456   0.634   1.064
 2158SOL    HW1 9836   4.515   0.608   0.988
 2158SOL    HW2 9837   4.428   0.730   1.053
 2159SOL     OW 9838   4.031   0.063   0.618
 2159SOL    HW1 9839   4.020   0.157   0.651
 2159SOL    HW2 9840   4.026   0.000   0.695
 2160SOL     OW 9841   5.346   0.367   0.374
 2160SOL    HW1 9842   5.348   0.291   0.438
 2160SOL    HW2 9843   5.298   0.444   0.414
 2161SOL     OW 9844   4.747   0.766   0.966
 2161SOL    HW1 9845   4.762   0.787   1.062
 2161SOL    HW2 9846   4.717   0.671   0.957
 2162SOL     OW 9847   5.027   0.838   0.042
 2162SOL    HW1 9848   5.061   0.745   0.057
 2162SOL    HW2 9849   5.045   0.865  -0.053
 2163SOL     OW 9850   4.043   0.810   0.949
 2163SOL    HW1 9851   4.136   0.846   0.954
 2163SOL    HW2 9852   4.037   0.725   1.001
 2164SOL     OW 9853   4.063   0.509   1.006
 2164SOL    HW1 9854   4.011   0.426   0.989
 2164SOL    HW2 9855   4.140   0.514   0.942
 2165SOL     OW 9856   4.228   1.568   0.910
 2165SOL    HW1 9857   4.294   1.642   0.919
 2165SOL    HW2 9858   4.272   1.489   0.868
 2166SOL     OW 9859   3.764   0.544   1.114
 2166SOL    HW1 9860   3.849   0.511   1.073
 2166SOL    HW2 9861   3.777   0.559   1.212
 2167SOL     OW 9862   4.539   0.572   0.325
 2167SOL    HW1 9863   4.546   0.483   0.279
 2167SOL    HW2 9864   4.445   0.606   0.317
 2168SOL     OW 9865   3.976   1.564   1.744
 2168SOL    HW1 9866   3.946   1.621   1.820
 2168SOL    HW2 9867   3.969   1.467   1.770
 2169SOL     OW 9868   4.395   0.464   1.269
 2169SOL    HW1 9869   4.361   0.375   1.239
 2169SOL    HW2 9870   4.421   0.518   1.189
 2170SOL     OW 9871   4.654   1.678   1.465
 2170SOL    HW1 9872   4.630   1.660   1.370
 2170SOL    HW2 9873   4.684   1.772   1.475
 2171SOL     OW 9874   4.197   0.500   0.191
 2171SOL    HW1 9875   4.258   0.580   0.195
 2171SOL    HW2 9876   4.102   0.531   0.198
 2172SOL     OW 9877   3.883   1.137   1.466
 2172SOL    HW1 9878   3.905   1.076   1.542
 2172SOL    HW2 9879   3.893   1.088   1.380
 2173SOL     OW 9880   4.412   1.662   1.716
 2173SOL    HW1 9881   4.356   1.743   1.725
 2173SOL    HW2 9882   4.464   1.666   1.630
 2174SOL     OW 9883   5.112   1.573   0.477
 2174SOL    HW1 9884   5.179   1.585   0.403
 2174SOL    HW2 9885   5.072   1.662   0.500
 2175SOL     OW 9886   3.854   1.794   1.851
 2175SOL    HW1 9887   3.813   1.720   1.904
 2175SOL    HW2 9888   3.918   1.845   1.909
 2176SOL     OW 9889   5.004   0.927   0.672
 2176SOL    HW1 9890   5.064   0.846   0.674
 2176SOL    HW2 9891   5.044   0.996   0.612
 2177SOL     OW 9892   4.396   1.616   0.154
 2177SOL    HW1 9893   4.405   1.626   0.055
 2177SOL    HW2 9894   4.356   1.527   0.175
 2178SOL     OW 9895   3.987   0.326   0.720
 2178SOL    HW1 9896   3.908   0.377   0.686
 2178SOL    HW2 9897   3.978   0.311   0.818
 2179SOL     OW 9898   4.918   1.612   0.031
 2179SOL    HW1 9899   4.924   1.519   0.068
 2179SOL    HW2 9900   4.859   1.612  -0.049
 2180SOL     OW 9901   4.640   0.910   0.291
 2180SOL    HW1 9902   4.703   0.948   0.223
 2180SOL    HW2 9903   4.680   0.827   0.330
 2181SOL     OW 9904   4.096   1.288   1.490
 2181SOL    HW1 9905   4.083   1.381   1.456
 2181SOL    HW2 9906   4.012   1.236   1.477
 2182SOL     OW 9907   4.763   1.098   0.696
 2182SOL    HW1 9908   4.693   1.051   0.750
 2182SOL    HW2 9909   4.822   1.030   0.653
 2183SOL     OW 9910   4.314   1.487   0.491
 2183SOL    HW1 9911   4.356   1.429   0.421
 2183SOL    HW2 9912   4.270   1.566   0.447
 2184SOL     OW 9913   3.979   1.348   0.290
 2184SOL    HW1 9914   3.883   1.349   0.263
 2184SOL    HW2 9915   3.991   1.401   0.374
 2185SOL     OW 9916   3.829   1.013   1.726
 2185SOL    HW1 9917   3.752   0.980   1.780
 2185SOL    HW2 9918   3.914   0.983   1.768
 2186SOL     OW 9919   4.396   0.203   1.489
 2186SOL    HW1 9920   4.486   0.187   1.449
 2186SOL    HW2 9921   4.404   0.208   1.588
 2187SOL     OW 9922   4.337   0.842   1.431
 2187SOL    HW1 9923   4.393   0.923   1.414
 2187SOL    HW2 9924   4.396   0.762   1.434
 2188SOL     OW 9925   4.440   0.565   1.708
 2188SOL    HW1 9926   4.459   0.630   1.782
 2188SOL    HW2 9927   4.500   0.485   1.717
 2189SOL     OW 9928   4.114   1.741   1.560
 2189SOL    HW1 9929   4.023   1.782   1.558
 2189SOL    HW2 9930   4.107   1.647   1.592
 2190SOL     OW 9931   4.949   0.325   0.449
 2190SOL    HW1 9932   5.014   0.251   0.438
 2190SOL    HW2 9933   4.969   0.375   0.533
 2191SOL     OW 9934   4.583   1.374   0.016
 2191SOL    HW1 9935   4.537   1.389   0.104
 2191SOL    HW2 9936   4.627   1.459  -0.014
 2192SOL     OW 9937   4.385   1.790   0.953
 2192SOL    HW1 9938   4.339   1.878   0.940
 2192SOL    HW2 9939   4.484   1.802   0.946
 2193SOL     OW 9940   4.583   0.956   0.861
 2193SOL    HW1 9941   4.637   0.887   0.909
 2193SOL    HW2 9942   4.551   1.025   0.927
 2194SOL     OW 9943   4.807   0.984   0.087
 2194SOL    HW1 9944   4.784   1.037   0.005
 2194SOL    HW2 9945   4.888   0.928   0.068
 2195SOL     OW 9946   3.945   1.314   1.844
 2195SOL    HW1 9947   3.880   1.241   1.823
 2195SOL    HW2 9948   3.949   1.328   1.942
 2196SOL     OW 9949   3.803   1.240   0.653
 2196SOL    HW1 9950   3.802   1.193   0.741
 2196SOL    HW2 9951   3.885   1.212   0.602
 2197SOL     OW 9952   4.396   1.391   1.624
 2197SOL    HW1 9953   4.318   1.341   1.662
 2197SOL    HW2 9954   4.393   1.486   1.655
 2198SOL     OW 9955   4.041   0.547   1.280
 2198SOL    HW1 9956   4.079   0.488   1.352
 2198SOL    HW2 9957   4.081   0.521   1.192
 2199SOL     OW 9958   4.725   0.034   1.154
 2199SOL    HW1 9959   4.662  -0.038   1.123
 2199SOL    HW2 9960   4.818  -0.002   1.154
 2200SOL     OW 9961   4.494   1.330   0.301
 2200SOL    HW1 9962   4.448   1.243   0.318
 2200SOL    HW2 9963   4.585   1.327   0.342
 2201SOL     OW 9964   4.342   1.567   1.284
 2201SOL    HW1 9965   4.337   1.649   1.341
 2201SOL    HW2 9966   4.431   1.564   1.239
 2202SOL     OW 9967   3.763   1.077   0.300
 2202SOL    HW1 9968   3.862   1.066   0.291
 2202SOL    HW2 9969   3.723   0.991   0.332
 2203SOL     OW 9970   4.599   1.646   0.337
 2203SOL    HW1 9971   4.522   1.611   0.283
 2203SOL    HW2 9972   4.567   1.717   0.399
 2204SOL     OW 9973   3.949   0.275   2.858
 2204SOL    HW1 9974   3.984   0.258   2.950
 2204SOL    HW2 9975   3.861   0.230   2.846
 2205SOL     OW 9976   3.743   0.368   2.509
 2205SOL    HW1 9977   3.661   0.411   2.548
 2205SOL    HW2 9978   3.715   0.295   2.446
 2206SOL     OW 9979   4.293   1.275   3.027
 2206SOL    HW1 9980   4.200   1.268   2.990
 2206SOL    HW2 9981   4.304   1.364   3.071
 2207SOL     OW 9982   4.492   1.144   2.885
 2207SOL    HW1 9983   4.414   1.161   2.945
 2207SOL    HW2 9984   4.526   1.231   2.849
 2208SOL     OW 9985   4.574   0.798   3.685
 2208SOL    HW1 9986   4.570   0.874   3.750
 2208SOL    HW2 9987   4.596   0.834   3.594
 2209SOL     OW 9988   4.409   1.012   2.527
 2209SOL    HW1 9989   4.478   0.996   2.597
 2209SOL    HW2 9990   4.336   1.069   2.565
 2210SOL     OW 9991   4.410   1.161   3.665
 2210SOL    HW1 9992   4.470   1.240   3.679
 2210SOL    HW2 9993   4.324   1.192   3.624
 2211SOL     OW 9994   4.059   1.435   2.923
 2211SOL    HW1 9995   3.981   1.404   2.870
 2211SOL    HW2 9996   4.117   1.493   2.866
 2212SOL     OW 9997   3.964   1.091   2.748
 2212SOL    HW1 9998   3.978   1.007   2.800
 2212SOL    HW2 9999   3.909   1.155   2.803
 2213SOL     OW10000   4.344   1.786   3.301
 2213SOL    HW110001   4.252   1.769   3.336
 2213SOL    HW210002   4.372   1.878   3.327
 2214SOL     OW10003   4.330   0.964   1.985
 2214SOL    HW110004   4.337   1.048   1.931
 2214SOL    HW210005   4.376   0.977   2.073
 2215SOL     OW10006   3.846   0.643   2.425
 2215SOL    HW110007   3.801   0.555   2.442
 2215SOL    HW210008   3.845   0.697   2.509
 2216SOL     OW10009   3.751   1.596   1.979
 2216SOL    HW110010   3.732   1.500   2.000
 2216SOL    HW210011   3.718   1.654   2.054
 2217SOL     OW10012   3.837   0.737   3.459
 2217SOL    HW110013   3.925   0.724   3.504
 2217SOL    HW210014   3.824   0.834   3.437
 2218SOL     OW10015   4.337   1.365   2.588
 2218SOL    HW110016   4.288   1.278   2.597
 2218SOL    HW210017   4.314   1.408   2.501
 2219SOL     OW10018   4.715   0.410   3.104
 2219SOL    HW110019   4.638   0.444   3.158
 2219SOL    HW210020   4.681   0.359   3.025
 2220SOL     OW10021   4.765   0.701   2.291
 2220SOL    HW110022   4.791   0.697   2.387
 2220SOL    HW210023   4.680   0.650   2.277
 2221SOL     OW10024   4.732   1.456   2.339
 2221SOL    HW110025   4.686   1.528   2.287
 2221SOL    HW210026   4.728   1.476   2.437
 2222SOL     OW10027   4.075   1.801   2.715
 2222SOL    HW110028   4.125   1.715   2.721
 2222SOL    HW210029   4.140   1.878   2.712
 2223SOL     OW10030   4.045   0.943   2.104
 2223SOL    HW110031   4.127   0.982   2.062
 2223SOL    HW210032   4.018   0.861   2.055
 2224SOL     OW10033   4.106   0.700   2.342
 2224SOL    HW110034   4.151   0.610   2.339
 2224SOL    HW210035   4.012   0.689   2.375
 2225SOL     OW10036   4.338   0.122   1.979
 2225SOL    HW110037   4.436   0.100   1.986
 2225SOL    HW210038   4.307   0.105   1.886
 2226SOL     OW10039   4.527   1.402   2.786
 2226SOL    HW110040   4.617   1.416   2.744
 2226SOL    HW210041   4.456   1.404   2.715
 2227SOL     OW10042   4.646   0.503   2.761
 2227SOL    HW110043   4.621   0.494   2.665
 2227SOL    HW210044   4.694   0.421   2.792
 2228SOL     OW10045   4.021   0.035   2.033
 2228SOL    HW110046   4.070   0.119   2.012
 2228SOL    HW210047   4.083  -0.030   2.078
 2229SOL     OW10048   4.659   0.236   2.342
 2229SOL    HW110049   4.611   0.277   2.264
 2229SOL    HW210050   4.758   0.234   2.323
 2230SOL     OW10051   4.183   1.152   2.603
 2230SOL    HW110052   4.112   1.125   2.668
 2230SOL    HW210053   4.157   1.124   2.510
 2231SOL     OW10054   4.756   0.549   1.878
 2231SOL    HW110055   4.715   0.631   1.839
 2231SOL    HW210056   4.820   0.575   1.951
 2232SOL     OW10057   3.802   0.556   3.248
 2232SOL    HW110058   3.894   0.555   3.207
 2232SOL    HW210059   3.796   0.630   3.315
 2233SOL     OW10060   4.590   0.454   2.504
 2233SOL    HW110061   4.558   0.526   2.442
 2233SOL    HW210062   4.614   0.373   2.451
 2234SOL     OW10063   4.212   1.385   2.036
 2234SOL    HW110064   4.125   1.370   2.083
 2234SOL    HW210065   4.195   1.411   1.941
 2235SOL     OW10066   5.388   1.280   2.519
 2235SOL    HW110067   5.487   1.288   2.533
 2235SOL    HW210068   5.343   1.364   2.550
 2236SOL     OW10069   4.835   1.195   2.962
 2236SOL    HW110070   4.795   1.239   3.043
 2236SOL    HW210071   4.794   1.232   2.879
 2237SOL     OW10072   4.639   0.089   3.264
 2237SOL    HW110073   4.664   0.069   3.169
 2237SOL    HW210074   4.711   0.145   3.306
 2238SOL     OW10075   4.704   1.116   3.581
 2238SOL    HW110076   4.605   1.122   3.591
 2238SOL    HW210077   4.727   1.036   3.525
 2239SOL     OW10078   4.429   1.050   2.230
 2239SOL    HW110079   4.415   1.057   2.329
 2239SOL    HW210080   4.513   0.999   2.212
 2240SOL     OW10081   4.998   0.386   3.124
 2240SOL    HW110082   5.019   0.460   3.188
 2240SOL    HW210083   4.909   0.403   3.081
 2241SOL     OW10084   4.091   1.100   2.363
 2241SOL    HW110085   4.084   1.183   2.307
 2241SOL    HW210086   4.095   1.020   2.303
 2242SOL     OW10087   4.290   0.537   2.727
 2242SOL    HW110088   4.302   0.603   2.653
 2242SOL    HW210089   4.336   0.571   2.810
 2243SOL     OW10090   4.737   0.105   3.632
 2243SOL    HW110091   4.743   0.190   3.580
 2243SOL    HW210092   4.769   0.029   3.575
 2244SOL     OW10093   4.228   0.050   3.602
 2244SOL    HW110094   4.186  -0.007   3.532
 2244SOL    HW210095   4.162   0.119   3.634
 2245SOL     OW10096   5.084   0.862   2.907
 2245SOL    HW110097   5.009   0.862   2.841
 2245SOL    HW210098   5.121   0.770   2.916
 2246SOL     OW10099   4.933   0.525   2.137
 2246SOL    HW110100   4.946   0.441   2.191
 2246SOL    HW210101   4.904   0.599   2.197
 2247SOL     OW10102   4.031   0.063   2.480
 2247SOL    HW110103   4.020   0.157   2.513
 2247SOL    HW210104   4.026   0.000   2.557
 2248SOL     OW10105   4.747   0.766   2.828
 2248SOL    HW110106   4.762   0.787   2.924
 2248SOL    HW210107   4.717   0.671   2.819
 2249SOL     OW10108   4.074   0.898   3.666
 2249SOL    HW110109   4.150   0.942   3.714
 2249SOL    HW210110   4.109   0.851   3.584
 2250SOL     OW10111   5.027   0.838   1.904
 2250SOL    HW110112   5.061   0.745   1.919
 2250SOL    HW210113   5.045   0.865   1.809
 2251SOL     OW10114   4.792   1.333   2.711
 2251SOL    HW110115   4.799   1.249   2.656
 2251SOL    HW210116   4.854   1.402   2.675
 2252SOL     OW10117   4.063   0.509   2.868
 2252SOL    HW110118   4.011   0.426   2.851
 2252SOL    HW210119   4.140   0.514   2.804
 2253SOL     OW10120   4.862   0.380   3.540
 2253SOL    HW110121   4.817   0.443   3.604
 2253SOL    HW210122   4.955   0.411   3.523
 2254SOL     OW10123   4.884   0.207   3.339
 2254SOL    HW110124   4.884   0.271   3.416
 2254SOL    HW210125   4.912   0.255   3.256
 2255SOL     OW10126   3.732   1.326   2.062
 2255SOL    HW110127   3.639   1.347   2.031
 2255SOL    HW210128   3.742   1.227   2.075
 2256SOL     OW10129   3.812   1.801   2.789
 2256SOL    HW110130   3.770   1.715   2.762
 2256SOL    HW210131   3.906   1.804   2.755
 2257SOL     OW10132   4.228   1.568   2.772
 2257SOL    HW110133   4.294   1.642   2.781
 2257SOL    HW210134   4.272   1.489   2.730
 2258SOL     OW10135   3.764   0.544   2.976
 2258SOL    HW110136   3.849   0.511   2.935
 2258SOL    HW210137   3.777   0.559   3.074
 2259SOL     OW10138   3.976   1.564   3.606
 2259SOL    HW110139   3.946   1.621   3.682
 2259SOL    HW210140   3.969   1.467   3.632
 2260SOL     OW10141   4.654   1.678   3.327
 2260SOL    HW110142   4.630   1.660   3.232
 2260SOL    HW210143   4.684   1.772   3.337
 2261SOL     OW10144   5.071   1.059   3.096
 2261SOL    HW110145   5.095   0.996   3.022
 2261SOL    HW210146   4.981   1.099   3.078
 2262SOL     OW10147   4.412   1.662   3.578
 2262SOL    HW110148   4.356   1.743   3.587
 2262SOL    HW210149   4.464   1.666   3.492
 2263SOL     OW10150   5.112   1.573   2.339
 2263SOL    HW110151   5.179   1.585   2.265
 2263SOL    HW210152   5.072   1.662   2.362
 2264SOL     OW10153   3.854   1.794   3.713
 2264SOL    HW110154   3.813   1.720   3.766
 2264SOL    HW210155   3.918   1.845   3.771
 2265SOL     OW10156   3.987   0.326   2.582
 2265SOL    HW110157   3.908   0.377   2.548
 2265SOL    HW210158   3.978   0.311   2.680
 2266SOL     OW10159   4.738   0.236   2.833
 2266SOL    HW110160   4.730   0.200   2.740
 2266SOL    HW210161   4.736   0.160   2.898
 2267SOL     OW10162   3.829   1.013   3.588
 2267SOL    HW110163   3.752   0.980   3.642
 2267SOL    HW210164   3.914   0.983   3.630
 2268SOL     OW10165   3.799   0.345   1.895
 2268SOL    HW110166   3.707   0.317   1.866
 2268SOL    HW210167   3.830   0.422   1.839
 2269SOL     OW10168   5.164   0.856   3.260
 2269SOL    HW110169   5.107   0.908   3.197
 2269SOL    HW210170   5.260   0.868   3.236
 2270SOL     OW10171   3.796   0.166   2.180
 2270SOL    HW110172   3.779   0.249   2.126
 2270SOL    HW210173   3.886   0.129   2.158
 2271SOL     OW10174   4.318   0.745   2.514
 2271SOL    HW110175   4.368   0.830   2.495
 2271SOL    HW210176   4.230   0.747   2.466
 2272SOL     OW10177   4.583   0.956   2.723
 2272SOL    HW110178   4.637   0.887   2.771
 2272SOL    HW210179   4.551   1.025   2.789
 2273SOL     OW10180   3.945   1.314   3.706
 2273SOL    HW110181   3.880   1.241   3.685
 2273SOL    HW210182   3.949   1.328   3.804
 2274SOL     OW10183   4.041   0.547   3.142
 2274SOL    HW110184   4.079   0.488   3.214
 2274SOL    HW210185   4.081   0.521   3.054
 2275SOL     OW10186   4.536   1.586   2.549
 2275SOL    HW110187   4.568   1.596   2.455
 2275SOL    HW210188   4.457   1.524   2.551
 2276SOL     OW10189   4.725   0.034   3.016
 2276SOL    HW110190   4.662  -0.038   2.985
 2276SOL    HW210191   4.818  -0.002   3.016
 2277SOL     OW10192   4.494   1.330   2.163
 2277SOL    HW110193   4.448   1.243   2.180
 2277SOL    HW210194   4.585   1.327   2.204
 2278SOL     OW10195   4.342   1.567   3.146
 2278SOL    HW110196   4.337   1.649   3.203
 2278SOL    HW210197   4.431   1.564   3.101
 2279SOL     OW10198   3.763   1.077   2.162
 2279SOL    HW110199   3.862   1.066   2.153
 2279SOL    HW210200   3.723   0.991   2.194
 2280SOL     OW10201   4.599   1.646   2.199
 2280SOL    HW110202   4.522   1.611   2.145
 2280SOL    HW210203   4.567   1.717   2.261
 2281SOL     OW10204   3.954   0.628   3.837
 2281SOL    HW110205   3.861   0.626   3.874
 2281SOL    HW210206   3.955   0.589   3.745
 2282SOL     OW10207   3.949   0.275   4.720
 2282SOL    HW110208   3.984   0.258   4.812
 2282SOL    HW210209   3.861   0.230   4.708
 2283SOL     OW10210   3.743   0.368   4.371
 2283SOL    HW110211   3.661   0.411   4.410
 2283SOL    HW210212   3.715   0.295   4.308
 2284SOL     OW10213   4.293   1.275   4.889
 2284SOL    HW110214   4.200   1.268   4.852
 2284SOL    HW210215   4.304   1.364   4.933
 2285SOL     OW10216   4.492   1.144   4.747
 2285SOL    HW110217   4.414   1.161   4.807
 2285SOL    HW210218   4.526   1.231   4.711
 2286SOL     OW10219   4.409   1.012   4.389
 2286SOL    HW110220   4.478   0.996   4.459
 2286SOL    HW210221   4.336   1.069   4.427
 2287SOL     OW10222   4.059   1.435   4.785
 2287SOL    HW110223   3.981   1.404   4.732
 2287SOL    HW210224   4.117   1.493   4.728
 2288SOL     OW10225   3.954   1.434   4.262
 2288SOL    HW110226   3.928   1.530   4.262
 2288SOL    HW210227   3.883   1.380   4.307
 2289SOL     OW10228   4.344   1.786   5.163
 2289SOL    HW110229   4.252   1.769   5.198
 2289SOL    HW210230   4.372   1.878   5.189
 2290SOL     OW10231   3.846   0.643   4.287
 2290SOL    HW110232   3.801   0.555   4.304
 2290SOL    HW210233   3.845   0.697   4.371
 2291SOL     OW10234   4.533   0.004   4.226
 2291SOL    HW110235   4.573   0.095   4.217
 2291SOL    HW210236   4.433   0.012   4.232
 2292SOL     OW10237   3.921   0.976   4.988
 2292SOL    HW110238   4.010   0.931   4.974
 2292SOL    HW210239   3.848   0.911   4.969
 2293SOL     OW10240   4.322   0.729   3.994
 2293SOL    HW110241   4.346   0.798   3.926
 2293SOL    HW210242   4.244   0.762   4.048
 2294SOL     OW10243   5.005   0.345   4.668
 2294SOL    HW110244   4.919   0.295   4.655
 2294SOL    HW210245   5.067   0.291   4.724
 2295SOL     OW10246   4.715   0.410   4.966
 2295SOL    HW110247   4.638   0.444   5.020
 2295SOL    HW210248   4.681   0.359   4.887
 2296SOL     OW10249   4.765   0.701   4.153
 2296SOL    HW110250   4.791   0.697   4.249
 2296SOL    HW210251   4.680   0.650   4.139
 2297SOL     OW10252   4.589   0.348   3.919
 2297SOL    HW110253   4.648   0.411   3.870
 2297SOL    HW210254   4.608   0.254   3.890
 2298SOL     OW10255   4.274   0.196   4.609
 2298SOL    HW110256   4.269   0.191   4.709
 2298SOL    HW210257   4.276   0.292   4.580
 2299SOL     OW10258   4.732   1.456   4.201
 2299SOL    HW110259   4.686   1.528   4.149
 2299SOL    HW210260   4.728   1.476   4.299
 2300SOL     OW10261   4.835   1.776   3.961
 2300SOL    HW110262   4.775   1.714   4.011
 2300SOL    HW210263   4.866   1.732   3.876
 2301SOL     OW10264   4.188   1.743   4.047
 2301SOL    HW110265   4.221   1.782   4.133
 2301SOL    HW210266   4.264   1.736   3.982
 2302SOL     OW10267   3.973   1.785   4.965
 2302SOL    HW110268   4.030   1.720   5.015
 2302SOL    HW210269   3.957   1.752   4.872
 2303SOL     OW10270   4.664   1.698   4.628
 2303SOL    HW110271   4.744   1.641   4.649
 2303SOL    HW210272   4.615   1.658   4.551
 2304SOL     OW10273   4.106   0.700   4.204
 2304SOL    HW110274   4.151   0.610   4.201
 2304SOL    HW210275   4.012   0.689   4.237
 2305SOL     OW10276   4.338   0.122   3.841
 2305SOL    HW110277   4.436   0.100   3.848
 2305SOL    HW210278   4.307   0.105   3.748
 2306SOL     OW10279   4.646   0.503   4.623
 2306SOL    HW110280   4.621   0.494   4.527
 2306SOL    HW210281   4.694   0.421   4.654
 2307SOL     OW10282   4.263   0.064   4.236
 2307SOL    HW110283   4.182   0.065   4.294
 2307SOL    HW210284   4.266   0.147   4.181
 2308SOL     OW10285   4.021   0.035   3.895
 2308SOL    HW110286   4.070   0.119   3.874
 2308SOL    HW210287   4.083  -0.030   3.940
 2309SOL     OW10288   4.659   0.236   4.204
 2309SOL    HW110289   4.611   0.277   4.126
 2309SOL    HW210290   4.758   0.234   4.185
 2310SOL     OW10291   4.951   1.570   4.517
 2310SOL    HW110292   4.972   1.644   4.452
 2310SOL    HW210293   5.019   1.570   4.590
 2311SOL     OW10294   4.756   0.549   3.740
 2311SOL    HW110295   4.715   0.631   3.701
 2311SOL    HW210296   4.820   0.575   3.813
 2312SOL     OW10297   4.285   0.222   4.871
 2312SOL    HW110298   4.323   0.138   4.908
 2312SOL    HW210299   4.197   0.241   4.915
 2313SOL     OW10300   4.590   0.454   4.366
 2313SOL    HW110301   4.558   0.526   4.304
 2313SOL    HW210302   4.614   0.373   4.313
 2314SOL     OW10303   4.741   0.039   4.477
 2314SOL    HW110304   4.669   0.044   4.408
 2314SOL    HW210305   4.717  -0.030   4.546
 2315SOL     OW10306   4.212   1.385   3.898
 2315SOL    HW110307   4.125   1.370   3.945
 2315SOL    HW210308   4.195   1.411   3.803
 2316SOL     OW10309   5.388   1.280   4.381
 2316SOL    HW110310   5.487   1.288   4.395
 2316SOL    HW210311   5.343   1.364   4.412
 2317SOL     OW10312   4.251   0.256   4.052
 2317SOL    HW110313   4.278   0.197   3.977
 2317SOL    HW210314   4.251   0.351   4.021
 2318SOL     OW10315   5.316   1.629   5.349
 2318SOL    HW110316   5.343   1.663   5.259
 2318SOL    HW210317   5.395   1.591   5.395
 2319SOL     OW10318   4.134   0.813   4.975
 2319SOL    HW110319   4.220   0.825   5.025
 2319SOL    HW210320   4.092   0.726   5.002
 2320SOL     OW10321   4.091   1.100   4.225
 2320SOL    HW110322   4.084   1.183   4.169
 2320SOL    HW210323   4.095   1.020   4.165
 2321SOL     OW10324   4.290   0.537   4.589
 2321SOL    HW110325   4.302   0.603   4.515
 2321SOL    HW210326   4.336   0.571   4.672
 2322SOL     OW10327   4.976   1.348   4.112
 2322SOL    HW110328   5.026   1.425   4.152
 2322SOL    HW210329   4.881   1.350   4.144
 2323SOL     OW10330   4.078   1.510   5.053
 2323SOL    HW110331   4.057   1.466   4.966
 2323SOL    HW210332   4.175   1.536   5.056
 2324SOL     OW10333   4.933   0.525   3.999
 2324SOL    HW110334   4.946   0.441   4.053
 2324SOL    HW210335   4.904   0.599   4.059
 2325SOL     OW10336   4.031   0.213   4.955
 2325SOL    HW110337   4.008   0.250   5.045
 2325SOL    HW210338   4.001   0.118   4.949
 2326SOL     OW10339   3.761   1.310   5.006
 2326SOL    HW110340   3.814   1.261   5.074
 2326SOL    HW210341   3.783   1.408   5.011
 2327SOL     OW10342   4.456   0.634   4.788
 2327SOL    HW110343   4.515   0.608   4.712
 2327SOL    HW210344   4.428   0.730   4.777
 2328SOL     OW10345   4.031   0.063   4.342
 2328SOL    HW110346   4.020   0.157   4.375
 2328SOL    HW210347   4.026   0.000   4.419
 2329SOL     OW10348   4.747   0.766   4.690
 2329SOL    HW110349   4.762   0.787   4.786
 2329SOL    HW210350   4.717   0.671   4.681
 2330SOL     OW10351   5.027   0.838   3.766
 2330SOL    HW110352   5.061   0.745   3.781
 2330SOL    HW210353   5.045   0.865   3.671
 2331SOL     OW10354   4.043   0.810   4.673
 2331SOL    HW110355   4.136   0.846   4.678
 2331SOL    HW210356   4.037   0.725   4.725
 2332SOL     OW10357   4.063   0.509   4.730
 2332SOL    HW110358   4.011   0.426   4.713
 2332SOL    HW210359   4.140   0.514   4.666
 2333SOL     OW10360   4.884   0.207   5.201
 2333SOL    HW110361   4.884   0.271   5.278
 2333SOL    HW210362   4.912   0.255   5.118
 2334SOL     OW10363   4.228   1.568   4.634
 2334SOL    HW110364   4.294   1.642   4.643
 2334SOL    HW210365   4.272   1.489   4.592
 2335SOL     OW10366   3.764   0.544   4.838
 2335SOL    HW110367   3.849   0.511   4.797
 2335SOL    HW210368   3.777   0.559   4.936
 2336SOL     OW10369   4.539   0.572   4.049
 2336SOL    HW110370   4.546   0.483   4.003
 2336SOL    HW210371   4.445   0.606   4.041
 2337SOL     OW10372   4.395   0.464   4.993
 2337SOL    HW110373   4.361   0.375   4.963
 2337SOL    HW210374   4.421   0.518   4.913
 2338SOL     OW10375   4.654   1.678   5.189
 2338SOL    HW110376   4.630   1.660   5.094
 2338SOL    HW210377   4.684   1.772   5.199
 2339SOL     OW10378   4.197   0.500   3.915
 2339SOL    HW110379   4.258   0.580   3.919
 2339SOL    HW210380   4.102   0.531   3.922
 2340SOL     OW10381   5.112   1.573   4.201
 2340SOL    HW110382   5.179   1.585   4.127
 2340SOL    HW210383   5.072   1.662   4.224
 2341SOL     OW10384   4.396   1.616   3.878
 2341SOL    HW110385   4.405   1.626   3.779
 2341SOL    HW210386   4.356   1.527   3.899
 2342SOL     OW10387   3.987   0.326   4.444
 2342SOL    HW110388   3.908   0.377   4.410
 2342SOL    HW210389   3.978   0.311   4.542
 2343SOL     OW10390   4.918   1.612   3.755
 2343SOL    HW110391   4.924   1.519   3.792
 2343SOL    HW210392   4.859   1.612   3.675
 2344SOL     OW10393   4.546   1.002   5.096
 2344SOL    HW110394   4.586   1.001   5.004
 2344SOL    HW210395   4.556   1.094   5.136
 2345SOL     OW10396   4.640   0.910   4.015
 2345SOL    HW110397   4.703   0.948   3.947
 2345SOL    HW210398   4.680   0.827   4.054
 2346SOL     OW10399   4.738   0.236   4.695
 2346SOL    HW110400   4.730   0.200   4.602
 2346SOL    HW210401   4.736   0.160   4.760
 2347SOL     OW10402   4.314   1.487   4.215
 2347SOL    HW110403   4.356   1.429   4.145
 2347SOL    HW210404   4.270   1.566   4.171
 2348SOL     OW10405   3.979   1.348   4.014
 2348SOL    HW110406   3.883   1.349   3.987
 2348SOL    HW210407   3.991   1.401   4.098
 2349SOL     OW10408   3.796   0.166   4.042
 2349SOL    HW110409   3.779   0.249   3.988
 2349SOL    HW210410   3.886   0.129   4.020
 2350SOL     OW10411   4.949   0.325   4.173
 2350SOL    HW110412   5.014   0.251   4.162
 2350SOL    HW210413   4.969   0.375   4.257
 2351SOL     OW10414   4.318   0.745   4.376
 2351SOL    HW110415   4.368   0.830   4.357
 2351SOL    HW210416   4.230   0.747   4.328
 2352SOL     OW10417   4.583   1.374   3.740
 2352SOL    HW110418   4.537   1.389   3.828
 2352SOL    HW210419   4.627   1.459   3.710
 2353SOL     OW10420   4.385   1.790   4.677
 2353SOL    HW110421   4.339   1.878   4.664
 2353SOL    HW210422   4.484   1.802   4.670
 2354SOL     OW10423   4.583   0.956   4.585
 2354SOL    HW110424   4.637   0.887   4.633
 2354SOL    HW210425   4.551   1.025   4.651
 2355SOL     OW10426   4.807   0.984   3.811
 2355SOL    HW110427   4.784   1.037   3.729
 2355SOL    HW210428   4.888   0.928   3.792
 2356SOL     OW10429   4.152   0.424   4.244
 2356SOL    HW110430   4.182   0.352   4.182
 2356SOL    HW210431   4.113   0.384   4.327
 2357SOL     OW10432   4.725   0.034   4.878
 2357SOL    HW110433   4.662  -0.038   4.847
 2357SOL    HW210434   4.818  -0.002   4.878
 2358SOL     OW10435   4.494   1.330   4.025
 2358SOL    HW110436   4.448   1.243   4.042
 2358SOL    HW210437   4.585   1.327   4.066
 2359SOL     OW10438   3.763   1.077   4.024
 2359SOL    HW110439   3.862   1.066   4.015
 2359SOL    HW210440   3.723   0.991   4.056
 2360SOL     OW10441   4.599   1.646   4.061
 2360SOL    HW110442   4.522   1.611   4.007
 2360SOL    HW210443   4.567   1.717   4.123
 2361SOL     OW10444   3.954   2.490   0.113
 2361SOL    HW110445   3.861   2.488   0.150
 2361SOL    HW210446   3.955   2.451   0.021
 2362SOL     OW10447   3.743   2.230   0.647
 2362SOL    HW110448   3.661   2.273   0.686
 2362SOL    HW210449   3.715   2.157   0.584
 2363SOL     OW10450   4.859   2.565   0.717
 2363SOL    HW110451   4.916   2.643   0.692
 2363SOL    HW210452   4.799   2.591   0.793
 2364SOL     OW10453   4.492   3.006   1.023
 2364SOL    HW110454   4.414   3.023   1.083
 2364SOL    HW210455   4.526   3.093   0.987
 2365SOL     OW10456   4.574   2.660   1.823
 2365SOL    HW110457   4.570   2.736   1.888
 2365SOL    HW210458   4.596   2.696   1.732
 2366SOL     OW10459   4.409   2.874   0.665
 2366SOL    HW110460   4.478   2.858   0.735
 2366SOL    HW210461   4.336   2.931   0.703
 2367SOL     OW10462   4.410   3.023   1.803
 2367SOL    HW110463   4.470   3.102   1.817
 2367SOL    HW210464   4.324   3.054   1.762
 2368SOL     OW10465   4.059   3.297   1.061
 2368SOL    HW110466   3.981   3.266   1.008
 2368SOL    HW210467   4.117   3.355   1.004
 2369SOL     OW10468   4.162   2.254   1.499
 2369SOL    HW110469   4.244   2.198   1.508
 2369SOL    HW210470   4.081   2.196   1.503
 2370SOL     OW10471   3.955   3.575   0.483
 2370SOL    HW110472   3.989   3.652   0.537
 2370SOL    HW210473   3.999   3.575   0.393
 2371SOL     OW10474   4.851   3.203   1.690
 2371SOL    HW110475   4.898   3.203   1.778
 2371SOL    HW210476   4.803   3.116   1.679
 2372SOL     OW10477   3.954   3.296   0.538
 2372SOL    HW110478   3.928   3.392   0.538
 2372SOL    HW210479   3.883   3.242   0.583
 2373SOL     OW10480   3.964   2.953   0.886
 2373SOL    HW110481   3.978   2.869   0.938
 2373SOL    HW210482   3.909   3.017   0.941
 2374SOL     OW10483   4.344   3.648   1.439
 2374SOL    HW110484   4.252   3.631   1.474
 2374SOL    HW210485   4.372   3.740   1.465
 2375SOL     OW10486   4.330   2.826   0.123
 2375SOL    HW110487   4.337   2.910   0.069
 2375SOL    HW210488   4.376   2.839   0.211
 2376SOL     OW10489   3.846   2.505   0.563
 2376SOL    HW110490   3.801   2.417   0.580
 2376SOL    HW210491   3.845   2.559   0.647
 2377SOL     OW10492   3.751   3.458   0.117
 2377SOL    HW110493   3.732   3.362   0.138
 2377SOL    HW210494   3.718   3.516   0.192
 2378SOL     OW10495   3.837   2.599   1.597
 2378SOL    HW110496   3.925   2.586   1.642
 2378SOL    HW210497   3.824   2.696   1.575
 2379SOL     OW10498   4.337   3.227   0.726
 2379SOL    HW110499   4.288   3.140   0.735
 2379SOL    HW210500   4.314   3.270   0.639
 2380SOL     OW10501   4.041   2.113   1.801
 2380SOL    HW110502   4.112   2.184   1.807
 2380SOL    HW210503   3.953   2.152   1.829
 2381SOL     OW10504   5.005   2.207   0.944
 2381SOL    HW110505   4.919   2.157   0.931
 2381SOL    HW210506   5.067   2.153   1.000
 2382SOL     OW10507   4.531   2.467   1.465
 2382SOL    HW110508   4.484   2.464   1.554
 2382SOL    HW210509   4.480   2.412   1.399
 2383SOL     OW10510   4.697   2.752   1.572
 2383SOL    HW110511   4.743   2.668   1.543
 2383SOL    HW210512   4.641   2.786   1.497
 2384SOL     OW10513   4.715   2.272   1.242
 2384SOL    HW110514   4.638   2.306   1.296
 2384SOL    HW210515   4.681   2.221   1.163
 2385SOL     OW10516   4.765   2.563   0.429
 2385SOL    HW110517   4.791   2.559   0.525
 2385SOL    HW210518   4.680   2.512   0.415
 2386SOL     OW10519   3.854   3.683   1.571
 2386SOL    HW110520   3.844   3.668   1.670
 2386SOL    HW210521   3.768   3.719   1.535
 2387SOL     OW10522   4.075   3.663   0.853
 2387SOL    HW110523   4.125   3.577   0.859
 2387SOL    HW210524   4.140   3.740   0.850
 2388SOL     OW10525   4.045   2.805   0.242
 2388SOL    HW110526   4.127   2.844   0.200
 2388SOL    HW210527   4.018   2.723   0.193
 2389SOL     OW10528   4.185   3.128   1.727
 2389SOL    HW110529   4.135   3.129   1.641
 2389SOL    HW210530   4.122   3.110   1.803
 2390SOL     OW10531   4.835   3.638   0.237
 2390SOL    HW110532   4.775   3.576   0.287
 2390SOL    HW210533   4.866   3.594   0.152
 2391SOL     OW10534   3.926   2.147   1.498
 2391SOL    HW110535   3.846   2.207   1.485
 2391SOL    HW210536   3.916   2.098   1.584
 2392SOL     OW10537   5.356   3.239   0.081
 2392SOL    HW110538   5.324   3.333   0.071
 2392SOL    HW210539   5.280   3.176   0.069
 2393SOL     OW10540   4.188   3.605   0.323
 2393SOL    HW110541   4.221   3.644   0.409
 2393SOL    HW210542   4.264   3.598   0.258
 2394SOL     OW10543   3.973   3.647   1.241
 2394SOL    HW110544   4.030   3.582   1.291
 2394SOL    HW210545   3.957   3.614   1.148
 2395SOL     OW10546   4.664   3.560   0.904
 2395SOL    HW110547   4.744   3.503   0.925
 2395SOL    HW210548   4.615   3.520   0.827
 2396SOL     OW10549   4.505   2.126   1.749
 2396SOL    HW110550   4.572   2.065   1.792
 2396SOL    HW210551   4.432   2.145   1.814
 2397SOL     OW10552   4.527   3.264   0.924
 2397SOL    HW110553   4.617   3.278   0.882
 2397SOL    HW210554   4.456   3.266   0.853
 2398SOL     OW10555   4.646   2.365   0.899
 2398SOL    HW110556   4.621   2.356   0.803
 2398SOL    HW210557   4.694   2.283   0.930
 2399SOL     OW10558   4.800   2.545   1.464
 2399SOL    HW110559   4.720   2.484   1.467
 2399SOL    HW210560   4.881   2.492   1.440
 2400SOL     OW10561   4.951   3.432   0.793
 2400SOL    HW110562   4.972   3.506   0.728
 2400SOL    HW210563   5.019   3.432   0.866
 2401SOL     OW10564   4.183   3.014   0.741
 2401SOL    HW110565   4.112   2.987   0.806
 2401SOL    HW210566   4.157   2.986   0.648
 2402SOL     OW10567   4.756   2.411   0.016
 2402SOL    HW110568   4.715   2.493  -0.023
 2402SOL    HW210569   4.820   2.437   0.089
 2403SOL     OW10570   3.802   2.418   1.386
 2403SOL    HW110571   3.894   2.417   1.345
 2403SOL    HW210572   3.796   2.492   1.453
 2404SOL     OW10573   4.285   2.084   1.147
 2404SOL    HW110574   4.323   2.000   1.184
 2404SOL    HW210575   4.197   2.103   1.191
 2405SOL     OW10576   4.590   2.316   0.642
 2405SOL    HW110577   4.558   2.388   0.580
 2405SOL    HW210578   4.614   2.235   0.589
 2406SOL     OW10579   4.741   1.901   0.753
 2406SOL    HW110580   4.669   1.906   0.684
 2406SOL    HW210581   4.717   1.832   0.822
 2407SOL     OW10582   4.212   3.247   0.174
 2407SOL    HW110583   4.125   3.232   0.221
 2407SOL    HW210584   4.195   3.273   0.079
 2408SOL     OW10585   4.429   2.912   0.368
 2408SOL    HW110586   4.415   2.919   0.467
 2408SOL    HW210587   4.513   2.861   0.350
 2409SOL     OW10588   4.134   2.675   1.251
 2409SOL    HW110589   4.220   2.687   1.301
 2409SOL    HW210590   4.092   2.588   1.278
 2410SOL     OW10591   3.788   3.426   1.331
 2410SOL    HW110592   3.742   3.508   1.297
 2410SOL    HW210593   3.886   3.445   1.340
 2411SOL     OW10594   4.976   3.210   0.388
 2411SOL    HW110595   5.026   3.287   0.428
 2411SOL    HW210596   4.881   3.212   0.420
 2412SOL     OW10597   4.126   2.613   1.598
 2412SOL    HW110598   4.194   2.668   1.551
 2412SOL    HW210599   4.166   2.525   1.625
 2413SOL     OW10600   4.737   1.967   1.770
 2413SOL    HW110601   4.743   2.052   1.718
 2413SOL    HW210602   4.769   1.891   1.713
 2414SOL     OW10603   4.228   1.912   1.740
 2414SOL    HW110604   4.186   1.855   1.670
 2414SOL    HW210605   4.162   1.981   1.772
 2415SOL     OW10606   4.297   2.732   1.029
 2415SOL    HW110607   4.341   2.821   1.020
 2415SOL    HW210608   4.234   2.732   1.106
 2416SOL     OW10609   5.084   2.724   1.045
 2416SOL    HW110610   5.009   2.724   0.979
 2416SOL    HW210611   5.121   2.632   1.054
 2417SOL     OW10612   4.933   2.387   0.275
 2417SOL    HW110613   4.946   2.303   0.329
 2417SOL    HW210614   4.904   2.461   0.335
 2418SOL     OW10615   4.031   2.075   1.231
 2418SOL    HW110616   4.008   2.112   1.321
 2418SOL    HW210617   4.001   1.980   1.225
 2419SOL     OW10618   4.456   2.496   1.064
 2419SOL    HW110619   4.515   2.470   0.988
 2419SOL    HW210620   4.428   2.592   1.053
 2420SOL     OW10621   4.031   1.925   0.618
 2420SOL    HW110622   4.020   2.019   0.651
 2420SOL    HW210623   4.026   1.862   0.695
 2421SOL     OW10624   5.346   2.229   0.374
 2421SOL    HW110625   5.348   2.153   0.438
 2421SOL    HW210626   5.298   2.306   0.414
 2422SOL     OW10627   4.747   2.628   0.966
 2422SOL    HW110628   4.762   2.649   1.062
 2422SOL    HW210629   4.717   2.533   0.957
 2423SOL     OW10630   4.074   2.760   1.804
 2423SOL    HW110631   4.150   2.804   1.852
 2423SOL    HW210632   4.109   2.713   1.722
 2424SOL     OW10633   5.027   2.700   0.042
 2424SOL    HW110634   5.061   2.607   0.057
 2424SOL    HW210635   5.045   2.727  -0.053
 2425SOL     OW10636   4.792   3.195   0.849
 2425SOL    HW110637   4.799   3.111   0.794
 2425SOL    HW210638   4.854   3.264   0.813
 2426SOL     OW10639   4.862   2.242   1.678
 2426SOL    HW110640   4.817   2.305   1.742
 2426SOL    HW210641   4.955   2.273   1.661
 2427SOL     OW10642   3.812   3.663   0.927
 2427SOL    HW110643   3.770   3.577   0.900
 2427SOL    HW210644   3.906   3.666   0.893
 2428SOL     OW10645   4.228   3.430   0.910
 2428SOL    HW110646   4.294   3.504   0.919
 2428SOL    HW210647   4.272   3.351   0.868
 2429SOL     OW10648   4.726   2.658   1.238
 2429SOL    HW110649   4.767   2.626   1.324
 2429SOL    HW210650   4.630   2.631   1.235
 2430SOL     OW10651   3.913   2.382   1.722
 2430SOL    HW110652   3.972   2.342   1.652
 2430SOL    HW210653   3.855   2.453   1.681
 2431SOL     OW10654   3.976   3.426   1.744
 2431SOL    HW110655   3.946   3.483   1.820
 2431SOL    HW210656   3.969   3.329   1.770
 2432SOL     OW10657   4.395   2.326   1.269
 2432SOL    HW110658   4.361   2.237   1.239
 2432SOL    HW210659   4.421   2.380   1.189
 2433SOL     OW10660   4.654   3.540   1.465
 2433SOL    HW110661   4.630   3.522   1.370
 2433SOL    HW210662   4.684   3.634   1.475
 2434SOL     OW10663   4.197   2.362   0.191
 2434SOL    HW110664   4.258   2.442   0.195
 2434SOL    HW210665   4.102   2.393   0.198
 2435SOL     OW10666   5.071   2.921   1.234
 2435SOL    HW110667   5.095   2.858   1.160
 2435SOL    HW210668   4.981   2.961   1.216
 2436SOL     OW10669   4.976   3.593   1.128
 2436SOL    HW110670   5.060   3.598   1.074
 2436SOL    HW210671   4.953   3.497   1.146
 2437SOL     OW10672   4.412   3.524   1.716
 2437SOL    HW110673   4.356   3.605   1.725
 2437SOL    HW210674   4.464   3.528   1.630
 2438SOL     OW10675   4.627   1.948   0.133
 2438SOL    HW110676   4.678   1.949   0.047
 2438SOL    HW210677   4.683   1.906   0.204
 2439SOL     OW10678   5.004   2.789   0.672
 2439SOL    HW110679   5.064   2.708   0.674
 2439SOL    HW210680   5.044   2.858   0.612
 2440SOL     OW10681   4.396   3.478   0.154
 2440SOL    HW110682   4.405   3.488   0.055
 2440SOL    HW210683   4.356   3.389   0.175
 2441SOL     OW10684   3.987   2.188   0.720
 2441SOL    HW110685   3.908   2.239   0.686
 2441SOL    HW210686   3.978   2.173   0.818
 2442SOL     OW10687   4.640   2.772   0.291
 2442SOL    HW110688   4.703   2.810   0.223
 2442SOL    HW210689   4.680   2.689   0.330
 2443SOL     OW10690   4.763   2.960   0.696
 2443SOL    HW110691   4.693   2.913   0.750
 2443SOL    HW210692   4.822   2.892   0.653
 2444SOL     OW10693   3.979   3.210   0.290
 2444SOL    HW110694   3.883   3.211   0.263
 2444SOL    HW210695   3.991   3.263   0.374
 2445SOL     OW10696   3.829   2.875   1.726
 2445SOL    HW110697   3.752   2.842   1.780
 2445SOL    HW210698   3.914   2.845   1.768
 2446SOL     OW10699   5.164   2.718   1.398
 2446SOL    HW110700   5.107   2.770   1.335
 2446SOL    HW210701   5.260   2.730   1.374
 2447SOL     OW10702   4.337   2.704   1.431
 2447SOL    HW110703   4.393   2.785   1.414
 2447SOL    HW210704   4.396   2.624   1.434
 2448SOL     OW10705   4.440   2.427   1.708
 2448SOL    HW110706   4.459   2.492   1.782
 2448SOL    HW210707   4.500   2.347   1.717
 2449SOL     OW10708   4.114   3.603   1.560
 2449SOL    HW110709   4.023   3.644   1.558
 2449SOL    HW210710   4.107   3.509   1.592
 2450SOL     OW10711   4.385   3.652   0.953
 2450SOL    HW110712   4.339   3.740   0.940
 2450SOL    HW210713   4.484   3.664   0.946
 2451SOL     OW10714   4.583   2.818   0.861
 2451SOL    HW110715   4.637   2.749   0.909
 2451SOL    HW210716   4.551   2.887   0.927
 2452SOL     OW10717   4.807   2.846   0.087
 2452SOL    HW110718   4.784   2.899   0.005
 2452SOL    HW210719   4.888   2.790   0.068
 2453SOL     OW10720   3.945   3.176   1.844
 2453SOL    HW110721   3.880   3.103   1.823
 2453SOL    HW210722   3.949   3.190   1.942
 2454SOL     OW10723   3.803   3.102   0.653
 2454SOL    HW110724   3.802   3.055   0.741
 2454SOL    HW210725   3.885   3.074   0.602
 2455SOL     OW10726   4.396   3.253   1.624
 2455SOL    HW110727   4.318   3.203   1.662
 2455SOL    HW210728   4.393   3.348   1.655
 2456SOL     OW10729   4.041   2.409   1.280
 2456SOL    HW110730   4.079   2.350   1.352
 2456SOL    HW210731   4.081   2.383   1.192
 2457SOL     OW10732   4.536   3.448   0.687
 2457SOL    HW110733   4.568   3.458   0.593
 2457SOL    HW210734   4.457   3.386   0.689
 2458SOL     OW10735   3.763   2.939   0.300
 2458SOL    HW110736   3.862   2.928   0.291
 2458SOL    HW210737   3.723   2.853   0.332
 2459SOL     OW10738   3.954   2.490   1.975
 2459SOL    HW110739   3.861   2.488   2.012
 2459SOL    HW210740   3.955   2.451   1.883
 2460SOL     OW10741   4.859   2.565   2.579
 2460SOL    HW110742   4.916   2.643   2.554
 2460SOL    HW210743   4.799   2.591   2.655
 2461SOL     OW10744   4.492   3.006   2.885
 2461SOL    HW110745   4.414   3.023   2.945
 2461SOL    HW210746   4.526   3.093   2.849
 2462SOL     OW10747   4.574   2.660   3.685
 2462SOL    HW110748   4.570   2.736   3.750
 2462SOL    HW210749   4.596   2.696   3.594
 2463SOL     OW10750   4.409   2.874   2.527
 2463SOL    HW110751   4.478   2.858   2.597
 2463SOL    HW210752   4.336   2.931   2.565
 2464SOL     OW10753   4.162   2.254   3.361
 2464SOL    HW110754   4.244   2.198   3.370
 2464SOL    HW210755   4.081   2.196   3.365
 2465SOL     OW10756   3.954   3.296   2.400
 2465SOL    HW110757   3.928   3.392   2.400
 2465SOL    HW210758   3.883   3.242   2.445
 2466SOL     OW10759   4.330   2.826   1.985
 2466SOL    HW110760   4.337   2.910   1.931
 2466SOL    HW210761   4.376   2.839   2.073
 2467SOL     OW10762   4.337   3.227   2.588
 2467SOL    HW110763   4.288   3.140   2.597
 2467SOL    HW210764   4.314   3.270   2.501
 2468SOL     OW10765   4.533   1.866   2.364
 2468SOL    HW110766   4.573   1.957   2.355
 2468SOL    HW210767   4.433   1.874   2.370
 2469SOL     OW10768   4.911   3.654   3.478
 2469SOL    HW110769   4.935   3.714   3.402
 2469SOL    HW210770   4.918   3.559   3.448
 2470SOL     OW10771   4.041   2.113   3.663
 2470SOL    HW110772   4.112   2.184   3.669
 2470SOL    HW210773   3.953   2.152   3.691
 2471SOL     OW10774   4.322   2.591   2.132
 2471SOL    HW110775   4.346   2.660   2.064
 2471SOL    HW210776   4.244   2.624   2.186
 2472SOL     OW10777   4.531   2.467   3.327
 2472SOL    HW110778   4.484   2.464   3.416
 2472SOL    HW210779   4.480   2.412   3.261
 2473SOL     OW10780   4.697   2.752   3.434
 2473SOL    HW110781   4.743   2.668   3.405
 2473SOL    HW210782   4.641   2.786   3.359
 2474SOL     OW10783   4.715   2.272   3.104
 2474SOL    HW110784   4.638   2.306   3.158
 2474SOL    HW210785   4.681   2.221   3.025
 2475SOL     OW10786   4.765   2.563   2.291
 2475SOL    HW110787   4.791   2.559   2.387
 2475SOL    HW210788   4.680   2.512   2.277
 2476SOL     OW10789   4.589   2.210   2.057
 2476SOL    HW110790   4.648   2.273   2.008
 2476SOL    HW210791   4.608   2.116   2.028
 2477SOL     OW10792   4.732   3.318   2.339
 2477SOL    HW110793   4.686   3.390   2.287
 2477SOL    HW210794   4.728   3.338   2.437
 2478SOL     OW10795   4.045   2.805   2.104
 2478SOL    HW110796   4.127   2.844   2.062
 2478SOL    HW210797   4.018   2.723   2.055
 2479SOL     OW10798   4.185   3.128   3.589
 2479SOL    HW110799   4.135   3.129   3.503
 2479SOL    HW210800   4.122   3.110   3.665
 2480SOL     OW10801   3.926   2.147   3.360
 2480SOL    HW110802   3.846   2.207   3.347
 2480SOL    HW210803   3.916   2.098   3.446
 2481SOL     OW10804   3.973   3.647   3.103
 2481SOL    HW110805   4.030   3.582   3.153
 2481SOL    HW210806   3.957   3.614   3.010
 2482SOL     OW10807   4.664   3.560   2.766
 2482SOL    HW110808   4.744   3.503   2.787
 2482SOL    HW210809   4.615   3.520   2.689
 2483SOL     OW10810   4.106   2.562   2.342
 2483SOL    HW110811   4.151   2.472   2.339
 2483SOL    HW210812   4.012   2.551   2.375
 2484SOL     OW10813   4.338   1.984   1.979
 2484SOL    HW110814   4.436   1.962   1.986
 2484SOL    HW210815   4.307   1.967   1.886
 2485SOL     OW10816   4.505   2.126   3.611
 2485SOL    HW110817   4.572   2.065   3.654
 2485SOL    HW210818   4.432   2.145   3.676
 2486SOL     OW10819   4.612   3.376   3.057
 2486SOL    HW110820   4.589   3.351   2.963
 2486SOL    HW210821   4.673   3.307   3.096
 2487SOL     OW10822   4.527   3.264   2.786
 2487SOL    HW110823   4.617   3.278   2.744
 2487SOL    HW210824   4.456   3.266   2.715
 2488SOL     OW10825   4.021   1.897   2.033
 2488SOL    HW110826   4.070   1.981   2.012
 2488SOL    HW210827   4.083   1.832   2.078
 2489SOL     OW10828   4.800   2.545   3.326
 2489SOL    HW110829   4.720   2.484   3.329
 2489SOL    HW210830   4.881   2.492   3.302
 2490SOL     OW10831   4.951   3.432   2.655
 2490SOL    HW110832   4.972   3.506   2.590
 2490SOL    HW210833   5.019   3.432   2.728
 2491SOL     OW10834   4.183   3.014   2.603
 2491SOL    HW110835   4.112   2.987   2.668
 2491SOL    HW210836   4.157   2.986   2.510
 2492SOL     OW10837   4.756   2.411   1.878
 2492SOL    HW110838   4.715   2.493   1.839
 2492SOL    HW210839   4.820   2.437   1.951
 2493SOL     OW10840   3.802   2.418   3.248
 2493SOL    HW110841   3.894   2.417   3.207
 2493SOL    HW210842   3.796   2.492   3.315
 2494SOL     OW10843   5.388   3.142   2.519
 2494SOL    HW110844   5.487   3.150   2.533
 2494SOL    HW210845   5.343   3.226   2.550
 2495SOL     OW10846   4.639   1.951   3.264
 2495SOL    HW110847   4.664   1.931   3.169
 2495SOL    HW210848   4.711   2.007   3.306
 2496SOL     OW10849   4.704   2.978   3.581
 2496SOL    HW110850   4.605   2.984   3.591
 2496SOL    HW210851   4.727   2.898   3.525
 2497SOL     OW10852   4.429   2.912   2.230
 2497SOL    HW110853   4.415   2.919   2.329
 2497SOL    HW210854   4.513   2.861   2.212
 2498SOL     OW10855   4.134   2.675   3.113
 2498SOL    HW110856   4.220   2.687   3.163
 2498SOL    HW210857   4.092   2.588   3.140
 2499SOL     OW10858   4.998   2.248   3.124
 2499SOL    HW110859   5.019   2.322   3.188
 2499SOL    HW210860   4.909   2.265   3.081
 2500SOL     OW10861   3.788   3.426   3.193
 2500SOL    HW110862   3.742   3.508   3.159
 2500SOL    HW210863   3.886   3.445   3.202
 2501SOL     OW10864   4.091   2.962   2.363
 2501SOL    HW110865   4.084   3.045   2.307
 2501SOL    HW210866   4.095   2.882   2.303
 2502SOL     OW10867   4.290   2.399   2.727
 2502SOL    HW110868   4.302   2.465   2.653
 2502SOL    HW210869   4.336   2.433   2.810
 2503SOL     OW10870   4.976   3.210   2.250
 2503SOL    HW110871   5.026   3.287   2.290
 2503SOL    HW210872   4.881   3.212   2.282
 2504SOL     OW10873   4.126   2.613   3.460
 2504SOL    HW110874   4.194   2.668   3.413
 2504SOL    HW210875   4.166   2.525   3.487
 2505SOL     OW10876   4.737   1.967   3.632
 2505SOL    HW110877   4.743   2.052   3.580
 2505SOL    HW210878   4.769   1.891   3.575
 2506SOL     OW10879   4.228   1.912   3.602
 2506SOL    HW110880   4.186   1.855   3.532
 2506SOL    HW210881   4.162   1.981   3.634
 2507SOL     OW10882   4.297   2.732   2.891
 2507SOL    HW110883   4.341   2.821   2.882
 2507SOL    HW210884   4.234   2.732   2.968
 2508SOL     OW10885   5.084   2.724   2.907
 2508SOL    HW110886   5.009   2.724   2.841
 2508SOL    HW210887   5.121   2.632   2.916
 2509SOL     OW10888   4.456   2.496   2.926
 2509SOL    HW110889   4.515   2.470   2.850
 2509SOL    HW210890   4.428   2.592   2.915
 2510SOL     OW10891   5.346   2.229   2.236
 2510SOL    HW110892   5.348   2.153   2.300
 2510SOL    HW210893   5.298   2.306   2.276
 2511SOL     OW10894   4.747   2.628   2.828
 2511SOL    HW110895   4.762   2.649   2.924
 2511SOL    HW210896   4.717   2.533   2.819
 2512SOL     OW10897   4.704   3.435   3.562
 2512SOL    HW110898   4.684   3.479   3.474
 2512SOL    HW210899   4.743   3.344   3.546
 2513SOL     OW10900   4.074   2.760   3.666
 2513SOL    HW110901   4.150   2.804   3.714
 2513SOL    HW210902   4.109   2.713   3.584
 2514SOL     OW10903   5.027   2.700   1.904
 2514SOL    HW110904   5.061   2.607   1.919
 2514SOL    HW210905   5.045   2.727   1.809
 2515SOL     OW10906   4.043   2.672   2.811
 2515SOL    HW110907   4.136   2.708   2.816
 2515SOL    HW210908   4.037   2.587   2.863
 2516SOL     OW10909   4.862   2.242   3.540
 2516SOL    HW110910   4.817   2.305   3.604
 2516SOL    HW210911   4.955   2.273   3.523
 2517SOL     OW10912   4.884   2.069   3.339
 2517SOL    HW110913   4.884   2.133   3.416
 2517SOL    HW210914   4.912   2.117   3.256
 2518SOL     OW10915   3.812   3.663   2.789
 2518SOL    HW110916   3.770   3.577   2.762
 2518SOL    HW210917   3.906   3.666   2.755
 2519SOL     OW10918   4.228   3.430   2.772
 2519SOL    HW110919   4.294   3.504   2.781
 2519SOL    HW210920   4.272   3.351   2.730
 2520SOL     OW10921   4.726   2.658   3.100
 2520SOL    HW110922   4.767   2.626   3.186
 2520SOL    HW210923   4.630   2.631   3.097
 2521SOL     OW10924   3.764   2.406   2.976
 2521SOL    HW110925   3.849   2.373   2.935
 2521SOL    HW210926   3.777   2.421   3.074
 2522SOL     OW10927   3.913   2.382   3.584
 2522SOL    HW110928   3.972   2.342   3.514
 2522SOL    HW210929   3.855   2.453   3.543
 2523SOL     OW10930   4.539   2.434   2.187
 2523SOL    HW110931   4.546   2.345   2.141
 2523SOL    HW210932   4.445   2.468   2.179
 2524SOL     OW10933   4.395   2.326   3.131
 2524SOL    HW110934   4.361   2.237   3.101
 2524SOL    HW210935   4.421   2.380   3.051
 2525SOL     OW10936   4.654   3.540   3.327
 2525SOL    HW110937   4.630   3.522   3.232
 2525SOL    HW210938   4.684   3.634   3.337
 2526SOL     OW10939   4.197   2.362   2.053
 2526SOL    HW110940   4.258   2.442   2.057
 2526SOL    HW210941   4.102   2.393   2.060
 2527SOL     OW10942   4.976   3.593   2.990
 2527SOL    HW110943   5.060   3.598   2.936
 2527SOL    HW210944   4.953   3.497   3.008
 2528SOL     OW10945   4.412   3.524   3.578
 2528SOL    HW110946   4.356   3.605   3.587
 2528SOL    HW210947   4.464   3.528   3.492
 2529SOL     OW10948   5.112   3.435   2.339
 2529SOL    HW110949   5.179   3.447   2.265
 2529SOL    HW210950   5.072   3.524   2.362
 2530SOL     OW10951   4.554   3.135   3.284
 2530SOL    HW110952   4.549   3.168   3.379
 2530SOL    HW210953   4.468   3.154   3.238
 2531SOL     OW10954   4.546   2.864   3.234
 2531SOL    HW110955   4.586   2.863   3.142
 2531SOL    HW210956   4.556   2.956   3.274
 2532SOL     OW10957   4.640   2.772   2.153
 2532SOL    HW110958   4.703   2.810   2.085
 2532SOL    HW210959   4.680   2.689   2.192
 2533SOL     OW10960   4.763   2.960   2.558
 2533SOL    HW110961   4.693   2.913   2.612
 2533SOL    HW210962   4.822   2.892   2.515
 2534SOL     OW10963   4.738   2.098   2.833
 2534SOL    HW110964   4.730   2.062   2.740
 2534SOL    HW210965   4.736   2.022   2.898
 2535SOL     OW10966   4.314   3.349   2.353
 2535SOL    HW110967   4.356   3.291   2.283
 2535SOL    HW210968   4.270   3.428   2.309
 2536SOL     OW10969   4.396   2.065   3.351
 2536SOL    HW110970   4.486   2.049   3.311
 2536SOL    HW210971   4.404   2.070   3.450
 2537SOL     OW10972   3.799   2.207   1.895
 2537SOL    HW110973   3.707   2.179   1.866
 2537SOL    HW210974   3.830   2.284   1.839
 2538SOL     OW10975   3.796   2.028   2.180
 2538SOL    HW110976   3.779   2.111   2.126
 2538SOL    HW210977   3.886   1.991   2.158
 2539SOL     OW10978   4.337   2.704   3.293
 2539SOL    HW110979   4.393   2.785   3.276
 2539SOL    HW210980   4.396   2.624   3.296
 2540SOL     OW10981   4.440   2.427   3.570
 2540SOL    HW110982   4.459   2.492   3.644
 2540SOL    HW210983   4.500   2.347   3.579
 2541SOL     OW10984   4.318   2.607   2.514
 2541SOL    HW110985   4.368   2.692   2.495
 2541SOL    HW210986   4.230   2.609   2.466
 2542SOL     OW10987   4.583   3.236   1.878
 2542SOL    HW110988   4.537   3.251   1.966
 2542SOL    HW210989   4.627   3.321   1.848
 2543SOL     OW10990   4.385   3.652   2.815
 2543SOL    HW110991   4.339   3.740   2.802
 2543SOL    HW210992   4.484   3.664   2.808
 2544SOL     OW10993   4.583   2.818   2.723
 2544SOL    HW110994   4.637   2.749   2.771
 2544SOL    HW210995   4.551   2.887   2.789
 2545SOL     OW10996   4.807   2.846   1.949
 2545SOL    HW110997   4.784   2.899   1.867
 2545SOL    HW210998   4.888   2.790   1.930
 2546SOL     OW10999   3.945   3.176   3.706
 2546SOL    HW111000   3.880   3.103   3.685
 2546SOL    HW211001   3.949   3.190   3.804
 2547SOL     OW11002   3.803   3.102   2.515
 2547SOL    HW111003   3.802   3.055   2.603
 2547SOL    HW211004   3.885   3.074   2.464
 2548SOL     OW11005   4.396   3.253   3.486
 2548SOL    HW111006   4.318   3.203   3.524
 2548SOL    HW211007   4.393   3.348   3.517
 2549SOL     OW11008   4.041   2.409   3.142
 2549SOL    HW111009   4.079   2.350   3.214
 2549SOL    HW211010   4.081   2.383   3.054
 2550SOL     OW11011   4.536   3.448   2.549
 2550SOL    HW111012   4.568   3.458   2.455
 2550SOL    HW211013   4.457   3.386   2.551
 2551SOL     OW11014   4.494   3.192   2.163
 2551SOL    HW111015   4.448   3.105   2.180
 2551SOL    HW211016   4.585   3.189   2.204
 2552SOL     OW11017   3.763   2.939   2.162
 2552SOL    HW111018   3.862   2.928   2.153
 2552SOL    HW211019   3.723   2.853   2.194
 2553SOL     OW11020   4.599   3.508   2.199
 2553SOL    HW111021   4.522   3.473   2.145
 2553SOL    HW211022   4.567   3.579   2.261
 2554SOL     OW11023   4.859   2.565   4.441
 2554SOL    HW111024   4.916   2.643   4.416
 2554SOL    HW211025   4.799   2.591   4.517
 2555SOL     OW11026   4.409   2.874   4.389
 2555SOL    HW111027   4.478   2.858   4.459
 2555SOL    HW211028   4.336   2.931   4.427
 2556SOL     OW11029   4.059   3.297   4.785
 2556SOL    HW111030   3.981   3.266   4.732
 2556SOL    HW211031   4.117   3.355   4.728
 2557SOL     OW11032   3.955   3.575   4.207
 2557SOL    HW111033   3.989   3.652   4.261
 2557SOL    HW211034   3.999   3.575   4.117
 2558SOL     OW11035   3.954   3.296   4.262
 2558SOL    HW111036   3.928   3.392   4.262
 2558SOL    HW211037   3.883   3.242   4.307
 2559SOL     OW11038   3.964   2.953   4.610
 2559SOL    HW111039   3.978   2.869   4.662
 2559SOL    HW211040   3.909   3.017   4.665
 2560SOL     OW11041   4.344   3.648   5.163
 2560SOL    HW111042   4.252   3.631   5.198
 2560SOL    HW211043   4.372   3.740   5.189
 2561SOL     OW11044   3.846   2.505   4.287
 2561SOL    HW111045   3.801   2.417   4.304
 2561SOL    HW211046   3.845   2.559   4.371
 2562SOL     OW11047   4.533   1.866   4.226
 2562SOL    HW111048   4.573   1.957   4.217
 2562SOL    HW211049   4.433   1.874   4.232
 2563SOL     OW11050   4.715   2.272   4.966
 2563SOL    HW111051   4.638   2.306   5.020
 2563SOL    HW211052   4.681   2.221   4.887
 2564SOL     OW11053   4.765   2.563   4.153
 2564SOL    HW111054   4.791   2.559   4.249
 2564SOL    HW211055   4.680   2.512   4.139
 2565SOL     OW11056   3.800   2.673   4.513
 2565SOL    HW111057   3.899   2.661   4.522
 2565SOL    HW211058   3.776   2.768   4.534
 2566SOL     OW11059   4.589   2.210   3.919
 2566SOL    HW111060   4.648   2.273   3.870
 2566SOL    HW211061   4.608   2.116   3.890
 2567SOL     OW11062   4.732   3.318   4.201
 2567SOL    HW111063   4.686   3.390   4.149
 2567SOL    HW211064   4.728   3.338   4.299
 2568SOL     OW11065   4.075   3.663   4.577
 2568SOL    HW111066   4.125   3.577   4.583
 2568SOL    HW211067   4.140   3.740   4.574
 2569SOL     OW11068   4.045   2.805   3.966
 2569SOL    HW111069   4.127   2.844   3.924
 2569SOL    HW211070   4.018   2.723   3.917
 2570SOL     OW11071   4.835   3.638   3.961
 2570SOL    HW111072   4.775   3.576   4.011
 2570SOL    HW211073   4.866   3.594   3.876
 2571SOL     OW11074   4.188   3.605   4.047
 2571SOL    HW111075   4.221   3.644   4.133
 2571SOL    HW211076   4.264   3.598   3.982
 2572SOL     OW11077   3.973   3.647   4.965
 2572SOL    HW111078   4.030   3.582   5.015
 2572SOL    HW211079   3.957   3.614   4.872
 2573SOL     OW11080   4.664   3.560   4.628
 2573SOL    HW111081   4.744   3.503   4.649
 2573SOL    HW211082   4.615   3.520   4.551
 2574SOL     OW11083   4.106   2.562   4.204
 2574SOL    HW111084   4.151   2.472   4.201
 2574SOL    HW211085   4.012   2.551   4.237
 2575SOL     OW11086   4.527   3.264   4.648
 2575SOL    HW111087   4.617   3.278   4.606
 2575SOL    HW211088   4.456   3.266   4.577
 2576SOL     OW11089   4.646   2.365   4.623
 2576SOL    HW111090   4.621   2.356   4.527
 2576SOL    HW211091   4.694   2.283   4.654
 2577SOL     OW11092   4.951   3.432   4.517
 2577SOL    HW111093   4.972   3.506   4.452
 2577SOL    HW211094   5.019   3.432   4.590
 2578SOL     OW11095   4.995   3.659   4.315
 2578SOL    HW111096   5.039   3.723   4.251
 2578SOL    HW211097   4.945   3.711   4.385
 2579SOL     OW11098   4.590   2.316   4.366
 2579SOL    HW111099   4.558   2.388   4.304
 2579SOL    HW211100   4.614   2.235   4.313
 2580SOL     OW11101   5.388   3.142   4.381
 2580SOL    HW111102   5.487   3.150   4.395
 2580SOL    HW211103   5.343   3.226   4.412
 2581SOL     OW11104   4.835   3.057   4.824
 2581SOL    HW111105   4.795   3.101   4.905
 2581SOL    HW211106   4.794   3.094   4.741
 2582SOL     OW11107   4.134   2.675   4.975
 2582SOL    HW111108   4.220   2.687   5.025
 2582SOL    HW211109   4.092   2.588   5.002
 2583SOL     OW11110   4.976   3.210   4.112
 2583SOL    HW111111   5.026   3.287   4.152
 2583SOL    HW211112   4.881   3.212   4.144
 2584SOL     OW11113   4.078   3.372   5.053
 2584SOL    HW111114   4.057   3.328   4.966
 2584SOL    HW211115   4.175   3.398   5.056
 2585SOL     OW11116   4.297   2.732   4.753
 2585SOL    HW111117   4.341   2.821   4.744
 2585SOL    HW211118   4.234   2.732   4.830
 2586SOL     OW11119   5.084   2.724   4.769
 2586SOL    HW111120   5.009   2.724   4.703
 2586SOL    HW211121   5.121   2.632   4.778
 2587SOL     OW11122   4.031   2.075   4.955
 2587SOL    HW111123   4.008   2.112   5.045
 2587SOL    HW211124   4.001   1.980   4.949
 2588SOL     OW11125   3.761   3.172   5.006
 2588SOL    HW111126   3.814   3.123   5.074
 2588SOL    HW211127   3.783   3.270   5.011
 2589SOL     OW11128   4.456   2.496   4.788
 2589SOL    HW111129   4.515   2.470   4.712
 2589SOL    HW211130   4.428   2.592   4.777
 2590SOL     OW11131   4.747   2.628   4.690
 2590SOL    HW111132   4.762   2.649   4.786
 2590SOL    HW211133   4.717   2.533   4.681
 2591SOL     OW11134   5.027   2.700   3.766
 2591SOL    HW111135   5.061   2.607   3.781
 2591SOL    HW211136   5.045   2.727   3.671
 2592SOL     OW11137   4.792   3.195   4.573
 2592SOL    HW111138   4.799   3.111   4.518
 2592SOL    HW211139   4.854   3.264   4.537
 2593SOL     OW11140   4.043   2.672   4.673
 2593SOL    HW111141   4.136   2.708   4.678
 2593SOL    HW211142   4.037   2.587   4.725
 2594SOL     OW11143   3.812   3.663   4.651
 2594SOL    HW111144   3.770   3.577   4.624
 2594SOL    HW211145   3.906   3.666   4.617
 2595SOL     OW11146   4.228   3.430   4.634
 2595SOL    HW111147   4.294   3.504   4.643
 2595SOL    HW211148   4.272   3.351   4.592
 2596SOL     OW11149   4.726   2.658   4.962
 2596SOL    HW111150   4.767   2.626   5.048
 2596SOL    HW211151   4.630   2.631   4.959
 2597SOL     OW11152   3.764   2.406   4.838
 2597SOL    HW111153   3.849   2.373   4.797
 2597SOL    HW211154   3.777   2.421   4.936
 2598SOL     OW11155   4.395   2.326   4.993
 2598SOL    HW111156   4.361   2.237   4.963
 2598SOL    HW211157   4.421   2.380   4.913
 2599SOL     OW11158   4.654   3.540   5.189
 2599SOL    HW111159   4.630   3.522   5.094
 2599SOL    HW211160   4.684   3.634   5.199
 2600SOL     OW11161   4.197   2.362   3.915
 2600SOL    HW111162   4.258   2.442   3.919
 2600SOL    HW211163   4.102   2.393   3.922
 2601SOL     OW11164   5.071   2.921   4.958
 2601SOL    HW111165   5.095   2.858   4.884
 2601SOL    HW211166   4.981   2.961   4.940
 2602SOL     OW11167   3.807   3.120   4.746
 2602SOL    HW111168   3.802   3.119   4.846
 2602SOL    HW211169   3.724   3.079   4.708
 2603SOL     OW11170   5.112   3.435   4.201
 2603SOL    HW111171   5.179   3.447   4.127
 2603SOL    HW211172   5.072   3.524   4.224
 2604SOL     OW11173   5.004   2.789   4.396
 2604SOL    HW111174   5.064   2.708   4.398
 2604SOL    HW211175   5.044   2.858   4.336
 2605SOL     OW11176   4.396   3.478   3.878
 2605SOL    HW111177   4.405   3.488   3.779
 2605SOL    HW211178   4.356   3.389   3.899
 2606SOL     OW11179   4.918   3.474   3.755
 2606SOL    HW111180   4.924   3.381   3.792
 2606SOL    HW211181   4.859   3.474   3.675
 2607SOL     OW11182   4.640   2.772   4.015
 2607SOL    HW111183   4.703   2.810   3.947
 2607SOL    HW211184   4.680   2.689   4.054
 2608SOL     OW11185   4.763   2.960   4.420
 2608SOL    HW111186   4.693   2.913   4.474
 2608SOL    HW211187   4.822   2.892   4.377
 2609SOL     OW11188   3.799   2.207   3.757
 2609SOL    HW111189   3.707   2.179   3.728
 2609SOL    HW211190   3.830   2.284   3.701
 2610SOL     OW11191   4.583   3.236   3.740
 2610SOL    HW111192   4.537   3.251   3.828
 2610SOL    HW211193   4.627   3.321   3.710
 2611SOL     OW11194   4.385   3.652   4.677
 2611SOL    HW111195   4.339   3.740   4.664
 2611SOL    HW211196   4.484   3.664   4.670
 2612SOL     OW11197   4.583   2.818   4.585
 2612SOL    HW111198   4.637   2.749   4.633
 2612SOL    HW211199   4.551   2.887   4.651
 2613SOL     OW11200   4.807   2.846   3.811
 2613SOL    HW111201   4.784   2.899   3.729
 2613SOL    HW211202   4.888   2.790   3.792
 2614SOL     OW11203   4.536   3.448   4.411
 2614SOL    HW111204   4.568   3.458   4.317
 2614SOL    HW211205   4.457   3.386   4.413
 2615SOL     OW11206   4.725   1.896   4.878
 2615SOL    HW111207   4.662   1.824   4.847
 2615SOL    HW211208   4.818   1.860   4.878
 2616SOL     OW11209   4.494   3.192   4.025
 2616SOL    HW111210   4.448   3.105   4.042
 2616SOL    HW211211   4.585   3.189   4.066
 2617SOL     OW11212   4.599   3.508   4.061
 2617SOL    HW111213   4.522   3.473   4.007
 2617SOL    HW211214   4.567   3.579   4.123
 2618SOL     OW11215   3.954   4.352   0.113
 2618SOL    HW111216   3.861   4.350   0.150
 2618SOL    HW211217   3.955   4.313   0.021
 2619SOL     OW11218   3.949   3.999   0.996
 2619SOL    HW111219   3.984   3.982   1.088
 2619SOL    HW211220   3.861   3.954   0.984
 2620SOL     OW11221   4.859   4.427   0.717
 2620SOL    HW111222   4.916   4.505   0.692
 2620SOL    HW211223   4.799   4.453   0.793
 2621SOL     OW11224   4.574   4.522   1.823
 2621SOL    HW111225   4.570   4.598   1.888
 2621SOL    HW211226   4.596   4.558   1.732
 2622SOL     OW11227   4.410   4.885   1.803
 2622SOL    HW111228   4.470   4.964   1.817
 2622SOL    HW211229   4.324   4.916   1.762
 2623SOL     OW11230   4.059   5.159   1.061
 2623SOL    HW111231   3.981   5.128   1.008
 2623SOL    HW211232   4.117   5.217   1.004
 2624SOL     OW11233   4.162   4.116   1.499
 2624SOL    HW111234   4.244   4.060   1.508
 2624SOL    HW211235   4.081   4.058   1.503
 2625SOL     OW11236   3.964   4.815   0.886
 2625SOL    HW111237   3.978   4.731   0.938
 2625SOL    HW211238   3.909   4.879   0.941
 2626SOL     OW11239   5.017   4.952   1.423
 2626SOL    HW111240   5.054   4.879   1.365
 2626SOL    HW211241   5.069   4.957   1.508
 2627SOL     OW11242   4.533   3.728   0.502
 2627SOL    HW111243   4.573   3.819   0.493
 2627SOL    HW211244   4.433   3.736   0.508
 2628SOL     OW11245   3.921   4.700   1.264
 2628SOL    HW111246   4.010   4.655   1.250
 2628SOL    HW211247   3.848   4.635   1.245
 2629SOL     OW11248   4.041   3.975   1.801
 2629SOL    HW111249   4.112   4.046   1.807
 2629SOL    HW211250   3.953   4.014   1.829
 2630SOL     OW11251   4.697   4.614   1.572
 2630SOL    HW111252   4.743   4.530   1.543
 2630SOL    HW211253   4.641   4.648   1.497
 2631SOL     OW11254   4.765   4.425   0.429
 2631SOL    HW111255   4.791   4.421   0.525
 2631SOL    HW211256   4.680   4.374   0.415
 2632SOL     OW11257   4.589   4.072   0.195
 2632SOL    HW111258   4.648   4.135   0.146
 2632SOL    HW211259   4.608   3.978   0.166
 2633SOL     OW11260   4.274   3.920   0.885
 2633SOL    HW111261   4.269   3.915   0.985
 2633SOL    HW211262   4.276   4.016   0.856
 2634SOL     OW11263   3.926   4.009   1.498
 2634SOL    HW111264   3.846   4.069   1.485
 2634SOL    HW211265   3.916   3.960   1.584
 2635SOL     OW11266   4.505   3.988   1.749
 2635SOL    HW111267   4.572   3.927   1.792
 2635SOL    HW211268   4.432   4.007   1.814
 2636SOL     OW11269   4.263   3.788   0.512
 2636SOL    HW111270   4.182   3.789   0.570
 2636SOL    HW211271   4.266   3.871   0.457
 2637SOL     OW11272   4.021   3.759   0.171
 2637SOL    HW111273   4.070   3.843   0.150
 2637SOL    HW211274   4.083   3.694   0.216
 2638SOL     OW11275   4.659   3.960   0.480
 2638SOL    HW111276   4.611   4.001   0.402
 2638SOL    HW211277   4.758   3.958   0.461
 2639SOL     OW11278   4.951   5.294   0.793
 2639SOL    HW111279   4.972   5.368   0.728
 2639SOL    HW211280   5.019   5.294   0.866
 2640SOL     OW11281   4.756   4.273   0.016
 2640SOL    HW111282   4.715   4.355  -0.023
 2640SOL    HW211283   4.820   4.299   0.089
 2641SOL     OW11284   4.590   4.178   0.642
 2641SOL    HW111285   4.558   4.250   0.580
 2641SOL    HW211286   4.614   4.097   0.589
 2642SOL     OW11287   4.741   3.763   0.753
 2642SOL    HW111288   4.669   3.768   0.684
 2642SOL    HW211289   4.717   3.694   0.822
 2643SOL     OW11290   4.704   4.840   1.719
 2643SOL    HW111291   4.605   4.846   1.729
 2643SOL    HW211292   4.727   4.760   1.663
 2644SOL     OW11293   4.134   4.537   1.251
 2644SOL    HW111294   4.220   4.549   1.301
 2644SOL    HW211295   4.092   4.450   1.278
 2645SOL     OW11296   4.290   4.261   0.865
 2645SOL    HW111297   4.302   4.327   0.791
 2645SOL    HW211298   4.336   4.295   0.948
 2646SOL     OW11299   4.976   5.072   0.388
 2646SOL    HW111300   5.026   5.149   0.428
 2646SOL    HW211301   4.881   5.074   0.420
 2647SOL     OW11302   4.126   4.475   1.598
 2647SOL    HW111303   4.194   4.530   1.551
 2647SOL    HW211304   4.166   4.387   1.625
 2648SOL     OW11305   4.297   4.594   1.029
 2648SOL    HW111306   4.341   4.683   1.020
 2648SOL    HW211307   4.234   4.594   1.106
 2649SOL     OW11308   5.084   4.586   1.045
 2649SOL    HW111309   5.009   4.586   0.979
 2649SOL    HW211310   5.121   4.494   1.054
 2650SOL     OW11311   4.933   4.249   0.275
 2650SOL    HW111312   4.946   4.165   0.329
 2650SOL    HW211313   4.904   4.323   0.335
 2651SOL     OW11314   4.031   3.937   1.231
 2651SOL    HW111315   4.008   3.974   1.321
 2651SOL    HW211316   4.001   3.842   1.225
 2652SOL     OW11317   4.456   4.358   1.064
 2652SOL    HW111318   4.515   4.332   0.988
 2652SOL    HW211319   4.428   4.454   1.053
 2653SOL     OW11320   4.031   3.787   0.618
 2653SOL    HW111321   4.020   3.881   0.651
 2653SOL    HW211322   4.026   3.724   0.695
 2654SOL     OW11323   5.346   4.091   0.374
 2654SOL    HW111324   5.348   4.015   0.438
 2654SOL    HW211325   5.298   4.168   0.414
 2655SOL     OW11326   4.747   4.490   0.966
 2655SOL    HW111327   4.762   4.511   1.062
 2655SOL    HW211328   4.717   4.395   0.957
 2656SOL     OW11329   5.027   4.562   0.042
 2656SOL    HW111330   5.061   4.469   0.057
 2656SOL    HW211331   5.045   4.589  -0.053
 2657SOL     OW11332   4.043   4.534   0.949
 2657SOL    HW111333   4.136   4.570   0.954
 2657SOL    HW211334   4.037   4.449   1.001
 2658SOL     OW11335   4.063   4.233   1.006
 2658SOL    HW111336   4.011   4.150   0.989
 2658SOL    HW211337   4.140   4.238   0.942
 2659SOL     OW11338   4.862   4.104   1.678
 2659SOL    HW111339   4.817   4.167   1.742
 2659SOL    HW211340   4.955   4.135   1.661
 2660SOL     OW11341   4.726   4.520   1.238
 2660SOL    HW111342   4.767   4.488   1.324
 2660SOL    HW211343   4.630   4.493   1.235
 2661SOL     OW11344   4.539   4.296   0.325
 2661SOL    HW111345   4.546   4.207   0.279
 2661SOL    HW211346   4.445   4.330   0.317
 2662SOL     OW11347   4.395   4.188   1.269
 2662SOL    HW111348   4.361   4.099   1.239
 2662SOL    HW211349   4.421   4.242   1.189
 2663SOL     OW11350   5.071   4.783   1.234
 2663SOL    HW111351   5.095   4.720   1.160
 2663SOL    HW211352   4.981   4.823   1.216
 2664SOL     OW11353   3.807   4.982   1.022
 2664SOL    HW111354   3.802   4.981   1.122
 2664SOL    HW211355   3.724   4.941   0.984
 2665SOL     OW11356   4.627   3.810   0.133
 2665SOL    HW111357   4.678   3.811   0.047
 2665SOL    HW211358   4.683   3.768   0.204
 2666SOL     OW11359   5.004   4.651   0.672
 2666SOL    HW111360   5.064   4.570   0.674
 2666SOL    HW211361   5.044   4.720   0.612
 2667SOL     OW11362   4.554   4.997   1.422
 2667SOL    HW111363   4.549   5.030   1.517
 2667SOL    HW211364   4.468   5.016   1.376
 2668SOL     OW11365   4.546   4.726   1.372
 2668SOL    HW111366   4.586   4.725   1.280
 2668SOL    HW211367   4.556   4.818   1.412
 2669SOL     OW11368   3.829   4.737   1.726
 2669SOL    HW111369   3.752   4.704   1.780
 2669SOL    HW211370   3.914   4.707   1.768
 2670SOL     OW11371   5.164   4.580   1.398
 2670SOL    HW111372   5.107   4.632   1.335
 2670SOL    HW211373   5.260   4.592   1.374
 2671SOL     OW11374   3.796   3.890   0.318
 2671SOL    HW111375   3.779   3.973   0.264
 2671SOL    HW211376   3.886   3.853   0.296
 2672SOL     OW11377   4.337   4.566   1.431
 2672SOL    HW111378   4.393   4.647   1.414
 2672SOL    HW211379   4.396   4.486   1.434
 2673SOL     OW11380   4.440   4.289   1.708
 2673SOL    HW111381   4.459   4.354   1.782
 2673SOL    HW211382   4.500   4.209   1.717
 2674SOL     OW11383   5.174   4.944   1.633
 2674SOL    HW111384   5.165   4.934   1.732
 2674SOL    HW211385   5.270   4.937   1.607
 2675SOL     OW11386   4.949   4.049   0.449
 2675SOL    HW111387   5.014   3.975   0.438
 2675SOL    HW211388   4.969   4.099   0.533
 2676SOL     OW11389   4.318   4.469   0.652
 2676SOL    HW111390   4.368   4.554   0.633
 2676SOL    HW211391   4.230   4.471   0.604
 2677SOL     OW11392   3.803   4.964   0.653
 2677SOL    HW111393   3.802   4.917   0.741
 2677SOL    HW211394   3.885   4.936   0.602
 2678SOL     OW11395   4.152   4.148   0.520
 2678SOL    HW111396   4.182   4.076   0.458
 2678SOL    HW211397   4.113   4.108   0.603
 2679SOL     OW11398   4.041   4.271   1.280
 2679SOL    HW111399   4.079   4.212   1.352
 2679SOL    HW211400   4.081   4.245   1.192
 2680SOL     OW11401   4.725   3.758   1.154
 2680SOL    HW111402   4.662   3.686   1.123
 2680SOL    HW211403   4.818   3.722   1.154
 2681SOL     OW11404   3.743   4.092   2.509
 2681SOL    HW111405   3.661   4.135   2.548
 2681SOL    HW211406   3.715   4.019   2.446
 2682SOL     OW11407   4.293   4.999   3.027
 2682SOL    HW111408   4.200   4.992   2.990
 2682SOL    HW211409   4.304   5.088   3.071
 2683SOL     OW11410   4.859   4.427   2.579
 2683SOL    HW111411   4.916   4.505   2.554
 2683SOL    HW211412   4.799   4.453   2.655
 2684SOL     OW11413   4.492   4.868   2.885
 2684SOL    HW111414   4.414   4.885   2.945
 2684SOL    HW211415   4.526   4.955   2.849
 2685SOL     OW11416   4.574   4.522   3.685
 2685SOL    HW111417   4.570   4.598   3.750
 2685SOL    HW211418   4.596   4.558   3.594
 2686SOL     OW11419   4.409   4.736   2.527
 2686SOL    HW111420   4.478   4.720   2.597
 2686SOL    HW211421   4.336   4.793   2.565
 2687SOL     OW11422   4.410   4.885   3.665
 2687SOL    HW111423   4.470   4.964   3.679
 2687SOL    HW211424   4.324   4.916   3.624
 2688SOL     OW11425   3.964   4.815   2.748
 2688SOL    HW111426   3.978   4.731   2.800
 2688SOL    HW211427   3.909   4.879   2.803
 2689SOL     OW11428   4.330   4.688   1.985
 2689SOL    HW111429   4.337   4.772   1.931
 2689SOL    HW211430   4.376   4.701   2.073
 2690SOL     OW11431   3.837   4.461   3.459
 2690SOL    HW111432   3.925   4.448   3.504
 2690SOL    HW211433   3.824   4.558   3.437
 2691SOL     OW11434   5.017   4.952   3.285
 2691SOL    HW111435   5.054   4.879   3.227
 2691SOL    HW211436   5.069   4.957   3.370
 2692SOL     OW11437   4.322   4.453   2.132
 2692SOL    HW111438   4.346   4.522   2.064
 2692SOL    HW211439   4.244   4.486   2.186
 2693SOL     OW11440   4.531   4.329   3.327
 2693SOL    HW111441   4.484   4.326   3.416
 2693SOL    HW211442   4.480   4.274   3.261
 2694SOL     OW11443   4.697   4.614   3.434
 2694SOL    HW111444   4.743   4.530   3.405
 2694SOL    HW211445   4.641   4.648   3.359
 2695SOL     OW11446   4.715   4.134   3.104
 2695SOL    HW111447   4.638   4.168   3.158
 2695SOL    HW211448   4.681   4.083   3.025
 2696SOL     OW11449   4.765   4.425   2.291
 2696SOL    HW111450   4.791   4.421   2.387
 2696SOL    HW211451   4.680   4.374   2.277
 2697SOL     OW11452   3.800   4.535   2.651
 2697SOL    HW111453   3.899   4.523   2.660
 2697SOL    HW211454   3.776   4.630   2.672
 2698SOL     OW11455   4.589   4.072   2.057
 2698SOL    HW111456   4.648   4.135   2.008
 2698SOL    HW211457   4.608   3.978   2.028
 2699SOL     OW11458   4.274   3.920   2.747
 2699SOL    HW111459   4.269   3.915   2.847
 2699SOL    HW211460   4.276   4.016   2.718
 2700SOL     OW11461   4.106   4.424   2.342
 2700SOL    HW111462   4.151   4.334   2.339
 2700SOL    HW211463   4.012   4.413   2.375
 2701SOL     OW11464   4.338   3.846   1.979
 2701SOL    HW111465   4.436   3.824   1.986
 2701SOL    HW211466   4.307   3.829   1.886
 2702SOL     OW11467   4.505   3.988   3.611
 2702SOL    HW111468   4.572   3.927   3.654
 2702SOL    HW211469   4.432   4.007   3.676
 2703SOL     OW11470   4.527   5.126   2.786
 2703SOL    HW111471   4.617   5.140   2.744
 2703SOL    HW211472   4.456   5.128   2.715
 2704SOL     OW11473   4.646   4.227   2.761
 2704SOL    HW111474   4.621   4.218   2.665
 2704SOL    HW211475   4.694   4.145   2.792
 2705SOL     OW11476   5.158   4.912   1.903
 2705SOL    HW111477   5.190   4.836   1.960
 2705SOL    HW211478   5.066   4.939   1.933
 2706SOL     OW11479   4.659   3.960   2.342
 2706SOL    HW111480   4.611   4.001   2.264
 2706SOL    HW211481   4.758   3.958   2.323
 2707SOL     OW11482   4.183   4.876   2.603
 2707SOL    HW111483   4.112   4.849   2.668
 2707SOL    HW211484   4.157   4.848   2.510
 2708SOL     OW11485   4.756   4.273   1.878
 2708SOL    HW111486   4.715   4.355   1.839
 2708SOL    HW211487   4.820   4.299   1.951
 2709SOL     OW11488   3.802   4.280   3.248
 2709SOL    HW111489   3.894   4.279   3.207
 2709SOL    HW211490   3.796   4.354   3.315
 2710SOL     OW11491   4.590   4.178   2.504
 2710SOL    HW111492   4.558   4.250   2.442
 2710SOL    HW211493   4.614   4.097   2.451
 2711SOL     OW11494   4.741   3.763   2.615
 2711SOL    HW111495   4.669   3.768   2.546
 2711SOL    HW211496   4.717   3.694   2.684
 2712SOL     OW11497   4.639   3.813   3.264
 2712SOL    HW111498   4.664   3.793   3.169
 2712SOL    HW211499   4.711   3.869   3.306
 2713SOL     OW11500   4.704   4.840   3.581
 2713SOL    HW111501   4.605   4.846   3.591
 2713SOL    HW211502   4.727   4.760   3.525
 2714SOL     OW11503   4.429   4.774   2.230
 2714SOL    HW111504   4.415   4.781   2.329
 2714SOL    HW211505   4.513   4.723   2.212
 2715SOL     OW11506   4.091   4.824   2.363
 2715SOL    HW111507   4.084   4.907   2.307
 2715SOL    HW211508   4.095   4.744   2.303
 2716SOL     OW11509   4.290   4.261   2.727
 2716SOL    HW111510   4.302   4.327   2.653
 2716SOL    HW211511   4.336   4.295   2.810
 2717SOL     OW11512   4.976   5.072   2.250
 2717SOL    HW111513   5.026   5.149   2.290
 2717SOL    HW211514   4.881   5.074   2.282
 2718SOL     OW11515   4.737   3.829   3.632
 2718SOL    HW111516   4.743   3.914   3.580
 2718SOL    HW211517   4.769   3.753   3.575
 2719SOL     OW11518   4.297   4.594   2.891
 2719SOL    HW111519   4.341   4.683   2.882
 2719SOL    HW211520   4.234   4.594   2.968
 2720SOL     OW11521   4.933   4.249   2.137
 2720SOL    HW111522   4.946   4.165   2.191
 2720SOL    HW211523   4.904   4.323   2.197
 2721SOL     OW11524   4.456   4.358   2.926
 2721SOL    HW111525   4.515   4.332   2.850
 2721SOL    HW211526   4.428   4.454   2.915
 2722SOL     OW11527   4.031   3.787   2.480
 2722SOL    HW111528   4.020   3.881   2.513
 2722SOL    HW211529   4.026   3.724   2.557
 2723SOL     OW11530   4.747   4.490   2.828
 2723SOL    HW111531   4.762   4.511   2.924
 2723SOL    HW211532   4.717   4.395   2.819
 2724SOL     OW11533   4.074   4.622   3.666
 2724SOL    HW111534   4.150   4.666   3.714
 2724SOL    HW211535   4.109   4.575   3.584
 2725SOL     OW11536   5.027   4.562   1.904
 2725SOL    HW111537   5.061   4.469   1.919
 2725SOL    HW211538   5.045   4.589   1.809
 2726SOL     OW11539   4.043   4.534   2.811
 2726SOL    HW111540   4.136   4.570   2.816
 2726SOL    HW211541   4.037   4.449   2.863
 2727SOL     OW11542   4.862   4.104   3.540
 2727SOL    HW111543   4.817   4.167   3.604
 2727SOL    HW211544   4.955   4.135   3.523
 2728SOL     OW11545   4.726   4.520   3.100
 2728SOL    HW111546   4.767   4.488   3.186
 2728SOL    HW211547   4.630   4.493   3.097
 2729SOL     OW11548   3.764   4.268   2.976
 2729SOL    HW111549   3.849   4.235   2.935
 2729SOL    HW211550   3.777   4.283   3.074
 2730SOL     OW11551   3.913   4.244   3.584
 2730SOL    HW111552   3.972   4.204   3.514
 2730SOL    HW211553   3.855   4.315   3.543
 2731SOL     OW11554   4.539   4.296   2.187
 2731SOL    HW111555   4.546   4.207   2.141
 2731SOL    HW211556   4.445   4.330   2.179
 2732SOL     OW11557   4.395   4.188   3.131
 2732SOL    HW111558   4.361   4.099   3.101
 2732SOL    HW211559   4.421   4.242   3.051
 2733SOL     OW11560   5.071   4.783   3.096
 2733SOL    HW111561   5.095   4.720   3.022
 2733SOL    HW211562   4.981   4.823   3.078
 2734SOL     OW11563   3.807   4.982   2.884
 2734SOL    HW111564   3.802   4.981   2.984
 2734SOL    HW211565   3.724   4.941   2.846
 2735SOL     OW11566   5.004   4.651   2.534
 2735SOL    HW111567   5.064   4.570   2.536
 2735SOL    HW211568   5.044   4.720   2.474
 2736SOL     OW11569   4.554   4.997   3.284
 2736SOL    HW111570   4.549   5.030   3.379
 2736SOL    HW211571   4.468   5.016   3.238
 2737SOL     OW11572   4.546   4.726   3.234
 2737SOL    HW111573   4.586   4.725   3.142
 2737SOL    HW211574   4.556   4.818   3.274
 2738SOL     OW11575   4.640   4.634   2.153
 2738SOL    HW111576   4.703   4.672   2.085
 2738SOL    HW211577   4.680   4.551   2.192
 2739SOL     OW11578   4.763   4.822   2.558
 2739SOL    HW111579   4.693   4.775   2.612
 2739SOL    HW211580   4.822   4.754   2.515
 2740SOL     OW11581   4.738   3.960   2.833
 2740SOL    HW111582   4.730   3.924   2.740
 2740SOL    HW211583   4.736   3.884   2.898
 2741SOL     OW11584   3.799   4.069   1.895
 2741SOL    HW111585   3.707   4.041   1.866
 2741SOL    HW211586   3.830   4.146   1.839
 2742SOL     OW11587   5.164   4.580   3.260
 2742SOL    HW111588   5.107   4.632   3.197
 2742SOL    HW211589   5.260   4.592   3.236
 2743SOL     OW11590   3.796   3.890   2.180
 2743SOL    HW111591   3.779   3.973   2.126
 2743SOL    HW211592   3.886   3.853   2.158
 2744SOL     OW11593   4.337   4.566   3.293
 2744SOL    HW111594   4.393   4.647   3.276
 2744SOL    HW211595   4.396   4.486   3.296
 2745SOL     OW11596   4.440   4.289   3.570
 2745SOL    HW111597   4.459   4.354   3.644
 2745SOL    HW211598   4.500   4.209   3.579
 2746SOL     OW11599   4.949   4.049   2.311
 2746SOL    HW111600   5.014   3.975   2.300
 2746SOL    HW211601   4.969   4.099   2.395
 2747SOL     OW11602   4.318   4.469   2.514
 2747SOL    HW111603   4.368   4.554   2.495
 2747SOL    HW211604   4.230   4.471   2.466
 2748SOL     OW11605   4.583   4.680   2.723
 2748SOL    HW111606   4.637   4.611   2.771
 2748SOL    HW211607   4.551   4.749   2.789
 2749SOL     OW11608   4.807   4.708   1.949
 2749SOL    HW111609   4.784   4.761   1.867
 2749SOL    HW211610   4.888   4.652   1.930
 2750SOL     OW11611   3.803   4.964   2.515
 2750SOL    HW111612   3.802   4.917   2.603
 2750SOL    HW211613   3.885   4.936   2.464
 2751SOL     OW11614   4.725   3.758   3.016
 2751SOL    HW111615   4.662   3.686   2.985
 2751SOL    HW211616   4.818   3.722   3.016
 2752SOL     OW11617   3.954   4.352   3.837
 2752SOL    HW111618   3.861   4.350   3.874
 2752SOL    HW211619   3.955   4.313   3.745
 2753SOL     OW11620   3.949   3.999   4.720
 2753SOL    HW111621   3.984   3.982   4.812
 2753SOL    HW211622   3.861   3.954   4.708
 2754SOL     OW11623   4.293   4.999   4.889
 2754SOL    HW111624   4.200   4.992   4.852
 2754SOL    HW211625   4.304   5.088   4.933
 2755SOL     OW11626   4.859   4.427   4.441
 2755SOL    HW111627   4.916   4.505   4.416
 2755SOL    HW211628   4.799   4.453   4.517
 2756SOL     OW11629   4.492   4.868   4.747
 2756SOL    HW111630   4.414   4.885   4.807
 2756SOL    HW211631   4.526   4.955   4.711
 2757SOL     OW11632   4.059   5.159   4.785
 2757SOL    HW111633   3.981   5.128   4.732
 2757SOL    HW211634   4.117   5.217   4.728
 2758SOL     OW11635   3.964   4.815   4.610
 2758SOL    HW111636   3.978   4.731   4.662
 2758SOL    HW211637   3.909   4.879   4.665
 2759SOL     OW11638   4.330   4.688   3.847
 2759SOL    HW111639   4.337   4.772   3.793
 2759SOL    HW211640   4.376   4.701   3.935
 2760SOL     OW11641   4.533   3.728   4.226
 2760SOL    HW111642   4.573   3.819   4.217
 2760SOL    HW211643   4.433   3.736   4.232
 2761SOL     OW11644   3.921   4.700   4.988
 2761SOL    HW111645   4.010   4.655   4.974
 2761SOL    HW211646   3.848   4.635   4.969
 2762SOL     OW11647   4.322   4.453   3.994
 2762SOL    HW111648   4.346   4.522   3.926
 2762SOL    HW211649   4.244   4.486   4.048
 2763SOL     OW11650   4.765   4.425   4.153
 2763SOL    HW111651   4.791   4.421   4.249
 2763SOL    HW211652   4.680   4.374   4.139
 2764SOL     OW11653   3.800   4.535   4.513
 2764SOL    HW111654   3.899   4.523   4.522
 2764SOL    HW211655   3.776   4.630   4.534
 2765SOL     OW11656   4.589   4.072   3.919
 2765SOL    HW111657   4.648   4.135   3.870
 2765SOL    HW211658   4.608   3.978   3.890
 2766SOL     OW11659   4.045   4.667   3.966
 2766SOL    HW111660   4.127   4.706   3.924
 2766SOL    HW211661   4.018   4.585   3.917
 2767SOL     OW11662   4.338   3.846   3.841
 2767SOL    HW111663   4.436   3.824   3.848
 2767SOL    HW211664   4.307   3.829   3.748
 2768SOL     OW11665   4.527   5.126   4.648
 2768SOL    HW111666   4.617   5.140   4.606
 2768SOL    HW211667   4.456   5.128   4.577
 2769SOL     OW11668   4.646   4.227   4.623
 2769SOL    HW111669   4.621   4.218   4.527
 2769SOL    HW211670   4.694   4.145   4.654
 2770SOL     OW11671   4.263   3.788   4.236
 2770SOL    HW111672   4.182   3.789   4.294
 2770SOL    HW211673   4.266   3.871   4.181
 2771SOL     OW11674   4.021   3.759   3.895
 2771SOL    HW111675   4.070   3.843   3.874
 2771SOL    HW211676   4.083   3.694   3.940
 2772SOL     OW11677   4.659   3.960   4.204
 2772SOL    HW111678   4.611   4.001   4.126
 2772SOL    HW211679   4.758   3.958   4.185
 2773SOL     OW11680   4.951   5.294   4.517
 2773SOL    HW111681   4.972   5.368   4.452
 2773SOL    HW211682   5.019   5.294   4.590
 2774SOL     OW11683   4.183   4.876   4.465
 2774SOL    HW111684   4.112   4.849   4.530
 2774SOL    HW211685   4.157   4.848   4.372
 2775SOL     OW11686   4.756   4.273   3.740
 2775SOL    HW111687   4.715   4.355   3.701
 2775SOL    HW211688   4.820   4.299   3.813
 2776SOL     OW11689   4.285   3.946   4.871
 2776SOL    HW111690   4.323   3.862   4.908
 2776SOL    HW211691   4.197   3.965   4.915
 2777SOL     OW11692   4.590   4.178   4.366
 2777SOL    HW111693   4.558   4.250   4.304
 2777SOL    HW211694   4.614   4.097   4.313
 2778SOL     OW11695   4.741   3.763   4.477
 2778SOL    HW111696   4.669   3.768   4.408
 2778SOL    HW211697   4.717   3.694   4.546
 2779SOL     OW11698   4.251   3.980   4.052
 2779SOL    HW111699   4.278   3.921   3.977
 2779SOL    HW211700   4.251   4.075   4.021
 2780SOL     OW11701   4.429   4.774   4.092
 2780SOL    HW111702   4.415   4.781   4.191
 2780SOL    HW211703   4.513   4.723   4.074
 2781SOL     OW11704   4.134   4.537   4.975
 2781SOL    HW111705   4.220   4.549   5.025
 2781SOL    HW211706   4.092   4.450   5.002
 2782SOL     OW11707   4.091   4.824   4.225
 2782SOL    HW111708   4.084   4.907   4.169
 2782SOL    HW211709   4.095   4.744   4.165
 2783SOL     OW11710   4.976   5.072   4.112
 2783SOL    HW111711   5.026   5.149   4.152
 2783SOL    HW211712   4.881   5.074   4.144
 2784SOL     OW11713   4.297   4.594   4.753
 2784SOL    HW111714   4.341   4.683   4.744
 2784SOL    HW211715   4.234   4.594   4.830
 2785SOL     OW11716   5.084   4.586   4.769
 2785SOL    HW111717   5.009   4.586   4.703
 2785SOL    HW211718   5.121   4.494   4.778
 2786SOL     OW11719   4.933   4.249   3.999
 2786SOL    HW111720   4.946   4.165   4.053
 2786SOL    HW211721   4.904   4.323   4.059
 2787SOL     OW11722   4.031   3.937   4.955
 2787SOL    HW111723   4.008   3.974   5.045
 2787SOL    HW211724   4.001   3.842   4.949
 2788SOL     OW11725   4.031   3.787   4.342
 2788SOL    HW111726   4.020   3.881   4.375
 2788SOL    HW211727   4.026   3.724   4.419
 2789SOL     OW11728   4.747   4.490   4.690
 2789SOL    HW111729   4.762   4.511   4.786
 2789SOL    HW211730   4.717   4.395   4.681
 2790SOL     OW11731   5.027   4.562   3.766
 2790SOL    HW111732   5.061   4.469   3.781
 2790SOL    HW211733   5.045   4.589   3.671
 2791SOL     OW11734   4.043   4.534   4.673
 2791SOL    HW111735   4.136   4.570   4.678
 2791SOL    HW211736   4.037   4.449   4.725
 2792SOL     OW11737   4.063   4.233   4.730
 2792SOL    HW111738   4.011   4.150   4.713
 2792SOL    HW211739   4.140   4.238   4.666
 2793SOL     OW11740   4.884   3.931   5.201
 2793SOL    HW111741   4.884   3.995   5.278
 2793SOL    HW211742   4.912   3.979   5.118
 2794SOL     OW11743   3.732   5.050   3.924
 2794SOL    HW111744   3.639   5.071   3.893
 2794SOL    HW211745   3.742   4.951   3.937
 2795SOL     OW11746   3.764   4.268   4.838
 2795SOL    HW111747   3.849   4.235   4.797
 2795SOL    HW211748   3.777   4.283   4.936
 2796SOL     OW11749   4.539   4.296   4.049
 2796SOL    HW111750   4.546   4.207   4.003
 2796SOL    HW211751   4.445   4.330   4.041
 2797SOL     OW11752   4.197   4.224   3.915
 2797SOL    HW111753   4.258   4.304   3.919
 2797SOL    HW211754   4.102   4.255   3.922
 2798SOL     OW11755   5.071   4.783   4.958
 2798SOL    HW111756   5.095   4.720   4.884
 2798SOL    HW211757   4.981   4.823   4.940
 2799SOL     OW11758   5.004   4.651   4.396
 2799SOL    HW111759   5.064   4.570   4.398
 2799SOL    HW211760   5.044   4.720   4.336
 2800SOL     OW11761   3.987   4.050   4.444
 2800SOL    HW111762   3.908   4.101   4.410
 2800SOL    HW211763   3.978   4.035   4.542
 2801SOL     OW11764   4.918   5.336   3.755
 2801SOL    HW111765   4.924   5.243   3.792
 2801SOL    HW211766   4.859   5.336   3.675
 2802SOL     OW11767   4.640   4.634   4.015
 2802SOL    HW111768   4.703   4.672   3.947
 2802SOL    HW211769   4.680   4.551   4.054
 2803SOL     OW11770   4.763   4.822   4.420
 2803SOL    HW111771   4.693   4.775   4.474
 2803SOL    HW211772   4.822   4.754   4.377
 2804SOL     OW11773   3.799   4.069   3.757
 2804SOL    HW111774   3.707   4.041   3.728
 2804SOL    HW211775   3.830   4.146   3.701
 2805SOL     OW11776   4.949   4.049   4.173
 2805SOL    HW111777   5.014   3.975   4.162
 2805SOL    HW211778   4.969   4.099   4.257
 2806SOL     OW11779   4.583   4.680   4.585
 2806SOL    HW111780   4.637   4.611   4.633
 2806SOL    HW211781   4.551   4.749   4.651
 2807SOL     OW11782   4.807   4.708   3.811
 2807SOL    HW111783   4.784   4.761   3.729
 2807SOL    HW211784   4.888   4.652   3.792
 2808SOL     OW11785   3.803   4.964   4.377
 2808SOL    HW111786   3.802   4.917   4.465
 2808SOL    HW211787   3.885   4.936   4.326
 2809SOL     OW11788   4.494   5.054   4.025
 2809SOL    HW111789   4.448   4.967   4.042
 2809SOL    HW211790   4.585   5.051   4.066
 2810SOL     OW11791   5.076   3.776   3.892
 2810SOL    HW111792   5.111   3.735   3.808
 2810SOL    HW211793   4.986   3.738   3.912
 2811SOL     OW11794   3.763   4.801   4.024
 2811SOL    HW111795   3.862   4.790   4.015
 2811SOL    HW211796   3.723   4.715   4.056
   5.08970   5.08970   5.08970
