UNITED ATOM STRUCTURE FOR MOLECULE UNK
12561
    0X2IT   H18    1   3.092   2.352   2.583
    0X2IT    N4    2   3.026   2.419   2.548
    0X2IT   H17    3   3.059   2.484   2.478
    0X2IT   C14    4   2.895   2.380   2.546
    0X2IT    O5    5   2.849   2.285   2.607
    0X2IT    O4    6   2.822   2.466   2.469
    0X2IT   C13    7   2.680   2.441   2.463
    0X2IT   C10    8   2.607   2.502   2.584
    0X2IT    C9    9   2.457   2.484   2.578
    0X2IT    C4   10   2.394   2.607   2.582
    0X2IT    C5   11   2.245   2.625   2.577
    0X2IT    O1   12   2.197   2.739   2.585
    0X2IT    C6   13   2.166   2.505   2.564
    0X2IT   C12   14   2.015   2.516   2.558
    0X2IT    C7   15   2.229   2.382   2.561
    0X2IT    C8   16   2.381   2.365   2.567
    0X2IT    O2   17   2.427   2.250   2.559
    0X2IT    N3   18   2.164   2.265   2.551
    0X2IT   H15   19   2.064   2.258   2.544
    0X2IT   H16   20   2.221   2.180   2.548
    0X2IT    N2   21   2.482   2.709   2.599
    0X2IT    C3   22   2.473   2.846   2.546
    0X2IT    C2   23   2.599   2.856   2.461
    0X2IT    H2   24   2.639   2.954   2.435
    0X2IT    N1   25   2.611   2.744   2.365
    0X2IT   H14   26   2.674   2.771   2.289
    0X2IT    C1   27   2.688   2.741   2.491
    0X2IT    H1   28   2.796   2.748   2.490
    0X2IT   C11   29   2.622   2.658   2.600
    0X2IT    O3   30   2.691   2.695   2.718
    0X2IT   C15   31   2.628   2.664   2.843
    1X2IT   H18   32   3.773   1.198   3.150
    1X2IT    N4   33   3.774   1.113   3.204
    1X2IT   H17   34   3.838   1.041   3.175
    1X2IT   C14   35   3.741   1.125   3.336
    1X2IT    O5   36   3.686   1.221   3.387
    1X2IT    O4   37   3.775   1.010   3.402
    1X2IT   C13   38   3.740   1.005   3.542
    1X2IT   C10   39   3.593   0.962   3.562
    1X2IT    C9   40   3.555   0.949   3.708
    1X2IT    C4   41   3.510   0.821   3.734
    1X2IT    C5   42   3.464   0.774   3.869
    1X2IT    O1   43   3.422   0.658   3.882
    1X2IT    C6   44   3.472   0.870   3.976
    1X2IT   C12   45   3.428   0.829   4.116
    1X2IT    C7   46   3.516   0.998   3.950
    1X2IT    C8   47   3.561   1.045   3.812
    1X2IT    O2   48   3.603   1.161   3.801
    1X2IT    N3   49   3.525   1.094   4.043
    1X2IT   H15   50   3.501   1.080   4.140
    1X2IT   H16   51   3.560   1.185   4.013
    1X2IT    N2   52   3.504   0.745   3.621
    1X2IT    C3   53   3.527   0.600   3.609
    1X2IT    C2   54   3.644   0.594   3.512
    1X2IT    H2   55   3.664   0.503   3.457
    1X2IT    N1   56   3.757   0.680   3.555
    1X2IT   H14   57   3.843   0.648   3.510
    1X2IT    C1   58   3.664   0.728   3.451
    1X2IT    H1   59   3.698   0.742   3.349
    1X2IT   C11   60   3.556   0.821   3.504
    1X2IT    O3   61   3.461   0.827   3.399
    1X2IT   C15   62   3.330   0.875   3.432
    2X2IT   H18   63   1.850   3.892   3.643
    2X2IT    N4   64   1.847   3.975   3.586
    2X2IT   H17   65   1.855   4.063   3.634
    2X2IT   C14   66   1.896   3.964   3.459
    2X2IT    O5   67   1.916   3.859   3.400
    2X2IT    O4   68   1.914   4.088   3.405
    2X2IT   C13   69   1.959   4.091   3.268
    2X2IT   C10   70   1.842   4.077   3.170
    2X2IT    C9   71   1.883   4.087   3.025
    2X2IT    C4   72   1.815   4.190   2.963
    2X2IT    C5   73   1.834   4.228   2.819
    2X2IT    O1   74   1.766   4.320   2.771
    2X2IT    C6   75   1.932   4.153   2.745
    2X2IT   C12   76   1.956   4.186   2.599
    2X2IT    C7   77   1.999   4.049   2.807
    2X2IT    C8   78   1.979   4.011   2.953
    2X2IT    O2   79   2.048   3.919   3.000
    2X2IT    N3   80   2.091   3.972   2.745
    2X2IT   H15   81   2.118   3.985   2.649
    2X2IT   H16   82   2.136   3.899   2.801
    2X2IT    N2   83   1.724   4.248   3.045
    2X2IT    C3   84   1.682   4.389   3.048
    2X2IT    C2   85   1.719   4.430   3.190
    2X2IT    H2   86   1.671   4.517   3.235
    2X2IT    N1   87   1.859   4.398   3.223
    2X2IT   H14   88   1.890   4.457   3.302
    2X2IT    C1   89   1.751   4.309   3.270
    2X2IT    H1   90   1.729   4.300   3.376
    2X2IT   C11   91   1.730   4.188   3.181
    2X2IT    O3   92   1.605   4.136   3.222
    2X2IT   C15   93   1.539   4.045   3.133
    3X2IT   H18   94  -0.029   2.585   2.210
    3X2IT    N4   95  -0.062   2.495   2.180
    3X2IT   H17   96  -0.158   2.489   2.150
    3X2IT   C14   97   0.031   2.412   2.124
    3X2IT    O5   98   0.152   2.426   2.132
    3X2IT    O4   99  -0.032   2.309   2.061
    3X2IT   C13  100   0.054   2.209   2.002
    3X2IT   C10  101   0.099   2.105   2.106
    3X2IT    C9  102   0.184   1.994   2.048
    3X2IT    C4  103   0.125   1.872   2.072
    3X2IT    C5  104   0.183   1.741   2.026
    3X2IT    O1  105   0.126   1.635   2.055
    3X2IT    C6  106   0.305   1.747   1.950
    3X2IT   C12  107   0.369   1.619   1.900
    3X2IT    C7  108   0.364   1.870   1.926
    3X2IT    C8  109   0.305   2.003   1.974
    3X2IT    O2  110   0.364   2.108   1.944
    3X2IT    N3  111   0.479   1.886   1.858
    3X2IT   H15  112   0.530   1.810   1.818
    3X2IT   H16  113   0.513   1.982   1.846
    3X2IT    N2  114   0.014   1.882   2.148
    3X2IT    C3  115  -0.108   1.799   2.144
    3X2IT    C2  116  -0.216   1.902   2.111
    3X2IT    H2  117  -0.320   1.879   2.133
    3X2IT    N1  118  -0.182   1.984   1.993
    3X2IT   H14  119  -0.267   2.025   1.954
    3X2IT    C1  120  -0.160   2.038   2.128
    3X2IT    H1  121  -0.219   2.122   2.164
    3X2IT   C11  122  -0.017   2.025   2.177
    3X2IT    O3  123  -0.025   2.051   2.316
    3X2IT   C15  124   0.086   2.009   2.397
    4X2IT   H18  125   1.811   4.064   0.816
    4X2IT    N4  126   1.747   4.013   0.758
    4X2IT   H17  127   1.658   3.986   0.798
    4X2IT   C14  128   1.754   4.040   0.624
    4X2IT    O5  129   1.846   4.097   0.568
    4X2IT    O4  130   1.644   3.989   0.560
    4X2IT   C13  131   1.641   4.004   0.417
    4X2IT   C10  132   1.721   3.892   0.347
    4X2IT    C9  133   1.714   3.900   0.196
    4X2IT    C4  134   1.663   3.783   0.145
    4X2IT    C5  135   1.643   3.757  -0.002
    4X2IT    O1  136   1.600   3.647  -0.040
    4X2IT    C6  137   1.676   3.866  -0.091
    4X2IT   C12  138   1.658   3.847  -0.241
    4X2IT    C7  139   1.728   3.983  -0.040
    4X2IT    C8  140   1.750   4.007   0.110
    4X2IT    O2  141   1.793   4.118   0.146
    4X2IT    N3  142   1.764   4.088  -0.115
    4X2IT   H15  143   1.755   4.090  -0.215
    4X2IT   H16  144   1.800   4.170  -0.066
    4X2IT    N2  145   1.641   3.690   0.241
    4X2IT    C3  146   1.536   3.587   0.246
    4X2IT    C2  147   1.462   3.623   0.374
    4X2IT    H2  148   1.399   3.548   0.423
    4X2IT    N1  149   1.422   3.766   0.378
    4X2IT   H14  150   1.345   3.778   0.444
    4X2IT    C1  151   1.542   3.721   0.451
    4X2IT    H1  152   1.544   3.723   0.560
    4X2IT   C11  153   1.671   3.746   0.376
    4X2IT    O3  154   1.767   3.668   0.445
    4X2IT   C15  155   1.890   3.638   0.377
    5X2IT   H18  156   4.391   0.506   4.406
    5X2IT    N4  157   4.362   0.511   4.501
    5X2IT   H17  158   4.267   0.481   4.522
    5X2IT   C14  159   4.459   0.494   4.596
    5X2IT    O5  160   4.579   0.501   4.576
    5X2IT    O4  161   4.401   0.472   4.718
    5X2IT   C13  162   4.492   0.459   4.830
    5X2IT   C10  163   4.534   0.597   4.884
    5X2IT    C9  164   4.623   0.587   5.006
    5X2IT    C4  165   4.566   0.654   5.113
    5X2IT    C5  166   4.629   0.663   5.249
    5X2IT    O1  167   4.572   0.728   5.338
    5X2IT    C6  168   4.754   0.595   5.267
    5X2IT   C12  169   4.823   0.600   5.402
    5X2IT    C7  170   4.812   0.529   5.160
    5X2IT    C8  171   4.748   0.521   5.021
    5X2IT    O2  172   4.806   0.456   4.933
    5X2IT    N3  173   4.930   0.465   5.166
    5X2IT   H15  174   4.984   0.459   5.250
    5X2IT   H16  175   4.962   0.418   5.081
    5X2IT    N2  176   4.450   0.716   5.078
    5X2IT    C3  177   4.331   0.738   5.161
    5X2IT    C2  178   4.223   0.665   5.083
    5X2IT    H2  179   4.118   0.690   5.099
    5X2IT    N1  180   4.261   0.526   5.050
    5X2IT   H14  181   4.177   0.472   5.030
    5X2IT    C1  182   4.275   0.632   4.947
    5X2IT    H1  183   4.212   0.631   4.859
    5X2IT   C11  184   4.416   0.687   4.936
    5X2IT    O3  185   4.400   0.806   4.860
    5X2IT   C15  186   4.507   0.901   4.865
    6X2IT   H18  187   5.042   2.708   1.323
    6X2IT    N4  188   4.967   2.666   1.272
    6X2IT   H17  189   4.884   2.642   1.325
    6X2IT   C14  190   4.954   2.700   1.141
    6X2IT    O5  191   5.041   2.755   1.074
    6X2IT    O4  192   4.833   2.660   1.093
    6X2IT   C13  193   4.808   2.684   0.953
    6X2IT   C10  194   4.868   2.573   0.866
    6X2IT    C9  195   4.839   2.590   0.718
    6X2IT    C4  196   4.772   2.480   0.669
    6X2IT    C5  197   4.727   2.465   0.527
    6X2IT    O1  198   4.671   2.361   0.491
    6X2IT    C6  199   4.754   2.577   0.439
    6X2IT   C12  200   4.711   2.569   0.294
    6X2IT    C7  201   4.822   2.687   0.488
    6X2IT    C8  202   4.868   2.700   0.633
    6X2IT    O2  203   4.924   2.805   0.667
    6X2IT    N3  204   4.853   2.794   0.414
    6X2IT   H15  205   4.829   2.803   0.317
    6X2IT   H16  206   4.902   2.871   0.461
    6X2IT    N2  207   4.759   2.383   0.763
    6X2IT    C3  208   4.648   2.287   0.779
    6X2IT    C2  209   4.597   2.319   0.919
    6X2IT    H2  210   4.539   2.246   0.974
    6X2IT    N1  211   4.569   2.464   0.937
    6X2IT   H14  212   4.505   2.476   1.016
    6X2IT    C1  213   4.696   2.407   0.988
    6X2IT    H1  214   4.715   2.402   1.094
    6X2IT   C11  215   4.813   2.428   0.894
    6X2IT    O3  216   4.913   2.340   0.943
    6X2IT   C15  217   5.021   2.307   0.855
    7X2IT   H18  218   4.566   3.598   4.327
    7X2IT    N4  219   4.469   3.607   4.303
    7X2IT   H17  220   4.406   3.535   4.334
    7X2IT   C14  221   4.422   3.735   4.291
    7X2IT    O5  222   4.491   3.835   4.280
    7X2IT    O4  223   4.285   3.735   4.289
    7X2IT   C13  224   4.221   3.863   4.271
    7X2IT   C10  225   4.214   3.901   4.122
    7X2IT    C9  226   4.142   4.031   4.097
    7X2IT    C4  227   4.034   4.011   4.013
    7X2IT    C5  228   3.940   4.120   3.969
    7X2IT    O1  229   3.849   4.093   3.890
    7X2IT    C6  230   3.965   4.251   4.022
    7X2IT   C12  231   3.874   4.366   3.982
    7X2IT    C7  232   4.073   4.272   4.106
    7X2IT    C8  233   4.168   4.160   4.149
    7X2IT    O2  234   4.260   4.189   4.228
    7X2IT    N3  235   4.105   4.391   4.159
    7X2IT   H15  236   4.052   4.475   4.142
    7X2IT   H16  237   4.187   4.394   4.221
    7X2IT    N2  238   4.028   3.883   3.968
    7X2IT    C3  239   3.907   3.804   3.936
    7X2IT    C2  240   3.920   3.686   4.032
    7X2IT    H2  241   3.865   3.594   4.012
    7X2IT    N1  242   3.940   3.730   4.172
    7X2IT   H14  243   3.914   3.655   4.236
    7X2IT    C1  244   4.056   3.685   4.092
    7X2IT    H1  245   4.109   3.594   4.117
    7X2IT   C11  246   4.135   3.800   4.030
    7X2IT    O3  247   4.216   3.737   3.933
    7X2IT   C15  248   4.274   3.821   3.832
    8X2IT   H18  249   2.471   2.342   1.236
    8X2IT    N4  250   2.481   2.350   1.336
    8X2IT   H17  251   2.450   2.436   1.378
    8X2IT   C14  252   2.474   2.234   1.407
    8X2IT    O5  253   2.484   2.121   1.360
    8X2IT    O4  254   2.458   2.262   1.540
    8X2IT   C13  255   2.455   2.148   1.629
    8X2IT   C10  256   2.597   2.102   1.665
    8X2IT    C9  257   2.598   1.987   1.764
    8X2IT    C4  258   2.670   2.022   1.877
    8X2IT    C5  259   2.690   1.932   1.995
    8X2IT    O1  260   2.758   1.971   2.091
    8X2IT    C6  261   2.627   1.802   1.989
    8X2IT   C12  262   2.643   1.706   2.104
    8X2IT    C7  263   2.557   1.767   1.875
    8X2IT    C8  264   2.538   1.859   1.755
    8X2IT    O2  265   2.469   1.819   1.660
    8X2IT    N3  266   2.496   1.648   1.859
    8X2IT   H15  267   2.497   1.575   1.929
    8X2IT   H16  268   2.446   1.633   1.771
    8X2IT    N2  269   2.726   2.145   1.866
    8X2IT    C3  270   2.749   2.244   1.972
    8X2IT    C2  271   2.668   2.364   1.924
    8X2IT    H2  272   2.690   2.463   1.962
    8X2IT    N1  273   2.528   2.327   1.891
    8X2IT   H14  274   2.470   2.411   1.893
    8X2IT    C1  275   2.628   2.342   1.783
    8X2IT    H1  276   2.619   2.422   1.710
    8X2IT   C11  277   2.687   2.209   1.737
    8X2IT    O3  278   2.800   2.247   1.660
    8X2IT   C15  279   2.899   2.146   1.635
    9X2IT   H18  280   4.281   3.761   1.915
    9X2IT    N4  281   4.322   3.834   1.860
    9X2IT   H17  282   4.421   3.853   1.875
    9X2IT   C14  283   4.268   3.857   1.737
    9X2IT    O5  284   4.159   3.816   1.700
    9X2IT    O4  285   4.351   3.936   1.663
    9X2IT   C13  286   4.303   3.974   1.532
    9X2IT   C10  287   4.208   4.095   1.540
    9X2IT    C9  288   4.161   4.142   1.404
    9X2IT    C4  289   4.197   4.274   1.385
    9X2IT    C5  290   4.166   4.352   1.260
    9X2IT    O1  291   4.198   4.471   1.252
    9X2IT    C6  292   4.098   4.280   1.155
    9X2IT   C12  293   4.064   4.352   1.026
    9X2IT    C7  294   4.061   4.148   1.175
    9X2IT    C8  295   4.093   4.071   1.303
    9X2IT    O2  296   4.060   3.951   1.308
    9X2IT    N3  297   3.996   4.074   1.084
    9X2IT   H15  298   3.970   4.108   0.993
    9X2IT   H16  299   3.976   3.977   1.109
    9X2IT    N2  300   4.256   4.328   1.494
    9X2IT    C3  301   4.361   4.431   1.499
    9X2IT    C2  302   4.474   4.358   1.572
    9X2IT    H2  303   4.553   4.416   1.620
    9X2IT    N1  304   4.505   4.228   1.510
    9X2IT   H14  305   4.600   4.199   1.537
    9X2IT    C1  306   4.421   4.233   1.631
    9X2IT    H1  307   4.457   4.192   1.725
    9X2IT   C11  308   4.272   4.226   1.601
    9X2IT    O3  309   4.211   4.265   1.722
    9X2IT   C15  310   4.073   4.306   1.716
   10X2IT   H18  311   2.871   4.408   0.590
   10X2IT    N4  312   2.875   4.495   0.538
   10X2IT   H17  313   2.923   4.493   0.449
   10X2IT   C14  314   2.770   4.581   0.556
   10X2IT    O5  315   2.690   4.575   0.648
   10X2IT    O4  316   2.772   4.677   0.460
   10X2IT   C13  317   2.671   4.779   0.470
   10X2IT   C10  318   2.713   4.890   0.568
   10X2IT    C9  319   2.612   5.003   0.577
   10X2IT    C4  320   2.672   5.123   0.544
   10X2IT    C5  321   2.600   5.255   0.541
   10X2IT    O1  322   2.663   5.358   0.514
   10X2IT    C6  323   2.459   5.252   0.572
   10X2IT   C12  324   2.381   5.381   0.572
   10X2IT    C7  325   2.400   5.132   0.606
   10X2IT    C8  326   2.474   4.998   0.609
   10X2IT    O2  327   2.410   4.896   0.637
   10X2IT    N3  328   2.270   5.119   0.639
   10X2IT   H15  329   2.206   5.197   0.640
   10X2IT   H16  330   2.236   5.025   0.661
   10X2IT    N2  331   2.805   5.109   0.521
   10X2IT    C3  332   2.890   5.184   0.427
   10X2IT    C2  333   2.943   5.074   0.337
   10X2IT    H2  334   3.033   5.091   0.278
   10X2IT    N1  335   2.835   4.989   0.282
   10X2IT   H14  336   2.869   4.941   0.198
   10X2IT    C1  337   2.914   4.942   0.398
   10X2IT    H1  338   2.980   4.856   0.388
   10X2IT   C11  339   2.846   4.966   0.531
   10X2IT    O3  340   2.949   4.946   0.627
   10X2IT   C15  341   2.927   4.999   0.758
   11X2IT   H18  342   3.602  -0.210   0.112
   11X2IT    N4  343   3.644  -0.150   0.181
   11X2IT   H17  344   3.716  -0.087   0.149
   11X2IT   C14  345   3.564  -0.113   0.286
   11X2IT    O5  346   3.459  -0.167   0.317
   11X2IT    O4  347   3.622  -0.009   0.354
   11X2IT   C13  348   3.552   0.036   0.471
   11X2IT   C10  349   3.586  -0.050   0.594
   11X2IT    C9  350   3.520  -0.002   0.721
   11X2IT    C4  351   3.616   0.026   0.817
   11X2IT    C5  352   3.585   0.078   0.954
   11X2IT    O1  353   3.677   0.096   1.035
   11X2IT    C6  354   3.446   0.101   0.984
   11X2IT   C12  355   3.407   0.153   1.121
   11X2IT    C7  356   3.350   0.072   0.889
   11X2IT    C8  357   3.383   0.019   0.749
   11X2IT    O2  358   3.289   0.001   0.670
   11X2IT    N3  359   3.218   0.089   0.908
   11X2IT   H15  360   3.179   0.124   0.994
   11X2IT   H16  361   3.156   0.066   0.830
   11X2IT    N2  362   3.741  -0.005   0.775
   11X2IT    C3  363   3.868   0.062   0.808
   11X2IT    C2  364   3.918   0.106   0.671
   11X2IT    H2  365   4.024   0.129   0.657
   11X2IT    N1  366   3.816   0.182   0.595
   11X2IT   H14  367   3.862   0.238   0.523
   11X2IT    C1  368   3.838   0.039   0.565
   11X2IT    H1  369   3.880   0.008   0.470
   11X2IT   C11  370   3.739  -0.053   0.634
   11X2IT    O3  371   3.796  -0.182   0.620
   11X2IT   C15  372   3.747  -0.285   0.707
   12X2IT   H18  373   4.863   1.060   1.232
   12X2IT    N4  374   4.871   0.960   1.222
   12X2IT   H17  375   4.839   0.920   1.136
   12X2IT   C14  376   4.975   0.901   1.289
   12X2IT    O5  377   5.039   0.953   1.379
   12X2IT    O4  378   4.992   0.773   1.244
   12X2IT   C13  379   5.094   0.696   1.310
   12X2IT   C10  380   5.041   0.632   1.440
   12X2IT    C9  381   5.143   0.545   1.509
   12X2IT    C4  382   5.093   0.416   1.523
   12X2IT    C5  383   5.169   0.304   1.587
   12X2IT    O1  384   5.116   0.193   1.599
   12X2IT    C6  385   5.303   0.334   1.633
   12X2IT   C12  386   5.386   0.225   1.698
   12X2IT    C7  387   5.352   0.462   1.619
   12X2IT    C8  388   5.273   0.576   1.555
   12X2IT    O2  389   5.329   0.687   1.544
   12X2IT    N3  390   5.474   0.500   1.660
   12X2IT   H15  391   5.540   0.437   1.703
   12X2IT   H16  392   5.501   0.598   1.644
   12X2IT    N2  393   4.965   0.406   1.480
   12X2IT    C3  394   4.900   0.290   1.416
   12X2IT    C2  395   4.858   0.346   1.281
   12X2IT    H2  396   4.780   0.297   1.224
   12X2IT    N1  397   4.971   0.412   1.210
   12X2IT   H14  398   4.950   0.416   1.110
   12X2IT    C1  399   4.872   0.494   1.283
   12X2IT    H1  400   4.805   0.560   1.230
   12X2IT   C11  401   4.919   0.535   1.422
   12X2IT    O3  402   4.801   0.582   1.485
   12X2IT   C15  403   4.803   0.592   1.628
   13X2IT   H18  404   2.420   2.991   1.309
   13X2IT    N4  405   2.482   3.019   1.235
   13X2IT   H17  406   2.482   2.961   1.151
   13X2IT   C14  407   2.507   3.152   1.223
   13X2IT    O5  408   2.485   3.236   1.310
   13X2IT    O4  409   2.565   3.179   1.103
   13X2IT   C13  410   2.604   3.316   1.079
   13X2IT   C10  411   2.741   3.347   1.141
   13X2IT    C9  412   2.788   3.488   1.113
   13X2IT    C4  413   2.910   3.485   1.048
   13X2IT    C5  414   2.984   3.608   1.005
   13X2IT    O1  415   3.095   3.596   0.950
   13X2IT    C6  416   2.921   3.735   1.031
   13X2IT   C12  417   2.990   3.863   0.990
   13X2IT    C7  418   2.799   3.738   1.097
   13X2IT    C8  419   2.725   3.611   1.142
   13X2IT    O2  420   2.614   3.626   1.196
   13X2IT    N3  421   2.734   3.850   1.128
   13X2IT   H15  422   2.767   3.942   1.104
   13X2IT   H16  423   2.643   3.840   1.175
   13X2IT    N2  424   2.958   3.359   1.035
   13X2IT    C3  425   3.039   3.304   0.925
   13X2IT    C2  426   2.951   3.191   0.873
   13X2IT    H2  427   2.995   3.111   0.815
   13X2IT    N1  428   2.814   3.237   0.843
   13X2IT   H14  429   2.770   3.171   0.778
   13X2IT    C1  430   2.841   3.166   0.970
   13X2IT    H1  431   2.800   3.068   0.988
   13X2IT   C11  432   2.860   3.260   1.088
   13X2IT    O3  433   2.918   3.177   1.188
   13X2IT   C15  434   2.983   3.243   1.297
   14X2IT   H18  435   5.268   4.785   3.237
   14X2IT    N4  436   5.168   4.794   3.232
   14X2IT   H17  437   5.117   4.714   3.196
   14X2IT   C14  438   5.110   4.874   3.325
   14X2IT    O5  439   5.169   4.956   3.394
   14X2IT    O4  440   4.975   4.853   3.327
   14X2IT   C13  441   4.899   4.937   3.417
   14X2IT   C10  442   4.867   5.074   3.353
   14X2IT    C9  443   4.782   5.162   3.441
   14X2IT    C4  444   4.665   5.197   3.375
   14X2IT    C5  445   4.558   5.283   3.435
   14X2IT    O1  446   4.458   5.312   3.367
   14X2IT    C6  447   4.579   5.328   3.570
   14X2IT   C12  448   4.474   5.415   3.636
   14X2IT    C7  449   4.696   5.294   3.636
   14X2IT    C8  450   4.805   5.207   3.573
   14X2IT    O2  451   4.904   5.179   3.643
   14X2IT    N3  452   4.725   5.333   3.761
   14X2IT   H15  453   4.664   5.389   3.817
   14X2IT   H16  454   4.814   5.300   3.800
   14X2IT    N2  455   4.663   5.150   3.247
   14X2IT    C3  456   4.547   5.106   3.169
   14X2IT    C2  457   4.582   4.961   3.138
   14X2IT    H2  458   4.533   4.911   3.054
   14X2IT    N1  459   4.619   4.885   3.259
   14X2IT   H14  460   4.607   4.785   3.241
   14X2IT    C1  461   4.725   4.937   3.171
   14X2IT    H1  462   4.788   4.870   3.114
   14X2IT   C11  463   4.784   5.068   3.219
   14X2IT    O3  464   4.856   5.117   3.107
   14X2IT   C15  465   4.892   5.256   3.108
   15X2IT   H18  466   2.728   3.402   2.079
   15X2IT    N4  467   2.800   3.338   2.050
   15X2IT   H17  468   2.793   3.301   1.956
   15X2IT   C14  469   2.923   3.355   2.106
   15X2IT    O5  470   2.946   3.421   2.206
   15X2IT    O4  471   3.016   3.284   2.037
   15X2IT   C13  472   3.151   3.287   2.089
   15X2IT   C10  473   3.170   3.184   2.202
   15X2IT    C9  474   3.312   3.180   2.255
   15X2IT    C4  475   3.363   3.052   2.241
   15X2IT    C5  476   3.502   3.014   2.283
   15X2IT    O1  477   3.539   2.896   2.271
   15X2IT    C6  478   3.585   3.119   2.337
   15X2IT   C12  479   3.726   3.087   2.381
   15X2IT    C7  480   3.533   3.246   2.352
   15X2IT    C8  481   3.391   3.284   2.309
   15X2IT    O2  482   3.356   3.402   2.323
   15X2IT    N3  483   3.601   3.350   2.403
   15X2IT   H15  484   3.696   3.343   2.434
   15X2IT   H16  485   3.553   3.440   2.407
   15X2IT    N2  486   3.272   2.965   2.193
   15X2IT    C3  487   3.295   2.848   2.106
   15X2IT    C2  488   3.210   2.882   1.984
   15X2IT    H2  489   3.180   2.802   1.916
   15X2IT    N1  490   3.240   3.017   1.931
   15X2IT   H14  491   3.210   3.022   1.833
   15X2IT    C1  492   3.121   2.996   2.016
   15X2IT    H1  493   3.021   3.007   1.975
   15X2IT   C11  494   3.144   3.034   2.161
   15X2IT    O3  495   3.034   2.977   2.229
   15X2IT   C15  496   3.046   2.962   2.371
   16X2IT   H18  497   0.684   0.596   2.200
   16X2IT    N4  498   0.777   0.608   2.166
   16X2IT   H17  499   0.841   0.530   2.177
   16X2IT   C14  500   0.792   0.690   2.058
   16X2IT    O5  501   0.709   0.771   2.019
   16X2IT    O4  502   0.916   0.673   2.002
   16X2IT   C13  503   0.948   0.759   1.891
   16X2IT   C10  504   0.999   0.896   1.939
   16X2IT    C9  505   1.040   0.987   1.825
   16X2IT    C4  506   1.173   1.025   1.841
   16X2IT    C5  507   1.246   1.114   1.745
   16X2IT    O1  508   1.363   1.146   1.768
   16X2IT    C6  509   1.172   1.159   1.629
   16X2IT   C12  510   1.239   1.249   1.528
   16X2IT    C7  511   1.039   1.122   1.615
   16X2IT    C8  512   0.966   1.032   1.714
   16X2IT    O2  513   0.848   1.001   1.688
   16X2IT    N3  514   0.962   1.160   1.512
   16X2IT   H15  515   0.995   1.218   1.437
   16X2IT   H16  516   0.866   1.125   1.510
   16X2IT    N2  517   1.226   0.978   1.956
   16X2IT    C3  518   1.365   0.937   1.981
   16X2IT    C2  519   1.349   0.792   2.023
   16X2IT    H2  520   1.428   0.742   2.079
   16X2IT    N1  521   1.269   0.714   1.925
   16X2IT   H14  522   1.289   0.614   1.936
   16X2IT    C1  523   1.205   0.763   2.048
   16X2IT    H1  524   1.171   0.694   2.124
   16X2IT   C11  525   1.128   0.893   2.029
   16X2IT    O3  526   1.105   0.939   2.161
   16X2IT   C15  527   1.069   1.077   2.176
   17X2IT   H18  528   1.870   0.574   2.487
   17X2IT    N4  529   1.876   0.604   2.582
   17X2IT   H17  530   1.931   0.547   2.645
   17X2IT   C14  531   1.867   0.739   2.604
   17X2IT    O5  532   1.827   0.821   2.523
   17X2IT    O4  533   1.907   0.768   2.731
   17X2IT   C13  534   1.898   0.906   2.771
   17X2IT   C10  535   1.756   0.942   2.817
   17X2IT    C9  536   1.743   1.084   2.866
   17X2IT    C4  537   1.698   1.086   2.997
   17X2IT    C5  538   1.675   1.211   3.076
   17X2IT    O1  539   1.631   1.204   3.192
   17X2IT    C6  540   1.706   1.336   3.010
   17X2IT   C12  541   1.686   1.466   3.084
   17X2IT    C7  542   1.751   1.334   2.879
   17X2IT    C8  543   1.773   1.205   2.799
   17X2IT    O2  544   1.817   1.215   2.684
   17X2IT    N3  545   1.781   1.444   2.809
   17X2IT   H15  546   1.774   1.537   2.847
   17X2IT   H16  547   1.814   1.431   2.713
   17X2IT    N2  548   1.669   0.961   3.043
   17X2IT    C3  549   1.682   0.910   3.180
   17X2IT    C2  550   1.780   0.794   3.161
   17X2IT    H2  551   1.786   0.716   3.236
   17X2IT    N1  552   1.903   0.836   3.089
   17X2IT   H14  553   1.978   0.769   3.109
   17X2IT    C1  554   1.795   0.765   3.016
   17X2IT    H1  555   1.811   0.665   2.978
   17X2IT   C11  556   1.702   0.859   2.940
   17X2IT    O3  557   1.591   0.778   2.908
   17X2IT   C15  558   1.470   0.845   2.870
   18X2IT   H18  559   3.752   2.416   0.852
   18X2IT    N4  560   3.745   2.425   0.753
   18X2IT   H17  561   3.692   2.354   0.704
   18X2IT   C14  562   3.747   2.552   0.703
   18X2IT    O5  563   3.784   2.651   0.764
   18X2IT    O4  564   3.705   2.552   0.573
   18X2IT   C13  565   3.708   2.679   0.505
   18X2IT   C10  566   3.848   2.710   0.450
   18X2IT    C9  567   3.854   2.840   0.372
   18X2IT    C4  568   3.899   2.816   0.243
   18X2IT    C5  569   3.915   2.923   0.139
   18X2IT    O1  570   3.960   2.893   0.028
   18X2IT    C6  571   3.879   3.057   0.178
   18X2IT   C12  572   3.893   3.170   0.078
   18X2IT    C7  573   3.836   3.081   0.307
   18X2IT    C8  574   3.820   2.971   0.413
   18X2IT    O2  575   3.776   3.003   0.524
   18X2IT    N3  576   3.801   3.202   0.353
   18X2IT   H15  577   3.804   3.285   0.297
   18X2IT   H16  578   3.769   3.208   0.450
   18X2IT    N2  579   3.933   2.686   0.224
   18X2IT    C3  580   3.921   2.606   0.101
   18X2IT    C2  581   3.828   2.493   0.145
   18X2IT    H2  582   3.826   2.400   0.088
   18X2IT    N1  583   3.705   2.544   0.209
   18X2IT   H14  584   3.632   2.471   0.205
   18X2IT    C1  585   3.816   2.494   0.293
   18X2IT    H1  586   3.805   2.404   0.352
   18X2IT   C11  587   3.904   2.606   0.347
   18X2IT    O3  588   4.020   2.538   0.394
   18X2IT   C15  589   4.138   2.617   0.415
   19X2IT   H18  590   4.974   1.232   0.841
   19X2IT    N4  591   4.886   1.251   0.796
   19X2IT   H17  592   4.814   1.294   0.852
   19X2IT   C14  593   4.891   1.278   0.662
   19X2IT    O5  594   4.986   1.255   0.589
   19X2IT    O4  595   4.772   1.332   0.621
   19X2IT   C13  596   4.760   1.360   0.480
   19X2IT   C10  597   4.720   1.234   0.401
   19X2IT    C9  598   4.700   1.261   0.254
   19X2IT    C4  599   4.572   1.225   0.216
   19X2IT    C5  600   4.519   1.239   0.076
   19X2IT    O1  601   4.403   1.201   0.051
   19X2IT    C6  602   4.608   1.297  -0.021
   19X2IT   C12  603   4.560   1.315  -0.164
   19X2IT    C7  604   4.736   1.332   0.016
   19X2IT    C8  605   4.790   1.316   0.159
   19X2IT    O2  606   4.905   1.354   0.182
   19X2IT    N3  607   4.827   1.384  -0.067
   19X2IT   H15  608   4.808   1.403  -0.164
   19X2IT   H16  609   4.919   1.407  -0.028
   19X2IT    N2  610   4.502   1.168   0.318
   19X2IT    C3  611   4.358   1.177   0.345
   19X2IT    C2  612   4.354   1.241   0.483
   19X2IT    H2  613   4.265   1.231   0.545
   19X2IT    N1  614   4.434   1.365   0.489
   19X2IT   H14  615   4.403   1.422   0.568
   19X2IT    C1  616   4.491   1.239   0.541
   19X2IT    H1  617   4.509   1.227   0.647
   19X2IT   C11  618   4.583   1.169   0.443
   19X2IT    O3  619   4.598   1.039   0.497
   19X2IT   C15  620   4.647   0.937   0.409
   20X2IT   H18  621   2.963   3.744   3.461
   20X2IT    N4  622   2.892   3.779   3.399
   20X2IT   H17  623   2.922   3.839   3.324
   20X2IT   C14  624   2.782   3.699   3.381
   20X2IT    O5  625   2.751   3.605   3.453
   20X2IT    O4  626   2.710   3.743   3.274
   20X2IT   C13  627   2.588   3.671   3.246
   20X2IT   C10  628   2.472   3.723   3.333
   20X2IT    C9  629   2.340   3.656   3.303
   20X2IT    C4  630   2.246   3.750   3.266
   20X2IT    C5  631   2.104   3.717   3.228
   20X2IT    O1  632   2.025   3.808   3.200
   20X2IT    C6  633   2.069   3.577   3.229
   20X2IT   C12  634   1.928   3.536   3.191
   20X2IT    C7  635   2.163   3.483   3.267
   20X2IT    C8  636   2.306   3.518   3.306
   20X2IT    O2  637   2.384   3.425   3.334
   20X2IT    N3  638   2.138   3.351   3.272
   20X2IT   H15  639   2.050   3.310   3.248
   20X2IT   H16  640   2.216   3.290   3.300
   20X2IT    N2  641   2.294   3.877   3.275
   20X2IT    C3  642   2.260   3.993   3.191
   20X2IT    C2  643   2.395   4.030   3.132
   20X2IT    H2  644   2.411   4.130   3.092
   20X2IT    N1  645   2.463   3.914   3.069
   20X2IT   H14  646   2.533   3.948   3.002
   20X2IT    C1  647   2.502   3.957   3.204
   20X2IT    H1  648   2.600   3.999   3.223
   20X2IT   C11  649   2.437   3.876   3.315
   20X2IT    O3  650   2.460   3.952   3.432
   20X2IT   C15  651   2.379   3.923   3.546
   21X2IT   H18  652   3.205   1.049   4.353
   21X2IT    N4  653   3.211   1.031   4.452
   21X2IT   H17  654   3.237   0.938   4.480
   21X2IT   C14  655   3.247   1.137   4.530
   21X2IT    O5  656   3.245   1.254   4.495
   21X2IT    O4  657   3.281   1.093   4.655
   21X2IT   C13  658   3.315   1.195   4.751
   21X2IT   C10  659   3.189   1.255   4.817
   21X2IT    C9  660   3.221   1.357   4.923
   21X2IT    C4  661   3.166   1.319   5.044
   21X2IT    C5  662   3.179   1.398   5.171
   21X2IT    O1  663   3.124   1.358   5.274
   21X2IT    C6  664   3.258   1.519   5.163
   21X2IT   C12  665   3.275   1.604   5.288
   21X2IT    C7  666   3.312   1.558   5.042
   21X2IT    C8  667   3.297   1.477   4.913
   21X2IT    O2  668   3.353   1.519   4.811
   21X2IT    N3  669   3.384   1.670   5.025
   21X2IT   H15  670   3.405   1.734   5.100
   21X2IT   H16  671   3.421   1.688   4.931
   21X2IT    N2  672   3.092   1.206   5.033
   21X2IT    C3  673   3.074   1.100   5.133
   21X2IT    C2  674   3.128   0.977   5.061
   21X2IT    H2  675   3.099   0.878   5.094
   21X2IT    N1  676   3.264   1.000   5.006
   21X2IT   H14  677   3.309   0.910   4.990
   21X2IT    C1  678   3.146   1.009   4.917
   21X2IT    H1  679   3.131   0.937   4.838
   21X2IT   C11  680   3.099   1.152   4.894
   21X2IT    O3  681   2.971   1.137   4.837
   21X2IT   C15  682   2.884   1.251   4.839
   22X2IT   H18  683   1.305   0.994   1.252
   22X2IT    N4  684   1.327   0.940   1.170
   22X2IT   H17  685   1.425   0.921   1.152
   22X2IT   C14  686   1.234   0.847   1.131
   22X2IT    O5  687   1.118   0.845   1.169
   22X2IT    O4  688   1.288   0.761   1.041
   22X2IT   C13  689   1.199   0.662   0.985
   22X2IT   C10  690   1.117   0.719   0.868
   22X2IT    C9  691   1.027   0.616   0.803
   22X2IT    C4  692   1.058   0.605   0.669
   22X2IT    C5  693   0.988   0.511   0.575
   22X2IT    O1  694   1.019   0.510   0.455
   22X2IT    C6  695   0.886   0.427   0.632
   22X2IT   C12  696   0.811   0.329   0.543
   22X2IT    C7  697   0.855   0.439   0.766
   22X2IT    C8  698   0.926   0.536   0.861
   22X2IT    O2  699   0.893   0.535   0.980
   22X2IT    N3  700   0.760   0.367   0.828
   22X2IT   H15  701   0.705   0.297   0.781
   22X2IT   H16  702   0.747   0.383   0.928
   22X2IT    N2  703   1.153   0.694   0.630
   22X2IT    C3  704   1.256   0.677   0.527
   22X2IT    C2  705   1.385   0.694   0.607
   22X2IT    H2  706   1.477   0.720   0.555
   22X2IT    N1  707   1.389   0.607   0.726
   22X2IT   H14  708   1.486   0.596   0.756
   22X2IT    C1  709   1.352   0.749   0.741
   22X2IT    H1  710   1.417   0.818   0.794
   22X2IT   C11  711   1.202   0.773   0.747
   22X2IT    O3  712   1.188   0.912   0.726
   22X2IT   C15  713   1.058   0.959   0.688
   23X2IT   H18  714   0.781   4.253   4.662
   23X2IT    N4  715   0.769   4.337   4.610
   23X2IT   H17  716   0.803   4.423   4.651
   23X2IT   C14  717   0.768   4.325   4.473
   23X2IT    O5  718   0.753   4.220   4.413
   23X2IT    O4  719   0.781   4.447   4.415
   23X2IT   C13  720   0.775   4.450   4.271
   23X2IT   C10  721   0.630   4.452   4.221
   23X2IT    C9  722   0.619   4.462   4.070
   23X2IT    C4  723   0.547   4.574   4.035
   23X2IT    C5  724   0.518   4.614   3.893
   23X2IT    O1  725   0.449   4.715   3.870
   23X2IT    C6  726   0.574   4.530   3.790
   23X2IT   C12  727   0.550   4.565   3.644
   23X2IT    C7  728   0.646   4.418   3.825
   23X2IT    C8  729   0.674   4.378   3.970
   23X2IT    O2  730   0.743   4.277   3.991
   23X2IT    N3  731   0.701   4.333   3.737
   23X2IT   H15  732   0.694   4.345   3.637
   23X2IT   H16  733   0.753   4.253   3.774
   23X2IT    N2  734   0.497   4.640   4.143
   23X2IT    C3  735   0.476   4.784   4.159
   23X2IT    C2  736   0.565   4.817   4.279
   23X2IT    H2  737   0.546   4.907   4.337
   23X2IT    N1  738   0.703   4.768   4.261
   23X2IT   H14  739   0.766   4.820   4.323
   23X2IT    C1  740   0.608   4.690   4.344
   23X2IT    H1  741   0.623   4.681   4.450
   23X2IT   C11  742   0.544   4.575   4.269
   23X2IT    O3  743   0.435   4.537   4.352
   23X2IT   C15  744   0.332   4.457   4.292
   24SOL     OW  745   0.230   0.628   0.113
   24SOL    HW1  746   0.137   0.626   0.150
   24SOL    HW2  747   0.231   0.589   0.021
   25SOL     OW  748   0.225   0.275   0.996
   25SOL    HW1  749   0.260   0.258   1.088
   25SOL    HW2  750   0.137   0.230   0.984
   26SOL     OW  751   0.019   0.368   0.647
   26SOL    HW1  752  -0.063   0.411   0.686
   26SOL    HW2  753  -0.009   0.295   0.584
   27SOL     OW  754   0.569   1.275   1.165
   27SOL    HW1  755   0.476   1.268   1.128
   27SOL    HW2  756   0.580   1.364   1.209
   28SOL     OW  757   1.555   1.511   0.703
   28SOL    HW1  758   1.498   1.495   0.784
   28SOL    HW2  759   1.496   1.521   0.623
   29SOL     OW  760   1.755   0.607   0.231
   29SOL    HW1  761   1.743   0.594   0.132
   29SOL    HW2  762   1.725   0.526   0.280
   30SOL     OW  763   0.768   1.144   1.023
   30SOL    HW1  764   0.690   1.161   1.083
   30SOL    HW2  765   0.802   1.231   0.987
   31SOL     OW  766   0.685   1.012   0.665
   31SOL    HW1  767   0.754   0.996   0.735
   31SOL    HW2  768   0.612   1.069   0.703
   32SOL     OW  769   0.686   1.161   1.803
   32SOL    HW1  770   0.746   1.240   1.817
   32SOL    HW2  771   0.600   1.192   1.762
   33SOL     OW  772   0.335   1.435   1.061
   33SOL    HW1  773   0.257   1.404   1.008
   33SOL    HW2  774   0.393   1.493   1.004
   34SOL     OW  775   1.460   1.505   1.339
   34SOL    HW1  776   1.484   1.599   1.365
   34SOL    HW2  777   1.444   1.451   1.421
   35SOL     OW  778   0.438   0.392   1.499
   35SOL    HW1  779   0.520   0.336   1.508
   35SOL    HW2  780   0.357   0.334   1.503
   36SOL     OW  781   0.231   1.713   0.483
   36SOL    HW1  782   0.265   1.790   0.537
   36SOL    HW2  783   0.275   1.713   0.393
   37SOL     OW  784   0.230   1.434   0.538
   37SOL    HW1  785   0.204   1.530   0.538
   37SOL    HW2  786   0.159   1.380   0.583
   38SOL     OW  787   0.240   1.091   0.886
   38SOL    HW1  788   0.254   1.007   0.938
   38SOL    HW2  789   0.185   1.155   0.941
   39SOL     OW  790   0.620   1.786   1.439
   39SOL    HW1  791   0.528   1.769   1.474
   39SOL    HW2  792   0.648   1.878   1.465
   40SOL     OW  793   0.606   0.964   0.123
   40SOL    HW1  794   0.613   1.048   0.069
   40SOL    HW2  795   0.652   0.977   0.211
   41SOL     OW  796   1.594   0.114   1.480
   41SOL    HW1  797   1.576   0.181   1.408
   41SOL    HW2  798   1.591   0.160   1.569
   42SOL     OW  799   0.122   0.643   0.563
   42SOL    HW1  800   0.077   0.555   0.580
   42SOL    HW2  801   0.121   0.697   0.647
   43SOL     OW  802   1.842   1.767   0.359
   43SOL    HW1  803   1.896   1.738   0.439
   43SOL    HW2  804   1.872   1.857   0.330
   44SOL     OW  805   0.027   1.596   0.117
   44SOL    HW1  806   0.008   1.500   0.138
   44SOL    HW2  807  -0.006   1.654   0.192
   45SOL     OW  808   1.689   0.922   0.612
   45SOL    HW1  809   1.784   0.893   0.620
   45SOL    HW2  810   1.681   0.987   0.537
   46SOL     OW  811   1.641   1.108   0.432
   46SOL    HW1  812   1.727   1.110   0.380
   46SOL    HW2  813   1.655   1.155   0.520
   47SOL     OW  814   0.613   1.365   0.726
   47SOL    HW1  815   0.564   1.278   0.735
   47SOL    HW2  816   0.590   1.408   0.639
   48SOL     OW  817   0.809   0.004   0.502
   48SOL    HW1  818   0.849   0.095   0.493
   48SOL    HW2  819   0.709   0.012   0.508
   49SOL     OW  820   0.197   0.976   1.264
   49SOL    HW1  821   0.286   0.931   1.250
   49SOL    HW2  822   0.124   0.911   1.245
   50SOL     OW  823   1.525   0.999   0.190
   50SOL    HW1  824   1.462   0.923   0.203
   50SOL    HW2  825   1.573   1.017   0.276
   51SOL     OW  826   1.187   1.792   1.616
   51SOL    HW1  827   1.211   1.852   1.540
   51SOL    HW2  828   1.194   1.697   1.586
   52SOL     OW  829   1.466   1.417   0.953
   52SOL    HW1  830   1.407   1.423   1.033
   52SOL    HW2  831   1.451   1.329   0.907
   53SOL     OW  832   1.667   1.714   0.572
   53SOL    HW1  833   1.626   1.691   0.484
   53SOL    HW2  834   1.649   1.640   0.637
   54SOL     OW  835   0.598   0.729   0.270
   54SOL    HW1  836   0.622   0.798   0.202
   54SOL    HW2  837   0.520   0.762   0.324
   55SOL     OW  838   1.281   0.345   0.944
   55SOL    HW1  839   1.195   0.295   0.931
   55SOL    HW2  840   1.343   0.291   1.000
   56SOL     OW  841   1.576   1.662   0.307
   56SOL    HW1  842   1.665   1.708   0.310
   56SOL    HW2  843   1.555   1.638   0.212
   57SOL     OW  844   0.807   0.605   1.465
   57SOL    HW1  845   0.760   0.602   1.554
   57SOL    HW2  846   0.756   0.550   1.399
   58SOL     OW  847   1.394   0.469   1.674
   58SOL    HW1  848   1.374   0.512   1.762
   58SOL    HW2  849   1.472   0.407   1.683
   59SOL     OW  850   0.973   0.890   1.572
   59SOL    HW1  851   1.019   0.806   1.543
   59SOL    HW2  852   0.917   0.924   1.497
   60SOL     OW  853   0.991   0.410   1.242
   60SOL    HW1  854   0.914   0.444   1.296
   60SOL    HW2  855   0.957   0.359   1.163
   61SOL     OW  856   0.076   0.811   0.789
   61SOL    HW1  857   0.175   0.799   0.798
   61SOL    HW2  858   0.052   0.906   0.810
   62SOL     OW  859   0.130   1.821   1.571
   62SOL    HW1  860   0.120   1.806   1.670
   62SOL    HW2  861   0.044   1.857   1.535
   63SOL     OW  862   0.865   0.348   0.195
   63SOL    HW1  863   0.924   0.411   0.146
   63SOL    HW2  864   0.884   0.254   0.166
   64SOL     OW  865   1.719   0.585   1.831
   64SOL    HW1  866   1.693   0.674   1.795
   64SOL    HW2  867   1.717   0.517   1.758
   65SOL     OW  868   1.362   1.144   0.545
   65SOL    HW1  869   1.445   1.115   0.497
   65SOL    HW2  870   1.313   1.211   0.489
   66SOL     OW  871   0.550   0.196   0.885
   66SOL    HW1  872   0.545   0.191   0.985
   66SOL    HW2  873   0.552   0.292   0.856
   67SOL     OW  874   1.008   1.456   0.477
   67SOL    HW1  875   0.962   1.528   0.425
   67SOL    HW2  876   1.004   1.476   0.575
   68SOL     OW  877   0.351   1.801   0.853
   68SOL    HW1  878   0.401   1.715   0.859
   68SOL    HW2  879   0.416   1.878   0.850
   69SOL     OW  880   1.795   1.066   0.873
   69SOL    HW1  881   1.733   1.051   0.797
   69SOL    HW2  882   1.743   1.077   0.958
   70SOL     OW  883   1.227   1.550   1.506
   70SOL    HW1  884   1.233   1.473   1.570
   70SOL    HW2  885   1.175   1.524   1.426
   71SOL     OW  886   0.321   0.943   0.242
   71SOL    HW1  887   0.403   0.982   0.200
   71SOL    HW2  888   0.294   0.861   0.193
   72SOL     OW  889   0.461   1.266   1.727
   72SOL    HW1  890   0.411   1.267   1.641
   72SOL    HW2  891   0.398   1.248   1.803
   73SOL     OW  892   1.111   1.776   0.237
   73SOL    HW1  893   1.051   1.714   0.287
   73SOL    HW2  894   1.142   1.732   0.152
   74SOL     OW  895   1.632   1.377   0.081
   74SOL    HW1  896   1.600   1.471   0.071
   74SOL    HW2  897   1.556   1.314   0.069
   75SOL     OW  898   0.464   1.743   0.323
   75SOL    HW1  899   0.497   1.782   0.409
   75SOL    HW2  900   0.540   1.736   0.258
   76SOL     OW  901   1.400   0.107   0.426
   76SOL    HW1  902   1.376   0.070   0.336
   76SOL    HW2  903   1.499   0.123   0.430
   77SOL     OW  904   0.249   1.785   1.241
   77SOL    HW1  905   0.306   1.720   1.291
   77SOL    HW2  906   0.233   1.752   1.148
   78SOL     OW  907   0.940   1.698   0.904
   78SOL    HW1  908   1.020   1.641   0.925
   78SOL    HW2  909   0.891   1.658   0.827
   79SOL     OW  910   0.382   0.700   0.480
   79SOL    HW1  911   0.427   0.610   0.477
   79SOL    HW2  912   0.288   0.689   0.513
   80SOL     OW  913   1.547   0.222   1.729
   80SOL    HW1  914   1.542   0.259   1.821
   80SOL    HW2  915   1.475   0.153   1.717
   81SOL     OW  916   0.614   0.122   0.117
   81SOL    HW1  917   0.712   0.100   0.124
   81SOL    HW2  918   0.583   0.105   0.024
   82SOL     OW  919   0.781   0.264   1.749
   82SOL    HW1  920   0.848   0.203   1.792
   82SOL    HW2  921   0.708   0.283   1.814
   83SOL     OW  922   0.888   1.514   1.195
   83SOL    HW1  923   0.865   1.489   1.101
   83SOL    HW2  924   0.949   1.445   1.234
   84SOL     OW  925   1.351   0.590   1.433
   84SOL    HW1  926   1.379   0.547   1.518
   84SOL    HW2  927   1.376   0.686   1.434
   85SOL     OW  928   0.803   1.402   0.924
   85SOL    HW1  929   0.893   1.416   0.882
   85SOL    HW2  930   0.732   1.404   0.853
   86SOL     OW  931   0.539   0.064   0.512
   86SOL    HW1  932   0.458   0.065   0.570
   86SOL    HW2  933   0.542   0.147   0.457
   87SOL     OW  934   1.434   1.188   0.041
   87SOL    HW1  935   1.466   1.112   0.098
   87SOL    HW2  936   1.342   1.215   0.071
   88SOL     OW  937   0.297   0.035   0.171
   88SOL    HW1  938   0.346   0.119   0.150
   88SOL    HW2  939   0.359  -0.030   0.216
   89SOL     OW  940   1.076   0.683   1.464
   89SOL    HW1  941   0.996   0.622   1.467
   89SOL    HW2  942   1.157   0.630   1.440
   90SOL     OW  943   1.227   1.570   0.793
   90SOL    HW1  944   1.248   1.644   0.728
   90SOL    HW2  945   1.295   1.570   0.866
   91SOL     OW  946   0.459   1.152   0.741
   91SOL    HW1  947   0.388   1.125   0.806
   91SOL    HW2  948   0.433   1.124   0.648
   92SOL     OW  949   1.271   1.797   0.591
   92SOL    HW1  950   1.315   1.861   0.527
   92SOL    HW2  951   1.221   1.849   0.661
   93SOL     OW  952   1.032   0.549   0.016
   93SOL    HW1  953   0.991   0.631  -0.023
   93SOL    HW2  954   1.096   0.575   0.089
   94SOL     OW  955   0.561   0.222   1.147
   94SOL    HW1  956   0.599   0.138   1.184
   94SOL    HW2  957   0.473   0.241   1.191
   95SOL     OW  958   1.017   0.039   0.753
   95SOL    HW1  959   0.945   0.044   0.684
   95SOL    HW2  960   0.993  -0.030   0.822
   96SOL     OW  961   1.429   1.173   0.867
   96SOL    HW1  962   1.374   1.089   0.860
   96SOL    HW2  963   1.455   1.202   0.775
   97SOL     OW  964   1.466   0.590   0.992
   97SOL    HW1  965   1.436   0.495   0.999
   97SOL    HW2  966   1.539   0.606   1.058
   98SOL     OW  967   1.857   0.833   0.377
   98SOL    HW1  968   1.899   0.769   0.441
   98SOL    HW2  969   1.819   0.782   0.299
   99SOL     OW  970   0.488   1.385   0.174
   99SOL    HW1  971   0.401   1.370   0.221
   99SOL    HW2  972   0.471   1.411   0.079
  100SOL     OW  973   1.664   1.280   0.657
  100SOL    HW1  974   1.763   1.288   0.671
  100SOL    HW2  975   1.619   1.364   0.688
  101SOL     OW  976   1.390   0.575   0.078
  101SOL    HW1  977   1.336   0.554   0.159
  101SOL    HW2  978   1.481   0.534   0.087
  102SOL     OW  979   0.527   0.256   0.328
  102SOL    HW1  980   0.554   0.197   0.253
  102SOL    HW2  981   0.527   0.351   0.297
  103SOL     OW  982   1.754   1.223   1.588
  103SOL    HW1  983   1.845   1.184   1.575
  103SOL    HW2  984   1.762   1.319   1.612
  104SOL     OW  985   1.592   1.629   1.625
  104SOL    HW1  986   1.619   1.663   1.535
  104SOL    HW2  987   1.671   1.591   1.671
  105SOL     OW  988   1.111   1.195   1.100
  105SOL    HW1  989   1.071   1.239   1.181
  105SOL    HW2  990   1.070   1.232   1.017
  106SOL     OW  991   1.638   1.099   1.079
  106SOL    HW1  992   1.643   1.180   1.138
  106SOL    HW2  993   1.552   1.101   1.028
  107SOL     OW  994   0.915   0.089   1.402
  107SOL    HW1  995   0.940   0.069   1.307
  107SOL    HW2  996   0.987   0.145   1.444
  108SOL     OW  997   0.705   1.050   0.368
  108SOL    HW1  998   0.691   1.057   0.467
  108SOL    HW2  999   0.789   0.999   0.350
  109SOL     OW 1000   0.410   0.813   1.251
  109SOL    HW1 1001   0.496   0.825   1.301
  109SOL    HW2 1002   0.368   0.726   1.278
  110SOL     OW 1003   1.274   0.386   1.262
  110SOL    HW1 1004   1.295   0.460   1.326
  110SOL    HW2 1005   1.185   0.403   1.219
  111SOL     OW 1006   0.064   1.564   1.331
  111SOL    HW1 1007   0.018   1.646   1.297
  111SOL    HW2 1008   0.162   1.583   1.340
  112SOL     OW 1009   0.367   1.100   0.501
  112SOL    HW1 1010   0.360   1.183   0.445
  112SOL    HW2 1011   0.371   1.020   0.441
  113SOL     OW 1012   0.566   0.537   0.865
  113SOL    HW1 1013   0.578   0.603   0.791
  113SOL    HW2 1014   0.612   0.571   0.948
  114SOL     OW 1015   1.252   1.348   0.388
  114SOL    HW1 1016   1.302   1.425   0.428
  114SOL    HW2 1017   1.157   1.350   0.420
  115SOL     OW 1018   1.272   1.445   1.142
  115SOL    HW1 1019   1.319   1.458   1.229
  115SOL    HW2 1020   1.206   1.371   1.151
  116SOL     OW 1021   0.354   1.510   1.329
  116SOL    HW1 1022   0.333   1.466   1.242
  116SOL    HW2 1023   0.451   1.536   1.332
  117SOL     OW 1024   1.587   0.779   1.670
  117SOL    HW1 1025   1.495   0.817   1.665
  117SOL    HW2 1026   1.647   0.826   1.605
  118SOL     OW 1027   1.013   0.105   1.770
  118SOL    HW1 1028   1.019   0.190   1.718
  118SOL    HW2 1029   1.045   0.029   1.713
  119SOL     OW 1030   0.504   0.050   1.740
  119SOL    HW1 1031   0.462  -0.007   1.670
  119SOL    HW2 1032   0.438   0.119   1.772
  120SOL     OW 1033   0.573   0.870   1.029
  120SOL    HW1 1034   0.617   0.959   1.020
  120SOL    HW2 1035   0.510   0.870   1.106
  121SOL     OW 1036   1.209   0.525   0.275
  121SOL    HW1 1037   1.222   0.441   0.329
  121SOL    HW2 1038   1.180   0.599   0.335
  122SOL     OW 1039   0.307   0.213   1.231
  122SOL    HW1 1040   0.284   0.250   1.321
  122SOL    HW2 1041   0.277   0.118   1.225
  123SOL     OW 1042   0.037   1.310   1.282
  123SOL    HW1 1043   0.090   1.261   1.350
  123SOL    HW2 1044   0.059   1.408   1.287
  124SOL     OW 1045   1.728   0.935   1.854
  124SOL    HW1 1046   1.682   0.928   1.765
  124SOL    HW2 1047   1.666   0.979   1.920
  125SOL     OW 1048   0.307   0.063   0.618
  125SOL    HW1 1049   0.296   0.157   0.651
  125SOL    HW2 1050   0.302   0.000   0.695
  126SOL     OW 1051   1.622   0.367   0.374
  126SOL    HW1 1052   1.624   0.291   0.438
  126SOL    HW2 1053   1.574   0.444   0.414
  127SOL     OW 1054   0.980   1.573   1.700
  127SOL    HW1 1055   0.960   1.617   1.612
  127SOL    HW2 1056   1.019   1.482   1.684
  128SOL     OW 1057   1.859   1.518   1.605
  128SOL    HW1 1058   1.873   1.545   1.510
  128SOL    HW2 1059   1.942   1.540   1.658
  129SOL     OW 1060   0.350   0.898   1.804
  129SOL    HW1 1061   0.426   0.942   1.852
  129SOL    HW2 1062   0.385   0.851   1.722
  130SOL     OW 1063   1.540   0.274   0.125
  130SOL    HW1 1064   1.479   0.199   0.148
  130SOL    HW2 1065   1.562   0.326   0.208
  131SOL     OW 1066   1.303   0.838   0.042
  131SOL    HW1 1067   1.337   0.745   0.057
  131SOL    HW2 1068   1.321   0.865  -0.053
  132SOL     OW 1069   1.068   1.333   0.849
  132SOL    HW1 1070   1.075   1.249   0.794
  132SOL    HW2 1071   1.130   1.402   0.813
  133SOL     OW 1072   0.319   0.810   0.949
  133SOL    HW1 1073   0.412   0.846   0.954
  133SOL    HW2 1074   0.313   0.725   1.001
  134SOL     OW 1075   0.339   0.509   1.006
  134SOL    HW1 1076   0.287   0.426   0.989
  134SOL    HW2 1077   0.416   0.514   0.942
  135SOL     OW 1078   1.138   0.380   1.678
  135SOL    HW1 1079   1.093   0.443   1.742
  135SOL    HW2 1080   1.231   0.411   1.661
  136SOL     OW 1081   1.160   0.207   1.477
  136SOL    HW1 1082   1.160   0.271   1.554
  136SOL    HW2 1083   1.188   0.255   1.394
  137SOL     OW 1084   0.088   1.801   0.927
  137SOL    HW1 1085   0.046   1.715   0.900
  137SOL    HW2 1086   0.182   1.804   0.893
  138SOL     OW 1087   0.504   1.568   0.910
  138SOL    HW1 1088   0.570   1.642   0.919
  138SOL    HW2 1089   0.548   1.489   0.868
  139SOL     OW 1090   0.040   0.544   1.114
  139SOL    HW1 1091   0.125   0.511   1.073
  139SOL    HW2 1092   0.053   0.559   1.212
  140SOL     OW 1093   0.815   0.572   0.325
  140SOL    HW1 1094   0.822   0.483   0.279
  140SOL    HW2 1095   0.721   0.606   0.317
  141SOL     OW 1096   1.657   0.604   1.206
  141SOL    HW1 1097   1.619   0.535   1.268
  141SOL    HW2 1098   1.739   0.568   1.162
  142SOL     OW 1099   0.252   1.564   1.744
  142SOL    HW1 1100   0.222   1.621   1.820
  142SOL    HW2 1101   0.245   1.467   1.770
  143SOL     OW 1102   0.671   0.464   1.269
  143SOL    HW1 1103   0.637   0.375   1.239
  143SOL    HW2 1104   0.697   0.518   1.189
  144SOL     OW 1105   0.930   1.678   1.465
  144SOL    HW1 1106   0.906   1.660   1.370
  144SOL    HW2 1107   0.960   1.772   1.475
  145SOL     OW 1108   0.473   0.500   0.191
  145SOL    HW1 1109   0.534   0.580   0.195
  145SOL    HW2 1110   0.378   0.531   0.198
  146SOL     OW 1111   0.159   1.137   1.466
  146SOL    HW1 1112   0.181   1.076   1.542
  146SOL    HW2 1113   0.169   1.088   1.380
  147SOL     OW 1114   1.302   0.855   0.309
  147SOL    HW1 1115   1.216   0.824   0.351
  147SOL    HW2 1116   1.298   0.841   0.210
  148SOL     OW 1117   1.759   1.747   1.154
  148SOL    HW1 1118   1.820   1.777   1.081
  148SOL    HW2 1119   1.721   1.658   1.132
  149SOL     OW 1120   1.252   1.731   1.128
  149SOL    HW1 1121   1.336   1.736   1.074
  149SOL    HW2 1122   1.229   1.635   1.146
  150SOL     OW 1123   0.083   1.258   1.022
  150SOL    HW1 1124   0.078   1.257   1.122
  150SOL    HW2 1125   0.000   1.217   0.984
  151SOL     OW 1126   0.688   1.662   1.716
  151SOL    HW1 1127   0.632   1.743   1.725
  151SOL    HW2 1128   0.740   1.666   1.630
  152SOL     OW 1129   0.903   0.086   0.133
  152SOL    HW1 1130   0.954   0.087   0.047
  152SOL    HW2 1131   0.959   0.044   0.204
  153SOL     OW 1132   1.726   0.135   0.523
  153SOL    HW1 1133   1.799   0.118   0.456
  153SOL    HW2 1134   1.695   0.048   0.561
  154SOL     OW 1135   1.388   1.573   0.477
  154SOL    HW1 1136   1.455   1.585   0.403
  154SOL    HW2 1137   1.348   1.662   0.500
  155SOL     OW 1138   0.830   1.273   1.422
  155SOL    HW1 1139   0.825   1.306   1.517
  155SOL    HW2 1140   0.744   1.292   1.376
  156SOL     OW 1141   0.672   1.616   0.154
  156SOL    HW1 1142   0.681   1.626   0.055
  156SOL    HW2 1143   0.632   1.527   0.175
  157SOL     OW 1144   1.650   1.720   1.394
  157SOL    HW1 1145   1.703   1.730   1.310
  157SOL    HW2 1146   1.623   1.810   1.428
  158SOL     OW 1147   1.841   0.175   0.963
  158SOL    HW1 1148   1.880   0.090   0.927
  158SOL    HW2 1149   1.743   0.177   0.944
  159SOL     OW 1150   0.263   0.326   0.720
  159SOL    HW1 1151   0.184   0.377   0.686
  159SOL    HW2 1152   0.254   0.311   0.818
  160SOL     OW 1153   1.194   1.612   0.031
  160SOL    HW1 1154   1.200   1.519   0.068
  160SOL    HW2 1155   1.135   1.612  -0.049
  161SOL     OW 1156   0.916   0.910   0.291
  161SOL    HW1 1157   0.979   0.948   0.223
  161SOL    HW2 1158   0.956   0.827   0.330
  162SOL     OW 1159   1.504   1.607   0.044
  162SOL    HW1 1160   1.412   1.644   0.051
  162SOL    HW2 1161   1.542   1.627  -0.046
  163SOL     OW 1162   0.372   1.288   1.490
  163SOL    HW1 1163   0.359   1.381   1.456
  163SOL    HW2 1164   0.288   1.236   1.477
  164SOL     OW 1165   1.614   1.292   1.289
  164SOL    HW1 1166   1.674   1.295   1.369
  164SOL    HW2 1167   1.539   1.356   1.302
  165SOL     OW 1168   1.014   0.236   0.971
  165SOL    HW1 1169   1.006   0.200   0.878
  165SOL    HW2 1170   1.012   0.160   1.036
  166SOL     OW 1171   0.590   1.487   0.491
  166SOL    HW1 1172   0.632   1.429   0.421
  166SOL    HW2 1173   0.546   1.566   0.447
  167SOL     OW 1174   1.709   0.385   1.381
  167SOL    HW1 1175   1.782   0.454   1.385
  167SOL    HW2 1176   1.737   0.310   1.322
  168SOL     OW 1177   0.255   1.348   0.290
  168SOL    HW1 1178   0.159   1.349   0.263
  168SOL    HW2 1179   0.267   1.401   0.374
  169SOL     OW 1180   0.105   1.013   1.726
  169SOL    HW1 1181   0.028   0.980   1.780
  169SOL    HW2 1182   0.190   0.983   1.768
  170SOL     OW 1183   0.672   0.203   1.489
  170SOL    HW1 1184   0.762   0.187   1.449
  170SOL    HW2 1185   0.680   0.208   1.588
  171SOL     OW 1186   0.075   0.345   0.033
  171SOL    HW1 1187  -0.017   0.317   0.004
  171SOL    HW2 1188   0.106   0.422  -0.023
  172SOL     OW 1189   1.440   0.856   1.398
  172SOL    HW1 1190   1.383   0.908   1.335
  172SOL    HW2 1191   1.536   0.868   1.374
  173SOL     OW 1192   0.072   0.166   0.318
  173SOL    HW1 1193   0.055   0.249   0.264
  173SOL    HW2 1194   0.162   0.129   0.296
  174SOL     OW 1195   1.183   1.335   0.119
  174SOL    HW1 1196   1.084   1.324   0.121
  174SOL    HW2 1197   1.217   1.350   0.212
  175SOL     OW 1198   0.613   0.842   1.431
  175SOL    HW1 1199   0.669   0.923   1.414
  175SOL    HW2 1200   0.672   0.762   1.434
  176SOL     OW 1201   1.493   1.767   0.959
  176SOL    HW1 1202   1.526   1.831   0.890
  176SOL    HW2 1203   1.559   1.761   1.034
  177SOL     OW 1204   0.716   0.565   1.708
  177SOL    HW1 1205   0.735   0.630   1.782
  177SOL    HW2 1206   0.776   0.485   1.717
  178SOL     OW 1207   0.390   1.741   1.560
  178SOL    HW1 1208   0.299   1.782   1.558
  178SOL    HW2 1209   0.383   1.647   1.592
  179SOL     OW 1210   1.674   0.883   1.254
  179SOL    HW1 1211   1.647   0.794   1.217
  179SOL    HW2 1212   1.675   0.951   1.181
  180SOL     OW 1213   1.225   0.325   0.449
  180SOL    HW1 1214   1.290   0.251   0.438
  180SOL    HW2 1215   1.245   0.375   0.533
  181SOL     OW 1216   0.594   0.745   0.652
  181SOL    HW1 1217   0.644   0.830   0.633
  181SOL    HW2 1218   0.506   0.747   0.604
  182SOL     OW 1219   1.777   0.342   1.642
  182SOL    HW1 1220   1.760   0.373   1.548
  182SOL    HW2 1221   1.693   0.305   1.680
  183SOL     OW 1222   1.730   0.934   1.517
  183SOL    HW1 1223   1.768   1.025   1.532
  183SOL    HW2 1224   1.722   0.917   1.418
  184SOL     OW 1225   0.859   1.374   0.016
  184SOL    HW1 1226   0.813   1.389   0.104
  184SOL    HW2 1227   0.903   1.459  -0.014
  185SOL     OW 1228   0.661   1.790   0.953
  185SOL    HW1 1229   0.615   1.878   0.940
  185SOL    HW2 1230   0.760   1.802   0.946
  186SOL     OW 1231   0.859   0.956   0.861
  186SOL    HW1 1232   0.913   0.887   0.909
  186SOL    HW2 1233   0.827   1.025   0.927
  187SOL     OW 1234   1.083   0.984   0.087
  187SOL    HW1 1235   1.060   1.037   0.005
  187SOL    HW2 1236   1.164   0.928   0.068
  188SOL     OW 1237   1.861   1.569   0.851
  188SOL    HW1 1238   1.790   1.557   0.781
  188SOL    HW2 1239   1.862   1.490   0.911
  189SOL     OW 1240   0.221   1.314   1.844
  189SOL    HW1 1241   0.156   1.241   1.823
  189SOL    HW2 1242   0.225   1.328   1.942
  190SOL     OW 1243   0.079   1.240   0.653
  190SOL    HW1 1244   0.078   1.193   0.741
  190SOL    HW2 1245   0.161   1.212   0.602
  191SOL     OW 1246   0.672   1.391   1.624
  191SOL    HW1 1247   0.594   1.341   1.662
  191SOL    HW2 1248   0.669   1.486   1.655
  192SOL     OW 1249   1.824   0.192   1.227
  192SOL    HW1 1250   1.820   0.102   1.271
  192SOL    HW2 1251   1.827   0.181   1.128
  193SOL     OW 1252   0.428   0.424   0.520
  193SOL    HW1 1253   0.458   0.352   0.458
  193SOL    HW2 1254   0.389   0.384   0.603
  194SOL     OW 1255   1.705   1.487   1.104
  194SOL    HW1 1256   1.612   1.462   1.077
  194SOL    HW2 1257   1.731   1.437   1.186
  195SOL     OW 1258   0.317   0.547   1.280
  195SOL    HW1 1259   0.355   0.488   1.352
  195SOL    HW2 1260   0.357   0.521   1.192
  196SOL     OW 1261   0.812   1.586   0.687
  196SOL    HW1 1262   0.844   1.596   0.593
  196SOL    HW2 1263   0.733   1.524   0.689
  197SOL     OW 1264   1.424   0.214   1.112
  197SOL    HW1 1265   1.476   0.149   1.167
  197SOL    HW2 1266   1.375   0.277   1.173
  198SOL     OW 1267   1.001   0.034   1.154
  198SOL    HW1 1268   0.938  -0.038   1.123
  198SOL    HW2 1269   1.094  -0.002   1.154
  199SOL     OW 1270   0.770   1.330   0.301
  199SOL    HW1 1271   0.724   1.243   0.318
  199SOL    HW2 1272   0.861   1.327   0.342
  200SOL     OW 1273   0.618   1.567   1.284
  200SOL    HW1 1274   0.613   1.649   1.341
  200SOL    HW2 1275   0.707   1.564   1.239
  201SOL     OW 1276   1.352   0.052   0.168
  201SOL    HW1 1277   1.387   0.011   0.084
  201SOL    HW2 1278   1.262   0.014   0.188
  202SOL     OW 1279   1.300   0.453   0.691
  202SOL    HW1 1280   1.241   0.533   0.695
  202SOL    HW2 1281   1.315   0.418   0.784
  203SOL     OW 1282   1.593   0.221   0.882
  203SOL    HW1 1283   1.509   0.220   0.936
  203SOL    HW2 1284   1.595   0.304   0.826
  204SOL     OW 1285   0.039   1.077   0.300
  204SOL    HW1 1286   0.138   1.066   0.291
  204SOL    HW2 1287  -0.001   0.991   0.332
  205SOL     OW 1288   0.875   1.646   0.337
  205SOL    HW1 1289   0.798   1.611   0.283
  205SOL    HW2 1290   0.843   1.717   0.399
  206SOL     OW 1291   0.230   0.628   1.975
  206SOL    HW1 1292   0.137   0.626   2.012
  206SOL    HW2 1293   0.231   0.589   1.883
  207SOL     OW 1294   0.225   0.275   2.858
  207SOL    HW1 1295   0.260   0.258   2.950
  207SOL    HW2 1296   0.137   0.230   2.846
  208SOL     OW 1297   0.019   0.368   2.509
  208SOL    HW1 1298  -0.063   0.411   2.548
  208SOL    HW2 1299  -0.009   0.295   2.446
  209SOL     OW 1300   0.569   1.275   3.027
  209SOL    HW1 1301   0.476   1.268   2.990
  209SOL    HW2 1302   0.580   1.364   3.071
  210SOL     OW 1303   1.555   1.511   2.565
  210SOL    HW1 1304   1.498   1.495   2.646
  210SOL    HW2 1305   1.496   1.521   2.485
  211SOL     OW 1306   1.135   0.703   2.579
  211SOL    HW1 1307   1.192   0.781   2.554
  211SOL    HW2 1308   1.075   0.729   2.655
  212SOL     OW 1309   1.755   0.607   2.093
  212SOL    HW1 1310   1.743   0.594   1.994
  212SOL    HW2 1311   1.725   0.526   2.142
  213SOL     OW 1312   0.768   1.144   2.885
  213SOL    HW1 1313   0.690   1.161   2.945
  213SOL    HW2 1314   0.802   1.231   2.849
  214SOL     OW 1315   0.850   0.798   3.685
  214SOL    HW1 1316   0.846   0.874   3.750
  214SOL    HW2 1317   0.872   0.834   3.594
  215SOL     OW 1318   0.685   1.012   2.527
  215SOL    HW1 1319   0.754   0.996   2.597
  215SOL    HW2 1320   0.612   1.069   2.565
  216SOL     OW 1321   0.686   1.161   3.665
  216SOL    HW1 1322   0.746   1.240   3.679
  216SOL    HW2 1323   0.600   1.192   3.624
  217SOL     OW 1324   0.335   1.435   2.923
  217SOL    HW1 1325   0.257   1.404   2.870
  217SOL    HW2 1326   0.393   1.493   2.866
  218SOL     OW 1327   1.460   1.505   3.201
  218SOL    HW1 1328   1.484   1.599   3.227
  218SOL    HW2 1329   1.444   1.451   3.283
  219SOL     OW 1330   0.438   0.392   3.361
  219SOL    HW1 1331   0.520   0.336   3.370
  219SOL    HW2 1332   0.357   0.334   3.365
  220SOL     OW 1333   1.603   0.447   2.599
  220SOL    HW1 1334   1.529   0.493   2.549
  220SOL    HW2 1335   1.654   0.515   2.652
  221SOL     OW 1336   0.231   1.713   2.345
  221SOL    HW1 1337   0.265   1.790   2.399
  221SOL    HW2 1338   0.275   1.713   2.255
  222SOL     OW 1339   1.127   1.341   3.552
  222SOL    HW1 1340   1.174   1.341   3.640
  222SOL    HW2 1341   1.079   1.254   3.541
  223SOL     OW 1342   0.230   1.434   2.400
  223SOL    HW1 1343   0.204   1.530   2.400
  223SOL    HW2 1344   0.159   1.380   2.445
  224SOL     OW 1345   0.240   1.091   2.748
  224SOL    HW1 1346   0.254   1.007   2.800
  224SOL    HW2 1347   0.185   1.155   2.803
  225SOL     OW 1348   0.620   1.786   3.301
  225SOL    HW1 1349   0.528   1.769   3.336
  225SOL    HW2 1350   0.648   1.878   3.327
  226SOL     OW 1351   0.606   0.964   1.985
  226SOL    HW1 1352   0.613   1.048   1.931
  226SOL    HW2 1353   0.652   0.977   2.073
  227SOL     OW 1354   1.594   0.114   3.342
  227SOL    HW1 1355   1.576   0.181   3.270
  227SOL    HW2 1356   1.591   0.160   3.431
  228SOL     OW 1357   0.122   0.643   2.425
  228SOL    HW1 1358   0.077   0.555   2.442
  228SOL    HW2 1359   0.121   0.697   2.509
  229SOL     OW 1360   1.842   1.767   2.221
  229SOL    HW1 1361   1.896   1.738   2.301
  229SOL    HW2 1362   1.872   1.857   2.192
  230SOL     OW 1363   1.641   1.108   2.294
  230SOL    HW1 1364   1.727   1.110   2.242
  230SOL    HW2 1365   1.655   1.155   2.382
  231SOL     OW 1366   0.113   0.737   3.459
  231SOL    HW1 1367   0.201   0.724   3.504
  231SOL    HW2 1368   0.100   0.834   3.437
  232SOL     OW 1369   0.613   1.365   2.588
  232SOL    HW1 1370   0.564   1.278   2.597
  232SOL    HW2 1371   0.590   1.408   2.501
  233SOL     OW 1372   1.293   1.228   3.285
  233SOL    HW1 1373   1.330   1.155   3.227
  233SOL    HW2 1374   1.345   1.233   3.370
  234SOL     OW 1375   0.809   0.004   2.364
  234SOL    HW1 1376   0.849   0.095   2.355
  234SOL    HW2 1377   0.709   0.012   2.370
  235SOL     OW 1378   0.197   0.976   3.126
  235SOL    HW1 1379   0.286   0.931   3.112
  235SOL    HW2 1380   0.124   0.911   3.107
  236SOL     OW 1381   1.187   1.792   3.478
  236SOL    HW1 1382   1.211   1.852   3.402
  236SOL    HW2 1383   1.194   1.697   3.448
  237SOL     OW 1384   0.317   0.251   3.663
  237SOL    HW1 1385   0.388   0.322   3.669
  237SOL    HW2 1386   0.229   0.290   3.691
  238SOL     OW 1387   1.466   1.417   2.815
  238SOL    HW1 1388   1.407   1.423   2.895
  238SOL    HW2 1389   1.451   1.329   2.769
  239SOL     OW 1390   1.667   1.714   2.434
  239SOL    HW1 1391   1.626   1.691   2.346
  239SOL    HW2 1392   1.649   1.640   2.499
  240SOL     OW 1393   1.281   0.345   2.806
  240SOL    HW1 1394   1.195   0.295   2.793
  240SOL    HW2 1395   1.343   0.291   2.862
  241SOL     OW 1396   1.576   1.662   2.169
  241SOL    HW1 1397   1.665   1.708   2.172
  241SOL    HW2 1398   1.555   1.638   2.074
  242SOL     OW 1399   0.807   0.605   3.327
  242SOL    HW1 1400   0.760   0.602   3.416
  242SOL    HW2 1401   0.756   0.550   3.261
  243SOL     OW 1402   1.394   0.469   3.536
  243SOL    HW1 1403   1.374   0.512   3.624
  243SOL    HW2 1404   1.472   0.407   3.545
  244SOL     OW 1405   0.973   0.890   3.434
  244SOL    HW1 1406   1.019   0.806   3.405
  244SOL    HW2 1407   0.917   0.924   3.359
  245SOL     OW 1408   0.991   0.410   3.104
  245SOL    HW1 1409   0.914   0.444   3.158
  245SOL    HW2 1410   0.957   0.359   3.025
  246SOL     OW 1411   1.041   0.701   2.291
  246SOL    HW1 1412   1.067   0.697   2.387
  246SOL    HW2 1413   0.956   0.650   2.277
  247SOL     OW 1414   0.076   0.811   2.651
  247SOL    HW1 1415   0.175   0.799   2.660
  247SOL    HW2 1416   0.052   0.906   2.672
  248SOL     OW 1417   0.130   1.821   3.433
  248SOL    HW1 1418   0.120   1.806   3.532
  248SOL    HW2 1419   0.044   1.857   3.397
  249SOL     OW 1420   0.865   0.348   2.057
  249SOL    HW1 1421   0.924   0.411   2.008
  249SOL    HW2 1422   0.884   0.254   2.028
  250SOL     OW 1423   1.719   0.585   3.693
  250SOL    HW1 1424   1.693   0.674   3.657
  250SOL    HW2 1425   1.717   0.517   3.620
  251SOL     OW 1426   1.362   1.144   2.407
  251SOL    HW1 1427   1.445   1.115   2.359
  251SOL    HW2 1428   1.313   1.211   2.351
  252SOL     OW 1429   0.550   0.196   2.747
  252SOL    HW1 1430   0.545   0.191   2.847
  252SOL    HW2 1431   0.552   0.292   2.718
  253SOL     OW 1432   1.008   1.456   2.339
  253SOL    HW1 1433   0.962   1.528   2.287
  253SOL    HW2 1434   1.004   1.476   2.437
  254SOL     OW 1435   0.351   1.801   2.715
  254SOL    HW1 1436   0.401   1.715   2.721
  254SOL    HW2 1437   0.416   1.878   2.712
  255SOL     OW 1438   1.227   1.550   3.368
  255SOL    HW1 1439   1.233   1.473   3.432
  255SOL    HW2 1440   1.175   1.524   3.288
  256SOL     OW 1441   0.321   0.943   2.104
  256SOL    HW1 1442   0.403   0.982   2.062
  256SOL    HW2 1443   0.294   0.861   2.055
  257SOL     OW 1444   1.458   0.735   2.590
  257SOL    HW1 1445   1.453   0.670   2.665
  257SOL    HW2 1446   1.538   0.794   2.603
  258SOL     OW 1447   0.461   1.266   3.589
  258SOL    HW1 1448   0.411   1.267   3.503
  258SOL    HW2 1449   0.398   1.248   3.665
  259SOL     OW 1450   1.111   1.776   2.099
  259SOL    HW1 1451   1.051   1.714   2.149
  259SOL    HW2 1452   1.142   1.732   2.014
  260SOL     OW 1453   0.202   0.285   3.360
  260SOL    HW1 1454   0.122   0.345   3.347
  260SOL    HW2 1455   0.192   0.236   3.446
  261SOL     OW 1456   1.632   1.377   1.943
  261SOL    HW1 1457   1.600   1.471   1.933
  261SOL    HW2 1458   1.556   1.314   1.931
  262SOL     OW 1459   0.464   1.743   2.185
  262SOL    HW1 1460   0.497   1.782   2.271
  262SOL    HW2 1461   0.540   1.736   2.120
  263SOL     OW 1462   1.400   0.107   2.288
  263SOL    HW1 1463   1.376   0.070   2.198
  263SOL    HW2 1464   1.499   0.123   2.292
  264SOL     OW 1465   0.249   1.785   3.103
  264SOL    HW1 1466   0.306   1.720   3.153
  264SOL    HW2 1467   0.233   1.752   3.010
  265SOL     OW 1468   0.940   1.698   2.766
  265SOL    HW1 1469   1.020   1.641   2.787
  265SOL    HW2 1470   0.891   1.658   2.689
  266SOL     OW 1471   0.382   0.700   2.342
  266SOL    HW1 1472   0.427   0.610   2.339
  266SOL    HW2 1473   0.288   0.689   2.375
  267SOL     OW 1474   1.547   0.222   3.591
  267SOL    HW1 1475   1.542   0.259   3.683
  267SOL    HW2 1476   1.475   0.153   3.579
  268SOL     OW 1477   0.614   0.122   1.979
  268SOL    HW1 1478   0.712   0.100   1.986
  268SOL    HW2 1479   0.583   0.105   1.886
  269SOL     OW 1480   0.781   0.264   3.611
  269SOL    HW1 1481   0.848   0.203   3.654
  269SOL    HW2 1482   0.708   0.283   3.676
  270SOL     OW 1483   0.888   1.514   3.057
  270SOL    HW1 1484   0.865   1.489   2.963
  270SOL    HW2 1485   0.949   1.445   3.096
  271SOL     OW 1486   1.351   0.590   3.295
  271SOL    HW1 1487   1.379   0.547   3.380
  271SOL    HW2 1488   1.376   0.686   3.296
  272SOL     OW 1489   0.803   1.402   2.786
  272SOL    HW1 1490   0.893   1.416   2.744
  272SOL    HW2 1491   0.732   1.404   2.715
  273SOL     OW 1492   0.922   0.503   2.761
  273SOL    HW1 1493   0.897   0.494   2.665
  273SOL    HW2 1494   0.970   0.421   2.792
  274SOL     OW 1495   0.539   0.064   2.374
  274SOL    HW1 1496   0.458   0.065   2.432
  274SOL    HW2 1497   0.542   0.147   2.319
  275SOL     OW 1498   0.297   0.035   2.033
  275SOL    HW1 1499   0.346   0.119   2.012
  275SOL    HW2 1500   0.359  -0.030   2.078
  276SOL     OW 1501   0.935   0.236   2.342
  276SOL    HW1 1502   0.887   0.277   2.264
  276SOL    HW2 1503   1.034   0.234   2.323
  277SOL     OW 1504   1.076   0.683   3.326
  277SOL    HW1 1505   0.996   0.622   3.329
  277SOL    HW2 1506   1.157   0.630   3.302
  278SOL     OW 1507   1.227   1.570   2.655
  278SOL    HW1 1508   1.248   1.644   2.590
  278SOL    HW2 1509   1.295   1.570   2.728
  279SOL     OW 1510   0.459   1.152   2.603
  279SOL    HW1 1511   0.388   1.125   2.668
  279SOL    HW2 1512   0.433   1.124   2.510
  280SOL     OW 1513   1.271   1.797   2.453
  280SOL    HW1 1514   1.315   1.861   2.389
  280SOL    HW2 1515   1.221   1.849   2.523
  281SOL     OW 1516   0.078   0.556   3.248
  281SOL    HW1 1517   0.170   0.555   3.207
  281SOL    HW2 1518   0.072   0.630   3.315
  282SOL     OW 1519   0.561   0.222   3.009
  282SOL    HW1 1520   0.599   0.138   3.046
  282SOL    HW2 1521   0.473   0.241   3.053
  283SOL     OW 1522   0.866   0.454   2.504
  283SOL    HW1 1523   0.834   0.526   2.442
  283SOL    HW2 1524   0.890   0.373   2.451
  284SOL     OW 1525   1.017   0.039   2.615
  284SOL    HW1 1526   0.945   0.044   2.546
  284SOL    HW2 1527   0.993  -0.030   2.684
  285SOL     OW 1528   1.429   1.173   2.729
  285SOL    HW1 1529   1.374   1.089   2.722
  285SOL    HW2 1530   1.455   1.202   2.637
  286SOL     OW 1531   1.466   0.590   2.854
  286SOL    HW1 1532   1.436   0.495   2.861
  286SOL    HW2 1533   1.539   0.606   2.920
  287SOL     OW 1534   1.857   0.833   2.239
  287SOL    HW1 1535   1.899   0.769   2.303
  287SOL    HW2 1536   1.819   0.782   2.161
  288SOL     OW 1537   0.488   1.385   2.036
  288SOL    HW1 1538   0.401   1.370   2.083
  288SOL    HW2 1539   0.471   1.411   1.941
  289SOL     OW 1540   1.664   1.280   2.519
  289SOL    HW1 1541   1.763   1.288   2.533
  289SOL    HW2 1542   1.619   1.364   2.550
  290SOL     OW 1543   0.527   0.256   2.190
  290SOL    HW1 1544   0.554   0.197   2.115
  290SOL    HW2 1545   0.527   0.351   2.159
  291SOL     OW 1546   1.754   1.223   3.450
  291SOL    HW1 1547   1.845   1.184   3.437
  291SOL    HW2 1548   1.762   1.319   3.474
  292SOL     OW 1549   1.064   1.347   3.202
  292SOL    HW1 1550   0.984   1.324   3.257
  292SOL    HW2 1551   1.147   1.321   3.251
  293SOL     OW 1552   1.592   1.629   3.487
  293SOL    HW1 1553   1.619   1.663   3.397
  293SOL    HW2 1554   1.671   1.591   3.533
  294SOL     OW 1555   1.111   1.195   2.962
  294SOL    HW1 1556   1.071   1.239   3.043
  294SOL    HW2 1557   1.070   1.232   2.879
  295SOL     OW 1558   0.915   0.089   3.264
  295SOL    HW1 1559   0.940   0.069   3.169
  295SOL    HW2 1560   0.987   0.145   3.306
  296SOL     OW 1561   0.980   1.116   3.581
  296SOL    HW1 1562   0.881   1.122   3.591
  296SOL    HW2 1563   1.003   1.036   3.525
  297SOL     OW 1564   0.705   1.050   2.230
  297SOL    HW1 1565   0.691   1.057   2.329
  297SOL    HW2 1566   0.789   0.999   2.212
  298SOL     OW 1567   0.410   0.813   3.113
  298SOL    HW1 1568   0.496   0.825   3.163
  298SOL    HW2 1569   0.368   0.726   3.140
  299SOL     OW 1570   1.274   0.386   3.124
  299SOL    HW1 1571   1.295   0.460   3.188
  299SOL    HW2 1572   1.185   0.403   3.081
  300SOL     OW 1573   0.064   1.564   3.193
  300SOL    HW1 1574   0.018   1.646   3.159
  300SOL    HW2 1575   0.162   1.583   3.202
  301SOL     OW 1576   0.367   1.100   2.363
  301SOL    HW1 1577   0.360   1.183   2.307
  301SOL    HW2 1578   0.371   1.020   2.303
  302SOL     OW 1579   0.566   0.537   2.727
  302SOL    HW1 1580   0.578   0.603   2.653
  302SOL    HW2 1581   0.612   0.571   2.810
  303SOL     OW 1582   1.252   1.348   2.250
  303SOL    HW1 1583   1.302   1.425   2.290
  303SOL    HW2 1584   1.157   1.350   2.282
  304SOL     OW 1585   1.272   1.445   3.004
  304SOL    HW1 1586   1.319   1.458   3.091
  304SOL    HW2 1587   1.206   1.371   3.013
  305SOL     OW 1588   1.582   0.639   2.334
  305SOL    HW1 1589   1.551   0.700   2.407
  305SOL    HW2 1590   1.632   0.691   2.265
  306SOL     OW 1591   0.354   1.510   3.191
  306SOL    HW1 1592   0.333   1.466   3.104
  306SOL    HW2 1593   0.451   1.536   3.194
  307SOL     OW 1594   0.402   0.751   3.460
  307SOL    HW1 1595   0.470   0.806   3.413
  307SOL    HW2 1596   0.442   0.663   3.487
  308SOL     OW 1597   1.587   0.779   3.532
  308SOL    HW1 1598   1.495   0.817   3.527
  308SOL    HW2 1599   1.647   0.826   3.467
  309SOL     OW 1600   1.013   0.105   3.632
  309SOL    HW1 1601   1.019   0.190   3.580
  309SOL    HW2 1602   1.045   0.029   3.575
  310SOL     OW 1603   0.504   0.050   3.602
  310SOL    HW1 1604   0.462  -0.007   3.532
  310SOL    HW2 1605   0.438   0.119   3.634
  311SOL     OW 1606   0.573   0.870   2.891
  311SOL    HW1 1607   0.617   0.959   2.882
  311SOL    HW2 1608   0.510   0.870   2.968
  312SOL     OW 1609   0.307   0.213   3.093
  312SOL    HW1 1610   0.284   0.250   3.183
  312SOL    HW2 1611   0.277   0.118   3.087
  313SOL     OW 1612   0.037   1.310   3.144
  313SOL    HW1 1613   0.090   1.261   3.212
  313SOL    HW2 1614   0.059   1.408   3.149
  314SOL     OW 1615   0.732   0.634   2.926
  314SOL    HW1 1616   0.791   0.608   2.850
  314SOL    HW2 1617   0.704   0.730   2.915
  315SOL     OW 1618   1.728   0.935   3.716
  315SOL    HW1 1619   1.682   0.928   3.627
  315SOL    HW2 1620   1.666   0.979   3.782
  316SOL     OW 1621   0.307   0.063   2.480
  316SOL    HW1 1622   0.296   0.157   2.513
  316SOL    HW2 1623   0.302   0.000   2.557
  317SOL     OW 1624   1.622   0.367   2.236
  317SOL    HW1 1625   1.624   0.291   2.300
  317SOL    HW2 1626   1.574   0.444   2.276
  318SOL     OW 1627   1.023   0.766   2.828
  318SOL    HW1 1628   1.038   0.787   2.924
  318SOL    HW2 1629   0.993   0.671   2.819
  319SOL     OW 1630   0.980   1.573   3.562
  319SOL    HW1 1631   0.960   1.617   3.474
  319SOL    HW2 1632   1.019   1.482   3.546
  320SOL     OW 1633   1.859   1.518   3.467
  320SOL    HW1 1634   1.873   1.545   3.372
  320SOL    HW2 1635   1.942   1.540   3.520
  321SOL     OW 1636   0.350   0.898   3.666
  321SOL    HW1 1637   0.426   0.942   3.714
  321SOL    HW2 1638   0.385   0.851   3.584
  322SOL     OW 1639   1.540   0.274   1.987
  322SOL    HW1 1640   1.479   0.199   2.010
  322SOL    HW2 1641   1.562   0.326   2.070
  323SOL     OW 1642   1.068   1.333   2.711
  323SOL    HW1 1643   1.075   1.249   2.656
  323SOL    HW2 1644   1.130   1.402   2.675
  324SOL     OW 1645   0.319   0.810   2.811
  324SOL    HW1 1646   0.412   0.846   2.816
  324SOL    HW2 1647   0.313   0.725   2.863
  325SOL     OW 1648   0.339   0.509   2.868
  325SOL    HW1 1649   0.287   0.426   2.851
  325SOL    HW2 1650   0.416   0.514   2.804
  326SOL     OW 1651   1.138   0.380   3.540
  326SOL    HW1 1652   1.093   0.443   3.604
  326SOL    HW2 1653   1.231   0.411   3.523
  327SOL     OW 1654   1.160   0.207   3.339
  327SOL    HW1 1655   1.160   0.271   3.416
  327SOL    HW2 1656   1.188   0.255   3.256
  328SOL     OW 1657   0.008   1.326   2.062
  328SOL    HW1 1658  -0.085   1.347   2.031
  328SOL    HW2 1659   0.018   1.227   2.075
  329SOL     OW 1660   0.088   1.801   2.789
  329SOL    HW1 1661   0.046   1.715   2.762
  329SOL    HW2 1662   0.182   1.804   2.755
  330SOL     OW 1663   0.504   1.568   2.772
  330SOL    HW1 1664   0.570   1.642   2.781
  330SOL    HW2 1665   0.548   1.489   2.730
  331SOL     OW 1666   1.002   0.796   3.100
  331SOL    HW1 1667   1.043   0.764   3.186
  331SOL    HW2 1668   0.906   0.769   3.097
  332SOL     OW 1669   0.040   0.544   2.976
  332SOL    HW1 1670   0.125   0.511   2.935
  332SOL    HW2 1671   0.053   0.559   3.074
  333SOL     OW 1672   0.189   0.520   3.584
  333SOL    HW1 1673   0.248   0.480   3.514
  333SOL    HW2 1674   0.131   0.591   3.543
  334SOL     OW 1675   1.369   0.950   3.522
  334SOL    HW1 1676   1.408   1.039   3.542
  334SOL    HW2 1677   1.379   0.930   3.425
  335SOL     OW 1678   0.252   1.564   3.606
  335SOL    HW1 1679   0.222   1.621   3.682
  335SOL    HW2 1680   0.245   1.467   3.632
  336SOL     OW 1681   0.671   0.464   3.131
  336SOL    HW1 1682   0.637   0.375   3.101
  336SOL    HW2 1683   0.697   0.518   3.051
  337SOL     OW 1684   0.930   1.678   3.327
  337SOL    HW1 1685   0.906   1.660   3.232
  337SOL    HW2 1686   0.960   1.772   3.337
  338SOL     OW 1687   0.473   0.500   2.053
  338SOL    HW1 1688   0.534   0.580   2.057
  338SOL    HW2 1689   0.378   0.531   2.060
  339SOL     OW 1690   0.159   1.137   3.328
  339SOL    HW1 1691   0.181   1.076   3.404
  339SOL    HW2 1692   0.169   1.088   3.242
  340SOL     OW 1693   1.347   1.059   3.096
  340SOL    HW1 1694   1.371   0.996   3.022
  340SOL    HW2 1695   1.257   1.099   3.078
  341SOL     OW 1696   1.759   1.747   3.016
  341SOL    HW1 1697   1.820   1.777   2.943
  341SOL    HW2 1698   1.721   1.658   2.994
  342SOL     OW 1699   1.252   1.731   2.990
  342SOL    HW1 1700   1.336   1.736   2.936
  342SOL    HW2 1701   1.229   1.635   3.008
  343SOL     OW 1702   0.083   1.258   2.884
  343SOL    HW1 1703   0.078   1.257   2.984
  343SOL    HW2 1704   0.000   1.217   2.846
  344SOL     OW 1705   0.688   1.662   3.578
  344SOL    HW1 1706   0.632   1.743   3.587
  344SOL    HW2 1707   0.740   1.666   3.492
  345SOL     OW 1708   1.726   0.135   2.385
  345SOL    HW1 1709   1.799   0.118   2.318
  345SOL    HW2 1710   1.695   0.048   2.423
  346SOL     OW 1711   1.388   1.573   2.339
  346SOL    HW1 1712   1.455   1.585   2.265
  346SOL    HW2 1713   1.348   1.662   2.362
  347SOL     OW 1714   0.130   1.794   3.713
  347SOL    HW1 1715   0.089   1.720   3.766
  347SOL    HW2 1716   0.194   1.845   3.771
  348SOL     OW 1717   1.280   0.927   2.534
  348SOL    HW1 1718   1.340   0.846   2.536
  348SOL    HW2 1719   1.320   0.996   2.474
  349SOL     OW 1720   0.830   1.273   3.284
  349SOL    HW1 1721   0.825   1.306   3.379
  349SOL    HW2 1722   0.744   1.292   3.238
  350SOL     OW 1723   0.672   1.616   2.016
  350SOL    HW1 1724   0.681   1.626   1.917
  350SOL    HW2 1725   0.632   1.527   2.037
  351SOL     OW 1726   1.650   1.720   3.256
  351SOL    HW1 1727   1.703   1.730   3.172
  351SOL    HW2 1728   1.623   1.810   3.290
  352SOL     OW 1729   1.841   0.175   2.825
  352SOL    HW1 1730   1.880   0.090   2.789
  352SOL    HW2 1731   1.743   0.177   2.806
  353SOL     OW 1732   0.263   0.326   2.582
  353SOL    HW1 1733   0.184   0.377   2.548
  353SOL    HW2 1734   0.254   0.311   2.680
  354SOL     OW 1735   1.194   1.612   1.893
  354SOL    HW1 1736   1.200   1.519   1.930
  354SOL    HW2 1737   1.135   1.612   1.813
  355SOL     OW 1738   0.822   1.002   3.234
  355SOL    HW1 1739   0.862   1.001   3.142
  355SOL    HW2 1740   0.832   1.094   3.274
  356SOL     OW 1741   1.504   1.607   1.906
  356SOL    HW1 1742   1.412   1.644   1.913
  356SOL    HW2 1743   1.542   1.627   1.816
  357SOL     OW 1744   0.372   1.288   3.352
  357SOL    HW1 1745   0.359   1.381   3.318
  357SOL    HW2 1746   0.288   1.236   3.339
  358SOL     OW 1747   1.039   1.098   2.558
  358SOL    HW1 1748   0.969   1.051   2.612
  358SOL    HW2 1749   1.098   1.030   2.515
  359SOL     OW 1750   1.014   0.236   2.833
  359SOL    HW1 1751   1.006   0.200   2.740
  359SOL    HW2 1752   1.012   0.160   2.898
  360SOL     OW 1753   0.590   1.487   2.353
  360SOL    HW1 1754   0.632   1.429   2.283
  360SOL    HW2 1755   0.546   1.566   2.309
  361SOL     OW 1756   1.709   0.385   3.243
  361SOL    HW1 1757   1.782   0.454   3.247
  361SOL    HW2 1758   1.737   0.310   3.184
  362SOL     OW 1759   0.255   1.348   2.152
  362SOL    HW1 1760   0.159   1.349   2.125
  362SOL    HW2 1761   0.267   1.401   2.236
  363SOL     OW 1762   0.105   1.013   3.588
  363SOL    HW1 1763   0.028   0.980   3.642
  363SOL    HW2 1764   0.190   0.983   3.630
  364SOL     OW 1765   0.672   0.203   3.351
  364SOL    HW1 1766   0.762   0.187   3.311
  364SOL    HW2 1767   0.680   0.208   3.450
  365SOL     OW 1768   0.075   0.345   1.895
  365SOL    HW1 1769  -0.017   0.317   1.866
  365SOL    HW2 1770   0.106   0.422   1.839
  366SOL     OW 1771   0.072   0.166   2.180
  366SOL    HW1 1772   0.055   0.249   2.126
  366SOL    HW2 1773   0.162   0.129   2.158
  367SOL     OW 1774   1.183   1.335   1.981
  367SOL    HW1 1775   1.084   1.324   1.983
  367SOL    HW2 1776   1.217   1.350   2.074
  368SOL     OW 1777   0.613   0.842   3.293
  368SOL    HW1 1778   0.669   0.923   3.276
  368SOL    HW2 1779   0.672   0.762   3.296
  369SOL     OW 1780   1.493   1.767   2.821
  369SOL    HW1 1781   1.526   1.831   2.752
  369SOL    HW2 1782   1.559   1.761   2.896
  370SOL     OW 1783   0.716   0.565   3.570
  370SOL    HW1 1784   0.735   0.630   3.644
  370SOL    HW2 1785   0.776   0.485   3.579
  371SOL     OW 1786   1.450   1.220   3.495
  371SOL    HW1 1787   1.441   1.210   3.594
  371SOL    HW2 1788   1.546   1.213   3.469
  372SOL     OW 1789   0.390   1.741   3.422
  372SOL    HW1 1790   0.299   1.782   3.420
  372SOL    HW2 1791   0.383   1.647   3.454
  373SOL     OW 1792   1.225   0.325   2.311
  373SOL    HW1 1793   1.290   0.251   2.300
  373SOL    HW2 1794   1.245   0.375   2.395
  374SOL     OW 1795   0.594   0.745   2.514
  374SOL    HW1 1796   0.644   0.830   2.495
  374SOL    HW2 1797   0.506   0.747   2.466
  375SOL     OW 1798   1.777   0.342   3.504
  375SOL    HW1 1799   1.760   0.373   3.410
  375SOL    HW2 1800   1.693   0.305   3.542
  376SOL     OW 1801   0.859   1.374   1.878
  376SOL    HW1 1802   0.813   1.389   1.966
  376SOL    HW2 1803   0.903   1.459   1.848
  377SOL     OW 1804   0.661   1.790   2.815
  377SOL    HW1 1805   0.615   1.878   2.802
  377SOL    HW2 1806   0.760   1.802   2.808
  378SOL     OW 1807   0.859   0.956   2.723
  378SOL    HW1 1808   0.913   0.887   2.771
  378SOL    HW2 1809   0.827   1.025   2.789
  379SOL     OW 1810   0.221   1.314   3.706
  379SOL    HW1 1811   0.156   1.241   3.685
  379SOL    HW2 1812   0.225   1.328   3.804
  380SOL     OW 1813   0.079   1.240   2.515
  380SOL    HW1 1814   0.078   1.193   2.603
  380SOL    HW2 1815   0.161   1.212   2.464
  381SOL     OW 1816   0.672   1.391   3.486
  381SOL    HW1 1817   0.594   1.341   3.524
  381SOL    HW2 1818   0.669   1.486   3.517
  382SOL     OW 1819   1.824   0.192   3.089
  382SOL    HW1 1820   1.820   0.102   3.133
  382SOL    HW2 1821   1.827   0.181   2.990
  383SOL     OW 1822   0.428   0.424   2.382
  383SOL    HW1 1823   0.458   0.352   2.320
  383SOL    HW2 1824   0.389   0.384   2.465
  384SOL     OW 1825   0.317   0.547   3.142
  384SOL    HW1 1826   0.355   0.488   3.214
  384SOL    HW2 1827   0.357   0.521   3.054
  385SOL     OW 1828   0.812   1.586   2.549
  385SOL    HW1 1829   0.844   1.596   2.455
  385SOL    HW2 1830   0.733   1.524   2.551
  386SOL     OW 1831   1.424   0.214   2.974
  386SOL    HW1 1832   1.476   0.149   3.029
  386SOL    HW2 1833   1.375   0.277   3.035
  387SOL     OW 1834   1.001   0.034   3.016
  387SOL    HW1 1835   0.938  -0.038   2.985
  387SOL    HW2 1836   1.094  -0.002   3.016
  388SOL     OW 1837   0.770   1.330   2.163
  388SOL    HW1 1838   0.724   1.243   2.180
  388SOL    HW2 1839   0.861   1.327   2.204
  389SOL     OW 1840   0.618   1.567   3.146
  389SOL    HW1 1841   0.613   1.649   3.203
  389SOL    HW2 1842   0.707   1.564   3.101
  390SOL     OW 1843   1.352   0.052   2.030
  390SOL    HW1 1844   1.387   0.011   1.946
  390SOL    HW2 1845   1.262   0.014   2.050
  391SOL     OW 1846   1.300   0.453   2.553
  391SOL    HW1 1847   1.241   0.533   2.557
  391SOL    HW2 1848   1.315   0.418   2.646
  392SOL     OW 1849   1.593   0.221   2.744
  392SOL    HW1 1850   1.509   0.220   2.798
  392SOL    HW2 1851   1.595   0.304   2.688
  393SOL     OW 1852   0.039   1.077   2.162
  393SOL    HW1 1853   0.138   1.066   2.153
  393SOL    HW2 1854  -0.001   0.991   2.194
  394SOL     OW 1855   0.875   1.646   2.199
  394SOL    HW1 1856   0.798   1.611   2.145
  394SOL    HW2 1857   0.843   1.717   2.261
  395SOL     OW 1858   0.230   0.628   3.837
  395SOL    HW1 1859   0.137   0.626   3.874
  395SOL    HW2 1860   0.231   0.589   3.745
  396SOL     OW 1861   0.225   0.275   4.720
  396SOL    HW1 1862   0.260   0.258   4.812
  396SOL    HW2 1863   0.137   0.230   4.708
  397SOL     OW 1864   0.019   0.368   4.371
  397SOL    HW1 1865  -0.063   0.411   4.410
  397SOL    HW2 1866  -0.009   0.295   4.308
  398SOL     OW 1867   0.569   1.275   4.889
  398SOL    HW1 1868   0.476   1.268   4.852
  398SOL    HW2 1869   0.580   1.364   4.933
  399SOL     OW 1870   1.555   1.511   4.427
  399SOL    HW1 1871   1.498   1.495   4.508
  399SOL    HW2 1872   1.496   1.521   4.347
  400SOL     OW 1873   1.135   0.703   4.441
  400SOL    HW1 1874   1.192   0.781   4.416
  400SOL    HW2 1875   1.075   0.729   4.517
  401SOL     OW 1876   1.755   0.607   3.955
  401SOL    HW1 1877   1.743   0.594   3.856
  401SOL    HW2 1878   1.725   0.526   4.004
  402SOL     OW 1879   0.768   1.144   4.747
  402SOL    HW1 1880   0.690   1.161   4.807
  402SOL    HW2 1881   0.802   1.231   4.711
  403SOL     OW 1882   0.685   1.012   4.389
  403SOL    HW1 1883   0.754   0.996   4.459
  403SOL    HW2 1884   0.612   1.069   4.427
  404SOL     OW 1885   0.335   1.435   4.785
  404SOL    HW1 1886   0.257   1.404   4.732
  404SOL    HW2 1887   0.393   1.493   4.728
  405SOL     OW 1888   1.603   0.447   4.461
  405SOL    HW1 1889   1.529   0.493   4.411
  405SOL    HW2 1890   1.654   0.515   4.514
  406SOL     OW 1891   0.231   1.713   4.207
  406SOL    HW1 1892   0.265   1.790   4.261
  406SOL    HW2 1893   0.275   1.713   4.117
  407SOL     OW 1894   0.230   1.434   4.262
  407SOL    HW1 1895   0.204   1.530   4.262
  407SOL    HW2 1896   0.159   1.380   4.307
  408SOL     OW 1897   0.240   1.091   4.610
  408SOL    HW1 1898   0.254   1.007   4.662
  408SOL    HW2 1899   0.185   1.155   4.665
  409SOL     OW 1900   0.620   1.786   5.163
  409SOL    HW1 1901   0.528   1.769   5.198
  409SOL    HW2 1902   0.648   1.878   5.189
  410SOL     OW 1903   0.606   0.964   3.847
  410SOL    HW1 1904   0.613   1.048   3.793
  410SOL    HW2 1905   0.652   0.977   3.935
  411SOL     OW 1906   0.122   0.643   4.287
  411SOL    HW1 1907   0.077   0.555   4.304
  411SOL    HW2 1908   0.121   0.697   4.371
  412SOL     OW 1909   1.842   1.767   4.083
  412SOL    HW1 1910   1.896   1.738   4.163
  412SOL    HW2 1911   1.872   1.857   4.054
  413SOL     OW 1912   0.027   1.596   3.841
  413SOL    HW1 1913   0.008   1.500   3.862
  413SOL    HW2 1914  -0.006   1.654   3.916
  414SOL     OW 1915   1.689   0.922   4.336
  414SOL    HW1 1916   1.784   0.893   4.344
  414SOL    HW2 1917   1.681   0.987   4.261
  415SOL     OW 1918   1.641   1.108   4.156
  415SOL    HW1 1919   1.727   1.110   4.104
  415SOL    HW2 1920   1.655   1.155   4.244
  416SOL     OW 1921   0.613   1.365   4.450
  416SOL    HW1 1922   0.564   1.278   4.459
  416SOL    HW2 1923   0.590   1.408   4.363
  417SOL     OW 1924   0.809   0.004   4.226
  417SOL    HW1 1925   0.849   0.095   4.217
  417SOL    HW2 1926   0.709   0.012   4.232
  418SOL     OW 1927   0.197   0.976   4.988
  418SOL    HW1 1928   0.286   0.931   4.974
  418SOL    HW2 1929   0.124   0.911   4.969
  419SOL     OW 1930   1.525   0.999   3.914
  419SOL    HW1 1931   1.462   0.923   3.927
  419SOL    HW2 1932   1.573   1.017   4.000
  420SOL     OW 1933   1.466   1.417   4.677
  420SOL    HW1 1934   1.407   1.423   4.757
  420SOL    HW2 1935   1.451   1.329   4.631
  421SOL     OW 1936   1.667   1.714   4.296
  421SOL    HW1 1937   1.626   1.691   4.208
  421SOL    HW2 1938   1.649   1.640   4.361
  422SOL     OW 1939   0.598   0.729   3.994
  422SOL    HW1 1940   0.622   0.798   3.926
  422SOL    HW2 1941   0.520   0.762   4.048
  423SOL     OW 1942   1.281   0.345   4.668
  423SOL    HW1 1943   1.195   0.295   4.655
  423SOL    HW2 1944   1.343   0.291   4.724
  424SOL     OW 1945   1.576   1.662   4.031
  424SOL    HW1 1946   1.665   1.708   4.034
  424SOL    HW2 1947   1.555   1.638   3.936
  425SOL     OW 1948   0.991   0.410   4.966
  425SOL    HW1 1949   0.914   0.444   5.020
  425SOL    HW2 1950   0.957   0.359   4.887
  426SOL     OW 1951   1.041   0.701   4.153
  426SOL    HW1 1952   1.067   0.697   4.249
  426SOL    HW2 1953   0.956   0.650   4.139
  427SOL     OW 1954   0.076   0.811   4.513
  427SOL    HW1 1955   0.175   0.799   4.522
  427SOL    HW2 1956   0.052   0.906   4.534
  428SOL     OW 1957   0.130   1.821   5.295
  428SOL    HW1 1958   0.120   1.806   5.394
  428SOL    HW2 1959   0.044   1.857   5.259
  429SOL     OW 1960   0.865   0.348   3.919
  429SOL    HW1 1961   0.924   0.411   3.870
  429SOL    HW2 1962   0.884   0.254   3.890
  430SOL     OW 1963   1.362   1.144   4.269
  430SOL    HW1 1964   1.445   1.115   4.221
  430SOL    HW2 1965   1.313   1.211   4.213
  431SOL     OW 1966   0.550   0.196   4.609
  431SOL    HW1 1967   0.545   0.191   4.709
  431SOL    HW2 1968   0.552   0.292   4.580
  432SOL     OW 1969   1.008   1.456   4.201
  432SOL    HW1 1970   0.962   1.528   4.149
  432SOL    HW2 1971   1.004   1.476   4.299
  433SOL     OW 1972   0.351   1.801   4.577
  433SOL    HW1 1973   0.401   1.715   4.583
  433SOL    HW2 1974   0.416   1.878   4.574
  434SOL     OW 1975   1.795   1.066   4.597
  434SOL    HW1 1976   1.733   1.051   4.521
  434SOL    HW2 1977   1.743   1.077   4.682
  435SOL     OW 1978   0.321   0.943   3.966
  435SOL    HW1 1979   0.403   0.982   3.924
  435SOL    HW2 1980   0.294   0.861   3.917
  436SOL     OW 1981   1.458   0.735   4.452
  436SOL    HW1 1982   1.453   0.670   4.527
  436SOL    HW2 1983   1.538   0.794   4.465
  437SOL     OW 1984   1.111   1.776   3.961
  437SOL    HW1 1985   1.051   1.714   4.011
  437SOL    HW2 1986   1.142   1.732   3.876
  438SOL     OW 1987   1.632   1.377   3.805
  438SOL    HW1 1988   1.600   1.471   3.795
  438SOL    HW2 1989   1.556   1.314   3.793
  439SOL     OW 1990   0.464   1.743   4.047
  439SOL    HW1 1991   0.497   1.782   4.133
  439SOL    HW2 1992   0.540   1.736   3.982
  440SOL     OW 1993   1.400   0.107   4.150
  440SOL    HW1 1994   1.376   0.070   4.060
  440SOL    HW2 1995   1.499   0.123   4.154
  441SOL     OW 1996   0.249   1.785   4.965
  441SOL    HW1 1997   0.306   1.720   5.015
  441SOL    HW2 1998   0.233   1.752   4.872
  442SOL     OW 1999   0.940   1.698   4.628
  442SOL    HW1 2000   1.020   1.641   4.649
  442SOL    HW2 2001   0.891   1.658   4.551
  443SOL     OW 2002   0.382   0.700   4.204
  443SOL    HW1 2003   0.427   0.610   4.201
  443SOL    HW2 2004   0.288   0.689   4.237
  444SOL     OW 2005   0.614   0.122   3.841
  444SOL    HW1 2006   0.712   0.100   3.848
  444SOL    HW2 2007   0.583   0.105   3.748
  445SOL     OW 2008   0.803   1.402   4.648
  445SOL    HW1 2009   0.893   1.416   4.606
  445SOL    HW2 2010   0.732   1.404   4.577
  446SOL     OW 2011   0.922   0.503   4.623
  446SOL    HW1 2012   0.897   0.494   4.527
  446SOL    HW2 2013   0.970   0.421   4.654
  447SOL     OW 2014   0.539   0.064   4.236
  447SOL    HW1 2015   0.458   0.065   4.294
  447SOL    HW2 2016   0.542   0.147   4.181
  448SOL     OW 2017   1.434   1.188   3.765
  448SOL    HW1 2018   1.466   1.112   3.822
  448SOL    HW2 2019   1.342   1.215   3.795
  449SOL     OW 2020   0.297   0.035   3.895
  449SOL    HW1 2021   0.346   0.119   3.874
  449SOL    HW2 2022   0.359  -0.030   3.940
  450SOL     OW 2023   0.935   0.236   4.204
  450SOL    HW1 2024   0.887   0.277   4.126
  450SOL    HW2 2025   1.034   0.234   4.185
  451SOL     OW 2026   1.227   1.570   4.517
  451SOL    HW1 2027   1.248   1.644   4.452
  451SOL    HW2 2028   1.295   1.570   4.590
  452SOL     OW 2029   0.459   1.152   4.465
  452SOL    HW1 2030   0.388   1.125   4.530
  452SOL    HW2 2031   0.433   1.124   4.372
  453SOL     OW 2032   1.271   1.797   4.315
  453SOL    HW1 2033   1.315   1.861   4.251
  453SOL    HW2 2034   1.221   1.849   4.385
  454SOL     OW 2035   1.032   0.549   3.740
  454SOL    HW1 2036   0.991   0.631   3.701
  454SOL    HW2 2037   1.096   0.575   3.813
  455SOL     OW 2038   0.561   0.222   4.871
  455SOL    HW1 2039   0.599   0.138   4.908
  455SOL    HW2 2040   0.473   0.241   4.915
  456SOL     OW 2041   0.866   0.454   4.366
  456SOL    HW1 2042   0.834   0.526   4.304
  456SOL    HW2 2043   0.890   0.373   4.313
  457SOL     OW 2044   1.017   0.039   4.477
  457SOL    HW1 2045   0.945   0.044   4.408
  457SOL    HW2 2046   0.993  -0.030   4.546
  458SOL     OW 2047   1.429   1.173   4.591
  458SOL    HW1 2048   1.374   1.089   4.584
  458SOL    HW2 2049   1.455   1.202   4.499
  459SOL     OW 2050   1.466   0.590   4.716
  459SOL    HW1 2051   1.436   0.495   4.723
  459SOL    HW2 2052   1.539   0.606   4.782
  460SOL     OW 2053   1.857   0.833   4.101
  460SOL    HW1 2054   1.899   0.769   4.165
  460SOL    HW2 2055   1.819   0.782   4.023
  461SOL     OW 2056   0.488   1.385   3.898
  461SOL    HW1 2057   0.401   1.370   3.945
  461SOL    HW2 2058   0.471   1.411   3.803
  462SOL     OW 2059   1.664   1.280   4.381
  462SOL    HW1 2060   1.763   1.288   4.395
  462SOL    HW2 2061   1.619   1.364   4.412
  463SOL     OW 2062   1.390   0.575   3.802
  463SOL    HW1 2063   1.336   0.554   3.883
  463SOL    HW2 2064   1.481   0.534   3.811
  464SOL     OW 2065   0.527   0.256   4.052
  464SOL    HW1 2066   0.554   0.197   3.977
  464SOL    HW2 2067   0.527   0.351   4.021
  465SOL     OW 2068   1.111   1.195   4.824
  465SOL    HW1 2069   1.071   1.239   4.905
  465SOL    HW2 2070   1.070   1.232   4.741
  466SOL     OW 2071   1.638   1.099   4.803
  466SOL    HW1 2072   1.643   1.180   4.862
  466SOL    HW2 2073   1.552   1.101   4.752
  467SOL     OW 2074   0.705   1.050   4.092
  467SOL    HW1 2075   0.691   1.057   4.191
  467SOL    HW2 2076   0.789   0.999   4.074
  468SOL     OW 2077   0.410   0.813   4.975
  468SOL    HW1 2078   0.496   0.825   5.025
  468SOL    HW2 2079   0.368   0.726   5.002
  469SOL     OW 2080   1.274   0.386   4.986
  469SOL    HW1 2081   1.295   0.460   5.050
  469SOL    HW2 2082   1.185   0.403   4.943
  470SOL     OW 2083   0.367   1.100   4.225
  470SOL    HW1 2084   0.360   1.183   4.169
  470SOL    HW2 2085   0.371   1.020   4.165
  471SOL     OW 2086   0.566   0.537   4.589
  471SOL    HW1 2087   0.578   0.603   4.515
  471SOL    HW2 2088   0.612   0.571   4.672
  472SOL     OW 2089   1.252   1.348   4.112
  472SOL    HW1 2090   1.302   1.425   4.152
  472SOL    HW2 2091   1.157   1.350   4.144
  473SOL     OW 2092   1.272   1.445   4.866
  473SOL    HW1 2093   1.319   1.458   4.953
  473SOL    HW2 2094   1.206   1.371   4.875
  474SOL     OW 2095   1.582   0.639   4.196
  474SOL    HW1 2096   1.551   0.700   4.269
  474SOL    HW2 2097   1.632   0.691   4.127
  475SOL     OW 2098   0.354   1.510   5.053
  475SOL    HW1 2099   0.333   1.466   4.966
  475SOL    HW2 2100   0.451   1.536   5.056
  476SOL     OW 2101   0.573   0.870   4.753
  476SOL    HW1 2102   0.617   0.959   4.744
  476SOL    HW2 2103   0.510   0.870   4.830
  477SOL     OW 2104   1.360   0.862   4.769
  477SOL    HW1 2105   1.285   0.862   4.703
  477SOL    HW2 2106   1.397   0.770   4.778
  478SOL     OW 2107   1.209   0.525   3.999
  478SOL    HW1 2108   1.222   0.441   4.053
  478SOL    HW2 2109   1.180   0.599   4.059
  479SOL     OW 2110   0.307   0.213   4.955
  479SOL    HW1 2111   0.284   0.250   5.045
  479SOL    HW2 2112   0.277   0.118   4.949
  480SOL     OW 2113   0.037   1.310   5.006
  480SOL    HW1 2114   0.090   1.261   5.074
  480SOL    HW2 2115   0.059   1.408   5.011
  481SOL     OW 2116   0.732   0.634   4.788
  481SOL    HW1 2117   0.791   0.608   4.712
  481SOL    HW2 2118   0.704   0.730   4.777
  482SOL     OW 2119   0.307   0.063   4.342
  482SOL    HW1 2120   0.296   0.157   4.375
  482SOL    HW2 2121   0.302   0.000   4.419
  483SOL     OW 2122   1.622   0.367   4.098
  483SOL    HW1 2123   1.624   0.291   4.162
  483SOL    HW2 2124   1.574   0.444   4.138
  484SOL     OW 2125   1.023   0.766   4.690
  484SOL    HW1 2126   1.038   0.787   4.786
  484SOL    HW2 2127   0.993   0.671   4.681
  485SOL     OW 2128   1.540   0.274   3.849
  485SOL    HW1 2129   1.479   0.199   3.872
  485SOL    HW2 2130   1.562   0.326   3.932
  486SOL     OW 2131   1.303   0.838   3.766
  486SOL    HW1 2132   1.337   0.745   3.781
  486SOL    HW2 2133   1.321   0.865   3.671
  487SOL     OW 2134   1.068   1.333   4.573
  487SOL    HW1 2135   1.075   1.249   4.518
  487SOL    HW2 2136   1.130   1.402   4.537
  488SOL     OW 2137   0.319   0.810   4.673
  488SOL    HW1 2138   0.412   0.846   4.678
  488SOL    HW2 2139   0.313   0.725   4.725
  489SOL     OW 2140   0.339   0.509   4.730
  489SOL    HW1 2141   0.287   0.426   4.713
  489SOL    HW2 2142   0.416   0.514   4.666
  490SOL     OW 2143   1.160   0.207   5.201
  490SOL    HW1 2144   1.160   0.271   5.278
  490SOL    HW2 2145   1.188   0.255   5.118
  491SOL     OW 2146   0.008   1.326   3.924
  491SOL    HW1 2147  -0.085   1.347   3.893
  491SOL    HW2 2148   0.018   1.227   3.937
  492SOL     OW 2149   0.088   1.801   4.651
  492SOL    HW1 2150   0.046   1.715   4.624
  492SOL    HW2 2151   0.182   1.804   4.617
  493SOL     OW 2152   0.504   1.568   4.634
  493SOL    HW1 2153   0.570   1.642   4.643
  493SOL    HW2 2154   0.548   1.489   4.592
  494SOL     OW 2155   1.002   0.796   4.962
  494SOL    HW1 2156   1.043   0.764   5.048
  494SOL    HW2 2157   0.906   0.769   4.959
  495SOL     OW 2158   0.040   0.544   4.838
  495SOL    HW1 2159   0.125   0.511   4.797
  495SOL    HW2 2160   0.053   0.559   4.936
  496SOL     OW 2161   0.815   0.572   4.049
  496SOL    HW1 2162   0.822   0.483   4.003
  496SOL    HW2 2163   0.721   0.606   4.041
  497SOL     OW 2164   1.657   0.604   4.930
  497SOL    HW1 2165   1.619   0.535   4.992
  497SOL    HW2 2166   1.739   0.568   4.886
  498SOL     OW 2167   0.671   0.464   4.993
  498SOL    HW1 2168   0.637   0.375   4.963
  498SOL    HW2 2169   0.697   0.518   4.913
  499SOL     OW 2170   0.930   1.678   5.189
  499SOL    HW1 2171   0.906   1.660   5.094
  499SOL    HW2 2172   0.960   1.772   5.199
  500SOL     OW 2173   0.473   0.500   3.915
  500SOL    HW1 2174   0.534   0.580   3.919
  500SOL    HW2 2175   0.378   0.531   3.922
  501SOL     OW 2176   1.347   1.059   4.958
  501SOL    HW1 2177   1.371   0.996   4.884
  501SOL    HW2 2178   1.257   1.099   4.940
  502SOL     OW 2179   1.302   0.855   4.033
  502SOL    HW1 2180   1.216   0.824   4.075
  502SOL    HW2 2181   1.298   0.841   3.934
  503SOL     OW 2182   1.759   1.747   4.878
  503SOL    HW1 2183   1.820   1.777   4.805
  503SOL    HW2 2184   1.721   1.658   4.856
  504SOL     OW 2185   1.252   1.731   4.852
  504SOL    HW1 2186   1.336   1.736   4.798
  504SOL    HW2 2187   1.229   1.635   4.870
  505SOL     OW 2188   0.083   1.258   4.746
  505SOL    HW1 2189   0.078   1.257   4.846
  505SOL    HW2 2190   0.000   1.217   4.708
  506SOL     OW 2191   1.726   0.135   4.247
  506SOL    HW1 2192   1.799   0.118   4.180
  506SOL    HW2 2193   1.695   0.048   4.285
  507SOL     OW 2194   1.388   1.573   4.201
  507SOL    HW1 2195   1.455   1.585   4.127
  507SOL    HW2 2196   1.348   1.662   4.224
  508SOL     OW 2197   1.280   0.927   4.396
  508SOL    HW1 2198   1.340   0.846   4.398
  508SOL    HW2 2199   1.320   0.996   4.336
  509SOL     OW 2200   0.672   1.616   3.878
  509SOL    HW1 2201   0.681   1.626   3.779
  509SOL    HW2 2202   0.632   1.527   3.899
  510SOL     OW 2203   1.650   1.720   5.118
  510SOL    HW1 2204   1.703   1.730   5.034
  510SOL    HW2 2205   1.623   1.810   5.152
  511SOL     OW 2206   1.841   0.175   4.687
  511SOL    HW1 2207   1.880   0.090   4.651
  511SOL    HW2 2208   1.743   0.177   4.668
  512SOL     OW 2209   0.263   0.326   4.444
  512SOL    HW1 2210   0.184   0.377   4.410
  512SOL    HW2 2211   0.254   0.311   4.542
  513SOL     OW 2212   1.194   1.612   3.755
  513SOL    HW1 2213   1.200   1.519   3.792
  513SOL    HW2 2214   1.135   1.612   3.675
  514SOL     OW 2215   0.822   1.002   5.096
  514SOL    HW1 2216   0.862   1.001   5.004
  514SOL    HW2 2217   0.832   1.094   5.136
  515SOL     OW 2218   0.916   0.910   4.015
  515SOL    HW1 2219   0.979   0.948   3.947
  515SOL    HW2 2220   0.956   0.827   4.054
  516SOL     OW 2221   1.504   1.607   3.768
  516SOL    HW1 2222   1.412   1.644   3.775
  516SOL    HW2 2223   1.542   1.627   3.678
  517SOL     OW 2224   1.039   1.098   4.420
  517SOL    HW1 2225   0.969   1.051   4.474
  517SOL    HW2 2226   1.098   1.030   4.377
  518SOL     OW 2227   1.014   0.236   4.695
  518SOL    HW1 2228   1.006   0.200   4.602
  518SOL    HW2 2229   1.012   0.160   4.760
  519SOL     OW 2230   0.590   1.487   4.215
  519SOL    HW1 2231   0.632   1.429   4.145
  519SOL    HW2 2232   0.546   1.566   4.171
  520SOL     OW 2233   1.709   0.385   5.105
  520SOL    HW1 2234   1.782   0.454   5.109
  520SOL    HW2 2235   1.737   0.310   5.046
  521SOL     OW 2236   0.255   1.348   4.014
  521SOL    HW1 2237   0.159   1.349   3.987
  521SOL    HW2 2238   0.267   1.401   4.098
  522SOL     OW 2239   0.075   0.345   3.757
  522SOL    HW1 2240  -0.017   0.317   3.728
  522SOL    HW2 2241   0.106   0.422   3.701
  523SOL     OW 2242   0.072   0.166   4.042
  523SOL    HW1 2243   0.055   0.249   3.988
  523SOL    HW2 2244   0.162   0.129   4.020
  524SOL     OW 2245   1.183   1.335   3.843
  524SOL    HW1 2246   1.084   1.324   3.845
  524SOL    HW2 2247   1.217   1.350   3.936
  525SOL     OW 2248   1.493   1.767   4.683
  525SOL    HW1 2249   1.526   1.831   4.614
  525SOL    HW2 2250   1.559   1.761   4.758
  526SOL     OW 2251   1.450   1.220   5.357
  526SOL    HW1 2252   1.441   1.210   5.456
  526SOL    HW2 2253   1.546   1.213   5.331
  527SOL     OW 2254   1.674   0.883   4.978
  527SOL    HW1 2255   1.647   0.794   4.941
  527SOL    HW2 2256   1.675   0.951   4.905
  528SOL     OW 2257   1.225   0.325   4.173
  528SOL    HW1 2258   1.290   0.251   4.162
  528SOL    HW2 2259   1.245   0.375   4.257
  529SOL     OW 2260   0.594   0.745   4.376
  529SOL    HW1 2261   0.644   0.830   4.357
  529SOL    HW2 2262   0.506   0.747   4.328
  530SOL     OW 2263   1.730   0.934   5.241
  530SOL    HW1 2264   1.768   1.025   5.256
  530SOL    HW2 2265   1.722   0.917   5.142
  531SOL     OW 2266   0.859   1.374   3.740
  531SOL    HW1 2267   0.813   1.389   3.828
  531SOL    HW2 2268   0.903   1.459   3.710
  532SOL     OW 2269   0.661   1.790   4.677
  532SOL    HW1 2270   0.615   1.878   4.664
  532SOL    HW2 2271   0.760   1.802   4.670
  533SOL     OW 2272   0.859   0.956   4.585
  533SOL    HW1 2273   0.913   0.887   4.633
  533SOL    HW2 2274   0.827   1.025   4.651
  534SOL     OW 2275   1.083   0.984   3.811
  534SOL    HW1 2276   1.060   1.037   3.729
  534SOL    HW2 2277   1.164   0.928   3.792
  535SOL     OW 2278   1.861   1.569   4.575
  535SOL    HW1 2279   1.790   1.557   4.505
  535SOL    HW2 2280   1.862   1.490   4.635
  536SOL     OW 2281   0.079   1.240   4.377
  536SOL    HW1 2282   0.078   1.193   4.465
  536SOL    HW2 2283   0.161   1.212   4.326
  537SOL     OW 2284   1.824   0.192   4.951
  537SOL    HW1 2285   1.820   0.102   4.995
  537SOL    HW2 2286   1.827   0.181   4.852
  538SOL     OW 2287   0.428   0.424   4.244
  538SOL    HW1 2288   0.458   0.352   4.182
  538SOL    HW2 2289   0.389   0.384   4.327
  539SOL     OW 2290   1.705   1.487   4.828
  539SOL    HW1 2291   1.612   1.462   4.801
  539SOL    HW2 2292   1.731   1.437   4.910
  540SOL     OW 2293   0.812   1.586   4.411
  540SOL    HW1 2294   0.844   1.596   4.317
  540SOL    HW2 2295   0.733   1.524   4.413
  541SOL     OW 2296   1.424   0.214   4.836
  541SOL    HW1 2297   1.476   0.149   4.891
  541SOL    HW2 2298   1.375   0.277   4.897
  542SOL     OW 2299   1.001   0.034   4.878
  542SOL    HW1 2300   0.938  -0.038   4.847
  542SOL    HW2 2301   1.094  -0.002   4.878
  543SOL     OW 2302   0.770   1.330   4.025
  543SOL    HW1 2303   0.724   1.243   4.042
  543SOL    HW2 2304   0.861   1.327   4.066
  544SOL     OW 2305   1.352   0.052   3.892
  544SOL    HW1 2306   1.387   0.011   3.808
  544SOL    HW2 2307   1.262   0.014   3.912
  545SOL     OW 2308   1.300   0.453   4.415
  545SOL    HW1 2309   1.241   0.533   4.419
  545SOL    HW2 2310   1.315   0.418   4.508
  546SOL     OW 2311   1.593   0.221   4.606
  546SOL    HW1 2312   1.509   0.220   4.660
  546SOL    HW2 2313   1.595   0.304   4.550
  547SOL     OW 2314   0.039   1.077   4.024
  547SOL    HW1 2315   0.138   1.066   4.015
  547SOL    HW2 2316  -0.001   0.991   4.056
  548SOL     OW 2317   0.875   1.646   4.061
  548SOL    HW1 2318   0.798   1.611   4.007
  548SOL    HW2 2319   0.843   1.717   4.123
  549SOL     OW 2320   0.230   2.490   0.113
  549SOL    HW1 2321   0.137   2.488   0.150
  549SOL    HW2 2322   0.231   2.451   0.021
  550SOL     OW 2323   0.225   2.137   0.996
  550SOL    HW1 2324   0.260   2.120   1.088
  550SOL    HW2 2325   0.137   2.092   0.984
  551SOL     OW 2326   0.019   2.230   0.647
  551SOL    HW1 2327  -0.063   2.273   0.686
  551SOL    HW2 2328  -0.009   2.157   0.584
  552SOL     OW 2329   0.569   3.137   1.165
  552SOL    HW1 2330   0.476   3.130   1.128
  552SOL    HW2 2331   0.580   3.226   1.209
  553SOL     OW 2332   1.555   3.373   0.703
  553SOL    HW1 2333   1.498   3.357   0.784
  553SOL    HW2 2334   1.496   3.383   0.623
  554SOL     OW 2335   1.135   2.565   0.717
  554SOL    HW1 2336   1.192   2.643   0.692
  554SOL    HW2 2337   1.075   2.591   0.793
  555SOL     OW 2338   1.755   2.469   0.231
  555SOL    HW1 2339   1.743   2.456   0.132
  555SOL    HW2 2340   1.725   2.388   0.280
  556SOL     OW 2341   0.768   3.006   1.023
  556SOL    HW1 2342   0.690   3.023   1.083
  556SOL    HW2 2343   0.802   3.093   0.987
  557SOL     OW 2344   0.850   2.660   1.823
  557SOL    HW1 2345   0.846   2.736   1.888
  557SOL    HW2 2346   0.872   2.696   1.732
  558SOL     OW 2347   0.685   2.874   0.665
  558SOL    HW1 2348   0.754   2.858   0.735
  558SOL    HW2 2349   0.612   2.931   0.703
  559SOL     OW 2350   0.686   3.023   1.803
  559SOL    HW1 2351   0.746   3.102   1.817
  559SOL    HW2 2352   0.600   3.054   1.762
  560SOL     OW 2353   0.335   3.297   1.061
  560SOL    HW1 2354   0.257   3.266   1.008
  560SOL    HW2 2355   0.393   3.355   1.004
  561SOL     OW 2356   1.460   3.367   1.339
  561SOL    HW1 2357   1.484   3.461   1.365
  561SOL    HW2 2358   1.444   3.313   1.421
  562SOL     OW 2359   0.438   2.254   1.499
  562SOL    HW1 2360   0.520   2.198   1.508
  562SOL    HW2 2361   0.357   2.196   1.503
  563SOL     OW 2362   1.603   2.309   0.737
  563SOL    HW1 2363   1.529   2.355   0.687
  563SOL    HW2 2364   1.654   2.377   0.790
  564SOL     OW 2365   0.231   3.575   0.483
  564SOL    HW1 2366   0.265   3.652   0.537
  564SOL    HW2 2367   0.275   3.575   0.393
  565SOL     OW 2368   1.127   3.203   1.690
  565SOL    HW1 2369   1.174   3.203   1.778
  565SOL    HW2 2370   1.079   3.116   1.679
  566SOL     OW 2371   0.230   3.296   0.538
  566SOL    HW1 2372   0.204   3.392   0.538
  566SOL    HW2 2373   0.159   3.242   0.583
  567SOL     OW 2374   0.240   2.953   0.886
  567SOL    HW1 2375   0.254   2.869   0.938
  567SOL    HW2 2376   0.185   3.017   0.941
  568SOL     OW 2377   0.620   3.648   1.439
  568SOL    HW1 2378   0.528   3.631   1.474
  568SOL    HW2 2379   0.648   3.740   1.465
  569SOL     OW 2380   0.606   2.826   0.123
  569SOL    HW1 2381   0.613   2.910   0.069
  569SOL    HW2 2382   0.652   2.839   0.211
  570SOL     OW 2383   1.594   1.976   1.480
  570SOL    HW1 2384   1.576   2.043   1.408
  570SOL    HW2 2385   1.591   2.022   1.569
  571SOL     OW 2386   0.122   2.505   0.563
  571SOL    HW1 2387   0.077   2.417   0.580
  571SOL    HW2 2388   0.121   2.559   0.647
  572SOL     OW 2389   0.027   3.458   0.117
  572SOL    HW1 2390   0.008   3.362   0.138
  572SOL    HW2 2391  -0.006   3.516   0.192
  573SOL     OW 2392   1.689   2.784   0.612
  573SOL    HW1 2393   1.784   2.755   0.620
  573SOL    HW2 2394   1.681   2.849   0.537
  574SOL     OW 2395   1.641   2.970   0.432
  574SOL    HW1 2396   1.727   2.972   0.380
  574SOL    HW2 2397   1.655   3.017   0.520
  575SOL     OW 2398   0.113   2.599   1.597
  575SOL    HW1 2399   0.201   2.586   1.642
  575SOL    HW2 2400   0.100   2.696   1.575
  576SOL     OW 2401   0.613   3.227   0.726
  576SOL    HW1 2402   0.564   3.140   0.735
  576SOL    HW2 2403   0.590   3.270   0.639
  577SOL     OW 2404   1.293   3.090   1.423
  577SOL    HW1 2405   1.330   3.017   1.365
  577SOL    HW2 2406   1.345   3.095   1.508
  578SOL     OW 2407   0.809   1.866   0.502
  578SOL    HW1 2408   0.849   1.957   0.493
  578SOL    HW2 2409   0.709   1.874   0.508
  579SOL     OW 2410   0.197   2.838   1.264
  579SOL    HW1 2411   0.286   2.793   1.250
  579SOL    HW2 2412   0.124   2.773   1.245
  580SOL     OW 2413   1.525   2.861   0.190
  580SOL    HW1 2414   1.462   2.785   0.203
  580SOL    HW2 2415   1.573   2.879   0.276
  581SOL     OW 2416   1.187   3.654   1.616
  581SOL    HW1 2417   1.211   3.714   1.540
  581SOL    HW2 2418   1.194   3.559   1.586
  582SOL     OW 2419   1.466   3.279   0.953
  582SOL    HW1 2420   1.407   3.285   1.033
  582SOL    HW2 2421   1.451   3.191   0.907
  583SOL     OW 2422   1.667   3.576   0.572
  583SOL    HW1 2423   1.626   3.553   0.484
  583SOL    HW2 2424   1.649   3.502   0.637
  584SOL     OW 2425   0.598   2.591   0.270
  584SOL    HW1 2426   0.622   2.660   0.202
  584SOL    HW2 2427   0.520   2.624   0.324
  585SOL     OW 2428   1.281   2.207   0.944
  585SOL    HW1 2429   1.195   2.157   0.931
  585SOL    HW2 2430   1.343   2.153   1.000
  586SOL     OW 2431   0.807   2.467   1.465
  586SOL    HW1 2432   0.760   2.464   1.554
  586SOL    HW2 2433   0.756   2.412   1.399
  587SOL     OW 2434   1.394   2.331   1.674
  587SOL    HW1 2435   1.374   2.374   1.762
  587SOL    HW2 2436   1.472   2.269   1.683
  588SOL     OW 2437   0.973   2.752   1.572
  588SOL    HW1 2438   1.019   2.668   1.543
  588SOL    HW2 2439   0.917   2.786   1.497
  589SOL     OW 2440   0.991   2.272   1.242
  589SOL    HW1 2441   0.914   2.306   1.296
  589SOL    HW2 2442   0.957   2.221   1.163
  590SOL     OW 2443   1.041   2.563   0.429
  590SOL    HW1 2444   1.067   2.559   0.525
  590SOL    HW2 2445   0.956   2.512   0.415
  591SOL     OW 2446   0.076   2.673   0.789
  591SOL    HW1 2447   0.175   2.661   0.798
  591SOL    HW2 2448   0.052   2.768   0.810
  592SOL     OW 2449   0.130   3.683   1.571
  592SOL    HW1 2450   0.120   3.668   1.670
  592SOL    HW2 2451   0.044   3.719   1.535
  593SOL     OW 2452   0.865   2.210   0.195
  593SOL    HW1 2453   0.924   2.273   0.146
  593SOL    HW2 2454   0.884   2.116   0.166
  594SOL     OW 2455   1.719   2.447   1.831
  594SOL    HW1 2456   1.693   2.536   1.795
  594SOL    HW2 2457   1.717   2.379   1.758
  595SOL     OW 2458   1.362   3.006   0.545
  595SOL    HW1 2459   1.445   2.977   0.497
  595SOL    HW2 2460   1.313   3.073   0.489
  596SOL     OW 2461   0.550   2.058   0.885
  596SOL    HW1 2462   0.545   2.053   0.985
  596SOL    HW2 2463   0.552   2.154   0.856
  597SOL     OW 2464   1.008   3.318   0.477
  597SOL    HW1 2465   0.962   3.390   0.425
  597SOL    HW2 2466   1.004   3.338   0.575
  598SOL     OW 2467   0.351   3.663   0.853
  598SOL    HW1 2468   0.401   3.577   0.859
  598SOL    HW2 2469   0.416   3.740   0.850
  599SOL     OW 2470   1.795   2.928   0.873
  599SOL    HW1 2471   1.733   2.913   0.797
  599SOL    HW2 2472   1.743   2.939   0.958
  600SOL     OW 2473   1.227   3.412   1.506
  600SOL    HW1 2474   1.233   3.335   1.570
  600SOL    HW2 2475   1.175   3.386   1.426
  601SOL     OW 2476   0.321   2.805   0.242
  601SOL    HW1 2477   0.403   2.844   0.200
  601SOL    HW2 2478   0.294   2.723   0.193
  602SOL     OW 2479   1.458   2.597   0.728
  602SOL    HW1 2480   1.453   2.532   0.803
  602SOL    HW2 2481   1.538   2.656   0.741
  603SOL     OW 2482   0.461   3.128   1.727
  603SOL    HW1 2483   0.411   3.129   1.641
  603SOL    HW2 2484   0.398   3.110   1.803
  604SOL     OW 2485   1.111   3.638   0.237
  604SOL    HW1 2486   1.051   3.576   0.287
  604SOL    HW2 2487   1.142   3.594   0.152
  605SOL     OW 2488   0.202   2.147   1.498
  605SOL    HW1 2489   0.122   2.207   1.485
  605SOL    HW2 2490   0.192   2.098   1.584
  606SOL     OW 2491   1.632   3.239   0.081
  606SOL    HW1 2492   1.600   3.333   0.071
  606SOL    HW2 2493   1.556   3.176   0.069
  607SOL     OW 2494   0.464   3.605   0.323
  607SOL    HW1 2495   0.497   3.644   0.409
  607SOL    HW2 2496   0.540   3.598   0.258
  608SOL     OW 2497   1.400   1.969   0.426
  608SOL    HW1 2498   1.376   1.932   0.336
  608SOL    HW2 2499   1.499   1.985   0.430
  609SOL     OW 2500   0.249   3.647   1.241
  609SOL    HW1 2501   0.306   3.582   1.291
  609SOL    HW2 2502   0.233   3.614   1.148
  610SOL     OW 2503   0.940   3.560   0.904
  610SOL    HW1 2504   1.020   3.503   0.925
  610SOL    HW2 2505   0.891   3.520   0.827
  611SOL     OW 2506   0.382   2.562   0.480
  611SOL    HW1 2507   0.427   2.472   0.477
  611SOL    HW2 2508   0.288   2.551   0.513
  612SOL     OW 2509   1.547   2.084   1.729
  612SOL    HW1 2510   1.542   2.121   1.821
  612SOL    HW2 2511   1.475   2.015   1.717
  613SOL     OW 2512   0.781   2.126   1.749
  613SOL    HW1 2513   0.848   2.065   1.792
  613SOL    HW2 2514   0.708   2.145   1.814
  614SOL     OW 2515   0.888   3.376   1.195
  614SOL    HW1 2516   0.865   3.351   1.101
  614SOL    HW2 2517   0.949   3.307   1.234
  615SOL     OW 2518   1.351   2.452   1.433
  615SOL    HW1 2519   1.379   2.409   1.518
  615SOL    HW2 2520   1.376   2.548   1.434
  616SOL     OW 2521   0.803   3.264   0.924
  616SOL    HW1 2522   0.893   3.278   0.882
  616SOL    HW2 2523   0.732   3.266   0.853
  617SOL     OW 2524   0.922   2.365   0.899
  617SOL    HW1 2525   0.897   2.356   0.803
  617SOL    HW2 2526   0.970   2.283   0.930
  618SOL     OW 2527   0.539   1.926   0.512
  618SOL    HW1 2528   0.458   1.927   0.570
  618SOL    HW2 2529   0.542   2.009   0.457
  619SOL     OW 2530   1.434   3.050   0.041
  619SOL    HW1 2531   1.466   2.974   0.098
  619SOL    HW2 2532   1.342   3.077   0.071
  620SOL     OW 2533   0.297   1.897   0.171
  620SOL    HW1 2534   0.346   1.981   0.150
  620SOL    HW2 2535   0.359   1.832   0.216
  621SOL     OW 2536   0.935   2.098   0.480
  621SOL    HW1 2537   0.887   2.139   0.402
  621SOL    HW2 2538   1.034   2.096   0.461
  622SOL     OW 2539   1.076   2.545   1.464
  622SOL    HW1 2540   0.996   2.484   1.467
  622SOL    HW2 2541   1.157   2.492   1.440
  623SOL     OW 2542   1.227   3.432   0.793
  623SOL    HW1 2543   1.248   3.506   0.728
  623SOL    HW2 2544   1.295   3.432   0.866
  624SOL     OW 2545   0.459   3.014   0.741
  624SOL    HW1 2546   0.388   2.987   0.806
  624SOL    HW2 2547   0.433   2.986   0.648
  625SOL     OW 2548   1.032   2.411   0.016
  625SOL    HW1 2549   0.991   2.493  -0.023
  625SOL    HW2 2550   1.096   2.437   0.089
  626SOL     OW 2551   0.078   2.418   1.386
  626SOL    HW1 2552   0.170   2.417   1.345
  626SOL    HW2 2553   0.072   2.492   1.453
  627SOL     OW 2554   0.561   2.084   1.147
  627SOL    HW1 2555   0.599   2.000   1.184
  627SOL    HW2 2556   0.473   2.103   1.191
  628SOL     OW 2557   0.866   2.316   0.642
  628SOL    HW1 2558   0.834   2.388   0.580
  628SOL    HW2 2559   0.890   2.235   0.589
  629SOL     OW 2560   1.017   1.901   0.753
  629SOL    HW1 2561   0.945   1.906   0.684
  629SOL    HW2 2562   0.993   1.832   0.822
  630SOL     OW 2563   1.429   3.035   0.867
  630SOL    HW1 2564   1.374   2.951   0.860
  630SOL    HW2 2565   1.455   3.064   0.775
  631SOL     OW 2566   1.466   2.452   0.992
  631SOL    HW1 2567   1.436   2.357   0.999
  631SOL    HW2 2568   1.539   2.468   1.058
  632SOL     OW 2569   1.857   2.695   0.377
  632SOL    HW1 2570   1.899   2.631   0.441
  632SOL    HW2 2571   1.819   2.644   0.299
  633SOL     OW 2572   0.488   3.247   0.174
  633SOL    HW1 2573   0.401   3.232   0.221
  633SOL    HW2 2574   0.471   3.273   0.079
  634SOL     OW 2575   1.664   3.142   0.657
  634SOL    HW1 2576   1.763   3.150   0.671
  634SOL    HW2 2577   1.619   3.226   0.688
  635SOL     OW 2578   1.390   2.437   0.078
  635SOL    HW1 2579   1.336   2.416   0.159
  635SOL    HW2 2580   1.481   2.396   0.087
  636SOL     OW 2581   0.527   2.118   0.328
  636SOL    HW1 2582   0.554   2.059   0.253
  636SOL    HW2 2583   0.527   2.213   0.297
  637SOL     OW 2584   1.754   3.085   1.588
  637SOL    HW1 2585   1.845   3.046   1.575
  637SOL    HW2 2586   1.762   3.181   1.612
  638SOL     OW 2587   1.064   3.209   1.340
  638SOL    HW1 2588   0.984   3.186   1.395
  638SOL    HW2 2589   1.147   3.183   1.389
  639SOL     OW 2590   1.592   3.491   1.625
  639SOL    HW1 2591   1.619   3.525   1.535
  639SOL    HW2 2592   1.671   3.453   1.671
  640SOL     OW 2593   1.111   3.057   1.100
  640SOL    HW1 2594   1.071   3.101   1.181
  640SOL    HW2 2595   1.070   3.094   1.017
  641SOL     OW 2596   1.638   2.961   1.079
  641SOL    HW1 2597   1.643   3.042   1.138
  641SOL    HW2 2598   1.552   2.963   1.028
  642SOL     OW 2599   0.915   1.951   1.402
  642SOL    HW1 2600   0.940   1.931   1.307
  642SOL    HW2 2601   0.987   2.007   1.444
  643SOL     OW 2602   0.980   2.978   1.719
  643SOL    HW1 2603   0.881   2.984   1.729
  643SOL    HW2 2604   1.003   2.898   1.663
  644SOL     OW 2605   0.705   2.912   0.368
  644SOL    HW1 2606   0.691   2.919   0.467
  644SOL    HW2 2607   0.789   2.861   0.350
  645SOL     OW 2608   0.410   2.675   1.251
  645SOL    HW1 2609   0.496   2.687   1.301
  645SOL    HW2 2610   0.368   2.588   1.278
  646SOL     OW 2611   1.274   2.248   1.262
  646SOL    HW1 2612   1.295   2.322   1.326
  646SOL    HW2 2613   1.185   2.265   1.219
  647SOL     OW 2614   0.064   3.426   1.331
  647SOL    HW1 2615   0.018   3.508   1.297
  647SOL    HW2 2616   0.162   3.445   1.340
  648SOL     OW 2617   0.367   2.962   0.501
  648SOL    HW1 2618   0.360   3.045   0.445
  648SOL    HW2 2619   0.371   2.882   0.441
  649SOL     OW 2620   0.566   2.399   0.865
  649SOL    HW1 2621   0.578   2.465   0.791
  649SOL    HW2 2622   0.612   2.433   0.948
  650SOL     OW 2623   1.252   3.210   0.388
  650SOL    HW1 2624   1.302   3.287   0.428
  650SOL    HW2 2625   1.157   3.212   0.420
  651SOL     OW 2626   1.272   3.307   1.142
  651SOL    HW1 2627   1.319   3.320   1.229
  651SOL    HW2 2628   1.206   3.233   1.151
  652SOL     OW 2629   1.582   2.501   0.472
  652SOL    HW1 2630   1.551   2.562   0.545
  652SOL    HW2 2631   1.632   2.553   0.403
  653SOL     OW 2632   0.354   3.372   1.329
  653SOL    HW1 2633   0.333   3.328   1.242
  653SOL    HW2 2634   0.451   3.398   1.332
  654SOL     OW 2635   0.402   2.613   1.598
  654SOL    HW1 2636   0.470   2.668   1.551
  654SOL    HW2 2637   0.442   2.525   1.625
  655SOL     OW 2638   1.587   2.641   1.670
  655SOL    HW1 2639   1.495   2.679   1.665
  655SOL    HW2 2640   1.647   2.688   1.605
  656SOL     OW 2641   1.013   1.967   1.770
  656SOL    HW1 2642   1.019   2.052   1.718
  656SOL    HW2 2643   1.045   1.891   1.713
  657SOL     OW 2644   0.573   2.732   1.029
  657SOL    HW1 2645   0.617   2.821   1.020
  657SOL    HW2 2646   0.510   2.732   1.106
  658SOL     OW 2647   1.360   2.724   1.045
  658SOL    HW1 2648   1.285   2.724   0.979
  658SOL    HW2 2649   1.397   2.632   1.054
  659SOL     OW 2650   1.209   2.387   0.275
  659SOL    HW1 2651   1.222   2.303   0.329
  659SOL    HW2 2652   1.180   2.461   0.335
  660SOL     OW 2653   0.307   2.075   1.231
  660SOL    HW1 2654   0.284   2.112   1.321
  660SOL    HW2 2655   0.277   1.980   1.225
  661SOL     OW 2656   0.037   3.172   1.282
  661SOL    HW1 2657   0.090   3.123   1.350
  661SOL    HW2 2658   0.059   3.270   1.287
  662SOL     OW 2659   0.732   2.496   1.064
  662SOL    HW1 2660   0.791   2.470   0.988
  662SOL    HW2 2661   0.704   2.592   1.053
  663SOL     OW 2662   1.728   2.797   1.854
  663SOL    HW1 2663   1.682   2.790   1.765
  663SOL    HW2 2664   1.666   2.841   1.920
  664SOL     OW 2665   0.307   1.925   0.618
  664SOL    HW1 2666   0.296   2.019   0.651
  664SOL    HW2 2667   0.302   1.862   0.695
  665SOL     OW 2668   1.622   2.229   0.374
  665SOL    HW1 2669   1.624   2.153   0.438
  665SOL    HW2 2670   1.574   2.306   0.414
  666SOL     OW 2671   1.023   2.628   0.966
  666SOL    HW1 2672   1.038   2.649   1.062
  666SOL    HW2 2673   0.993   2.533   0.957
  667SOL     OW 2674   0.980   3.435   1.700
  667SOL    HW1 2675   0.960   3.479   1.612
  667SOL    HW2 2676   1.019   3.344   1.684
  668SOL     OW 2677   1.859   3.380   1.605
  668SOL    HW1 2678   1.873   3.407   1.510
  668SOL    HW2 2679   1.942   3.402   1.658
  669SOL     OW 2680   0.350   2.760   1.804
  669SOL    HW1 2681   0.426   2.804   1.852
  669SOL    HW2 2682   0.385   2.713   1.722
  670SOL     OW 2683   1.540   2.136   0.125
  670SOL    HW1 2684   1.479   2.061   0.148
  670SOL    HW2 2685   1.562   2.188   0.208
  671SOL     OW 2686   1.303   2.700   0.042
  671SOL    HW1 2687   1.337   2.607   0.057
  671SOL    HW2 2688   1.321   2.727  -0.053
  672SOL     OW 2689   1.068   3.195   0.849
  672SOL    HW1 2690   1.075   3.111   0.794
  672SOL    HW2 2691   1.130   3.264   0.813
  673SOL     OW 2692   0.319   2.672   0.949
  673SOL    HW1 2693   0.412   2.708   0.954
  673SOL    HW2 2694   0.313   2.587   1.001
  674SOL     OW 2695   0.339   2.371   1.006
  674SOL    HW1 2696   0.287   2.288   0.989
  674SOL    HW2 2697   0.416   2.376   0.942
  675SOL     OW 2698   1.138   2.242   1.678
  675SOL    HW1 2699   1.093   2.305   1.742
  675SOL    HW2 2700   1.231   2.273   1.661
  676SOL     OW 2701   1.160   2.069   1.477
  676SOL    HW1 2702   1.160   2.133   1.554
  676SOL    HW2 2703   1.188   2.117   1.394
  677SOL     OW 2704   0.008   3.188   0.200
  677SOL    HW1 2705  -0.085   3.209   0.169
  677SOL    HW2 2706   0.018   3.089   0.213
  678SOL     OW 2707   0.088   3.663   0.927
  678SOL    HW1 2708   0.046   3.577   0.900
  678SOL    HW2 2709   0.182   3.666   0.893
  679SOL     OW 2710   0.504   3.430   0.910
  679SOL    HW1 2711   0.570   3.504   0.919
  679SOL    HW2 2712   0.548   3.351   0.868
  680SOL     OW 2713   1.002   2.658   1.238
  680SOL    HW1 2714   1.043   2.626   1.324
  680SOL    HW2 2715   0.906   2.631   1.235
  681SOL     OW 2716   0.040   2.406   1.114
  681SOL    HW1 2717   0.125   2.373   1.073
  681SOL    HW2 2718   0.053   2.421   1.212
  682SOL     OW 2719   0.189   2.382   1.722
  682SOL    HW1 2720   0.248   2.342   1.652
  682SOL    HW2 2721   0.131   2.453   1.681
  683SOL     OW 2722   1.369   2.812   1.660
  683SOL    HW1 2723   1.408   2.901   1.680
  683SOL    HW2 2724   1.379   2.792   1.563
  684SOL     OW 2725   0.815   2.434   0.325
  684SOL    HW1 2726   0.822   2.345   0.279
  684SOL    HW2 2727   0.721   2.468   0.317
  685SOL     OW 2728   1.657   2.466   1.206
  685SOL    HW1 2729   1.619   2.397   1.268
  685SOL    HW2 2730   1.739   2.430   1.162
  686SOL     OW 2731   0.252   3.426   1.744
  686SOL    HW1 2732   0.222   3.483   1.820
  686SOL    HW2 2733   0.245   3.329   1.770
  687SOL     OW 2734   0.671   2.326   1.269
  687SOL    HW1 2735   0.637   2.237   1.239
  687SOL    HW2 2736   0.697   2.380   1.189
  688SOL     OW 2737   0.930   3.540   1.465
  688SOL    HW1 2738   0.906   3.522   1.370
  688SOL    HW2 2739   0.960   3.634   1.475
  689SOL     OW 2740   0.473   2.362   0.191
  689SOL    HW1 2741   0.534   2.442   0.195
  689SOL    HW2 2742   0.378   2.393   0.198
  690SOL     OW 2743   0.159   2.999   1.466
  690SOL    HW1 2744   0.181   2.938   1.542
  690SOL    HW2 2745   0.169   2.950   1.380
  691SOL     OW 2746   1.347   2.921   1.234
  691SOL    HW1 2747   1.371   2.858   1.160
  691SOL    HW2 2748   1.257   2.961   1.216
  692SOL     OW 2749   1.302   2.717   0.309
  692SOL    HW1 2750   1.216   2.686   0.351
  692SOL    HW2 2751   1.298   2.703   0.210
  693SOL     OW 2752   1.759   3.609   1.154
  693SOL    HW1 2753   1.820   3.639   1.081
  693SOL    HW2 2754   1.721   3.520   1.132
  694SOL     OW 2755   1.252   3.593   1.128
  694SOL    HW1 2756   1.336   3.598   1.074
  694SOL    HW2 2757   1.229   3.497   1.146
  695SOL     OW 2758   0.083   3.120   1.022
  695SOL    HW1 2759   0.078   3.119   1.122
  695SOL    HW2 2760   0.000   3.079   0.984
  696SOL     OW 2761   0.688   3.524   1.716
  696SOL    HW1 2762   0.632   3.605   1.725
  696SOL    HW2 2763   0.740   3.528   1.630
  697SOL     OW 2764   0.903   1.948   0.133
  697SOL    HW1 2765   0.954   1.949   0.047
  697SOL    HW2 2766   0.959   1.906   0.204
  698SOL     OW 2767   1.726   1.997   0.523
  698SOL    HW1 2768   1.799   1.980   0.456
  698SOL    HW2 2769   1.695   1.910   0.561
  699SOL     OW 2770   0.130   3.656   1.851
  699SOL    HW1 2771   0.089   3.582   1.904
  699SOL    HW2 2772   0.194   3.707   1.909
  700SOL     OW 2773   1.280   2.789   0.672
  700SOL    HW1 2774   1.340   2.708   0.674
  700SOL    HW2 2775   1.320   2.858   0.612
  701SOL     OW 2776   0.830   3.135   1.422
  701SOL    HW1 2777   0.825   3.168   1.517
  701SOL    HW2 2778   0.744   3.154   1.376
  702SOL     OW 2779   0.672   3.478   0.154
  702SOL    HW1 2780   0.681   3.488   0.055
  702SOL    HW2 2781   0.632   3.389   0.175
  703SOL     OW 2782   1.650   3.582   1.394
  703SOL    HW1 2783   1.703   3.592   1.310
  703SOL    HW2 2784   1.623   3.672   1.428
  704SOL     OW 2785   1.841   2.037   0.963
  704SOL    HW1 2786   1.880   1.952   0.927
  704SOL    HW2 2787   1.743   2.039   0.944
  705SOL     OW 2788   0.263   2.188   0.720
  705SOL    HW1 2789   0.184   2.239   0.686
  705SOL    HW2 2790   0.254   2.173   0.818
  706SOL     OW 2791   1.194   3.474   0.031
  706SOL    HW1 2792   1.200   3.381   0.068
  706SOL    HW2 2793   1.135   3.474  -0.049
  707SOL     OW 2794   0.822   2.864   1.372
  707SOL    HW1 2795   0.862   2.863   1.280
  707SOL    HW2 2796   0.832   2.956   1.412
  708SOL     OW 2797   0.916   2.772   0.291
  708SOL    HW1 2798   0.979   2.810   0.223
  708SOL    HW2 2799   0.956   2.689   0.330
  709SOL     OW 2800   1.504   3.469   0.044
  709SOL    HW1 2801   1.412   3.506   0.051
  709SOL    HW2 2802   1.542   3.489  -0.046
  710SOL     OW 2803   0.372   3.150   1.490
  710SOL    HW1 2804   0.359   3.243   1.456
  710SOL    HW2 2805   0.288   3.098   1.477
  711SOL     OW 2806   1.614   3.154   1.289
  711SOL    HW1 2807   1.674   3.157   1.369
  711SOL    HW2 2808   1.539   3.218   1.302
  712SOL     OW 2809   1.039   2.960   0.696
  712SOL    HW1 2810   0.969   2.913   0.750
  712SOL    HW2 2811   1.098   2.892   0.653
  713SOL     OW 2812   1.014   2.098   0.971
  713SOL    HW1 2813   1.006   2.062   0.878
  713SOL    HW2 2814   1.012   2.022   1.036
  714SOL     OW 2815   0.590   3.349   0.491
  714SOL    HW1 2816   0.632   3.291   0.421
  714SOL    HW2 2817   0.546   3.428   0.447
  715SOL     OW 2818   1.709   2.247   1.381
  715SOL    HW1 2819   1.782   2.316   1.385
  715SOL    HW2 2820   1.737   2.172   1.322
  716SOL     OW 2821   0.255   3.210   0.290
  716SOL    HW1 2822   0.159   3.211   0.263
  716SOL    HW2 2823   0.267   3.263   0.374
  717SOL     OW 2824   0.105   2.875   1.726
  717SOL    HW1 2825   0.028   2.842   1.780
  717SOL    HW2 2826   0.190   2.845   1.768
  718SOL     OW 2827   0.672   2.065   1.489
  718SOL    HW1 2828   0.762   2.049   1.449
  718SOL    HW2 2829   0.680   2.070   1.588
  719SOL     OW 2830   0.075   2.207   0.033
  719SOL    HW1 2831  -0.017   2.179   0.004
  719SOL    HW2 2832   0.106   2.284  -0.023
  720SOL     OW 2833   1.440   2.718   1.398
  720SOL    HW1 2834   1.383   2.770   1.335
  720SOL    HW2 2835   1.536   2.730   1.374
  721SOL     OW 2836   0.072   2.028   0.318
  721SOL    HW1 2837   0.055   2.111   0.264
  721SOL    HW2 2838   0.162   1.991   0.296
  722SOL     OW 2839   1.183   3.197   0.119
  722SOL    HW1 2840   1.084   3.186   0.121
  722SOL    HW2 2841   1.217   3.212   0.212
  723SOL     OW 2842   0.613   2.704   1.431
  723SOL    HW1 2843   0.669   2.785   1.414
  723SOL    HW2 2844   0.672   2.624   1.434
  724SOL     OW 2845   1.493   3.629   0.959
  724SOL    HW1 2846   1.526   3.693   0.890
  724SOL    HW2 2847   1.559   3.623   1.034
  725SOL     OW 2848   0.716   2.427   1.708
  725SOL    HW1 2849   0.735   2.492   1.782
  725SOL    HW2 2850   0.776   2.347   1.717
  726SOL     OW 2851   1.450   3.082   1.633
  726SOL    HW1 2852   1.441   3.072   1.732
  726SOL    HW2 2853   1.546   3.075   1.607
  727SOL     OW 2854   0.390   3.603   1.560
  727SOL    HW1 2855   0.299   3.644   1.558
  727SOL    HW2 2856   0.383   3.509   1.592
  728SOL     OW 2857   1.674   2.745   1.254
  728SOL    HW1 2858   1.647   2.656   1.217
  728SOL    HW2 2859   1.675   2.813   1.181
  729SOL     OW 2860   1.225   2.187   0.449
  729SOL    HW1 2861   1.290   2.113   0.438
  729SOL    HW2 2862   1.245   2.237   0.533
  730SOL     OW 2863   0.594   2.607   0.652
  730SOL    HW1 2864   0.644   2.692   0.633
  730SOL    HW2 2865   0.506   2.609   0.604
  731SOL     OW 2866   1.777   2.204   1.642
  731SOL    HW1 2867   1.760   2.235   1.548
  731SOL    HW2 2868   1.693   2.167   1.680
  732SOL     OW 2869   1.730   2.796   1.517
  732SOL    HW1 2870   1.768   2.887   1.532
  732SOL    HW2 2871   1.722   2.779   1.418
  733SOL     OW 2872   0.859   3.236   0.016
  733SOL    HW1 2873   0.813   3.251   0.104
  733SOL    HW2 2874   0.903   3.321  -0.014
  734SOL     OW 2875   0.661   3.652   0.953
  734SOL    HW1 2876   0.615   3.740   0.940
  734SOL    HW2 2877   0.760   3.664   0.946
  735SOL     OW 2878   0.859   2.818   0.861
  735SOL    HW1 2879   0.913   2.749   0.909
  735SOL    HW2 2880   0.827   2.887   0.927
  736SOL     OW 2881   1.083   2.846   0.087
  736SOL    HW1 2882   1.060   2.899   0.005
  736SOL    HW2 2883   1.164   2.790   0.068
  737SOL     OW 2884   1.861   3.431   0.851
  737SOL    HW1 2885   1.790   3.419   0.781
  737SOL    HW2 2886   1.862   3.352   0.911
  738SOL     OW 2887   0.221   3.176   1.844
  738SOL    HW1 2888   0.156   3.103   1.823
  738SOL    HW2 2889   0.225   3.190   1.942
  739SOL     OW 2890   0.079   3.102   0.653
  739SOL    HW1 2891   0.078   3.055   0.741
  739SOL    HW2 2892   0.161   3.074   0.602
  740SOL     OW 2893   0.672   3.253   1.624
  740SOL    HW1 2894   0.594   3.203   1.662
  740SOL    HW2 2895   0.669   3.348   1.655
  741SOL     OW 2896   1.824   2.054   1.227
  741SOL    HW1 2897   1.820   1.964   1.271
  741SOL    HW2 2898   1.827   2.043   1.128
  742SOL     OW 2899   0.428   2.286   0.520
  742SOL    HW1 2900   0.458   2.214   0.458
  742SOL    HW2 2901   0.389   2.246   0.603
  743SOL     OW 2902   1.705   3.349   1.104
  743SOL    HW1 2903   1.612   3.324   1.077
  743SOL    HW2 2904   1.731   3.299   1.186
  744SOL     OW 2905   0.317   2.409   1.280
  744SOL    HW1 2906   0.355   2.350   1.352
  744SOL    HW2 2907   0.357   2.383   1.192
  745SOL     OW 2908   0.812   3.448   0.687
  745SOL    HW1 2909   0.844   3.458   0.593
  745SOL    HW2 2910   0.733   3.386   0.689
  746SOL     OW 2911   1.424   2.076   1.112
  746SOL    HW1 2912   1.476   2.011   1.167
  746SOL    HW2 2913   1.375   2.139   1.173
  747SOL     OW 2914   1.001   1.896   1.154
  747SOL    HW1 2915   0.938   1.824   1.123
  747SOL    HW2 2916   1.094   1.860   1.154
  748SOL     OW 2917   0.770   3.192   0.301
  748SOL    HW1 2918   0.724   3.105   0.318
  748SOL    HW2 2919   0.861   3.189   0.342
  749SOL     OW 2920   0.618   3.429   1.284
  749SOL    HW1 2921   0.613   3.511   1.341
  749SOL    HW2 2922   0.707   3.426   1.239
  750SOL     OW 2923   1.352   1.914   0.168
  750SOL    HW1 2924   1.387   1.873   0.084
  750SOL    HW2 2925   1.262   1.876   0.188
  751SOL     OW 2926   1.300   2.315   0.691
  751SOL    HW1 2927   1.241   2.395   0.695
  751SOL    HW2 2928   1.315   2.280   0.784
  752SOL     OW 2929   1.593   2.083   0.882
  752SOL    HW1 2930   1.509   2.082   0.936
  752SOL    HW2 2931   1.595   2.166   0.826
  753SOL     OW 2932   0.039   2.939   0.300
  753SOL    HW1 2933   0.138   2.928   0.291
  753SOL    HW2 2934  -0.001   2.853   0.332
  754SOL     OW 2935   0.875   3.508   0.337
  754SOL    HW1 2936   0.798   3.473   0.283
  754SOL    HW2 2937   0.843   3.579   0.399
  755SOL     OW 2938   0.225   2.137   2.858
  755SOL    HW1 2939   0.260   2.120   2.950
  755SOL    HW2 2940   0.137   2.092   2.846
  756SOL     OW 2941   0.019   2.230   2.509
  756SOL    HW1 2942  -0.063   2.273   2.548
  756SOL    HW2 2943  -0.009   2.157   2.446
  757SOL     OW 2944   0.569   3.137   3.027
  757SOL    HW1 2945   0.476   3.130   2.990
  757SOL    HW2 2946   0.580   3.226   3.071
  758SOL     OW 2947   1.555   3.373   2.565
  758SOL    HW1 2948   1.498   3.357   2.646
  758SOL    HW2 2949   1.496   3.383   2.485
  759SOL     OW 2950   1.135   2.565   2.579
  759SOL    HW1 2951   1.192   2.643   2.554
  759SOL    HW2 2952   1.075   2.591   2.655
  760SOL     OW 2953   1.755   2.469   2.093
  760SOL    HW1 2954   1.743   2.456   1.994
  760SOL    HW2 2955   1.725   2.388   2.142
  761SOL     OW 2956   0.768   3.006   2.885
  761SOL    HW1 2957   0.690   3.023   2.945
  761SOL    HW2 2958   0.802   3.093   2.849
  762SOL     OW 2959   0.850   2.660   3.685
  762SOL    HW1 2960   0.846   2.736   3.750
  762SOL    HW2 2961   0.872   2.696   3.594
  763SOL     OW 2962   0.685   2.874   2.527
  763SOL    HW1 2963   0.754   2.858   2.597
  763SOL    HW2 2964   0.612   2.931   2.565
  764SOL     OW 2965   0.686   3.023   3.665
  764SOL    HW1 2966   0.746   3.102   3.679
  764SOL    HW2 2967   0.600   3.054   3.624
  765SOL     OW 2968   0.335   3.297   2.923
  765SOL    HW1 2969   0.257   3.266   2.870
  765SOL    HW2 2970   0.393   3.355   2.866
  766SOL     OW 2971   1.460   3.367   3.201
  766SOL    HW1 2972   1.484   3.461   3.227
  766SOL    HW2 2973   1.444   3.313   3.283
  767SOL     OW 2974   0.438   2.254   3.361
  767SOL    HW1 2975   0.520   2.198   3.370
  767SOL    HW2 2976   0.357   2.196   3.365
  768SOL     OW 2977   1.603   2.309   2.599
  768SOL    HW1 2978   1.529   2.355   2.549
  768SOL    HW2 2979   1.654   2.377   2.652
  769SOL     OW 2980   0.231   3.575   2.345
  769SOL    HW1 2981   0.265   3.652   2.399
  769SOL    HW2 2982   0.275   3.575   2.255
  770SOL     OW 2983   1.127   3.203   3.552
  770SOL    HW1 2984   1.174   3.203   3.640
  770SOL    HW2 2985   1.079   3.116   3.541
  771SOL     OW 2986   0.230   3.296   2.400
  771SOL    HW1 2987   0.204   3.392   2.400
  771SOL    HW2 2988   0.159   3.242   2.445
  772SOL     OW 2989   0.240   2.953   2.748
  772SOL    HW1 2990   0.254   2.869   2.800
  772SOL    HW2 2991   0.185   3.017   2.803
  773SOL     OW 2992   0.620   3.648   3.301
  773SOL    HW1 2993   0.528   3.631   3.336
  773SOL    HW2 2994   0.648   3.740   3.327
  774SOL     OW 2995   0.606   2.826   1.985
  774SOL    HW1 2996   0.613   2.910   1.931
  774SOL    HW2 2997   0.652   2.839   2.073
  775SOL     OW 2998   1.594   1.976   3.342
  775SOL    HW1 2999   1.576   2.043   3.270
  775SOL    HW2 3000   1.591   2.022   3.431
  776SOL     OW 3001   0.122   2.505   2.425
  776SOL    HW1 3002   0.077   2.417   2.442
  776SOL    HW2 3003   0.121   2.559   2.509
  777SOL     OW 3004   1.842   3.629   2.221
  777SOL    HW1 3005   1.896   3.600   2.301
  777SOL    HW2 3006   1.872   3.719   2.192
  778SOL     OW 3007   0.027   3.458   1.979
  778SOL    HW1 3008   0.008   3.362   2.000
  778SOL    HW2 3009  -0.006   3.516   2.054
  779SOL     OW 3010   1.689   2.784   2.474
  779SOL    HW1 3011   1.784   2.755   2.482
  779SOL    HW2 3012   1.681   2.849   2.399
  780SOL     OW 3013   1.641   2.970   2.294
  780SOL    HW1 3014   1.727   2.972   2.242
  780SOL    HW2 3015   1.655   3.017   2.382
  781SOL     OW 3016   0.113   2.599   3.459
  781SOL    HW1 3017   0.201   2.586   3.504
  781SOL    HW2 3018   0.100   2.696   3.437
  782SOL     OW 3019   0.613   3.227   2.588
  782SOL    HW1 3020   0.564   3.140   2.597
  782SOL    HW2 3021   0.590   3.270   2.501
  783SOL     OW 3022   1.293   3.090   3.285
  783SOL    HW1 3023   1.330   3.017   3.227
  783SOL    HW2 3024   1.345   3.095   3.370
  784SOL     OW 3025   0.809   1.866   2.364
  784SOL    HW1 3026   0.849   1.957   2.355
  784SOL    HW2 3027   0.709   1.874   2.370
  785SOL     OW 3028   0.197   2.838   3.126
  785SOL    HW1 3029   0.286   2.793   3.112
  785SOL    HW2 3030   0.124   2.773   3.107
  786SOL     OW 3031   1.525   2.861   2.052
  786SOL    HW1 3032   1.462   2.785   2.065
  786SOL    HW2 3033   1.573   2.879   2.138
  787SOL     OW 3034   1.187   3.654   3.478
  787SOL    HW1 3035   1.211   3.714   3.402
  787SOL    HW2 3036   1.194   3.559   3.448
  788SOL     OW 3037   0.317   2.113   3.663
  788SOL    HW1 3038   0.388   2.184   3.669
  788SOL    HW2 3039   0.229   2.152   3.691
  789SOL     OW 3040   1.466   3.279   2.815
  789SOL    HW1 3041   1.407   3.285   2.895
  789SOL    HW2 3042   1.451   3.191   2.769
  790SOL     OW 3043   1.667   3.576   2.434
  790SOL    HW1 3044   1.626   3.553   2.346
  790SOL    HW2 3045   1.649   3.502   2.499
  791SOL     OW 3046   0.598   2.591   2.132
  791SOL    HW1 3047   0.622   2.660   2.064
  791SOL    HW2 3048   0.520   2.624   2.186
  792SOL     OW 3049   1.281   2.207   2.806
  792SOL    HW1 3050   1.195   2.157   2.793
  792SOL    HW2 3051   1.343   2.153   2.862
  793SOL     OW 3052   1.576   3.524   2.169
  793SOL    HW1 3053   1.665   3.570   2.172
  793SOL    HW2 3054   1.555   3.500   2.074
  794SOL     OW 3055   0.807   2.467   3.327
  794SOL    HW1 3056   0.760   2.464   3.416
  794SOL    HW2 3057   0.756   2.412   3.261
  795SOL     OW 3058   1.394   2.331   3.536
  795SOL    HW1 3059   1.374   2.374   3.624
  795SOL    HW2 3060   1.472   2.269   3.545
  796SOL     OW 3061   0.973   2.752   3.434
  796SOL    HW1 3062   1.019   2.668   3.405
  796SOL    HW2 3063   0.917   2.786   3.359
  797SOL     OW 3064   0.991   2.272   3.104
  797SOL    HW1 3065   0.914   2.306   3.158
  797SOL    HW2 3066   0.957   2.221   3.025
  798SOL     OW 3067   1.041   2.563   2.291
  798SOL    HW1 3068   1.067   2.559   2.387
  798SOL    HW2 3069   0.956   2.512   2.277
  799SOL     OW 3070   0.076   2.673   2.651
  799SOL    HW1 3071   0.175   2.661   2.660
  799SOL    HW2 3072   0.052   2.768   2.672
  800SOL     OW 3073   0.130   3.683   3.433
  800SOL    HW1 3074   0.120   3.668   3.532
  800SOL    HW2 3075   0.044   3.719   3.397
  801SOL     OW 3076   0.865   2.210   2.057
  801SOL    HW1 3077   0.924   2.273   2.008
  801SOL    HW2 3078   0.884   2.116   2.028
  802SOL     OW 3079   1.719   2.447   3.693
  802SOL    HW1 3080   1.693   2.536   3.657
  802SOL    HW2 3081   1.717   2.379   3.620
  803SOL     OW 3082   1.362   3.006   2.407
  803SOL    HW1 3083   1.445   2.977   2.359
  803SOL    HW2 3084   1.313   3.073   2.351
  804SOL     OW 3085   0.550   2.058   2.747
  804SOL    HW1 3086   0.545   2.053   2.847
  804SOL    HW2 3087   0.552   2.154   2.718
  805SOL     OW 3088   1.008   3.318   2.339
  805SOL    HW1 3089   0.962   3.390   2.287
  805SOL    HW2 3090   1.004   3.338   2.437
  806SOL     OW 3091   0.351   3.663   2.715
  806SOL    HW1 3092   0.401   3.577   2.721
  806SOL    HW2 3093   0.416   3.740   2.712
  807SOL     OW 3094   1.795   2.928   2.735
  807SOL    HW1 3095   1.733   2.913   2.659
  807SOL    HW2 3096   1.743   2.939   2.820
  808SOL     OW 3097   1.227   3.412   3.368
  808SOL    HW1 3098   1.233   3.335   3.432
  808SOL    HW2 3099   1.175   3.386   3.288
  809SOL     OW 3100   0.321   2.805   2.104
  809SOL    HW1 3101   0.403   2.844   2.062
  809SOL    HW2 3102   0.294   2.723   2.055
  810SOL     OW 3103   1.458   2.597   2.590
  810SOL    HW1 3104   1.453   2.532   2.665
  810SOL    HW2 3105   1.538   2.656   2.603
  811SOL     OW 3106   0.461   3.128   3.589
  811SOL    HW1 3107   0.411   3.129   3.503
  811SOL    HW2 3108   0.398   3.110   3.665
  812SOL     OW 3109   1.111   3.638   2.099
  812SOL    HW1 3110   1.051   3.576   2.149
  812SOL    HW2 3111   1.142   3.594   2.014
  813SOL     OW 3112   0.202   2.147   3.360
  813SOL    HW1 3113   0.122   2.207   3.347
  813SOL    HW2 3114   0.192   2.098   3.446
  814SOL     OW 3115   1.632   3.239   1.943
  814SOL    HW1 3116   1.600   3.333   1.933
  814SOL    HW2 3117   1.556   3.176   1.931
  815SOL     OW 3118   0.464   3.605   2.185
  815SOL    HW1 3119   0.497   3.644   2.271
  815SOL    HW2 3120   0.540   3.598   2.120
  816SOL     OW 3121   1.400   1.969   2.288
  816SOL    HW1 3122   1.376   1.932   2.198
  816SOL    HW2 3123   1.499   1.985   2.292
  817SOL     OW 3124   0.249   3.647   3.103
  817SOL    HW1 3125   0.306   3.582   3.153
  817SOL    HW2 3126   0.233   3.614   3.010
  818SOL     OW 3127   0.940   3.560   2.766
  818SOL    HW1 3128   1.020   3.503   2.787
  818SOL    HW2 3129   0.891   3.520   2.689
  819SOL     OW 3130   0.382   2.562   2.342
  819SOL    HW1 3131   0.427   2.472   2.339
  819SOL    HW2 3132   0.288   2.551   2.375
  820SOL     OW 3133   1.547   2.084   3.591
  820SOL    HW1 3134   1.542   2.121   3.683
  820SOL    HW2 3135   1.475   2.015   3.579
  821SOL     OW 3136   0.781   2.126   3.611
  821SOL    HW1 3137   0.848   2.065   3.654
  821SOL    HW2 3138   0.708   2.145   3.676
  822SOL     OW 3139   0.888   3.376   3.057
  822SOL    HW1 3140   0.865   3.351   2.963
  822SOL    HW2 3141   0.949   3.307   3.096
  823SOL     OW 3142   1.351   2.452   3.295
  823SOL    HW1 3143   1.379   2.409   3.380
  823SOL    HW2 3144   1.376   2.548   3.296
  824SOL     OW 3145   0.803   3.264   2.786
  824SOL    HW1 3146   0.893   3.278   2.744
  824SOL    HW2 3147   0.732   3.266   2.715
  825SOL     OW 3148   0.922   2.365   2.761
  825SOL    HW1 3149   0.897   2.356   2.665
  825SOL    HW2 3150   0.970   2.283   2.792
  826SOL     OW 3151   0.539   1.926   2.374
  826SOL    HW1 3152   0.458   1.927   2.432
  826SOL    HW2 3153   0.542   2.009   2.319
  827SOL     OW 3154   1.434   3.050   1.903
  827SOL    HW1 3155   1.466   2.974   1.960
  827SOL    HW2 3156   1.342   3.077   1.933
  828SOL     OW 3157   0.935   2.098   2.342
  828SOL    HW1 3158   0.887   2.139   2.264
  828SOL    HW2 3159   1.034   2.096   2.323
  829SOL     OW 3160   1.076   2.545   3.326
  829SOL    HW1 3161   0.996   2.484   3.329
  829SOL    HW2 3162   1.157   2.492   3.302
  830SOL     OW 3163   1.227   3.432   2.655
  830SOL    HW1 3164   1.248   3.506   2.590
  830SOL    HW2 3165   1.295   3.432   2.728
  831SOL     OW 3166   0.459   3.014   2.603
  831SOL    HW1 3167   0.388   2.987   2.668
  831SOL    HW2 3168   0.433   2.986   2.510
  832SOL     OW 3169   1.271   3.659   2.453
  832SOL    HW1 3170   1.315   3.723   2.389
  832SOL    HW2 3171   1.221   3.711   2.523
  833SOL     OW 3172   1.032   2.411   1.878
  833SOL    HW1 3173   0.991   2.493   1.839
  833SOL    HW2 3174   1.096   2.437   1.951
  834SOL     OW 3175   0.078   2.418   3.248
  834SOL    HW1 3176   0.170   2.417   3.207
  834SOL    HW2 3177   0.072   2.492   3.315
  835SOL     OW 3178   0.561   2.084   3.009
  835SOL    HW1 3179   0.599   2.000   3.046
  835SOL    HW2 3180   0.473   2.103   3.053
  836SOL     OW 3181   0.866   2.316   2.504
  836SOL    HW1 3182   0.834   2.388   2.442
  836SOL    HW2 3183   0.890   2.235   2.451
  837SOL     OW 3184   1.017   1.901   2.615
  837SOL    HW1 3185   0.945   1.906   2.546
  837SOL    HW2 3186   0.993   1.832   2.684
  838SOL     OW 3187   1.429   3.035   2.729
  838SOL    HW1 3188   1.374   2.951   2.722
  838SOL    HW2 3189   1.455   3.064   2.637
  839SOL     OW 3190   1.466   2.452   2.854
  839SOL    HW1 3191   1.436   2.357   2.861
  839SOL    HW2 3192   1.539   2.468   2.920
  840SOL     OW 3193   1.857   2.695   2.239
  840SOL    HW1 3194   1.899   2.631   2.303
  840SOL    HW2 3195   1.819   2.644   2.161
  841SOL     OW 3196   0.488   3.247   2.036
  841SOL    HW1 3197   0.401   3.232   2.083
  841SOL    HW2 3198   0.471   3.273   1.941
  842SOL     OW 3199   1.664   3.142   2.519
  842SOL    HW1 3200   1.763   3.150   2.533
  842SOL    HW2 3201   1.619   3.226   2.550
  843SOL     OW 3202   1.390   2.437   1.940
  843SOL    HW1 3203   1.336   2.416   2.021
  843SOL    HW2 3204   1.481   2.396   1.949
  844SOL     OW 3205   0.527   2.118   2.190
  844SOL    HW1 3206   0.554   2.059   2.115
  844SOL    HW2 3207   0.527   2.213   2.159
  845SOL     OW 3208   1.754   3.085   3.450
  845SOL    HW1 3209   1.845   3.046   3.437
  845SOL    HW2 3210   1.762   3.181   3.474
  846SOL     OW 3211   1.064   3.209   3.202
  846SOL    HW1 3212   0.984   3.186   3.257
  846SOL    HW2 3213   1.147   3.183   3.251
  847SOL     OW 3214   1.592   3.491   3.487
  847SOL    HW1 3215   1.619   3.525   3.397
  847SOL    HW2 3216   1.671   3.453   3.533
  848SOL     OW 3217   1.111   3.057   2.962
  848SOL    HW1 3218   1.071   3.101   3.043
  848SOL    HW2 3219   1.070   3.094   2.879
  849SOL     OW 3220   1.638   2.961   2.941
  849SOL    HW1 3221   1.643   3.042   3.000
  849SOL    HW2 3222   1.552   2.963   2.890
  850SOL     OW 3223   0.915   1.951   3.264
  850SOL    HW1 3224   0.940   1.931   3.169
  850SOL    HW2 3225   0.987   2.007   3.306
  851SOL     OW 3226   0.980   2.978   3.581
  851SOL    HW1 3227   0.881   2.984   3.591
  851SOL    HW2 3228   1.003   2.898   3.525
  852SOL     OW 3229   0.705   2.912   2.230
  852SOL    HW1 3230   0.691   2.919   2.329
  852SOL    HW2 3231   0.789   2.861   2.212
  853SOL     OW 3232   0.410   2.675   3.113
  853SOL    HW1 3233   0.496   2.687   3.163
  853SOL    HW2 3234   0.368   2.588   3.140
  854SOL     OW 3235   1.274   2.248   3.124
  854SOL    HW1 3236   1.295   2.322   3.188
  854SOL    HW2 3237   1.185   2.265   3.081
  855SOL     OW 3238   0.064   3.426   3.193
  855SOL    HW1 3239   0.018   3.508   3.159
  855SOL    HW2 3240   0.162   3.445   3.202
  856SOL     OW 3241   0.367   2.962   2.363
  856SOL    HW1 3242   0.360   3.045   2.307
  856SOL    HW2 3243   0.371   2.882   2.303
  857SOL     OW 3244   0.566   2.399   2.727
  857SOL    HW1 3245   0.578   2.465   2.653
  857SOL    HW2 3246   0.612   2.433   2.810
  858SOL     OW 3247   1.252   3.210   2.250
  858SOL    HW1 3248   1.302   3.287   2.290
  858SOL    HW2 3249   1.157   3.212   2.282
  859SOL     OW 3250   1.272   3.307   3.004
  859SOL    HW1 3251   1.319   3.320   3.091
  859SOL    HW2 3252   1.206   3.233   3.013
  860SOL     OW 3253   1.582   2.501   2.334
  860SOL    HW1 3254   1.551   2.562   2.407
  860SOL    HW2 3255   1.632   2.553   2.265
  861SOL     OW 3256   0.354   3.372   3.191
  861SOL    HW1 3257   0.333   3.328   3.104
  861SOL    HW2 3258   0.451   3.398   3.194
  862SOL     OW 3259   0.402   2.613   3.460
  862SOL    HW1 3260   0.470   2.668   3.413
  862SOL    HW2 3261   0.442   2.525   3.487
  863SOL     OW 3262   1.587   2.641   3.532
  863SOL    HW1 3263   1.495   2.679   3.527
  863SOL    HW2 3264   1.647   2.688   3.467
  864SOL     OW 3265   1.013   1.967   3.632
  864SOL    HW1 3266   1.019   2.052   3.580
  864SOL    HW2 3267   1.045   1.891   3.575
  865SOL     OW 3268   0.504   1.912   3.602
  865SOL    HW1 3269   0.462   1.855   3.532
  865SOL    HW2 3270   0.438   1.981   3.634
  866SOL     OW 3271   0.573   2.732   2.891
  866SOL    HW1 3272   0.617   2.821   2.882
  866SOL    HW2 3273   0.510   2.732   2.968
  867SOL     OW 3274   1.360   2.724   2.907
  867SOL    HW1 3275   1.285   2.724   2.841
  867SOL    HW2 3276   1.397   2.632   2.916
  868SOL     OW 3277   1.209   2.387   2.137
  868SOL    HW1 3278   1.222   2.303   2.191
  868SOL    HW2 3279   1.180   2.461   2.197
  869SOL     OW 3280   0.307   2.075   3.093
  869SOL    HW1 3281   0.284   2.112   3.183
  869SOL    HW2 3282   0.277   1.980   3.087
  870SOL     OW 3283   0.037   3.172   3.144
  870SOL    HW1 3284   0.090   3.123   3.212
  870SOL    HW2 3285   0.059   3.270   3.149
  871SOL     OW 3286   0.732   2.496   2.926
  871SOL    HW1 3287   0.791   2.470   2.850
  871SOL    HW2 3288   0.704   2.592   2.915
  872SOL     OW 3289   1.728   2.797   3.716
  872SOL    HW1 3290   1.682   2.790   3.627
  872SOL    HW2 3291   1.666   2.841   3.782
  873SOL     OW 3292   0.307   1.925   2.480
  873SOL    HW1 3293   0.296   2.019   2.513
  873SOL    HW2 3294   0.302   1.862   2.557
  874SOL     OW 3295   1.622   2.229   2.236
  874SOL    HW1 3296   1.624   2.153   2.300
  874SOL    HW2 3297   1.574   2.306   2.276
  875SOL     OW 3298   1.023   2.628   2.828
  875SOL    HW1 3299   1.038   2.649   2.924
  875SOL    HW2 3300   0.993   2.533   2.819
  876SOL     OW 3301   0.980   3.435   3.562
  876SOL    HW1 3302   0.960   3.479   3.474
  876SOL    HW2 3303   1.019   3.344   3.546
  877SOL     OW 3304   1.859   3.380   3.467
  877SOL    HW1 3305   1.873   3.407   3.372
  877SOL    HW2 3306   1.942   3.402   3.520
  878SOL     OW 3307   0.350   2.760   3.666
  878SOL    HW1 3308   0.426   2.804   3.714
  878SOL    HW2 3309   0.385   2.713   3.584
  879SOL     OW 3310   1.540   2.136   1.987
  879SOL    HW1 3311   1.479   2.061   2.010
  879SOL    HW2 3312   1.562   2.188   2.070
  880SOL     OW 3313   1.303   2.700   1.904
  880SOL    HW1 3314   1.337   2.607   1.919
  880SOL    HW2 3315   1.321   2.727   1.809
  881SOL     OW 3316   1.068   3.195   2.711
  881SOL    HW1 3317   1.075   3.111   2.656
  881SOL    HW2 3318   1.130   3.264   2.675
  882SOL     OW 3319   0.319   2.672   2.811
  882SOL    HW1 3320   0.412   2.708   2.816
  882SOL    HW2 3321   0.313   2.587   2.863
  883SOL     OW 3322   0.339   2.371   2.868
  883SOL    HW1 3323   0.287   2.288   2.851
  883SOL    HW2 3324   0.416   2.376   2.804
  884SOL     OW 3325   1.138   2.242   3.540
  884SOL    HW1 3326   1.093   2.305   3.604
  884SOL    HW2 3327   1.231   2.273   3.523
  885SOL     OW 3328   1.160   2.069   3.339
  885SOL    HW1 3329   1.160   2.133   3.416
  885SOL    HW2 3330   1.188   2.117   3.256
  886SOL     OW 3331   0.008   3.188   2.062
  886SOL    HW1 3332  -0.085   3.209   2.031
  886SOL    HW2 3333   0.018   3.089   2.075
  887SOL     OW 3334   0.088   3.663   2.789
  887SOL    HW1 3335   0.046   3.577   2.762
  887SOL    HW2 3336   0.182   3.666   2.755
  888SOL     OW 3337   0.504   3.430   2.772
  888SOL    HW1 3338   0.570   3.504   2.781
  888SOL    HW2 3339   0.548   3.351   2.730
  889SOL     OW 3340   1.002   2.658   3.100
  889SOL    HW1 3341   1.043   2.626   3.186
  889SOL    HW2 3342   0.906   2.631   3.097
  890SOL     OW 3343   0.040   2.406   2.976
  890SOL    HW1 3344   0.125   2.373   2.935
  890SOL    HW2 3345   0.053   2.421   3.074
  891SOL     OW 3346   0.189   2.382   3.584
  891SOL    HW1 3347   0.248   2.342   3.514
  891SOL    HW2 3348   0.131   2.453   3.543
  892SOL     OW 3349   1.369   2.812   3.522
  892SOL    HW1 3350   1.408   2.901   3.542
  892SOL    HW2 3351   1.379   2.792   3.425
  893SOL     OW 3352   0.815   2.434   2.187
  893SOL    HW1 3353   0.822   2.345   2.141
  893SOL    HW2 3354   0.721   2.468   2.179
  894SOL     OW 3355   1.657   2.466   3.068
  894SOL    HW1 3356   1.619   2.397   3.130
  894SOL    HW2 3357   1.739   2.430   3.024
  895SOL     OW 3358   0.252   3.426   3.606
  895SOL    HW1 3359   0.222   3.483   3.682
  895SOL    HW2 3360   0.245   3.329   3.632
  896SOL     OW 3361   0.671   2.326   3.131
  896SOL    HW1 3362   0.637   2.237   3.101
  896SOL    HW2 3363   0.697   2.380   3.051
  897SOL     OW 3364   0.930   3.540   3.327
  897SOL    HW1 3365   0.906   3.522   3.232
  897SOL    HW2 3366   0.960   3.634   3.337
  898SOL     OW 3367   0.473   2.362   2.053
  898SOL    HW1 3368   0.534   2.442   2.057
  898SOL    HW2 3369   0.378   2.393   2.060
  899SOL     OW 3370   0.159   2.999   3.328
  899SOL    HW1 3371   0.181   2.938   3.404
  899SOL    HW2 3372   0.169   2.950   3.242
  900SOL     OW 3373   1.347   2.921   3.096
  900SOL    HW1 3374   1.371   2.858   3.022
  900SOL    HW2 3375   1.257   2.961   3.078
  901SOL     OW 3376   1.302   2.717   2.171
  901SOL    HW1 3377   1.216   2.686   2.213
  901SOL    HW2 3378   1.298   2.703   2.072
  902SOL     OW 3379   1.759   3.609   3.016
  902SOL    HW1 3380   1.820   3.639   2.943
  902SOL    HW2 3381   1.721   3.520   2.994
  903SOL     OW 3382   1.252   3.593   2.990
  903SOL    HW1 3383   1.336   3.598   2.936
  903SOL    HW2 3384   1.229   3.497   3.008
  904SOL     OW 3385   0.083   3.120   2.884
  904SOL    HW1 3386   0.078   3.119   2.984
  904SOL    HW2 3387   0.000   3.079   2.846
  905SOL     OW 3388   0.688   3.524   3.578
  905SOL    HW1 3389   0.632   3.605   3.587
  905SOL    HW2 3390   0.740   3.528   3.492
  906SOL     OW 3391   1.726   1.997   2.385
  906SOL    HW1 3392   1.799   1.980   2.318
  906SOL    HW2 3393   1.695   1.910   2.423
  907SOL     OW 3394   1.388   3.435   2.339
  907SOL    HW1 3395   1.455   3.447   2.265
  907SOL    HW2 3396   1.348   3.524   2.362
  908SOL     OW 3397   0.130   3.656   3.713
  908SOL    HW1 3398   0.089   3.582   3.766
  908SOL    HW2 3399   0.194   3.707   3.771
  909SOL     OW 3400   1.280   2.789   2.534
  909SOL    HW1 3401   1.340   2.708   2.536
  909SOL    HW2 3402   1.320   2.858   2.474
  910SOL     OW 3403   0.830   3.135   3.284
  910SOL    HW1 3404   0.825   3.168   3.379
  910SOL    HW2 3405   0.744   3.154   3.238
  911SOL     OW 3406   0.672   3.478   2.016
  911SOL    HW1 3407   0.681   3.488   1.917
  911SOL    HW2 3408   0.632   3.389   2.037
  912SOL     OW 3409   1.650   3.582   3.256
  912SOL    HW1 3410   1.703   3.592   3.172
  912SOL    HW2 3411   1.623   3.672   3.290
  913SOL     OW 3412   1.841   2.037   2.825
  913SOL    HW1 3413   1.880   1.952   2.789
  913SOL    HW2 3414   1.743   2.039   2.806
  914SOL     OW 3415   0.263   2.188   2.582
  914SOL    HW1 3416   0.184   2.239   2.548
  914SOL    HW2 3417   0.254   2.173   2.680
  915SOL     OW 3418   1.194   3.474   1.893
  915SOL    HW1 3419   1.200   3.381   1.930
  915SOL    HW2 3420   1.135   3.474   1.813
  916SOL     OW 3421   0.822   2.864   3.234
  916SOL    HW1 3422   0.862   2.863   3.142
  916SOL    HW2 3423   0.832   2.956   3.274
  917SOL     OW 3424   0.916   2.772   2.153
  917SOL    HW1 3425   0.979   2.810   2.085
  917SOL    HW2 3426   0.956   2.689   2.192
  918SOL     OW 3427   1.504   3.469   1.906
  918SOL    HW1 3428   1.412   3.506   1.913
  918SOL    HW2 3429   1.542   3.489   1.816
  919SOL     OW 3430   0.372   3.150   3.352
  919SOL    HW1 3431   0.359   3.243   3.318
  919SOL    HW2 3432   0.288   3.098   3.339
  920SOL     OW 3433   1.614   3.154   3.151
  920SOL    HW1 3434   1.674   3.157   3.231
  920SOL    HW2 3435   1.539   3.218   3.164
  921SOL     OW 3436   1.039   2.960   2.558
  921SOL    HW1 3437   0.969   2.913   2.612
  921SOL    HW2 3438   1.098   2.892   2.515
  922SOL     OW 3439   1.014   2.098   2.833
  922SOL    HW1 3440   1.006   2.062   2.740
  922SOL    HW2 3441   1.012   2.022   2.898
  923SOL     OW 3442   0.590   3.349   2.353
  923SOL    HW1 3443   0.632   3.291   2.283
  923SOL    HW2 3444   0.546   3.428   2.309
  924SOL     OW 3445   1.709   2.247   3.243
  924SOL    HW1 3446   1.782   2.316   3.247
  924SOL    HW2 3447   1.737   2.172   3.184
  925SOL     OW 3448   0.255   3.210   2.152
  925SOL    HW1 3449   0.159   3.211   2.125
  925SOL    HW2 3450   0.267   3.263   2.236
  926SOL     OW 3451   0.105   2.875   3.588
  926SOL    HW1 3452   0.028   2.842   3.642
  926SOL    HW2 3453   0.190   2.845   3.630
  927SOL     OW 3454   0.672   2.065   3.351
  927SOL    HW1 3455   0.762   2.049   3.311
  927SOL    HW2 3456   0.680   2.070   3.450
  928SOL     OW 3457   1.440   2.718   3.260
  928SOL    HW1 3458   1.383   2.770   3.197
  928SOL    HW2 3459   1.536   2.730   3.236
  929SOL     OW 3460   1.183   3.197   1.981
  929SOL    HW1 3461   1.084   3.186   1.983
  929SOL    HW2 3462   1.217   3.212   2.074
  930SOL     OW 3463   0.613   2.704   3.293
  930SOL    HW1 3464   0.669   2.785   3.276
  930SOL    HW2 3465   0.672   2.624   3.296
  931SOL     OW 3466   1.493   3.629   2.821
  931SOL    HW1 3467   1.526   3.693   2.752
  931SOL    HW2 3468   1.559   3.623   2.896
  932SOL     OW 3469   0.716   2.427   3.570
  932SOL    HW1 3470   0.735   2.492   3.644
  932SOL    HW2 3471   0.776   2.347   3.579
  933SOL     OW 3472   1.450   3.082   3.495
  933SOL    HW1 3473   1.441   3.072   3.594
  933SOL    HW2 3474   1.546   3.075   3.469
  934SOL     OW 3475   0.390   3.603   3.422
  934SOL    HW1 3476   0.299   3.644   3.420
  934SOL    HW2 3477   0.383   3.509   3.454
  935SOL     OW 3478   1.674   2.745   3.116
  935SOL    HW1 3479   1.647   2.656   3.079
  935SOL    HW2 3480   1.675   2.813   3.043
  936SOL     OW 3481   1.225   2.187   2.311
  936SOL    HW1 3482   1.290   2.113   2.300
  936SOL    HW2 3483   1.245   2.237   2.395
  937SOL     OW 3484   0.594   2.607   2.514
  937SOL    HW1 3485   0.644   2.692   2.495
  937SOL    HW2 3486   0.506   2.609   2.466
  938SOL     OW 3487   1.777   2.204   3.504
  938SOL    HW1 3488   1.760   2.235   3.410
  938SOL    HW2 3489   1.693   2.167   3.542
  939SOL     OW 3490   1.730   2.796   3.379
  939SOL    HW1 3491   1.768   2.887   3.394
  939SOL    HW2 3492   1.722   2.779   3.280
  940SOL     OW 3493   0.859   3.236   1.878
  940SOL    HW1 3494   0.813   3.251   1.966
  940SOL    HW2 3495   0.903   3.321   1.848
  941SOL     OW 3496   0.661   3.652   2.815
  941SOL    HW1 3497   0.615   3.740   2.802
  941SOL    HW2 3498   0.760   3.664   2.808
  942SOL     OW 3499   0.859   2.818   2.723
  942SOL    HW1 3500   0.913   2.749   2.771
  942SOL    HW2 3501   0.827   2.887   2.789
  943SOL     OW 3502   1.083   2.846   1.949
  943SOL    HW1 3503   1.060   2.899   1.867
  943SOL    HW2 3504   1.164   2.790   1.930
  944SOL     OW 3505   1.861   3.431   2.713
  944SOL    HW1 3506   1.790   3.419   2.643
  944SOL    HW2 3507   1.862   3.352   2.773
  945SOL     OW 3508   0.221   3.176   3.706
  945SOL    HW1 3509   0.156   3.103   3.685
  945SOL    HW2 3510   0.225   3.190   3.804
  946SOL     OW 3511   0.079   3.102   2.515
  946SOL    HW1 3512   0.078   3.055   2.603
  946SOL    HW2 3513   0.161   3.074   2.464
  947SOL     OW 3514   0.672   3.253   3.486
  947SOL    HW1 3515   0.594   3.203   3.524
  947SOL    HW2 3516   0.669   3.348   3.517
  948SOL     OW 3517   1.824   2.054   3.089
  948SOL    HW1 3518   1.820   1.964   3.133
  948SOL    HW2 3519   1.827   2.043   2.990
  949SOL     OW 3520   0.428   2.286   2.382
  949SOL    HW1 3521   0.458   2.214   2.320
  949SOL    HW2 3522   0.389   2.246   2.465
  950SOL     OW 3523   1.705   3.349   2.966
  950SOL    HW1 3524   1.612   3.324   2.939
  950SOL    HW2 3525   1.731   3.299   3.048
  951SOL     OW 3526   0.317   2.409   3.142
  951SOL    HW1 3527   0.355   2.350   3.214
  951SOL    HW2 3528   0.357   2.383   3.054
  952SOL     OW 3529   0.812   3.448   2.549
  952SOL    HW1 3530   0.844   3.458   2.455
  952SOL    HW2 3531   0.733   3.386   2.551
  953SOL     OW 3532   1.424   2.076   2.974
  953SOL    HW1 3533   1.476   2.011   3.029
  953SOL    HW2 3534   1.375   2.139   3.035
  954SOL     OW 3535   1.001   1.896   3.016
  954SOL    HW1 3536   0.938   1.824   2.985
  954SOL    HW2 3537   1.094   1.860   3.016
  955SOL     OW 3538   0.770   3.192   2.163
  955SOL    HW1 3539   0.724   3.105   2.180
  955SOL    HW2 3540   0.861   3.189   2.204
  956SOL     OW 3541   0.618   3.429   3.146
  956SOL    HW1 3542   0.613   3.511   3.203
  956SOL    HW2 3543   0.707   3.426   3.101
  957SOL     OW 3544   1.352   1.914   2.030
  957SOL    HW1 3545   1.387   1.873   1.946
  957SOL    HW2 3546   1.262   1.876   2.050
  958SOL     OW 3547   1.300   2.315   2.553
  958SOL    HW1 3548   1.241   2.395   2.557
  958SOL    HW2 3549   1.315   2.280   2.646
  959SOL     OW 3550   1.593   2.083   2.744
  959SOL    HW1 3551   1.509   2.082   2.798
  959SOL    HW2 3552   1.595   2.166   2.688
  960SOL     OW 3553   0.039   2.939   2.162
  960SOL    HW1 3554   0.138   2.928   2.153
  960SOL    HW2 3555  -0.001   2.853   2.194
  961SOL     OW 3556   0.875   3.508   2.199
  961SOL    HW1 3557   0.798   3.473   2.145
  961SOL    HW2 3558   0.843   3.579   2.261
  962SOL     OW 3559   0.230   2.490   3.837
  962SOL    HW1 3560   0.137   2.488   3.874
  962SOL    HW2 3561   0.231   2.451   3.745
  963SOL     OW 3562   0.225   2.137   4.720
  963SOL    HW1 3563   0.260   2.120   4.812
  963SOL    HW2 3564   0.137   2.092   4.708
  964SOL     OW 3565   0.019   2.230   4.371
  964SOL    HW1 3566  -0.063   2.273   4.410
  964SOL    HW2 3567  -0.009   2.157   4.308
  965SOL     OW 3568   0.569   3.137   4.889
  965SOL    HW1 3569   0.476   3.130   4.852
  965SOL    HW2 3570   0.580   3.226   4.933
  966SOL     OW 3571   1.555   3.373   4.427
  966SOL    HW1 3572   1.498   3.357   4.508
  966SOL    HW2 3573   1.496   3.383   4.347
  967SOL     OW 3574   1.135   2.565   4.441
  967SOL    HW1 3575   1.192   2.643   4.416
  967SOL    HW2 3576   1.075   2.591   4.517
  968SOL     OW 3577   1.755   2.469   3.955
  968SOL    HW1 3578   1.743   2.456   3.856
  968SOL    HW2 3579   1.725   2.388   4.004
  969SOL     OW 3580   0.768   3.006   4.747
  969SOL    HW1 3581   0.690   3.023   4.807
  969SOL    HW2 3582   0.802   3.093   4.711
  970SOL     OW 3583   0.685   2.874   4.389
  970SOL    HW1 3584   0.754   2.858   4.459
  970SOL    HW2 3585   0.612   2.931   4.427
  971SOL     OW 3586   0.335   3.297   4.785
  971SOL    HW1 3587   0.257   3.266   4.732
  971SOL    HW2 3588   0.393   3.355   4.728
  972SOL     OW 3589   1.603   2.309   4.461
  972SOL    HW1 3590   1.529   2.355   4.411
  972SOL    HW2 3591   1.654   2.377   4.514
  973SOL     OW 3592   0.231   3.575   4.207
  973SOL    HW1 3593   0.265   3.652   4.261
  973SOL    HW2 3594   0.275   3.575   4.117
  974SOL     OW 3595   0.230   3.296   4.262
  974SOL    HW1 3596   0.204   3.392   4.262
  974SOL    HW2 3597   0.159   3.242   4.307
  975SOL     OW 3598   0.240   2.953   4.610
  975SOL    HW1 3599   0.254   2.869   4.662
  975SOL    HW2 3600   0.185   3.017   4.665
  976SOL     OW 3601   0.620   3.648   5.163
  976SOL    HW1 3602   0.528   3.631   5.198
  976SOL    HW2 3603   0.648   3.740   5.189
  977SOL     OW 3604   0.606   2.826   3.847
  977SOL    HW1 3605   0.613   2.910   3.793
  977SOL    HW2 3606   0.652   2.839   3.935
  978SOL     OW 3607   0.122   2.505   4.287
  978SOL    HW1 3608   0.077   2.417   4.304
  978SOL    HW2 3609   0.121   2.559   4.371
  979SOL     OW 3610   1.842   3.629   4.083
  979SOL    HW1 3611   1.896   3.600   4.163
  979SOL    HW2 3612   1.872   3.719   4.054
  980SOL     OW 3613   0.027   3.458   3.841
  980SOL    HW1 3614   0.008   3.362   3.862
  980SOL    HW2 3615  -0.006   3.516   3.916
  981SOL     OW 3616   1.689   2.784   4.336
  981SOL    HW1 3617   1.784   2.755   4.344
  981SOL    HW2 3618   1.681   2.849   4.261
  982SOL     OW 3619   1.641   2.970   4.156
  982SOL    HW1 3620   1.727   2.972   4.104
  982SOL    HW2 3621   1.655   3.017   4.244
  983SOL     OW 3622   0.613   3.227   4.450
  983SOL    HW1 3623   0.564   3.140   4.459
  983SOL    HW2 3624   0.590   3.270   4.363
  984SOL     OW 3625   0.809   1.866   4.226
  984SOL    HW1 3626   0.849   1.957   4.217
  984SOL    HW2 3627   0.709   1.874   4.232
  985SOL     OW 3628   0.197   2.838   4.988
  985SOL    HW1 3629   0.286   2.793   4.974
  985SOL    HW2 3630   0.124   2.773   4.969
  986SOL     OW 3631   1.525   2.861   3.914
  986SOL    HW1 3632   1.462   2.785   3.927
  986SOL    HW2 3633   1.573   2.879   4.000
  987SOL     OW 3634   1.466   3.279   4.677
  987SOL    HW1 3635   1.407   3.285   4.757
  987SOL    HW2 3636   1.451   3.191   4.631
  988SOL     OW 3637   1.667   3.576   4.296
  988SOL    HW1 3638   1.626   3.553   4.208
  988SOL    HW2 3639   1.649   3.502   4.361
  989SOL     OW 3640   0.598   2.591   3.994
  989SOL    HW1 3641   0.622   2.660   3.926
  989SOL    HW2 3642   0.520   2.624   4.048
  990SOL     OW 3643   1.281   2.207   4.668
  990SOL    HW1 3644   1.195   2.157   4.655
  990SOL    HW2 3645   1.343   2.153   4.724
  991SOL     OW 3646   1.576   3.524   4.031
  991SOL    HW1 3647   1.665   3.570   4.034
  991SOL    HW2 3648   1.555   3.500   3.936
  992SOL     OW 3649   0.991   2.272   4.966
  992SOL    HW1 3650   0.914   2.306   5.020
  992SOL    HW2 3651   0.957   2.221   4.887
  993SOL     OW 3652   1.041   2.563   4.153
  993SOL    HW1 3653   1.067   2.559   4.249
  993SOL    HW2 3654   0.956   2.512   4.139
  994SOL     OW 3655   0.076   2.673   4.513
  994SOL    HW1 3656   0.175   2.661   4.522
  994SOL    HW2 3657   0.052   2.768   4.534
  995SOL     OW 3658   0.130   3.683   5.295
  995SOL    HW1 3659   0.120   3.668   5.394
  995SOL    HW2 3660   0.044   3.719   5.259
  996SOL     OW 3661   0.865   2.210   3.919
  996SOL    HW1 3662   0.924   2.273   3.870
  996SOL    HW2 3663   0.884   2.116   3.890
  997SOL     OW 3664   1.362   3.006   4.269
  997SOL    HW1 3665   1.445   2.977   4.221
  997SOL    HW2 3666   1.313   3.073   4.213
  998SOL     OW 3667   0.550   2.058   4.609
  998SOL    HW1 3668   0.545   2.053   4.709
  998SOL    HW2 3669   0.552   2.154   4.580
  999SOL     OW 3670   1.008   3.318   4.201
  999SOL    HW1 3671   0.962   3.390   4.149
  999SOL    HW2 3672   1.004   3.338   4.299
 1000SOL     OW 3673   0.351   3.663   4.577
 1000SOL    HW1 3674   0.401   3.577   4.583
 1000SOL    HW2 3675   0.416   3.740   4.574
 1001SOL     OW 3676   1.795   2.928   4.597
 1001SOL    HW1 3677   1.733   2.913   4.521
 1001SOL    HW2 3678   1.743   2.939   4.682
 1002SOL     OW 3679   0.321   2.805   3.966
 1002SOL    HW1 3680   0.403   2.844   3.924
 1002SOL    HW2 3681   0.294   2.723   3.917
 1003SOL     OW 3682   1.458   2.597   4.452
 1003SOL    HW1 3683   1.453   2.532   4.527
 1003SOL    HW2 3684   1.538   2.656   4.465
 1004SOL     OW 3685   1.111   3.638   3.961
 1004SOL    HW1 3686   1.051   3.576   4.011
 1004SOL    HW2 3687   1.142   3.594   3.876
 1005SOL     OW 3688   1.632   3.239   3.805
 1005SOL    HW1 3689   1.600   3.333   3.795
 1005SOL    HW2 3690   1.556   3.176   3.793
 1006SOL     OW 3691   0.464   3.605   4.047
 1006SOL    HW1 3692   0.497   3.644   4.133
 1006SOL    HW2 3693   0.540   3.598   3.982
 1007SOL     OW 3694   1.400   1.969   4.150
 1007SOL    HW1 3695   1.376   1.932   4.060
 1007SOL    HW2 3696   1.499   1.985   4.154
 1008SOL     OW 3697   0.249   3.647   4.965
 1008SOL    HW1 3698   0.306   3.582   5.015
 1008SOL    HW2 3699   0.233   3.614   4.872
 1009SOL     OW 3700   0.940   3.560   4.628
 1009SOL    HW1 3701   1.020   3.503   4.649
 1009SOL    HW2 3702   0.891   3.520   4.551
 1010SOL     OW 3703   0.382   2.562   4.204
 1010SOL    HW1 3704   0.427   2.472   4.201
 1010SOL    HW2 3705   0.288   2.551   4.237
 1011SOL     OW 3706   0.614   1.984   3.841
 1011SOL    HW1 3707   0.712   1.962   3.848
 1011SOL    HW2 3708   0.583   1.967   3.748
 1012SOL     OW 3709   0.803   3.264   4.648
 1012SOL    HW1 3710   0.893   3.278   4.606
 1012SOL    HW2 3711   0.732   3.266   4.577
 1013SOL     OW 3712   0.922   2.365   4.623
 1013SOL    HW1 3713   0.897   2.356   4.527
 1013SOL    HW2 3714   0.970   2.283   4.654
 1014SOL     OW 3715   0.539   1.926   4.236
 1014SOL    HW1 3716   0.458   1.927   4.294
 1014SOL    HW2 3717   0.542   2.009   4.181
 1015SOL     OW 3718   1.434   3.050   3.765
 1015SOL    HW1 3719   1.466   2.974   3.822
 1015SOL    HW2 3720   1.342   3.077   3.795
 1016SOL     OW 3721   0.297   1.897   3.895
 1016SOL    HW1 3722   0.346   1.981   3.874
 1016SOL    HW2 3723   0.359   1.832   3.940
 1017SOL     OW 3724   0.935   2.098   4.204
 1017SOL    HW1 3725   0.887   2.139   4.126
 1017SOL    HW2 3726   1.034   2.096   4.185
 1018SOL     OW 3727   1.227   3.432   4.517
 1018SOL    HW1 3728   1.248   3.506   4.452
 1018SOL    HW2 3729   1.295   3.432   4.590
 1019SOL     OW 3730   0.459   3.014   4.465
 1019SOL    HW1 3731   0.388   2.987   4.530
 1019SOL    HW2 3732   0.433   2.986   4.372
 1020SOL     OW 3733   1.271   3.659   4.315
 1020SOL    HW1 3734   1.315   3.723   4.251
 1020SOL    HW2 3735   1.221   3.711   4.385
 1021SOL     OW 3736   1.032   2.411   3.740
 1021SOL    HW1 3737   0.991   2.493   3.701
 1021SOL    HW2 3738   1.096   2.437   3.813
 1022SOL     OW 3739   0.561   2.084   4.871
 1022SOL    HW1 3740   0.599   2.000   4.908
 1022SOL    HW2 3741   0.473   2.103   4.915
 1023SOL     OW 3742   0.866   2.316   4.366
 1023SOL    HW1 3743   0.834   2.388   4.304
 1023SOL    HW2 3744   0.890   2.235   4.313
 1024SOL     OW 3745   1.017   1.901   4.477
 1024SOL    HW1 3746   0.945   1.906   4.408
 1024SOL    HW2 3747   0.993   1.832   4.546
 1025SOL     OW 3748   1.429   3.035   4.591
 1025SOL    HW1 3749   1.374   2.951   4.584
 1025SOL    HW2 3750   1.455   3.064   4.499
 1026SOL     OW 3751   1.466   2.452   4.716
 1026SOL    HW1 3752   1.436   2.357   4.723
 1026SOL    HW2 3753   1.539   2.468   4.782
 1027SOL     OW 3754   1.857   2.695   4.101
 1027SOL    HW1 3755   1.899   2.631   4.165
 1027SOL    HW2 3756   1.819   2.644   4.023
 1028SOL     OW 3757   0.488   3.247   3.898
 1028SOL    HW1 3758   0.401   3.232   3.945
 1028SOL    HW2 3759   0.471   3.273   3.803
 1029SOL     OW 3760   1.664   3.142   4.381
 1029SOL    HW1 3761   1.763   3.150   4.395
 1029SOL    HW2 3762   1.619   3.226   4.412
 1030SOL     OW 3763   1.390   2.437   3.802
 1030SOL    HW1 3764   1.336   2.416   3.883
 1030SOL    HW2 3765   1.481   2.396   3.811
 1031SOL     OW 3766   0.527   2.118   4.052
 1031SOL    HW1 3767   0.554   2.059   3.977
 1031SOL    HW2 3768   0.527   2.213   4.021
 1032SOL     OW 3769   1.111   3.057   4.824
 1032SOL    HW1 3770   1.071   3.101   4.905
 1032SOL    HW2 3771   1.070   3.094   4.741
 1033SOL     OW 3772   1.638   2.961   4.803
 1033SOL    HW1 3773   1.643   3.042   4.862
 1033SOL    HW2 3774   1.552   2.963   4.752
 1034SOL     OW 3775   0.705   2.912   4.092
 1034SOL    HW1 3776   0.691   2.919   4.191
 1034SOL    HW2 3777   0.789   2.861   4.074
 1035SOL     OW 3778   0.410   2.675   4.975
 1035SOL    HW1 3779   0.496   2.687   5.025
 1035SOL    HW2 3780   0.368   2.588   5.002
 1036SOL     OW 3781   1.274   2.248   4.986
 1036SOL    HW1 3782   1.295   2.322   5.050
 1036SOL    HW2 3783   1.185   2.265   4.943
 1037SOL     OW 3784   0.367   2.962   4.225
 1037SOL    HW1 3785   0.360   3.045   4.169
 1037SOL    HW2 3786   0.371   2.882   4.165
 1038SOL     OW 3787   0.566   2.399   4.589
 1038SOL    HW1 3788   0.578   2.465   4.515
 1038SOL    HW2 3789   0.612   2.433   4.672
 1039SOL     OW 3790   1.252   3.210   4.112
 1039SOL    HW1 3791   1.302   3.287   4.152
 1039SOL    HW2 3792   1.157   3.212   4.144
 1040SOL     OW 3793   1.272   3.307   4.866
 1040SOL    HW1 3794   1.319   3.320   4.953
 1040SOL    HW2 3795   1.206   3.233   4.875
 1041SOL     OW 3796   1.582   2.501   4.196
 1041SOL    HW1 3797   1.551   2.562   4.269
 1041SOL    HW2 3798   1.632   2.553   4.127
 1042SOL     OW 3799   0.354   3.372   5.053
 1042SOL    HW1 3800   0.333   3.328   4.966
 1042SOL    HW2 3801   0.451   3.398   5.056
 1043SOL     OW 3802   0.573   2.732   4.753
 1043SOL    HW1 3803   0.617   2.821   4.744
 1043SOL    HW2 3804   0.510   2.732   4.830
 1044SOL     OW 3805   1.360   2.724   4.769
 1044SOL    HW1 3806   1.285   2.724   4.703
 1044SOL    HW2 3807   1.397   2.632   4.778
 1045SOL     OW 3808   1.209   2.387   3.999
 1045SOL    HW1 3809   1.222   2.303   4.053
 1045SOL    HW2 3810   1.180   2.461   4.059
 1046SOL     OW 3811   0.307   2.075   4.955
 1046SOL    HW1 3812   0.284   2.112   5.045
 1046SOL    HW2 3813   0.277   1.980   4.949
 1047SOL     OW 3814   0.037   3.172   5.006
 1047SOL    HW1 3815   0.090   3.123   5.074
 1047SOL    HW2 3816   0.059   3.270   5.011
 1048SOL     OW 3817   0.732   2.496   4.788
 1048SOL    HW1 3818   0.791   2.470   4.712
 1048SOL    HW2 3819   0.704   2.592   4.777
 1049SOL     OW 3820   0.307   1.925   4.342
 1049SOL    HW1 3821   0.296   2.019   4.375
 1049SOL    HW2 3822   0.302   1.862   4.419
 1050SOL     OW 3823   1.622   2.229   4.098
 1050SOL    HW1 3824   1.624   2.153   4.162
 1050SOL    HW2 3825   1.574   2.306   4.138
 1051SOL     OW 3826   1.023   2.628   4.690
 1051SOL    HW1 3827   1.038   2.649   4.786
 1051SOL    HW2 3828   0.993   2.533   4.681
 1052SOL     OW 3829   1.540   2.136   3.849
 1052SOL    HW1 3830   1.479   2.061   3.872
 1052SOL    HW2 3831   1.562   2.188   3.932
 1053SOL     OW 3832   1.303   2.700   3.766
 1053SOL    HW1 3833   1.337   2.607   3.781
 1053SOL    HW2 3834   1.321   2.727   3.671
 1054SOL     OW 3835   1.068   3.195   4.573
 1054SOL    HW1 3836   1.075   3.111   4.518
 1054SOL    HW2 3837   1.130   3.264   4.537
 1055SOL     OW 3838   0.319   2.672   4.673
 1055SOL    HW1 3839   0.412   2.708   4.678
 1055SOL    HW2 3840   0.313   2.587   4.725
 1056SOL     OW 3841   0.339   2.371   4.730
 1056SOL    HW1 3842   0.287   2.288   4.713
 1056SOL    HW2 3843   0.416   2.376   4.666
 1057SOL     OW 3844   1.160   2.069   5.201
 1057SOL    HW1 3845   1.160   2.133   5.278
 1057SOL    HW2 3846   1.188   2.117   5.118
 1058SOL     OW 3847   0.008   3.188   3.924
 1058SOL    HW1 3848  -0.085   3.209   3.893
 1058SOL    HW2 3849   0.018   3.089   3.937
 1059SOL     OW 3850   0.088   3.663   4.651
 1059SOL    HW1 3851   0.046   3.577   4.624
 1059SOL    HW2 3852   0.182   3.666   4.617
 1060SOL     OW 3853   0.504   3.430   4.634
 1060SOL    HW1 3854   0.570   3.504   4.643
 1060SOL    HW2 3855   0.548   3.351   4.592
 1061SOL     OW 3856   1.002   2.658   4.962
 1061SOL    HW1 3857   1.043   2.626   5.048
 1061SOL    HW2 3858   0.906   2.631   4.959
 1062SOL     OW 3859   0.040   2.406   4.838
 1062SOL    HW1 3860   0.125   2.373   4.797
 1062SOL    HW2 3861   0.053   2.421   4.936
 1063SOL     OW 3862   0.815   2.434   4.049
 1063SOL    HW1 3863   0.822   2.345   4.003
 1063SOL    HW2 3864   0.721   2.468   4.041
 1064SOL     OW 3865   1.657   2.466   4.930
 1064SOL    HW1 3866   1.619   2.397   4.992
 1064SOL    HW2 3867   1.739   2.430   4.886
 1065SOL     OW 3868   0.671   2.326   4.993
 1065SOL    HW1 3869   0.637   2.237   4.963
 1065SOL    HW2 3870   0.697   2.380   4.913
 1066SOL     OW 3871   0.930   3.540   5.189
 1066SOL    HW1 3872   0.906   3.522   5.094
 1066SOL    HW2 3873   0.960   3.634   5.199
 1067SOL     OW 3874   0.473   2.362   3.915
 1067SOL    HW1 3875   0.534   2.442   3.919
 1067SOL    HW2 3876   0.378   2.393   3.922
 1068SOL     OW 3877   1.347   2.921   4.958
 1068SOL    HW1 3878   1.371   2.858   4.884
 1068SOL    HW2 3879   1.257   2.961   4.940
 1069SOL     OW 3880   1.302   2.717   4.033
 1069SOL    HW1 3881   1.216   2.686   4.075
 1069SOL    HW2 3882   1.298   2.703   3.934
 1070SOL     OW 3883   1.759   3.609   4.878
 1070SOL    HW1 3884   1.820   3.639   4.805
 1070SOL    HW2 3885   1.721   3.520   4.856
 1071SOL     OW 3886   1.252   3.593   4.852
 1071SOL    HW1 3887   1.336   3.598   4.798
 1071SOL    HW2 3888   1.229   3.497   4.870
 1072SOL     OW 3889   0.083   3.120   4.746
 1072SOL    HW1 3890   0.078   3.119   4.846
 1072SOL    HW2 3891   0.000   3.079   4.708
 1073SOL     OW 3892   1.726   1.997   4.247
 1073SOL    HW1 3893   1.799   1.980   4.180
 1073SOL    HW2 3894   1.695   1.910   4.285
 1074SOL     OW 3895   1.388   3.435   4.201
 1074SOL    HW1 3896   1.455   3.447   4.127
 1074SOL    HW2 3897   1.348   3.524   4.224
 1075SOL     OW 3898   1.280   2.789   4.396
 1075SOL    HW1 3899   1.340   2.708   4.398
 1075SOL    HW2 3900   1.320   2.858   4.336
 1076SOL     OW 3901   0.672   3.478   3.878
 1076SOL    HW1 3902   0.681   3.488   3.779
 1076SOL    HW2 3903   0.632   3.389   3.899
 1077SOL     OW 3904   1.841   2.037   4.687
 1077SOL    HW1 3905   1.880   1.952   4.651
 1077SOL    HW2 3906   1.743   2.039   4.668
 1078SOL     OW 3907   0.263   2.188   4.444
 1078SOL    HW1 3908   0.184   2.239   4.410
 1078SOL    HW2 3909   0.254   2.173   4.542
 1079SOL     OW 3910   1.194   3.474   3.755
 1079SOL    HW1 3911   1.200   3.381   3.792
 1079SOL    HW2 3912   1.135   3.474   3.675
 1080SOL     OW 3913   0.822   2.864   5.096
 1080SOL    HW1 3914   0.862   2.863   5.004
 1080SOL    HW2 3915   0.832   2.956   5.136
 1081SOL     OW 3916   0.916   2.772   4.015
 1081SOL    HW1 3917   0.979   2.810   3.947
 1081SOL    HW2 3918   0.956   2.689   4.054
 1082SOL     OW 3919   1.504   3.469   3.768
 1082SOL    HW1 3920   1.412   3.506   3.775
 1082SOL    HW2 3921   1.542   3.489   3.678
 1083SOL     OW 3922   1.039   2.960   4.420
 1083SOL    HW1 3923   0.969   2.913   4.474
 1083SOL    HW2 3924   1.098   2.892   4.377
 1084SOL     OW 3925   1.014   2.098   4.695
 1084SOL    HW1 3926   1.006   2.062   4.602
 1084SOL    HW2 3927   1.012   2.022   4.760
 1085SOL     OW 3928   0.590   3.349   4.215
 1085SOL    HW1 3929   0.632   3.291   4.145
 1085SOL    HW2 3930   0.546   3.428   4.171
 1086SOL     OW 3931   1.709   2.247   5.105
 1086SOL    HW1 3932   1.782   2.316   5.109
 1086SOL    HW2 3933   1.737   2.172   5.046
 1087SOL     OW 3934   0.255   3.210   4.014
 1087SOL    HW1 3935   0.159   3.211   3.987
 1087SOL    HW2 3936   0.267   3.263   4.098
 1088SOL     OW 3937   0.075   2.207   3.757
 1088SOL    HW1 3938  -0.017   2.179   3.728
 1088SOL    HW2 3939   0.106   2.284   3.701
 1089SOL     OW 3940   0.072   2.028   4.042
 1089SOL    HW1 3941   0.055   2.111   3.988
 1089SOL    HW2 3942   0.162   1.991   4.020
 1090SOL     OW 3943   1.183   3.197   3.843
 1090SOL    HW1 3944   1.084   3.186   3.845
 1090SOL    HW2 3945   1.217   3.212   3.936
 1091SOL     OW 3946   1.493   3.629   4.683
 1091SOL    HW1 3947   1.526   3.693   4.614
 1091SOL    HW2 3948   1.559   3.623   4.758
 1092SOL     OW 3949   1.450   3.082   5.357
 1092SOL    HW1 3950   1.441   3.072   5.456
 1092SOL    HW2 3951   1.546   3.075   5.331
 1093SOL     OW 3952   1.674   2.745   4.978
 1093SOL    HW1 3953   1.647   2.656   4.941
 1093SOL    HW2 3954   1.675   2.813   4.905
 1094SOL     OW 3955   1.225   2.187   4.173
 1094SOL    HW1 3956   1.290   2.113   4.162
 1094SOL    HW2 3957   1.245   2.237   4.257
 1095SOL     OW 3958   0.594   2.607   4.376
 1095SOL    HW1 3959   0.644   2.692   4.357
 1095SOL    HW2 3960   0.506   2.609   4.328
 1096SOL     OW 3961   1.730   2.796   5.241
 1096SOL    HW1 3962   1.768   2.887   5.256
 1096SOL    HW2 3963   1.722   2.779   5.142
 1097SOL     OW 3964   0.859   3.236   3.740
 1097SOL    HW1 3965   0.813   3.251   3.828
 1097SOL    HW2 3966   0.903   3.321   3.710
 1098SOL     OW 3967   0.661   3.652   4.677
 1098SOL    HW1 3968   0.615   3.740   4.664
 1098SOL    HW2 3969   0.760   3.664   4.670
 1099SOL     OW 3970   0.859   2.818   4.585
 1099SOL    HW1 3971   0.913   2.749   4.633
 1099SOL    HW2 3972   0.827   2.887   4.651
 1100SOL     OW 3973   1.083   2.846   3.811
 1100SOL    HW1 3974   1.060   2.899   3.729
 1100SOL    HW2 3975   1.164   2.790   3.792
 1101SOL     OW 3976   1.861   3.431   4.575
 1101SOL    HW1 3977   1.790   3.419   4.505
 1101SOL    HW2 3978   1.862   3.352   4.635
 1102SOL     OW 3979   0.079   3.102   4.377
 1102SOL    HW1 3980   0.078   3.055   4.465
 1102SOL    HW2 3981   0.161   3.074   4.326
 1103SOL     OW 3982   1.824   2.054   4.951
 1103SOL    HW1 3983   1.820   1.964   4.995
 1103SOL    HW2 3984   1.827   2.043   4.852
 1104SOL     OW 3985   0.428   2.286   4.244
 1104SOL    HW1 3986   0.458   2.214   4.182
 1104SOL    HW2 3987   0.389   2.246   4.327
 1105SOL     OW 3988   1.705   3.349   4.828
 1105SOL    HW1 3989   1.612   3.324   4.801
 1105SOL    HW2 3990   1.731   3.299   4.910
 1106SOL     OW 3991   0.812   3.448   4.411
 1106SOL    HW1 3992   0.844   3.458   4.317
 1106SOL    HW2 3993   0.733   3.386   4.413
 1107SOL     OW 3994   1.424   2.076   4.836
 1107SOL    HW1 3995   1.476   2.011   4.891
 1107SOL    HW2 3996   1.375   2.139   4.897
 1108SOL     OW 3997   1.001   1.896   4.878
 1108SOL    HW1 3998   0.938   1.824   4.847
 1108SOL    HW2 3999   1.094   1.860   4.878
 1109SOL     OW 4000   0.770   3.192   4.025
 1109SOL    HW1 4001   0.724   3.105   4.042
 1109SOL    HW2 4002   0.861   3.189   4.066
 1110SOL     OW 4003   1.352   1.914   3.892
 1110SOL    HW1 4004   1.387   1.873   3.808
 1110SOL    HW2 4005   1.262   1.876   3.912
 1111SOL     OW 4006   1.300   2.315   4.415
 1111SOL    HW1 4007   1.241   2.395   4.419
 1111SOL    HW2 4008   1.315   2.280   4.508
 1112SOL     OW 4009   1.593   2.083   4.606
 1112SOL    HW1 4010   1.509   2.082   4.660
 1112SOL    HW2 4011   1.595   2.166   4.550
 1113SOL     OW 4012   0.039   2.939   4.024
 1113SOL    HW1 4013   0.138   2.928   4.015
 1113SOL    HW2 4014  -0.001   2.853   4.056
 1114SOL     OW 4015   0.875   3.508   4.061
 1114SOL    HW1 4016   0.798   3.473   4.007
 1114SOL    HW2 4017   0.843   3.579   4.123
 1115SOL     OW 4018   0.230   4.352   0.113
 1115SOL    HW1 4019   0.137   4.350   0.150
 1115SOL    HW2 4020   0.231   4.313   0.021
 1116SOL     OW 4021   0.225   3.999   0.996
 1116SOL    HW1 4022   0.260   3.982   1.088
 1116SOL    HW2 4023   0.137   3.954   0.984
 1117SOL     OW 4024   0.019   4.092   0.647
 1117SOL    HW1 4025  -0.063   4.135   0.686
 1117SOL    HW2 4026  -0.009   4.019   0.584
 1118SOL     OW 4027   0.569   4.999   1.165
 1118SOL    HW1 4028   0.476   4.992   1.128
 1118SOL    HW2 4029   0.580   5.088   1.209
 1119SOL     OW 4030   1.555   5.235   0.703
 1119SOL    HW1 4031   1.498   5.219   0.784
 1119SOL    HW2 4032   1.496   5.245   0.623
 1120SOL     OW 4033   1.135   4.427   0.717
 1120SOL    HW1 4034   1.192   4.505   0.692
 1120SOL    HW2 4035   1.075   4.453   0.793
 1121SOL     OW 4036   1.755   4.331   0.231
 1121SOL    HW1 4037   1.743   4.318   0.132
 1121SOL    HW2 4038   1.725   4.250   0.280
 1122SOL     OW 4039   0.768   4.868   1.023
 1122SOL    HW1 4040   0.690   4.885   1.083
 1122SOL    HW2 4041   0.802   4.955   0.987
 1123SOL     OW 4042   0.850   4.522   1.823
 1123SOL    HW1 4043   0.846   4.598   1.888
 1123SOL    HW2 4044   0.872   4.558   1.732
 1124SOL     OW 4045   0.685   4.736   0.665
 1124SOL    HW1 4046   0.754   4.720   0.735
 1124SOL    HW2 4047   0.612   4.793   0.703
 1125SOL     OW 4048   0.686   4.885   1.803
 1125SOL    HW1 4049   0.746   4.964   1.817
 1125SOL    HW2 4050   0.600   4.916   1.762
 1126SOL     OW 4051   0.335   5.159   1.061
 1126SOL    HW1 4052   0.257   5.128   1.008
 1126SOL    HW2 4053   0.393   5.217   1.004
 1127SOL     OW 4054   0.438   4.116   1.499
 1127SOL    HW1 4055   0.520   4.060   1.508
 1127SOL    HW2 4056   0.357   4.058   1.503
 1128SOL     OW 4057   1.603   4.171   0.737
 1128SOL    HW1 4058   1.529   4.217   0.687
 1128SOL    HW2 4059   1.654   4.239   0.790
 1129SOL     OW 4060   0.240   4.815   0.886
 1129SOL    HW1 4061   0.254   4.731   0.938
 1129SOL    HW2 4062   0.185   4.879   0.941
 1130SOL     OW 4063   0.606   4.688   0.123
 1130SOL    HW1 4064   0.613   4.772   0.069
 1130SOL    HW2 4065   0.652   4.701   0.211
 1131SOL     OW 4066   1.594   3.838   1.480
 1131SOL    HW1 4067   1.576   3.905   1.408
 1131SOL    HW2 4068   1.591   3.884   1.569
 1132SOL     OW 4069   0.122   4.367   0.563
 1132SOL    HW1 4070   0.077   4.279   0.580
 1132SOL    HW2 4071   0.121   4.421   0.647
 1133SOL     OW 4072   1.689   4.646   0.612
 1133SOL    HW1 4073   1.784   4.617   0.620
 1133SOL    HW2 4074   1.681   4.711   0.537
 1134SOL     OW 4075   1.641   4.832   0.432
 1134SOL    HW1 4076   1.727   4.834   0.380
 1134SOL    HW2 4077   1.655   4.879   0.520
 1135SOL     OW 4078   0.113   4.461   1.597
 1135SOL    HW1 4079   0.201   4.448   1.642
 1135SOL    HW2 4080   0.100   4.558   1.575
 1136SOL     OW 4081   1.293   4.952   1.423
 1136SOL    HW1 4082   1.330   4.879   1.365
 1136SOL    HW2 4083   1.345   4.957   1.508
 1137SOL     OW 4084   0.809   3.728   0.502
 1137SOL    HW1 4085   0.849   3.819   0.493
 1137SOL    HW2 4086   0.709   3.736   0.508
 1138SOL     OW 4087   0.197   4.700   1.264
 1138SOL    HW1 4088   0.286   4.655   1.250
 1138SOL    HW2 4089   0.124   4.635   1.245
 1139SOL     OW 4090   1.525   4.723   0.190
 1139SOL    HW1 4091   1.462   4.647   0.203
 1139SOL    HW2 4092   1.573   4.741   0.276
 1140SOL     OW 4093   0.317   3.975   1.801
 1140SOL    HW1 4094   0.388   4.046   1.807
 1140SOL    HW2 4095   0.229   4.014   1.829
 1141SOL     OW 4096   1.466   5.141   0.953
 1141SOL    HW1 4097   1.407   5.147   1.033
 1141SOL    HW2 4098   1.451   5.053   0.907
 1142SOL     OW 4099   0.598   4.453   0.270
 1142SOL    HW1 4100   0.622   4.522   0.202
 1142SOL    HW2 4101   0.520   4.486   0.324
 1143SOL     OW 4102   1.281   4.069   0.944
 1143SOL    HW1 4103   1.195   4.019   0.931
 1143SOL    HW2 4104   1.343   4.015   1.000
 1144SOL     OW 4105   0.807   4.329   1.465
 1144SOL    HW1 4106   0.760   4.326   1.554
 1144SOL    HW2 4107   0.756   4.274   1.399
 1145SOL     OW 4108   1.394   4.193   1.674
 1145SOL    HW1 4109   1.374   4.236   1.762
 1145SOL    HW2 4110   1.472   4.131   1.683
 1146SOL     OW 4111   0.973   4.614   1.572
 1146SOL    HW1 4112   1.019   4.530   1.543
 1146SOL    HW2 4113   0.917   4.648   1.497
 1147SOL     OW 4114   0.991   4.134   1.242
 1147SOL    HW1 4115   0.914   4.168   1.296
 1147SOL    HW2 4116   0.957   4.083   1.163
 1148SOL     OW 4117   1.041   4.425   0.429
 1148SOL    HW1 4118   1.067   4.421   0.525
 1148SOL    HW2 4119   0.956   4.374   0.415
 1149SOL     OW 4120   0.076   4.535   0.789
 1149SOL    HW1 4121   0.175   4.523   0.798
 1149SOL    HW2 4122   0.052   4.630   0.810
 1150SOL     OW 4123   0.865   4.072   0.195
 1150SOL    HW1 4124   0.924   4.135   0.146
 1150SOL    HW2 4125   0.884   3.978   0.166
 1151SOL     OW 4126   1.719   4.309   1.831
 1151SOL    HW1 4127   1.693   4.398   1.795
 1151SOL    HW2 4128   1.717   4.241   1.758
 1152SOL     OW 4129   1.362   4.868   0.545
 1152SOL    HW1 4130   1.445   4.839   0.497
 1152SOL    HW2 4131   1.313   4.935   0.489
 1153SOL     OW 4132   0.550   3.920   0.885
 1153SOL    HW1 4133   0.545   3.915   0.985
 1153SOL    HW2 4134   0.552   4.016   0.856
 1154SOL     OW 4135   1.795   4.790   0.873
 1154SOL    HW1 4136   1.733   4.775   0.797
 1154SOL    HW2 4137   1.743   4.801   0.958
 1155SOL     OW 4138   0.321   4.667   0.242
 1155SOL    HW1 4139   0.403   4.706   0.200
 1155SOL    HW2 4140   0.294   4.585   0.193
 1156SOL     OW 4141   1.458   4.459   0.728
 1156SOL    HW1 4142   1.453   4.394   0.803
 1156SOL    HW2 4143   1.538   4.518   0.741
 1157SOL     OW 4144   0.202   4.009   1.498
 1157SOL    HW1 4145   0.122   4.069   1.485
 1157SOL    HW2 4146   0.192   3.960   1.584
 1158SOL     OW 4147   1.632   5.101   0.081
 1158SOL    HW1 4148   1.600   5.195   0.071
 1158SOL    HW2 4149   1.556   5.038   0.069
 1159SOL     OW 4150   0.382   4.424   0.480
 1159SOL    HW1 4151   0.427   4.334   0.477
 1159SOL    HW2 4152   0.288   4.413   0.513
 1160SOL     OW 4153   1.547   3.946   1.729
 1160SOL    HW1 4154   1.542   3.983   1.821
 1160SOL    HW2 4155   1.475   3.877   1.717
 1161SOL     OW 4156   0.781   3.988   1.749
 1161SOL    HW1 4157   0.848   3.927   1.792
 1161SOL    HW2 4158   0.708   4.007   1.814
 1162SOL     OW 4159   1.351   4.314   1.433
 1162SOL    HW1 4160   1.379   4.271   1.518
 1162SOL    HW2 4161   1.376   4.410   1.434
 1163SOL     OW 4162   0.803   5.126   0.924
 1163SOL    HW1 4163   0.893   5.140   0.882
 1163SOL    HW2 4164   0.732   5.128   0.853
 1164SOL     OW 4165   0.922   4.227   0.899
 1164SOL    HW1 4166   0.897   4.218   0.803
 1164SOL    HW2 4167   0.970   4.145   0.930
 1165SOL     OW 4168   0.539   3.788   0.512
 1165SOL    HW1 4169   0.458   3.789   0.570
 1165SOL    HW2 4170   0.542   3.871   0.457
 1166SOL     OW 4171   1.434   4.912   0.041
 1166SOL    HW1 4172   1.466   4.836   0.098
 1166SOL    HW2 4173   1.342   4.939   0.071
 1167SOL     OW 4174   0.297   3.759   0.171
 1167SOL    HW1 4175   0.346   3.843   0.150
 1167SOL    HW2 4176   0.359   3.694   0.216
 1168SOL     OW 4177   0.935   3.960   0.480
 1168SOL    HW1 4178   0.887   4.001   0.402
 1168SOL    HW2 4179   1.034   3.958   0.461
 1169SOL     OW 4180   1.076   4.407   1.464
 1169SOL    HW1 4181   0.996   4.346   1.467
 1169SOL    HW2 4182   1.157   4.354   1.440
 1170SOL     OW 4183   1.227   5.294   0.793
 1170SOL    HW1 4184   1.248   5.368   0.728
 1170SOL    HW2 4185   1.295   5.294   0.866
 1171SOL     OW 4186   0.459   4.876   0.741
 1171SOL    HW1 4187   0.388   4.849   0.806
 1171SOL    HW2 4188   0.433   4.848   0.648
 1172SOL     OW 4189   1.032   4.273   0.016
 1172SOL    HW1 4190   0.991   4.355  -0.023
 1172SOL    HW2 4191   1.096   4.299   0.089
 1173SOL     OW 4192   0.078   4.280   1.386
 1173SOL    HW1 4193   0.170   4.279   1.345
 1173SOL    HW2 4194   0.072   4.354   1.453
 1174SOL     OW 4195   0.561   3.946   1.147
 1174SOL    HW1 4196   0.599   3.862   1.184
 1174SOL    HW2 4197   0.473   3.965   1.191
 1175SOL     OW 4198   0.866   4.178   0.642
 1175SOL    HW1 4199   0.834   4.250   0.580
 1175SOL    HW2 4200   0.890   4.097   0.589
 1176SOL     OW 4201   1.017   3.763   0.753
 1176SOL    HW1 4202   0.945   3.768   0.684
 1176SOL    HW2 4203   0.993   3.694   0.822
 1177SOL     OW 4204   1.429   4.897   0.867
 1177SOL    HW1 4205   1.374   4.813   0.860
 1177SOL    HW2 4206   1.455   4.926   0.775
 1178SOL     OW 4207   1.466   4.314   0.992
 1178SOL    HW1 4208   1.436   4.219   0.999
 1178SOL    HW2 4209   1.539   4.330   1.058
 1179SOL     OW 4210   1.857   4.557   0.377
 1179SOL    HW1 4211   1.899   4.493   0.441
 1179SOL    HW2 4212   1.819   4.506   0.299
 1180SOL     OW 4213   1.664   5.004   0.657
 1180SOL    HW1 4214   1.763   5.012   0.671
 1180SOL    HW2 4215   1.619   5.088   0.688
 1181SOL     OW 4216   1.390   4.299   0.078
 1181SOL    HW1 4217   1.336   4.278   0.159
 1181SOL    HW2 4218   1.481   4.258   0.087
 1182SOL     OW 4219   0.527   3.980   0.328
 1182SOL    HW1 4220   0.554   3.921   0.253
 1182SOL    HW2 4221   0.527   4.075   0.297
 1183SOL     OW 4222   1.754   4.947   1.588
 1183SOL    HW1 4223   1.845   4.908   1.575
 1183SOL    HW2 4224   1.762   5.043   1.612
 1184SOL     OW 4225   1.638   4.823   1.079
 1184SOL    HW1 4226   1.643   4.904   1.138
 1184SOL    HW2 4227   1.552   4.825   1.028
 1185SOL     OW 4228   0.915   3.813   1.402
 1185SOL    HW1 4229   0.940   3.793   1.307
 1185SOL    HW2 4230   0.987   3.869   1.444
 1186SOL     OW 4231   0.980   4.840   1.719
 1186SOL    HW1 4232   0.881   4.846   1.729
 1186SOL    HW2 4233   1.003   4.760   1.663
 1187SOL     OW 4234   0.705   4.774   0.368
 1187SOL    HW1 4235   0.691   4.781   0.467
 1187SOL    HW2 4236   0.789   4.723   0.350
 1188SOL     OW 4237   0.410   4.537   1.251
 1188SOL    HW1 4238   0.496   4.549   1.301
 1188SOL    HW2 4239   0.368   4.450   1.278
 1189SOL     OW 4240   1.274   4.110   1.262
 1189SOL    HW1 4241   1.295   4.184   1.326
 1189SOL    HW2 4242   1.185   4.127   1.219
 1190SOL     OW 4243   0.367   4.824   0.501
 1190SOL    HW1 4244   0.360   4.907   0.445
 1190SOL    HW2 4245   0.371   4.744   0.441
 1191SOL     OW 4246   0.566   4.261   0.865
 1191SOL    HW1 4247   0.578   4.327   0.791
 1191SOL    HW2 4248   0.612   4.295   0.948
 1192SOL     OW 4249   1.582   4.363   0.472
 1192SOL    HW1 4250   1.551   4.424   0.545
 1192SOL    HW2 4251   1.632   4.415   0.403
 1193SOL     OW 4252   0.402   4.475   1.598
 1193SOL    HW1 4253   0.470   4.530   1.551
 1193SOL    HW2 4254   0.442   4.387   1.625
 1194SOL     OW 4255   1.587   4.503   1.670
 1194SOL    HW1 4256   1.495   4.541   1.665
 1194SOL    HW2 4257   1.647   4.550   1.605
 1195SOL     OW 4258   1.013   3.829   1.770
 1195SOL    HW1 4259   1.019   3.914   1.718
 1195SOL    HW2 4260   1.045   3.753   1.713
 1196SOL     OW 4261   0.504   3.774   1.740
 1196SOL    HW1 4262   0.462   3.717   1.670
 1196SOL    HW2 4263   0.438   3.843   1.772
 1197SOL     OW 4264   0.573   4.594   1.029
 1197SOL    HW1 4265   0.617   4.683   1.020
 1197SOL    HW2 4266   0.510   4.594   1.106
 1198SOL     OW 4267   1.360   4.586   1.045
 1198SOL    HW1 4268   1.285   4.586   0.979
 1198SOL    HW2 4269   1.397   4.494   1.054
 1199SOL     OW 4270   1.209   4.249   0.275
 1199SOL    HW1 4271   1.222   4.165   0.329
 1199SOL    HW2 4272   1.180   4.323   0.335
 1200SOL     OW 4273   0.307   3.937   1.231
 1200SOL    HW1 4274   0.284   3.974   1.321
 1200SOL    HW2 4275   0.277   3.842   1.225
 1201SOL     OW 4276   0.037   5.034   1.282
 1201SOL    HW1 4277   0.090   4.985   1.350
 1201SOL    HW2 4278   0.059   5.132   1.287
 1202SOL     OW 4279   0.732   4.358   1.064
 1202SOL    HW1 4280   0.791   4.332   0.988
 1202SOL    HW2 4281   0.704   4.454   1.053
 1203SOL     OW 4282   1.728   4.659   1.854
 1203SOL    HW1 4283   1.682   4.652   1.765
 1203SOL    HW2 4284   1.666   4.703   1.920
 1204SOL     OW 4285   0.307   3.787   0.618
 1204SOL    HW1 4286   0.296   3.881   0.651
 1204SOL    HW2 4287   0.302   3.724   0.695
 1205SOL     OW 4288   1.023   4.490   0.966
 1205SOL    HW1 4289   1.038   4.511   1.062
 1205SOL    HW2 4290   0.993   4.395   0.957
 1206SOL     OW 4291   1.859   5.242   1.605
 1206SOL    HW1 4292   1.873   5.269   1.510
 1206SOL    HW2 4293   1.942   5.264   1.658
 1207SOL     OW 4294   0.350   4.622   1.804
 1207SOL    HW1 4295   0.426   4.666   1.852
 1207SOL    HW2 4296   0.385   4.575   1.722
 1208SOL     OW 4297   1.540   3.998   0.125
 1208SOL    HW1 4298   1.479   3.923   0.148
 1208SOL    HW2 4299   1.562   4.050   0.208
 1209SOL     OW 4300   1.303   4.562   0.042
 1209SOL    HW1 4301   1.337   4.469   0.057
 1209SOL    HW2 4302   1.321   4.589  -0.053
 1210SOL     OW 4303   0.319   4.534   0.949
 1210SOL    HW1 4304   0.412   4.570   0.954
 1210SOL    HW2 4305   0.313   4.449   1.001
 1211SOL     OW 4306   0.339   4.233   1.006
 1211SOL    HW1 4307   0.287   4.150   0.989
 1211SOL    HW2 4308   0.416   4.238   0.942
 1212SOL     OW 4309   1.138   4.104   1.678
 1212SOL    HW1 4310   1.093   4.167   1.742
 1212SOL    HW2 4311   1.231   4.135   1.661
 1213SOL     OW 4312   1.160   3.931   1.477
 1213SOL    HW1 4313   1.160   3.995   1.554
 1213SOL    HW2 4314   1.188   3.979   1.394
 1214SOL     OW 4315   0.008   5.050   0.200
 1214SOL    HW1 4316  -0.085   5.071   0.169
 1214SOL    HW2 4317   0.018   4.951   0.213
 1215SOL     OW 4318   1.002   4.520   1.238
 1215SOL    HW1 4319   1.043   4.488   1.324
 1215SOL    HW2 4320   0.906   4.493   1.235
 1216SOL     OW 4321   0.040   4.268   1.114
 1216SOL    HW1 4322   0.125   4.235   1.073
 1216SOL    HW2 4323   0.053   4.283   1.212
 1217SOL     OW 4324   0.189   4.244   1.722
 1217SOL    HW1 4325   0.248   4.204   1.652
 1217SOL    HW2 4326   0.131   4.315   1.681
 1218SOL     OW 4327   1.369   4.674   1.660
 1218SOL    HW1 4328   1.408   4.763   1.680
 1218SOL    HW2 4329   1.379   4.654   1.563
 1219SOL     OW 4330   0.815   4.296   0.325
 1219SOL    HW1 4331   0.822   4.207   0.279
 1219SOL    HW2 4332   0.721   4.330   0.317
 1220SOL     OW 4333   1.657   4.328   1.206
 1220SOL    HW1 4334   1.619   4.259   1.268
 1220SOL    HW2 4335   1.739   4.292   1.162
 1221SOL     OW 4336   0.671   4.188   1.269
 1221SOL    HW1 4337   0.637   4.099   1.239
 1221SOL    HW2 4338   0.697   4.242   1.189
 1222SOL     OW 4339   0.473   4.224   0.191
 1222SOL    HW1 4340   0.534   4.304   0.195
 1222SOL    HW2 4341   0.378   4.255   0.198
 1223SOL     OW 4342   0.159   4.861   1.466
 1223SOL    HW1 4343   0.181   4.800   1.542
 1223SOL    HW2 4344   0.169   4.812   1.380
 1224SOL     OW 4345   1.347   4.783   1.234
 1224SOL    HW1 4346   1.371   4.720   1.160
 1224SOL    HW2 4347   1.257   4.823   1.216
 1225SOL     OW 4348   1.302   4.579   0.309
 1225SOL    HW1 4349   1.216   4.548   0.351
 1225SOL    HW2 4350   1.298   4.565   0.210
 1226SOL     OW 4351   0.083   4.982   1.022
 1226SOL    HW1 4352   0.078   4.981   1.122
 1226SOL    HW2 4353   0.000   4.941   0.984
 1227SOL     OW 4354   0.903   3.810   0.133
 1227SOL    HW1 4355   0.954   3.811   0.047
 1227SOL    HW2 4356   0.959   3.768   0.204
 1228SOL     OW 4357   1.280   4.651   0.672
 1228SOL    HW1 4358   1.340   4.570   0.674
 1228SOL    HW2 4359   1.320   4.720   0.612
 1229SOL     OW 4360   0.830   4.997   1.422
 1229SOL    HW1 4361   0.825   5.030   1.517
 1229SOL    HW2 4362   0.744   5.016   1.376
 1230SOL     OW 4363   1.841   3.899   0.963
 1230SOL    HW1 4364   1.880   3.814   0.927
 1230SOL    HW2 4365   1.743   3.901   0.944
 1231SOL     OW 4366   0.263   4.050   0.720
 1231SOL    HW1 4367   0.184   4.101   0.686
 1231SOL    HW2 4368   0.254   4.035   0.818
 1232SOL     OW 4369   0.822   4.726   1.372
 1232SOL    HW1 4370   0.862   4.725   1.280
 1232SOL    HW2 4371   0.832   4.818   1.412
 1233SOL     OW 4372   0.916   4.634   0.291
 1233SOL    HW1 4373   0.979   4.672   0.223
 1233SOL    HW2 4374   0.956   4.551   0.330
 1234SOL     OW 4375   0.372   5.012   1.490
 1234SOL    HW1 4376   0.359   5.105   1.456
 1234SOL    HW2 4377   0.288   4.960   1.477
 1235SOL     OW 4378   1.614   5.016   1.289
 1235SOL    HW1 4379   1.674   5.019   1.369
 1235SOL    HW2 4380   1.539   5.080   1.302
 1236SOL     OW 4381   1.039   4.822   0.696
 1236SOL    HW1 4382   0.969   4.775   0.750
 1236SOL    HW2 4383   1.098   4.754   0.653
 1237SOL     OW 4384   1.014   3.960   0.971
 1237SOL    HW1 4385   1.006   3.924   0.878
 1237SOL    HW2 4386   1.012   3.884   1.036
 1238SOL     OW 4387   1.709   4.109   1.381
 1238SOL    HW1 4388   1.782   4.178   1.385
 1238SOL    HW2 4389   1.737   4.034   1.322
 1239SOL     OW 4390   0.105   4.737   1.726
 1239SOL    HW1 4391   0.028   4.704   1.780
 1239SOL    HW2 4392   0.190   4.707   1.768
 1240SOL     OW 4393   0.672   3.927   1.489
 1240SOL    HW1 4394   0.762   3.911   1.449
 1240SOL    HW2 4395   0.680   3.932   1.588
 1241SOL     OW 4396   0.075   4.069   0.033
 1241SOL    HW1 4397  -0.017   4.041   0.004
 1241SOL    HW2 4398   0.106   4.146  -0.023
 1242SOL     OW 4399   1.440   4.580   1.398
 1242SOL    HW1 4400   1.383   4.632   1.335
 1242SOL    HW2 4401   1.536   4.592   1.374
 1243SOL     OW 4402   0.072   3.890   0.318
 1243SOL    HW1 4403   0.055   3.973   0.264
 1243SOL    HW2 4404   0.162   3.853   0.296
 1244SOL     OW 4405   0.613   4.566   1.431
 1244SOL    HW1 4406   0.669   4.647   1.414
 1244SOL    HW2 4407   0.672   4.486   1.434
 1245SOL     OW 4408   0.716   4.289   1.708
 1245SOL    HW1 4409   0.735   4.354   1.782
 1245SOL    HW2 4410   0.776   4.209   1.717
 1246SOL     OW 4411   1.450   4.944   1.633
 1246SOL    HW1 4412   1.441   4.934   1.732
 1246SOL    HW2 4413   1.546   4.937   1.607
 1247SOL     OW 4414   1.674   4.607   1.254
 1247SOL    HW1 4415   1.647   4.518   1.217
 1247SOL    HW2 4416   1.675   4.675   1.181
 1248SOL     OW 4417   1.225   4.049   0.449
 1248SOL    HW1 4418   1.290   3.975   0.438
 1248SOL    HW2 4419   1.245   4.099   0.533
 1249SOL     OW 4420   0.594   4.469   0.652
 1249SOL    HW1 4421   0.644   4.554   0.633
 1249SOL    HW2 4422   0.506   4.471   0.604
 1250SOL     OW 4423   1.777   4.066   1.642
 1250SOL    HW1 4424   1.760   4.097   1.548
 1250SOL    HW2 4425   1.693   4.029   1.680
 1251SOL     OW 4426   1.730   4.658   1.517
 1251SOL    HW1 4427   1.768   4.749   1.532
 1251SOL    HW2 4428   1.722   4.641   1.418
 1252SOL     OW 4429   0.859   4.680   0.861
 1252SOL    HW1 4430   0.913   4.611   0.909
 1252SOL    HW2 4431   0.827   4.749   0.927
 1253SOL     OW 4432   1.083   4.708   0.087
 1253SOL    HW1 4433   1.060   4.761   0.005
 1253SOL    HW2 4434   1.164   4.652   0.068
 1254SOL     OW 4435   0.079   4.964   0.653
 1254SOL    HW1 4436   0.078   4.917   0.741
 1254SOL    HW2 4437   0.161   4.936   0.602
 1255SOL     OW 4438   1.824   3.916   1.227
 1255SOL    HW1 4439   1.820   3.826   1.271
 1255SOL    HW2 4440   1.827   3.905   1.128
 1256SOL     OW 4441   0.428   4.148   0.520
 1256SOL    HW1 4442   0.458   4.076   0.458
 1256SOL    HW2 4443   0.389   4.108   0.603
 1257SOL     OW 4444   0.317   4.271   1.280
 1257SOL    HW1 4445   0.355   4.212   1.352
 1257SOL    HW2 4446   0.357   4.245   1.192
 1258SOL     OW 4447   1.424   3.938   1.112
 1258SOL    HW1 4448   1.476   3.873   1.167
 1258SOL    HW2 4449   1.375   4.001   1.173
 1259SOL     OW 4450   1.001   3.758   1.154
 1259SOL    HW1 4451   0.938   3.686   1.123
 1259SOL    HW2 4452   1.094   3.722   1.154
 1260SOL     OW 4453   0.770   5.054   0.301
 1260SOL    HW1 4454   0.724   4.967   0.318
 1260SOL    HW2 4455   0.861   5.051   0.342
 1261SOL     OW 4456   1.352   3.776   0.168
 1261SOL    HW1 4457   1.387   3.735   0.084
 1261SOL    HW2 4458   1.262   3.738   0.188
 1262SOL     OW 4459   1.300   4.177   0.691
 1262SOL    HW1 4460   1.241   4.257   0.695
 1262SOL    HW2 4461   1.315   4.142   0.784
 1263SOL     OW 4462   0.039   4.801   0.300
 1263SOL    HW1 4463   0.138   4.790   0.291
 1263SOL    HW2 4464  -0.001   4.715   0.332
 1264SOL     OW 4465   0.230   4.352   1.975
 1264SOL    HW1 4466   0.137   4.350   2.012
 1264SOL    HW2 4467   0.231   4.313   1.883
 1265SOL     OW 4468   0.225   3.999   2.858
 1265SOL    HW1 4469   0.260   3.982   2.950
 1265SOL    HW2 4470   0.137   3.954   2.846
 1266SOL     OW 4471   0.019   4.092   2.509
 1266SOL    HW1 4472  -0.063   4.135   2.548
 1266SOL    HW2 4473  -0.009   4.019   2.446
 1267SOL     OW 4474   0.569   4.999   3.027
 1267SOL    HW1 4475   0.476   4.992   2.990
 1267SOL    HW2 4476   0.580   5.088   3.071
 1268SOL     OW 4477   1.555   5.235   2.565
 1268SOL    HW1 4478   1.498   5.219   2.646
 1268SOL    HW2 4479   1.496   5.245   2.485
 1269SOL     OW 4480   1.135   4.427   2.579
 1269SOL    HW1 4481   1.192   4.505   2.554
 1269SOL    HW2 4482   1.075   4.453   2.655
 1270SOL     OW 4483   1.755   4.331   2.093
 1270SOL    HW1 4484   1.743   4.318   1.994
 1270SOL    HW2 4485   1.725   4.250   2.142
 1271SOL     OW 4486   0.768   4.868   2.885
 1271SOL    HW1 4487   0.690   4.885   2.945
 1271SOL    HW2 4488   0.802   4.955   2.849
 1272SOL     OW 4489   0.850   4.522   3.685
 1272SOL    HW1 4490   0.846   4.598   3.750
 1272SOL    HW2 4491   0.872   4.558   3.594
 1273SOL     OW 4492   0.685   4.736   2.527
 1273SOL    HW1 4493   0.754   4.720   2.597
 1273SOL    HW2 4494   0.612   4.793   2.565
 1274SOL     OW 4495   0.686   4.885   3.665
 1274SOL    HW1 4496   0.746   4.964   3.679
 1274SOL    HW2 4497   0.600   4.916   3.624
 1275SOL     OW 4498   0.335   5.159   2.923
 1275SOL    HW1 4499   0.257   5.128   2.870
 1275SOL    HW2 4500   0.393   5.217   2.866
 1276SOL     OW 4501   0.438   4.116   3.361
 1276SOL    HW1 4502   0.520   4.060   3.370
 1276SOL    HW2 4503   0.357   4.058   3.365
 1277SOL     OW 4504   1.603   4.171   2.599
 1277SOL    HW1 4505   1.529   4.217   2.549
 1277SOL    HW2 4506   1.654   4.239   2.652
 1278SOL     OW 4507   0.240   4.815   2.748
 1278SOL    HW1 4508   0.254   4.731   2.800
 1278SOL    HW2 4509   0.185   4.879   2.803
 1279SOL     OW 4510   0.606   4.688   1.985
 1279SOL    HW1 4511   0.613   4.772   1.931
 1279SOL    HW2 4512   0.652   4.701   2.073
 1280SOL     OW 4513   1.594   3.838   3.342
 1280SOL    HW1 4514   1.576   3.905   3.270
 1280SOL    HW2 4515   1.591   3.884   3.431
 1281SOL     OW 4516   0.122   4.367   2.425
 1281SOL    HW1 4517   0.077   4.279   2.442
 1281SOL    HW2 4518   0.121   4.421   2.509
 1282SOL     OW 4519   1.689   4.646   2.474
 1282SOL    HW1 4520   1.784   4.617   2.482
 1282SOL    HW2 4521   1.681   4.711   2.399
 1283SOL     OW 4522   1.641   4.832   2.294
 1283SOL    HW1 4523   1.727   4.834   2.242
 1283SOL    HW2 4524   1.655   4.879   2.382
 1284SOL     OW 4525   0.113   4.461   3.459
 1284SOL    HW1 4526   0.201   4.448   3.504
 1284SOL    HW2 4527   0.100   4.558   3.437
 1285SOL     OW 4528   1.293   4.952   3.285
 1285SOL    HW1 4529   1.330   4.879   3.227
 1285SOL    HW2 4530   1.345   4.957   3.370
 1286SOL     OW 4531   0.809   3.728   2.364
 1286SOL    HW1 4532   0.849   3.819   2.355
 1286SOL    HW2 4533   0.709   3.736   2.370
 1287SOL     OW 4534   1.525   4.723   2.052
 1287SOL    HW1 4535   1.462   4.647   2.065
 1287SOL    HW2 4536   1.573   4.741   2.138
 1288SOL     OW 4537   0.317   3.975   3.663
 1288SOL    HW1 4538   0.388   4.046   3.669
 1288SOL    HW2 4539   0.229   4.014   3.691
 1289SOL     OW 4540   1.466   5.141   2.815
 1289SOL    HW1 4541   1.407   5.147   2.895
 1289SOL    HW2 4542   1.451   5.053   2.769
 1290SOL     OW 4543   0.598   4.453   2.132
 1290SOL    HW1 4544   0.622   4.522   2.064
 1290SOL    HW2 4545   0.520   4.486   2.186
 1291SOL     OW 4546   1.281   4.069   2.806
 1291SOL    HW1 4547   1.195   4.019   2.793
 1291SOL    HW2 4548   1.343   4.015   2.862
 1292SOL     OW 4549   0.807   4.329   3.327
 1292SOL    HW1 4550   0.760   4.326   3.416
 1292SOL    HW2 4551   0.756   4.274   3.261
 1293SOL     OW 4552   1.394   4.193   3.536
 1293SOL    HW1 4553   1.374   4.236   3.624
 1293SOL    HW2 4554   1.472   4.131   3.545
 1294SOL     OW 4555   0.973   4.614   3.434
 1294SOL    HW1 4556   1.019   4.530   3.405
 1294SOL    HW2 4557   0.917   4.648   3.359
 1295SOL     OW 4558   0.991   4.134   3.104
 1295SOL    HW1 4559   0.914   4.168   3.158
 1295SOL    HW2 4560   0.957   4.083   3.025
 1296SOL     OW 4561   1.041   4.425   2.291
 1296SOL    HW1 4562   1.067   4.421   2.387
 1296SOL    HW2 4563   0.956   4.374   2.277
 1297SOL     OW 4564   0.076   4.535   2.651
 1297SOL    HW1 4565   0.175   4.523   2.660
 1297SOL    HW2 4566   0.052   4.630   2.672
 1298SOL     OW 4567   0.865   4.072   2.057
 1298SOL    HW1 4568   0.924   4.135   2.008
 1298SOL    HW2 4569   0.884   3.978   2.028
 1299SOL     OW 4570   1.719   4.309   3.693
 1299SOL    HW1 4571   1.693   4.398   3.657
 1299SOL    HW2 4572   1.717   4.241   3.620
 1300SOL     OW 4573   1.362   4.868   2.407
 1300SOL    HW1 4574   1.445   4.839   2.359
 1300SOL    HW2 4575   1.313   4.935   2.351
 1301SOL     OW 4576   0.550   3.920   2.747
 1301SOL    HW1 4577   0.545   3.915   2.847
 1301SOL    HW2 4578   0.552   4.016   2.718
 1302SOL     OW 4579   1.795   4.790   2.735
 1302SOL    HW1 4580   1.733   4.775   2.659
 1302SOL    HW2 4581   1.743   4.801   2.820
 1303SOL     OW 4582   0.321   4.667   2.104
 1303SOL    HW1 4583   0.403   4.706   2.062
 1303SOL    HW2 4584   0.294   4.585   2.055
 1304SOL     OW 4585   1.458   4.459   2.590
 1304SOL    HW1 4586   1.453   4.394   2.665
 1304SOL    HW2 4587   1.538   4.518   2.603
 1305SOL     OW 4588   0.202   4.009   3.360
 1305SOL    HW1 4589   0.122   4.069   3.347
 1305SOL    HW2 4590   0.192   3.960   3.446
 1306SOL     OW 4591   1.632   5.101   1.943
 1306SOL    HW1 4592   1.600   5.195   1.933
 1306SOL    HW2 4593   1.556   5.038   1.931
 1307SOL     OW 4594   1.400   3.831   2.288
 1307SOL    HW1 4595   1.376   3.794   2.198
 1307SOL    HW2 4596   1.499   3.847   2.292
 1308SOL     OW 4597   0.382   4.424   2.342
 1308SOL    HW1 4598   0.427   4.334   2.339
 1308SOL    HW2 4599   0.288   4.413   2.375
 1309SOL     OW 4600   1.547   3.946   3.591
 1309SOL    HW1 4601   1.542   3.983   3.683
 1309SOL    HW2 4602   1.475   3.877   3.579
 1310SOL     OW 4603   0.614   3.846   1.979
 1310SOL    HW1 4604   0.712   3.824   1.986
 1310SOL    HW2 4605   0.583   3.829   1.886
 1311SOL     OW 4606   0.781   3.988   3.611
 1311SOL    HW1 4607   0.848   3.927   3.654
 1311SOL    HW2 4608   0.708   4.007   3.676
 1312SOL     OW 4609   1.351   4.314   3.295
 1312SOL    HW1 4610   1.379   4.271   3.380
 1312SOL    HW2 4611   1.376   4.410   3.296
 1313SOL     OW 4612   0.803   5.126   2.786
 1313SOL    HW1 4613   0.893   5.140   2.744
 1313SOL    HW2 4614   0.732   5.128   2.715
 1314SOL     OW 4615   0.922   4.227   2.761
 1314SOL    HW1 4616   0.897   4.218   2.665
 1314SOL    HW2 4617   0.970   4.145   2.792
 1315SOL     OW 4618   0.539   3.788   2.374
 1315SOL    HW1 4619   0.458   3.789   2.432
 1315SOL    HW2 4620   0.542   3.871   2.319
 1316SOL     OW 4621   1.434   4.912   1.903
 1316SOL    HW1 4622   1.466   4.836   1.960
 1316SOL    HW2 4623   1.342   4.939   1.933
 1317SOL     OW 4624   0.297   3.759   2.033
 1317SOL    HW1 4625   0.346   3.843   2.012
 1317SOL    HW2 4626   0.359   3.694   2.078
 1318SOL     OW 4627   0.935   3.960   2.342
 1318SOL    HW1 4628   0.887   4.001   2.264
 1318SOL    HW2 4629   1.034   3.958   2.323
 1319SOL     OW 4630   1.076   4.407   3.326
 1319SOL    HW1 4631   0.996   4.346   3.329
 1319SOL    HW2 4632   1.157   4.354   3.302
 1320SOL     OW 4633   1.227   5.294   2.655
 1320SOL    HW1 4634   1.248   5.368   2.590
 1320SOL    HW2 4635   1.295   5.294   2.728
 1321SOL     OW 4636   0.459   4.876   2.603
 1321SOL    HW1 4637   0.388   4.849   2.668
 1321SOL    HW2 4638   0.433   4.848   2.510
 1322SOL     OW 4639   1.032   4.273   1.878
 1322SOL    HW1 4640   0.991   4.355   1.839
 1322SOL    HW2 4641   1.096   4.299   1.951
 1323SOL     OW 4642   0.078   4.280   3.248
 1323SOL    HW1 4643   0.170   4.279   3.207
 1323SOL    HW2 4644   0.072   4.354   3.315
 1324SOL     OW 4645   0.561   3.946   3.009
 1324SOL    HW1 4646   0.599   3.862   3.046
 1324SOL    HW2 4647   0.473   3.965   3.053
 1325SOL     OW 4648   0.866   4.178   2.504
 1325SOL    HW1 4649   0.834   4.250   2.442
 1325SOL    HW2 4650   0.890   4.097   2.451
 1326SOL     OW 4651   1.017   3.763   2.615
 1326SOL    HW1 4652   0.945   3.768   2.546
 1326SOL    HW2 4653   0.993   3.694   2.684
 1327SOL     OW 4654   1.429   4.897   2.729
 1327SOL    HW1 4655   1.374   4.813   2.722
 1327SOL    HW2 4656   1.455   4.926   2.637
 1328SOL     OW 4657   1.466   4.314   2.854
 1328SOL    HW1 4658   1.436   4.219   2.861
 1328SOL    HW2 4659   1.539   4.330   2.920
 1329SOL     OW 4660   1.857   4.557   2.239
 1329SOL    HW1 4661   1.899   4.493   2.303
 1329SOL    HW2 4662   1.819   4.506   2.161
 1330SOL     OW 4663   1.664   5.004   2.519
 1330SOL    HW1 4664   1.763   5.012   2.533
 1330SOL    HW2 4665   1.619   5.088   2.550
 1331SOL     OW 4666   1.390   4.299   1.940
 1331SOL    HW1 4667   1.336   4.278   2.021
 1331SOL    HW2 4668   1.481   4.258   1.949
 1332SOL     OW 4669   0.527   3.980   2.190
 1332SOL    HW1 4670   0.554   3.921   2.115
 1332SOL    HW2 4671   0.527   4.075   2.159
 1333SOL     OW 4672   1.754   4.947   3.450
 1333SOL    HW1 4673   1.845   4.908   3.437
 1333SOL    HW2 4674   1.762   5.043   3.474
 1334SOL     OW 4675   1.638   4.823   2.941
 1334SOL    HW1 4676   1.643   4.904   3.000
 1334SOL    HW2 4677   1.552   4.825   2.890
 1335SOL     OW 4678   0.915   3.813   3.264
 1335SOL    HW1 4679   0.940   3.793   3.169
 1335SOL    HW2 4680   0.987   3.869   3.306
 1336SOL     OW 4681   0.980   4.840   3.581
 1336SOL    HW1 4682   0.881   4.846   3.591
 1336SOL    HW2 4683   1.003   4.760   3.525
 1337SOL     OW 4684   0.705   4.774   2.230
 1337SOL    HW1 4685   0.691   4.781   2.329
 1337SOL    HW2 4686   0.789   4.723   2.212
 1338SOL     OW 4687   0.410   4.537   3.113
 1338SOL    HW1 4688   0.496   4.549   3.163
 1338SOL    HW2 4689   0.368   4.450   3.140
 1339SOL     OW 4690   1.274   4.110   3.124
 1339SOL    HW1 4691   1.295   4.184   3.188
 1339SOL    HW2 4692   1.185   4.127   3.081
 1340SOL     OW 4693   0.367   4.824   2.363
 1340SOL    HW1 4694   0.360   4.907   2.307
 1340SOL    HW2 4695   0.371   4.744   2.303
 1341SOL     OW 4696   0.566   4.261   2.727
 1341SOL    HW1 4697   0.578   4.327   2.653
 1341SOL    HW2 4698   0.612   4.295   2.810
 1342SOL     OW 4699   1.582   4.363   2.334
 1342SOL    HW1 4700   1.551   4.424   2.407
 1342SOL    HW2 4701   1.632   4.415   2.265
 1343SOL     OW 4702   0.402   4.475   3.460
 1343SOL    HW1 4703   0.470   4.530   3.413
 1343SOL    HW2 4704   0.442   4.387   3.487
 1344SOL     OW 4705   1.587   4.503   3.532
 1344SOL    HW1 4706   1.495   4.541   3.527
 1344SOL    HW2 4707   1.647   4.550   3.467
 1345SOL     OW 4708   1.013   3.829   3.632
 1345SOL    HW1 4709   1.019   3.914   3.580
 1345SOL    HW2 4710   1.045   3.753   3.575
 1346SOL     OW 4711   0.504   3.774   3.602
 1346SOL    HW1 4712   0.462   3.717   3.532
 1346SOL    HW2 4713   0.438   3.843   3.634
 1347SOL     OW 4714   0.573   4.594   2.891
 1347SOL    HW1 4715   0.617   4.683   2.882
 1347SOL    HW2 4716   0.510   4.594   2.968
 1348SOL     OW 4717   1.360   4.586   2.907
 1348SOL    HW1 4718   1.285   4.586   2.841
 1348SOL    HW2 4719   1.397   4.494   2.916
 1349SOL     OW 4720   1.209   4.249   2.137
 1349SOL    HW1 4721   1.222   4.165   2.191
 1349SOL    HW2 4722   1.180   4.323   2.197
 1350SOL     OW 4723   0.307   3.937   3.093
 1350SOL    HW1 4724   0.284   3.974   3.183
 1350SOL    HW2 4725   0.277   3.842   3.087
 1351SOL     OW 4726   0.037   5.034   3.144
 1351SOL    HW1 4727   0.090   4.985   3.212
 1351SOL    HW2 4728   0.059   5.132   3.149
 1352SOL     OW 4729   0.732   4.358   2.926
 1352SOL    HW1 4730   0.791   4.332   2.850
 1352SOL    HW2 4731   0.704   4.454   2.915
 1353SOL     OW 4732   1.728   4.659   3.716
 1353SOL    HW1 4733   1.682   4.652   3.627
 1353SOL    HW2 4734   1.666   4.703   3.782
 1354SOL     OW 4735   0.307   3.787   2.480
 1354SOL    HW1 4736   0.296   3.881   2.513
 1354SOL    HW2 4737   0.302   3.724   2.557
 1355SOL     OW 4738   1.622   4.091   2.236
 1355SOL    HW1 4739   1.624   4.015   2.300
 1355SOL    HW2 4740   1.574   4.168   2.276
 1356SOL     OW 4741   1.023   4.490   2.828
 1356SOL    HW1 4742   1.038   4.511   2.924
 1356SOL    HW2 4743   0.993   4.395   2.819
 1357SOL     OW 4744   1.859   5.242   3.467
 1357SOL    HW1 4745   1.873   5.269   3.372
 1357SOL    HW2 4746   1.942   5.264   3.520
 1358SOL     OW 4747   0.350   4.622   3.666
 1358SOL    HW1 4748   0.426   4.666   3.714
 1358SOL    HW2 4749   0.385   4.575   3.584
 1359SOL     OW 4750   1.540   3.998   1.987
 1359SOL    HW1 4751   1.479   3.923   2.010
 1359SOL    HW2 4752   1.562   4.050   2.070
 1360SOL     OW 4753   1.303   4.562   1.904
 1360SOL    HW1 4754   1.337   4.469   1.919
 1360SOL    HW2 4755   1.321   4.589   1.809
 1361SOL     OW 4756   0.319   4.534   2.811
 1361SOL    HW1 4757   0.412   4.570   2.816
 1361SOL    HW2 4758   0.313   4.449   2.863
 1362SOL     OW 4759   0.339   4.233   2.868
 1362SOL    HW1 4760   0.287   4.150   2.851
 1362SOL    HW2 4761   0.416   4.238   2.804
 1363SOL     OW 4762   1.138   4.104   3.540
 1363SOL    HW1 4763   1.093   4.167   3.604
 1363SOL    HW2 4764   1.231   4.135   3.523
 1364SOL     OW 4765   1.160   3.931   3.339
 1364SOL    HW1 4766   1.160   3.995   3.416
 1364SOL    HW2 4767   1.188   3.979   3.256
 1365SOL     OW 4768   0.008   5.050   2.062
 1365SOL    HW1 4769  -0.085   5.071   2.031
 1365SOL    HW2 4770   0.018   4.951   2.075
 1366SOL     OW 4771   1.002   4.520   3.100
 1366SOL    HW1 4772   1.043   4.488   3.186
 1366SOL    HW2 4773   0.906   4.493   3.097
 1367SOL     OW 4774   0.040   4.268   2.976
 1367SOL    HW1 4775   0.125   4.235   2.935
 1367SOL    HW2 4776   0.053   4.283   3.074
 1368SOL     OW 4777   0.189   4.244   3.584
 1368SOL    HW1 4778   0.248   4.204   3.514
 1368SOL    HW2 4779   0.131   4.315   3.543
 1369SOL     OW 4780   1.369   4.674   3.522
 1369SOL    HW1 4781   1.408   4.763   3.542
 1369SOL    HW2 4782   1.379   4.654   3.425
 1370SOL     OW 4783   0.815   4.296   2.187
 1370SOL    HW1 4784   0.822   4.207   2.141
 1370SOL    HW2 4785   0.721   4.330   2.179
 1371SOL     OW 4786   0.671   4.188   3.131
 1371SOL    HW1 4787   0.637   4.099   3.101
 1371SOL    HW2 4788   0.697   4.242   3.051
 1372SOL     OW 4789   0.473   4.224   2.053
 1372SOL    HW1 4790   0.534   4.304   2.057
 1372SOL    HW2 4791   0.378   4.255   2.060
 1373SOL     OW 4792   1.347   4.783   3.096
 1373SOL    HW1 4793   1.371   4.720   3.022
 1373SOL    HW2 4794   1.257   4.823   3.078
 1374SOL     OW 4795   1.302   4.579   2.171
 1374SOL    HW1 4796   1.216   4.548   2.213
 1374SOL    HW2 4797   1.298   4.565   2.072
 1375SOL     OW 4798   0.083   4.982   2.884
 1375SOL    HW1 4799   0.078   4.981   2.984
 1375SOL    HW2 4800   0.000   4.941   2.846
 1376SOL     OW 4801   1.726   3.859   2.385
 1376SOL    HW1 4802   1.799   3.842   2.318
 1376SOL    HW2 4803   1.695   3.772   2.423
 1377SOL     OW 4804   1.280   4.651   2.534
 1377SOL    HW1 4805   1.340   4.570   2.536
 1377SOL    HW2 4806   1.320   4.720   2.474
 1378SOL     OW 4807   0.830   4.997   3.284
 1378SOL    HW1 4808   0.825   5.030   3.379
 1378SOL    HW2 4809   0.744   5.016   3.238
 1379SOL     OW 4810   1.841   3.899   2.825
 1379SOL    HW1 4811   1.880   3.814   2.789
 1379SOL    HW2 4812   1.743   3.901   2.806
 1380SOL     OW 4813   0.263   4.050   2.582
 1380SOL    HW1 4814   0.184   4.101   2.548
 1380SOL    HW2 4815   0.254   4.035   2.680
 1381SOL     OW 4816   1.194   5.336   1.893
 1381SOL    HW1 4817   1.200   5.243   1.930
 1381SOL    HW2 4818   1.135   5.336   1.813
 1382SOL     OW 4819   0.822   4.726   3.234
 1382SOL    HW1 4820   0.862   4.725   3.142
 1382SOL    HW2 4821   0.832   4.818   3.274
 1383SOL     OW 4822   0.916   4.634   2.153
 1383SOL    HW1 4823   0.979   4.672   2.085
 1383SOL    HW2 4824   0.956   4.551   2.192
 1384SOL     OW 4825   0.372   5.012   3.352
 1384SOL    HW1 4826   0.359   5.105   3.318
 1384SOL    HW2 4827   0.288   4.960   3.339
 1385SOL     OW 4828   1.614   5.016   3.151
 1385SOL    HW1 4829   1.674   5.019   3.231
 1385SOL    HW2 4830   1.539   5.080   3.164
 1386SOL     OW 4831   1.039   4.822   2.558
 1386SOL    HW1 4832   0.969   4.775   2.612
 1386SOL    HW2 4833   1.098   4.754   2.515
 1387SOL     OW 4834   1.014   3.960   2.833
 1387SOL    HW1 4835   1.006   3.924   2.740
 1387SOL    HW2 4836   1.012   3.884   2.898
 1388SOL     OW 4837   0.105   4.737   3.588
 1388SOL    HW1 4838   0.028   4.704   3.642
 1388SOL    HW2 4839   0.190   4.707   3.630
 1389SOL     OW 4840   0.672   3.927   3.351
 1389SOL    HW1 4841   0.762   3.911   3.311
 1389SOL    HW2 4842   0.680   3.932   3.450
 1390SOL     OW 4843   0.075   4.069   1.895
 1390SOL    HW1 4844  -0.017   4.041   1.866
 1390SOL    HW2 4845   0.106   4.146   1.839
 1391SOL     OW 4846   1.440   4.580   3.260
 1391SOL    HW1 4847   1.383   4.632   3.197
 1391SOL    HW2 4848   1.536   4.592   3.236
 1392SOL     OW 4849   0.072   3.890   2.180
 1392SOL    HW1 4850   0.055   3.973   2.126
 1392SOL    HW2 4851   0.162   3.853   2.158
 1393SOL     OW 4852   0.613   4.566   3.293
 1393SOL    HW1 4853   0.669   4.647   3.276
 1393SOL    HW2 4854   0.672   4.486   3.296
 1394SOL     OW 4855   1.450   4.944   3.495
 1394SOL    HW1 4856   1.441   4.934   3.594
 1394SOL    HW2 4857   1.546   4.937   3.469
 1395SOL     OW 4858   1.225   4.049   2.311
 1395SOL    HW1 4859   1.290   3.975   2.300
 1395SOL    HW2 4860   1.245   4.099   2.395
 1396SOL     OW 4861   0.594   4.469   2.514
 1396SOL    HW1 4862   0.644   4.554   2.495
 1396SOL    HW2 4863   0.506   4.471   2.466
 1397SOL     OW 4864   1.730   4.658   3.379
 1397SOL    HW1 4865   1.768   4.749   3.394
 1397SOL    HW2 4866   1.722   4.641   3.280
 1398SOL     OW 4867   0.859   4.680   2.723
 1398SOL    HW1 4868   0.913   4.611   2.771
 1398SOL    HW2 4869   0.827   4.749   2.789
 1399SOL     OW 4870   1.083   4.708   1.949
 1399SOL    HW1 4871   1.060   4.761   1.867
 1399SOL    HW2 4872   1.164   4.652   1.930
 1400SOL     OW 4873   0.079   4.964   2.515
 1400SOL    HW1 4874   0.078   4.917   2.603
 1400SOL    HW2 4875   0.161   4.936   2.464
 1401SOL     OW 4876   0.428   4.148   2.382
 1401SOL    HW1 4877   0.458   4.076   2.320
 1401SOL    HW2 4878   0.389   4.108   2.465
 1402SOL     OW 4879   0.317   4.271   3.142
 1402SOL    HW1 4880   0.355   4.212   3.214
 1402SOL    HW2 4881   0.357   4.245   3.054
 1403SOL     OW 4882   1.424   3.938   2.974
 1403SOL    HW1 4883   1.476   3.873   3.029
 1403SOL    HW2 4884   1.375   4.001   3.035
 1404SOL     OW 4885   1.001   3.758   3.016
 1404SOL    HW1 4886   0.938   3.686   2.985
 1404SOL    HW2 4887   1.094   3.722   3.016
 1405SOL     OW 4888   0.770   5.054   2.163
 1405SOL    HW1 4889   0.724   4.967   2.180
 1405SOL    HW2 4890   0.861   5.051   2.204
 1406SOL     OW 4891   1.352   3.776   2.030
 1406SOL    HW1 4892   1.387   3.735   1.946
 1406SOL    HW2 4893   1.262   3.738   2.050
 1407SOL     OW 4894   1.300   4.177   2.553
 1407SOL    HW1 4895   1.241   4.257   2.557
 1407SOL    HW2 4896   1.315   4.142   2.646
 1408SOL     OW 4897   1.593   3.945   2.744
 1408SOL    HW1 4898   1.509   3.944   2.798
 1408SOL    HW2 4899   1.595   4.028   2.688
 1409SOL     OW 4900   0.039   4.801   2.162
 1409SOL    HW1 4901   0.138   4.790   2.153
 1409SOL    HW2 4902  -0.001   4.715   2.194
 1410SOL     OW 4903   0.230   4.352   3.837
 1410SOL    HW1 4904   0.137   4.350   3.874
 1410SOL    HW2 4905   0.231   4.313   3.745
 1411SOL     OW 4906   0.225   3.999   4.720
 1411SOL    HW1 4907   0.260   3.982   4.812
 1411SOL    HW2 4908   0.137   3.954   4.708
 1412SOL     OW 4909   0.019   4.092   4.371
 1412SOL    HW1 4910  -0.063   4.135   4.410
 1412SOL    HW2 4911  -0.009   4.019   4.308
 1413SOL     OW 4912   0.569   4.999   4.889
 1413SOL    HW1 4913   0.476   4.992   4.852
 1413SOL    HW2 4914   0.580   5.088   4.933
 1414SOL     OW 4915   1.555   5.235   4.427
 1414SOL    HW1 4916   1.498   5.219   4.508
 1414SOL    HW2 4917   1.496   5.245   4.347
 1415SOL     OW 4918   1.135   4.427   4.441
 1415SOL    HW1 4919   1.192   4.505   4.416
 1415SOL    HW2 4920   1.075   4.453   4.517
 1416SOL     OW 4921   1.755   4.331   3.955
 1416SOL    HW1 4922   1.743   4.318   3.856
 1416SOL    HW2 4923   1.725   4.250   4.004
 1417SOL     OW 4924   0.768   4.868   4.747
 1417SOL    HW1 4925   0.690   4.885   4.807
 1417SOL    HW2 4926   0.802   4.955   4.711
 1418SOL     OW 4927   0.335   5.159   4.785
 1418SOL    HW1 4928   0.257   5.128   4.732
 1418SOL    HW2 4929   0.393   5.217   4.728
 1419SOL     OW 4930   1.603   4.171   4.461
 1419SOL    HW1 4931   1.529   4.217   4.411
 1419SOL    HW2 4932   1.654   4.239   4.514
 1420SOL     OW 4933   0.240   4.815   4.610
 1420SOL    HW1 4934   0.254   4.731   4.662
 1420SOL    HW2 4935   0.185   4.879   4.665
 1421SOL     OW 4936   0.122   4.367   4.287
 1421SOL    HW1 4937   0.077   4.279   4.304
 1421SOL    HW2 4938   0.121   4.421   4.371
 1422SOL     OW 4939   1.689   4.646   4.336
 1422SOL    HW1 4940   1.784   4.617   4.344
 1422SOL    HW2 4941   1.681   4.711   4.261
 1423SOL     OW 4942   1.641   4.832   4.156
 1423SOL    HW1 4943   1.727   4.834   4.104
 1423SOL    HW2 4944   1.655   4.879   4.244
 1424SOL     OW 4945   0.809   3.728   4.226
 1424SOL    HW1 4946   0.849   3.819   4.217
 1424SOL    HW2 4947   0.709   3.736   4.232
 1425SOL     OW 4948   0.197   4.700   4.988
 1425SOL    HW1 4949   0.286   4.655   4.974
 1425SOL    HW2 4950   0.124   4.635   4.969
 1426SOL     OW 4951   1.525   4.723   3.914
 1426SOL    HW1 4952   1.462   4.647   3.927
 1426SOL    HW2 4953   1.573   4.741   4.000
 1427SOL     OW 4954   1.466   5.141   4.677
 1427SOL    HW1 4955   1.407   5.147   4.757
 1427SOL    HW2 4956   1.451   5.053   4.631
 1428SOL     OW 4957   1.281   4.069   4.668
 1428SOL    HW1 4958   1.195   4.019   4.655
 1428SOL    HW2 4959   1.343   4.015   4.724
 1429SOL     OW 4960   0.991   4.134   4.966
 1429SOL    HW1 4961   0.914   4.168   5.020
 1429SOL    HW2 4962   0.957   4.083   4.887
 1430SOL     OW 4963   1.041   4.425   4.153
 1430SOL    HW1 4964   1.067   4.421   4.249
 1430SOL    HW2 4965   0.956   4.374   4.139
 1431SOL     OW 4966   0.076   4.535   4.513
 1431SOL    HW1 4967   0.175   4.523   4.522
 1431SOL    HW2 4968   0.052   4.630   4.534
 1432SOL     OW 4969   0.865   4.072   3.919
 1432SOL    HW1 4970   0.924   4.135   3.870
 1432SOL    HW2 4971   0.884   3.978   3.890
 1433SOL     OW 4972   1.362   4.868   4.269
 1433SOL    HW1 4973   1.445   4.839   4.221
 1433SOL    HW2 4974   1.313   4.935   4.213
 1434SOL     OW 4975   0.550   3.920   4.609
 1434SOL    HW1 4976   0.545   3.915   4.709
 1434SOL    HW2 4977   0.552   4.016   4.580
 1435SOL     OW 4978   1.795   4.790   4.597
 1435SOL    HW1 4979   1.733   4.775   4.521
 1435SOL    HW2 4980   1.743   4.801   4.682
 1436SOL     OW 4981   1.458   4.459   4.452
 1436SOL    HW1 4982   1.453   4.394   4.527
 1436SOL    HW2 4983   1.538   4.518   4.465
 1437SOL     OW 4984   1.632   5.101   3.805
 1437SOL    HW1 4985   1.600   5.195   3.795
 1437SOL    HW2 4986   1.556   5.038   3.793
 1438SOL     OW 4987   1.400   3.831   4.150
 1438SOL    HW1 4988   1.376   3.794   4.060
 1438SOL    HW2 4989   1.499   3.847   4.154
 1439SOL     OW 4990   0.614   3.846   3.841
 1439SOL    HW1 4991   0.712   3.824   3.848
 1439SOL    HW2 4992   0.583   3.829   3.748
 1440SOL     OW 4993   0.803   5.126   4.648
 1440SOL    HW1 4994   0.893   5.140   4.606
 1440SOL    HW2 4995   0.732   5.128   4.577
 1441SOL     OW 4996   0.539   3.788   4.236
 1441SOL    HW1 4997   0.458   3.789   4.294
 1441SOL    HW2 4998   0.542   3.871   4.181
 1442SOL     OW 4999   1.434   4.912   3.765
 1442SOL    HW1 5000   1.466   4.836   3.822
 1442SOL    HW2 5001   1.342   4.939   3.795
 1443SOL     OW 5002   0.297   3.759   3.895
 1443SOL    HW1 5003   0.346   3.843   3.874
 1443SOL    HW2 5004   0.359   3.694   3.940
 1444SOL     OW 5005   0.935   3.960   4.204
 1444SOL    HW1 5006   0.887   4.001   4.126
 1444SOL    HW2 5007   1.034   3.958   4.185
 1445SOL     OW 5008   1.227   5.294   4.517
 1445SOL    HW1 5009   1.248   5.368   4.452
 1445SOL    HW2 5010   1.295   5.294   4.590
 1446SOL     OW 5011   1.032   4.273   3.740
 1446SOL    HW1 5012   0.991   4.355   3.701
 1446SOL    HW2 5013   1.096   4.299   3.813
 1447SOL     OW 5014   0.561   3.946   4.871
 1447SOL    HW1 5015   0.599   3.862   4.908
 1447SOL    HW2 5016   0.473   3.965   4.915
 1448SOL     OW 5017   1.017   3.763   4.477
 1448SOL    HW1 5018   0.945   3.768   4.408
 1448SOL    HW2 5019   0.993   3.694   4.546
 1449SOL     OW 5020   1.429   4.897   4.591
 1449SOL    HW1 5021   1.374   4.813   4.584
 1449SOL    HW2 5022   1.455   4.926   4.499
 1450SOL     OW 5023   1.466   4.314   4.716
 1450SOL    HW1 5024   1.436   4.219   4.723
 1450SOL    HW2 5025   1.539   4.330   4.782
 1451SOL     OW 5026   1.857   4.557   4.101
 1451SOL    HW1 5027   1.899   4.493   4.165
 1451SOL    HW2 5028   1.819   4.506   4.023
 1452SOL     OW 5029   1.664   5.004   4.381
 1452SOL    HW1 5030   1.763   5.012   4.395
 1452SOL    HW2 5031   1.619   5.088   4.412
 1453SOL     OW 5032   1.390   4.299   3.802
 1453SOL    HW1 5033   1.336   4.278   3.883
 1453SOL    HW2 5034   1.481   4.258   3.811
 1454SOL     OW 5035   0.527   3.980   4.052
 1454SOL    HW1 5036   0.554   3.921   3.977
 1454SOL    HW2 5037   0.527   4.075   4.021
 1455SOL     OW 5038   1.638   4.823   4.803
 1455SOL    HW1 5039   1.643   4.904   4.862
 1455SOL    HW2 5040   1.552   4.825   4.752
 1456SOL     OW 5041   0.410   4.537   4.975
 1456SOL    HW1 5042   0.496   4.549   5.025
 1456SOL    HW2 5043   0.368   4.450   5.002
 1457SOL     OW 5044   1.274   4.110   4.986
 1457SOL    HW1 5045   1.295   4.184   5.050
 1457SOL    HW2 5046   1.185   4.127   4.943
 1458SOL     OW 5047   0.566   4.261   4.589
 1458SOL    HW1 5048   0.578   4.327   4.515
 1458SOL    HW2 5049   0.612   4.295   4.672
 1459SOL     OW 5050   1.582   4.363   4.196
 1459SOL    HW1 5051   1.551   4.424   4.269
 1459SOL    HW2 5052   1.632   4.415   4.127
 1460SOL     OW 5053   0.573   4.594   4.753
 1460SOL    HW1 5054   0.617   4.683   4.744
 1460SOL    HW2 5055   0.510   4.594   4.830
 1461SOL     OW 5056   1.360   4.586   4.769
 1461SOL    HW1 5057   1.285   4.586   4.703
 1461SOL    HW2 5058   1.397   4.494   4.778
 1462SOL     OW 5059   1.209   4.249   3.999
 1462SOL    HW1 5060   1.222   4.165   4.053
 1462SOL    HW2 5061   1.180   4.323   4.059
 1463SOL     OW 5062   0.307   3.937   4.955
 1463SOL    HW1 5063   0.284   3.974   5.045
 1463SOL    HW2 5064   0.277   3.842   4.949
 1464SOL     OW 5065   0.037   5.034   5.006
 1464SOL    HW1 5066   0.090   4.985   5.074
 1464SOL    HW2 5067   0.059   5.132   5.011
 1465SOL     OW 5068   0.307   3.787   4.342
 1465SOL    HW1 5069   0.296   3.881   4.375
 1465SOL    HW2 5070   0.302   3.724   4.419
 1466SOL     OW 5071   1.622   4.091   4.098
 1466SOL    HW1 5072   1.624   4.015   4.162
 1466SOL    HW2 5073   1.574   4.168   4.138
 1467SOL     OW 5074   1.023   4.490   4.690
 1467SOL    HW1 5075   1.038   4.511   4.786
 1467SOL    HW2 5076   0.993   4.395   4.681
 1468SOL     OW 5077   1.540   3.998   3.849
 1468SOL    HW1 5078   1.479   3.923   3.872
 1468SOL    HW2 5079   1.562   4.050   3.932
 1469SOL     OW 5080   1.303   4.562   3.766
 1469SOL    HW1 5081   1.337   4.469   3.781
 1469SOL    HW2 5082   1.321   4.589   3.671
 1470SOL     OW 5083   0.319   4.534   4.673
 1470SOL    HW1 5084   0.412   4.570   4.678
 1470SOL    HW2 5085   0.313   4.449   4.725
 1471SOL     OW 5086   0.339   4.233   4.730
 1471SOL    HW1 5087   0.287   4.150   4.713
 1471SOL    HW2 5088   0.416   4.238   4.666
 1472SOL     OW 5089   1.160   3.931   5.201
 1472SOL    HW1 5090   1.160   3.995   5.278
 1472SOL    HW2 5091   1.188   3.979   5.118
 1473SOL     OW 5092   0.008   5.050   3.924
 1473SOL    HW1 5093  -0.085   5.071   3.893
 1473SOL    HW2 5094   0.018   4.951   3.937
 1474SOL     OW 5095   1.002   4.520   4.962
 1474SOL    HW1 5096   1.043   4.488   5.048
 1474SOL    HW2 5097   0.906   4.493   4.959
 1475SOL     OW 5098   0.040   4.268   4.838
 1475SOL    HW1 5099   0.125   4.235   4.797
 1475SOL    HW2 5100   0.053   4.283   4.936
 1476SOL     OW 5101   1.657   4.328   4.930
 1476SOL    HW1 5102   1.619   4.259   4.992
 1476SOL    HW2 5103   1.739   4.292   4.886
 1477SOL     OW 5104   0.671   4.188   4.993
 1477SOL    HW1 5105   0.637   4.099   4.963
 1477SOL    HW2 5106   0.697   4.242   4.913
 1478SOL     OW 5107   0.473   4.224   3.915
 1478SOL    HW1 5108   0.534   4.304   3.919
 1478SOL    HW2 5109   0.378   4.255   3.922
 1479SOL     OW 5110   1.347   4.783   4.958
 1479SOL    HW1 5111   1.371   4.720   4.884
 1479SOL    HW2 5112   1.257   4.823   4.940
 1480SOL     OW 5113   1.302   4.579   4.033
 1480SOL    HW1 5114   1.216   4.548   4.075
 1480SOL    HW2 5115   1.298   4.565   3.934
 1481SOL     OW 5116   0.083   4.982   4.746
 1481SOL    HW1 5117   0.078   4.981   4.846
 1481SOL    HW2 5118   0.000   4.941   4.708
 1482SOL     OW 5119   1.726   3.859   4.247
 1482SOL    HW1 5120   1.799   3.842   4.180
 1482SOL    HW2 5121   1.695   3.772   4.285
 1483SOL     OW 5122   1.280   4.651   4.396
 1483SOL    HW1 5123   1.340   4.570   4.398
 1483SOL    HW2 5124   1.320   4.720   4.336
 1484SOL     OW 5125   0.830   4.997   5.146
 1484SOL    HW1 5126   0.825   5.030   5.241
 1484SOL    HW2 5127   0.744   5.016   5.100
 1485SOL     OW 5128   1.841   3.899   4.687
 1485SOL    HW1 5129   1.880   3.814   4.651
 1485SOL    HW2 5130   1.743   3.901   4.668
 1486SOL     OW 5131   0.263   4.050   4.444
 1486SOL    HW1 5132   0.184   4.101   4.410
 1486SOL    HW2 5133   0.254   4.035   4.542
 1487SOL     OW 5134   1.194   5.336   3.755
 1487SOL    HW1 5135   1.200   5.243   3.792
 1487SOL    HW2 5136   1.135   5.336   3.675
 1488SOL     OW 5137   0.822   4.726   5.096
 1488SOL    HW1 5138   0.862   4.725   5.004
 1488SOL    HW2 5139   0.832   4.818   5.136
 1489SOL     OW 5140   0.916   4.634   4.015
 1489SOL    HW1 5141   0.979   4.672   3.947
 1489SOL    HW2 5142   0.956   4.551   4.054
 1490SOL     OW 5143   1.039   4.822   4.420
 1490SOL    HW1 5144   0.969   4.775   4.474
 1490SOL    HW2 5145   1.098   4.754   4.377
 1491SOL     OW 5146   1.014   3.960   4.695
 1491SOL    HW1 5147   1.006   3.924   4.602
 1491SOL    HW2 5148   1.012   3.884   4.760
 1492SOL     OW 5149   0.075   4.069   3.757
 1492SOL    HW1 5150  -0.017   4.041   3.728
 1492SOL    HW2 5151   0.106   4.146   3.701
 1493SOL     OW 5152   0.072   3.890   4.042
 1493SOL    HW1 5153   0.055   3.973   3.988
 1493SOL    HW2 5154   0.162   3.853   4.020
 1494SOL     OW 5155   1.450   4.944   5.357
 1494SOL    HW1 5156   1.441   4.934   5.456
 1494SOL    HW2 5157   1.546   4.937   5.331
 1495SOL     OW 5158   1.674   4.607   4.978
 1495SOL    HW1 5159   1.647   4.518   4.941
 1495SOL    HW2 5160   1.675   4.675   4.905
 1496SOL     OW 5161   1.225   4.049   4.173
 1496SOL    HW1 5162   1.290   3.975   4.162
 1496SOL    HW2 5163   1.245   4.099   4.257
 1497SOL     OW 5164   1.730   4.658   5.241
 1497SOL    HW1 5165   1.768   4.749   5.256
 1497SOL    HW2 5166   1.722   4.641   5.142
 1498SOL     OW 5167   0.859   4.680   4.585
 1498SOL    HW1 5168   0.913   4.611   4.633
 1498SOL    HW2 5169   0.827   4.749   4.651
 1499SOL     OW 5170   1.083   4.708   3.811
 1499SOL    HW1 5171   1.060   4.761   3.729
 1499SOL    HW2 5172   1.164   4.652   3.792
 1500SOL     OW 5173   0.079   4.964   4.377
 1500SOL    HW1 5174   0.078   4.917   4.465
 1500SOL    HW2 5175   0.161   4.936   4.326
 1501SOL     OW 5176   0.428   4.148   4.244
 1501SOL    HW1 5177   0.458   4.076   4.182
 1501SOL    HW2 5178   0.389   4.108   4.327
 1502SOL     OW 5179   1.424   3.938   4.836
 1502SOL    HW1 5180   1.476   3.873   4.891
 1502SOL    HW2 5181   1.375   4.001   4.897
 1503SOL     OW 5182   1.001   3.758   4.878
 1503SOL    HW1 5183   0.938   3.686   4.847
 1503SOL    HW2 5184   1.094   3.722   4.878
 1504SOL     OW 5185   0.770   5.054   4.025
 1504SOL    HW1 5186   0.724   4.967   4.042
 1504SOL    HW2 5187   0.861   5.051   4.066
 1505SOL     OW 5188   1.352   3.776   3.892
 1505SOL    HW1 5189   1.387   3.735   3.808
 1505SOL    HW2 5190   1.262   3.738   3.912
 1506SOL     OW 5191   1.300   4.177   4.415
 1506SOL    HW1 5192   1.241   4.257   4.419
 1506SOL    HW2 5193   1.315   4.142   4.508
 1507SOL     OW 5194   1.593   3.945   4.606
 1507SOL    HW1 5195   1.509   3.944   4.660
 1507SOL    HW2 5196   1.595   4.028   4.550
 1508SOL     OW 5197   0.039   4.801   4.024
 1508SOL    HW1 5198   0.138   4.790   4.015
 1508SOL    HW2 5199  -0.001   4.715   4.056
 1509SOL     OW 5200   2.092   0.628   0.113
 1509SOL    HW1 5201   1.999   0.626   0.150
 1509SOL    HW2 5202   2.093   0.589   0.021
 1510SOL     OW 5203   2.087   0.275   0.996
 1510SOL    HW1 5204   2.122   0.258   1.088
 1510SOL    HW2 5205   1.999   0.230   0.984
 1511SOL     OW 5206   1.881   0.368   0.647
 1511SOL    HW1 5207   1.799   0.411   0.686
 1511SOL    HW2 5208   1.853   0.295   0.584
 1512SOL     OW 5209   2.431   1.275   1.165
 1512SOL    HW1 5210   2.338   1.268   1.128
 1512SOL    HW2 5211   2.442   1.364   1.209
 1513SOL     OW 5212   3.417   1.511   0.703
 1513SOL    HW1 5213   3.360   1.495   0.784
 1513SOL    HW2 5214   3.358   1.521   0.623
 1514SOL     OW 5215   2.997   0.703   0.717
 1514SOL    HW1 5216   3.054   0.781   0.692
 1514SOL    HW2 5217   2.937   0.729   0.793
 1515SOL     OW 5218   3.617   0.607   0.231
 1515SOL    HW1 5219   3.605   0.594   0.132
 1515SOL    HW2 5220   3.587   0.526   0.280
 1516SOL     OW 5221   2.630   1.144   1.023
 1516SOL    HW1 5222   2.552   1.161   1.083
 1516SOL    HW2 5223   2.664   1.231   0.987
 1517SOL     OW 5224   2.712   0.798   1.823
 1517SOL    HW1 5225   2.708   0.874   1.888
 1517SOL    HW2 5226   2.734   0.834   1.732
 1518SOL     OW 5227   2.547   1.012   0.665
 1518SOL    HW1 5228   2.616   0.996   0.735
 1518SOL    HW2 5229   2.474   1.069   0.703
 1519SOL     OW 5230   2.548   1.161   1.803
 1519SOL    HW1 5231   2.608   1.240   1.817
 1519SOL    HW2 5232   2.462   1.192   1.762
 1520SOL     OW 5233   2.197   1.435   1.061
 1520SOL    HW1 5234   2.119   1.404   1.008
 1520SOL    HW2 5235   2.255   1.493   1.004
 1521SOL     OW 5236   3.322   1.505   1.339
 1521SOL    HW1 5237   3.346   1.599   1.365
 1521SOL    HW2 5238   3.306   1.451   1.421
 1522SOL     OW 5239   2.300   0.392   1.499
 1522SOL    HW1 5240   2.382   0.336   1.508
 1522SOL    HW2 5241   2.219   0.334   1.503
 1523SOL     OW 5242   3.465   0.447   0.737
 1523SOL    HW1 5243   3.391   0.493   0.687
 1523SOL    HW2 5244   3.516   0.515   0.790
 1524SOL     OW 5245   2.093   1.713   0.483
 1524SOL    HW1 5246   2.127   1.790   0.537
 1524SOL    HW2 5247   2.137   1.713   0.393
 1525SOL     OW 5248   2.989   1.341   1.690
 1525SOL    HW1 5249   3.036   1.341   1.778
 1525SOL    HW2 5250   2.941   1.254   1.679
 1526SOL     OW 5251   2.092   1.434   0.538
 1526SOL    HW1 5252   2.066   1.530   0.538
 1526SOL    HW2 5253   2.021   1.380   0.583
 1527SOL     OW 5254   2.102   1.091   0.886
 1527SOL    HW1 5255   2.116   1.007   0.938
 1527SOL    HW2 5256   2.047   1.155   0.941
 1528SOL     OW 5257   2.482   1.786   1.439
 1528SOL    HW1 5258   2.390   1.769   1.474
 1528SOL    HW2 5259   2.510   1.878   1.465
 1529SOL     OW 5260   2.468   0.964   0.123
 1529SOL    HW1 5261   2.475   1.048   0.069
 1529SOL    HW2 5262   2.514   0.977   0.211
 1530SOL     OW 5263   3.456   0.114   1.480
 1530SOL    HW1 5264   3.438   0.181   1.408
 1530SOL    HW2 5265   3.453   0.160   1.569
 1531SOL     OW 5266   1.984   0.643   0.563
 1531SOL    HW1 5267   1.939   0.555   0.580
 1531SOL    HW2 5268   1.983   0.697   0.647
 1532SOL     OW 5269   3.704   1.767   0.359
 1532SOL    HW1 5270   3.758   1.738   0.439
 1532SOL    HW2 5271   3.734   1.857   0.330
 1533SOL     OW 5272   1.889   1.596   0.117
 1533SOL    HW1 5273   1.870   1.500   0.138
 1533SOL    HW2 5274   1.856   1.654   0.192
 1534SOL     OW 5275   3.551   0.922   0.612
 1534SOL    HW1 5276   3.646   0.893   0.620
 1534SOL    HW2 5277   3.543   0.987   0.537
 1535SOL     OW 5278   3.503   1.108   0.432
 1535SOL    HW1 5279   3.589   1.110   0.380
 1535SOL    HW2 5280   3.517   1.155   0.520
 1536SOL     OW 5281   1.975   0.737   1.597
 1536SOL    HW1 5282   2.063   0.724   1.642
 1536SOL    HW2 5283   1.962   0.834   1.575
 1537SOL     OW 5284   2.475   1.365   0.726
 1537SOL    HW1 5285   2.426   1.278   0.735
 1537SOL    HW2 5286   2.452   1.408   0.639
 1538SOL     OW 5287   3.155   1.228   1.423
 1538SOL    HW1 5288   3.192   1.155   1.365
 1538SOL    HW2 5289   3.207   1.233   1.508
 1539SOL     OW 5290   2.059   0.976   1.264
 1539SOL    HW1 5291   2.148   0.931   1.250
 1539SOL    HW2 5292   1.986   0.911   1.245
 1540SOL     OW 5293   3.387   0.999   0.190
 1540SOL    HW1 5294   3.324   0.923   0.203
 1540SOL    HW2 5295   3.435   1.017   0.276
 1541SOL     OW 5296   3.049   1.792   1.616
 1541SOL    HW1 5297   3.073   1.852   1.540
 1541SOL    HW2 5298   3.056   1.697   1.586
 1542SOL     OW 5299   2.179   0.251   1.801
 1542SOL    HW1 5300   2.250   0.322   1.807
 1542SOL    HW2 5301   2.091   0.290   1.829
 1543SOL     OW 5302   3.328   1.417   0.953
 1543SOL    HW1 5303   3.269   1.423   1.033
 1543SOL    HW2 5304   3.313   1.329   0.907
 1544SOL     OW 5305   3.529   1.714   0.572
 1544SOL    HW1 5306   3.488   1.691   0.484
 1544SOL    HW2 5307   3.511   1.640   0.637
 1545SOL     OW 5308   2.460   0.729   0.270
 1545SOL    HW1 5309   2.484   0.798   0.202
 1545SOL    HW2 5310   2.382   0.762   0.324
 1546SOL     OW 5311   3.143   0.345   0.944
 1546SOL    HW1 5312   3.057   0.295   0.931
 1546SOL    HW2 5313   3.205   0.291   1.000
 1547SOL     OW 5314   2.669   0.605   1.465
 1547SOL    HW1 5315   2.622   0.602   1.554
 1547SOL    HW2 5316   2.618   0.550   1.399
 1548SOL     OW 5317   3.256   0.469   1.674
 1548SOL    HW1 5318   3.236   0.512   1.762
 1548SOL    HW2 5319   3.334   0.407   1.683
 1549SOL     OW 5320   2.835   0.890   1.572
 1549SOL    HW1 5321   2.881   0.806   1.543
 1549SOL    HW2 5322   2.779   0.924   1.497
 1550SOL     OW 5323   2.853   0.410   1.242
 1550SOL    HW1 5324   2.776   0.444   1.296
 1550SOL    HW2 5325   2.819   0.359   1.163
 1551SOL     OW 5326   2.903   0.701   0.429
 1551SOL    HW1 5327   2.929   0.697   0.525
 1551SOL    HW2 5328   2.818   0.650   0.415
 1552SOL     OW 5329   1.938   0.811   0.789
 1552SOL    HW1 5330   2.037   0.799   0.798
 1552SOL    HW2 5331   1.914   0.906   0.810
 1553SOL     OW 5332   1.992   1.821   1.571
 1553SOL    HW1 5333   1.982   1.806   1.670
 1553SOL    HW2 5334   1.906   1.857   1.535
 1554SOL     OW 5335   2.727   0.348   0.195
 1554SOL    HW1 5336   2.786   0.411   0.146
 1554SOL    HW2 5337   2.746   0.254   0.166
 1555SOL     OW 5338   3.581   0.585   1.831
 1555SOL    HW1 5339   3.555   0.674   1.795
 1555SOL    HW2 5340   3.579   0.517   1.758
 1556SOL     OW 5341   3.224   1.144   0.545
 1556SOL    HW1 5342   3.307   1.115   0.497
 1556SOL    HW2 5343   3.175   1.211   0.489
 1557SOL     OW 5344   2.412   0.196   0.885
 1557SOL    HW1 5345   2.407   0.191   0.985
 1557SOL    HW2 5346   2.414   0.292   0.856
 1558SOL     OW 5347   2.870   1.456   0.477
 1558SOL    HW1 5348   2.824   1.528   0.425
 1558SOL    HW2 5349   2.866   1.476   0.575
 1559SOL     OW 5350   2.213   1.801   0.853
 1559SOL    HW1 5351   2.263   1.715   0.859
 1559SOL    HW2 5352   2.278   1.878   0.850
 1560SOL     OW 5353   3.657   1.066   0.873
 1560SOL    HW1 5354   3.595   1.051   0.797
 1560SOL    HW2 5355   3.605   1.077   0.958
 1561SOL     OW 5356   3.089   1.550   1.506
 1561SOL    HW1 5357   3.095   1.473   1.570
 1561SOL    HW2 5358   3.037   1.524   1.426
 1562SOL     OW 5359   2.183   0.943   0.242
 1562SOL    HW1 5360   2.265   0.982   0.200
 1562SOL    HW2 5361   2.156   0.861   0.193
 1563SOL     OW 5362   3.320   0.735   0.728
 1563SOL    HW1 5363   3.315   0.670   0.803
 1563SOL    HW2 5364   3.400   0.794   0.741
 1564SOL     OW 5365   2.323   1.266   1.727
 1564SOL    HW1 5366   2.273   1.267   1.641
 1564SOL    HW2 5367   2.260   1.248   1.803
 1565SOL     OW 5368   2.973   1.776   0.237
 1565SOL    HW1 5369   2.913   1.714   0.287
 1565SOL    HW2 5370   3.004   1.732   0.152
 1566SOL     OW 5371   2.064   0.285   1.498
 1566SOL    HW1 5372   1.984   0.345   1.485
 1566SOL    HW2 5373   2.054   0.236   1.584
 1567SOL     OW 5374   3.494   1.377   0.081
 1567SOL    HW1 5375   3.462   1.471   0.071
 1567SOL    HW2 5376   3.418   1.314   0.069
 1568SOL     OW 5377   2.326   1.743   0.323
 1568SOL    HW1 5378   2.359   1.782   0.409
 1568SOL    HW2 5379   2.402   1.736   0.258
 1569SOL     OW 5380   3.262   0.107   0.426
 1569SOL    HW1 5381   3.238   0.070   0.336
 1569SOL    HW2 5382   3.361   0.123   0.430
 1570SOL     OW 5383   2.111   1.785   1.241
 1570SOL    HW1 5384   2.168   1.720   1.291
 1570SOL    HW2 5385   2.095   1.752   1.148
 1571SOL     OW 5386   2.802   1.698   0.904
 1571SOL    HW1 5387   2.882   1.641   0.925
 1571SOL    HW2 5388   2.753   1.658   0.827
 1572SOL     OW 5389   2.244   0.700   0.480
 1572SOL    HW1 5390   2.289   0.610   0.477
 1572SOL    HW2 5391   2.150   0.689   0.513
 1573SOL     OW 5392   3.409   0.222   1.729
 1573SOL    HW1 5393   3.404   0.259   1.821
 1573SOL    HW2 5394   3.337   0.153   1.717
 1574SOL     OW 5395   2.476   0.122   0.117
 1574SOL    HW1 5396   2.574   0.100   0.124
 1574SOL    HW2 5397   2.445   0.105   0.024
 1575SOL     OW 5398   2.643   0.264   1.749
 1575SOL    HW1 5399   2.710   0.203   1.792
 1575SOL    HW2 5400   2.570   0.283   1.814
 1576SOL     OW 5401   2.750   1.514   1.195
 1576SOL    HW1 5402   2.727   1.489   1.101
 1576SOL    HW2 5403   2.811   1.445   1.234
 1577SOL     OW 5404   3.213   0.590   1.433
 1577SOL    HW1 5405   3.241   0.547   1.518
 1577SOL    HW2 5406   3.238   0.686   1.434
 1578SOL     OW 5407   2.665   1.402   0.924
 1578SOL    HW1 5408   2.755   1.416   0.882
 1578SOL    HW2 5409   2.594   1.404   0.853
 1579SOL     OW 5410   2.784   0.503   0.899
 1579SOL    HW1 5411   2.759   0.494   0.803
 1579SOL    HW2 5412   2.832   0.421   0.930
 1580SOL     OW 5413   2.159   0.035   0.171
 1580SOL    HW1 5414   2.208   0.119   0.150
 1580SOL    HW2 5415   2.221  -0.030   0.216
 1581SOL     OW 5416   2.938   0.683   1.464
 1581SOL    HW1 5417   2.858   0.622   1.467
 1581SOL    HW2 5418   3.019   0.630   1.440
 1582SOL     OW 5419   3.089   1.570   0.793
 1582SOL    HW1 5420   3.110   1.644   0.728
 1582SOL    HW2 5421   3.157   1.570   0.866
 1583SOL     OW 5422   2.321   1.152   0.741
 1583SOL    HW1 5423   2.250   1.125   0.806
 1583SOL    HW2 5424   2.295   1.124   0.648
 1584SOL     OW 5425   3.133   1.797   0.591
 1584SOL    HW1 5426   3.177   1.861   0.527
 1584SOL    HW2 5427   3.083   1.849   0.661
 1585SOL     OW 5428   2.894   0.549   0.016
 1585SOL    HW1 5429   2.853   0.631  -0.023
 1585SOL    HW2 5430   2.958   0.575   0.089
 1586SOL     OW 5431   1.940   0.556   1.386
 1586SOL    HW1 5432   2.032   0.555   1.345
 1586SOL    HW2 5433   1.934   0.630   1.453
 1587SOL     OW 5434   2.423   0.222   1.147
 1587SOL    HW1 5435   2.461   0.138   1.184
 1587SOL    HW2 5436   2.335   0.241   1.191
 1588SOL     OW 5437   2.728   0.454   0.642
 1588SOL    HW1 5438   2.696   0.526   0.580
 1588SOL    HW2 5439   2.752   0.373   0.589
 1589SOL     OW 5440   3.291   1.173   0.867
 1589SOL    HW1 5441   3.236   1.089   0.860
 1589SOL    HW2 5442   3.317   1.202   0.775
 1590SOL     OW 5443   3.328   0.590   0.992
 1590SOL    HW1 5444   3.298   0.495   0.999
 1590SOL    HW2 5445   3.401   0.606   1.058
 1591SOL     OW 5446   3.719   0.833   0.377
 1591SOL    HW1 5447   3.761   0.769   0.441
 1591SOL    HW2 5448   3.681   0.782   0.299
 1592SOL     OW 5449   2.350   1.385   0.174
 1592SOL    HW1 5450   2.263   1.370   0.221
 1592SOL    HW2 5451   2.333   1.411   0.079
 1593SOL     OW 5452   3.526   1.280   0.657
 1593SOL    HW1 5453   3.625   1.288   0.671
 1593SOL    HW2 5454   3.481   1.364   0.688
 1594SOL     OW 5455   3.252   0.575   0.078
 1594SOL    HW1 5456   3.198   0.554   0.159
 1594SOL    HW2 5457   3.343   0.534   0.087
 1595SOL     OW 5458   2.389   0.256   0.328
 1595SOL    HW1 5459   2.416   0.197   0.253
 1595SOL    HW2 5460   2.389   0.351   0.297
 1596SOL     OW 5461   3.616   1.223   1.588
 1596SOL    HW1 5462   3.707   1.184   1.575
 1596SOL    HW2 5463   3.624   1.319   1.612
 1597SOL     OW 5464   2.926   1.347   1.340
 1597SOL    HW1 5465   2.846   1.324   1.395
 1597SOL    HW2 5466   3.009   1.321   1.389
 1598SOL     OW 5467   3.454   1.629   1.625
 1598SOL    HW1 5468   3.481   1.663   1.535
 1598SOL    HW2 5469   3.533   1.591   1.671
 1599SOL     OW 5470   2.973   1.195   1.100
 1599SOL    HW1 5471   2.933   1.239   1.181
 1599SOL    HW2 5472   2.932   1.232   1.017
 1600SOL     OW 5473   3.500   1.099   1.079
 1600SOL    HW1 5474   3.505   1.180   1.138
 1600SOL    HW2 5475   3.414   1.101   1.028
 1601SOL     OW 5476   2.777   0.089   1.402
 1601SOL    HW1 5477   2.802   0.069   1.307
 1601SOL    HW2 5478   2.849   0.145   1.444
 1602SOL     OW 5479   2.842   1.116   1.719
 1602SOL    HW1 5480   2.743   1.122   1.729
 1602SOL    HW2 5481   2.865   1.036   1.663
 1603SOL     OW 5482   2.567   1.050   0.368
 1603SOL    HW1 5483   2.553   1.057   0.467
 1603SOL    HW2 5484   2.651   0.999   0.350
 1604SOL     OW 5485   2.272   0.813   1.251
 1604SOL    HW1 5486   2.358   0.825   1.301
 1604SOL    HW2 5487   2.230   0.726   1.278
 1605SOL     OW 5488   3.136   0.386   1.262
 1605SOL    HW1 5489   3.157   0.460   1.326
 1605SOL    HW2 5490   3.047   0.403   1.219
 1606SOL     OW 5491   1.926   1.564   1.331
 1606SOL    HW1 5492   1.880   1.646   1.297
 1606SOL    HW2 5493   2.024   1.583   1.340
 1607SOL     OW 5494   2.229   1.100   0.501
 1607SOL    HW1 5495   2.222   1.183   0.445
 1607SOL    HW2 5496   2.233   1.020   0.441
 1608SOL     OW 5497   2.428   0.537   0.865
 1608SOL    HW1 5498   2.440   0.603   0.791
 1608SOL    HW2 5499   2.474   0.571   0.948
 1609SOL     OW 5500   3.114   1.348   0.388
 1609SOL    HW1 5501   3.164   1.425   0.428
 1609SOL    HW2 5502   3.019   1.350   0.420
 1610SOL     OW 5503   3.134   1.445   1.142
 1610SOL    HW1 5504   3.181   1.458   1.229
 1610SOL    HW2 5505   3.068   1.371   1.151
 1611SOL     OW 5506   3.444   0.639   0.472
 1611SOL    HW1 5507   3.413   0.700   0.545
 1611SOL    HW2 5508   3.494   0.691   0.403
 1612SOL     OW 5509   2.216   1.510   1.329
 1612SOL    HW1 5510   2.195   1.466   1.242
 1612SOL    HW2 5511   2.313   1.536   1.332
 1613SOL     OW 5512   2.264   0.751   1.598
 1613SOL    HW1 5513   2.332   0.806   1.551
 1613SOL    HW2 5514   2.304   0.663   1.625
 1614SOL     OW 5515   3.449   0.779   1.670
 1614SOL    HW1 5516   3.357   0.817   1.665
 1614SOL    HW2 5517   3.509   0.826   1.605
 1615SOL     OW 5518   2.875   0.105   1.770
 1615SOL    HW1 5519   2.881   0.190   1.718
 1615SOL    HW2 5520   2.907   0.029   1.713
 1616SOL     OW 5521   2.366   0.050   1.740
 1616SOL    HW1 5522   2.324  -0.007   1.670
 1616SOL    HW2 5523   2.300   0.119   1.772
 1617SOL     OW 5524   2.435   0.870   1.029
 1617SOL    HW1 5525   2.479   0.959   1.020
 1617SOL    HW2 5526   2.372   0.870   1.106
 1618SOL     OW 5527   3.222   0.862   1.045
 1618SOL    HW1 5528   3.147   0.862   0.979
 1618SOL    HW2 5529   3.259   0.770   1.054
 1619SOL     OW 5530   3.071   0.525   0.275
 1619SOL    HW1 5531   3.084   0.441   0.329
 1619SOL    HW2 5532   3.042   0.599   0.335
 1620SOL     OW 5533   2.169   0.213   1.231
 1620SOL    HW1 5534   2.146   0.250   1.321
 1620SOL    HW2 5535   2.139   0.118   1.225
 1621SOL     OW 5536   1.899   1.310   1.282
 1621SOL    HW1 5537   1.952   1.261   1.350
 1621SOL    HW2 5538   1.921   1.408   1.287
 1622SOL     OW 5539   2.594   0.634   1.064
 1622SOL    HW1 5540   2.653   0.608   0.988
 1622SOL    HW2 5541   2.566   0.730   1.053
 1623SOL     OW 5542   3.590   0.935   1.854
 1623SOL    HW1 5543   3.544   0.928   1.765
 1623SOL    HW2 5544   3.528   0.979   1.920
 1624SOL     OW 5545   3.484   0.367   0.374
 1624SOL    HW1 5546   3.486   0.291   0.438
 1624SOL    HW2 5547   3.436   0.444   0.414
 1625SOL     OW 5548   2.885   0.766   0.966
 1625SOL    HW1 5549   2.900   0.787   1.062
 1625SOL    HW2 5550   2.855   0.671   0.957
 1626SOL     OW 5551   2.842   1.573   1.700
 1626SOL    HW1 5552   2.822   1.617   1.612
 1626SOL    HW2 5553   2.881   1.482   1.684
 1627SOL     OW 5554   3.721   1.518   1.605
 1627SOL    HW1 5555   3.735   1.545   1.510
 1627SOL    HW2 5556   3.804   1.540   1.658
 1628SOL     OW 5557   2.212   0.898   1.804
 1628SOL    HW1 5558   2.288   0.942   1.852
 1628SOL    HW2 5559   2.247   0.851   1.722
 1629SOL     OW 5560   3.402   0.274   0.125
 1629SOL    HW1 5561   3.341   0.199   0.148
 1629SOL    HW2 5562   3.424   0.326   0.208
 1630SOL     OW 5563   2.930   1.333   0.849
 1630SOL    HW1 5564   2.937   1.249   0.794
 1630SOL    HW2 5565   2.992   1.402   0.813
 1631SOL     OW 5566   2.181   0.810   0.949
 1631SOL    HW1 5567   2.274   0.846   0.954
 1631SOL    HW2 5568   2.175   0.725   1.001
 1632SOL     OW 5569   2.201   0.509   1.006
 1632SOL    HW1 5570   2.149   0.426   0.989
 1632SOL    HW2 5571   2.278   0.514   0.942
 1633SOL     OW 5572   3.000   0.380   1.678
 1633SOL    HW1 5573   2.955   0.443   1.742
 1633SOL    HW2 5574   3.093   0.411   1.661
 1634SOL     OW 5575   3.022   0.207   1.477
 1634SOL    HW1 5576   3.022   0.271   1.554
 1634SOL    HW2 5577   3.050   0.255   1.394
 1635SOL     OW 5578   1.950   1.801   0.927
 1635SOL    HW1 5579   1.908   1.715   0.900
 1635SOL    HW2 5580   2.044   1.804   0.893
 1636SOL     OW 5581   2.366   1.568   0.910
 1636SOL    HW1 5582   2.432   1.642   0.919
 1636SOL    HW2 5583   2.410   1.489   0.868
 1637SOL     OW 5584   2.864   0.796   1.238
 1637SOL    HW1 5585   2.905   0.764   1.324
 1637SOL    HW2 5586   2.768   0.769   1.235
 1638SOL     OW 5587   1.902   0.544   1.114
 1638SOL    HW1 5588   1.987   0.511   1.073
 1638SOL    HW2 5589   1.915   0.559   1.212
 1639SOL     OW 5590   2.051   0.520   1.722
 1639SOL    HW1 5591   2.110   0.480   1.652
 1639SOL    HW2 5592   1.993   0.591   1.681
 1640SOL     OW 5593   3.231   0.950   1.660
 1640SOL    HW1 5594   3.270   1.039   1.680
 1640SOL    HW2 5595   3.241   0.930   1.563
 1641SOL     OW 5596   2.677   0.572   0.325
 1641SOL    HW1 5597   2.684   0.483   0.279
 1641SOL    HW2 5598   2.583   0.606   0.317
 1642SOL     OW 5599   3.519   0.604   1.206
 1642SOL    HW1 5600   3.481   0.535   1.268
 1642SOL    HW2 5601   3.601   0.568   1.162
 1643SOL     OW 5602   2.114   1.564   1.744
 1643SOL    HW1 5603   2.084   1.621   1.820
 1643SOL    HW2 5604   2.107   1.467   1.770
 1644SOL     OW 5605   2.533   0.464   1.269
 1644SOL    HW1 5606   2.499   0.375   1.239
 1644SOL    HW2 5607   2.559   0.518   1.189
 1645SOL     OW 5608   2.792   1.678   1.465
 1645SOL    HW1 5609   2.768   1.660   1.370
 1645SOL    HW2 5610   2.822   1.772   1.475
 1646SOL     OW 5611   2.335   0.500   0.191
 1646SOL    HW1 5612   2.396   0.580   0.195
 1646SOL    HW2 5613   2.240   0.531   0.198
 1647SOL     OW 5614   2.021   1.137   1.466
 1647SOL    HW1 5615   2.043   1.076   1.542
 1647SOL    HW2 5616   2.031   1.088   1.380
 1648SOL     OW 5617   3.209   1.059   1.234
 1648SOL    HW1 5618   3.233   0.996   1.160
 1648SOL    HW2 5619   3.119   1.099   1.216
 1649SOL     OW 5620   3.164   0.855   0.309
 1649SOL    HW1 5621   3.078   0.824   0.351
 1649SOL    HW2 5622   3.160   0.841   0.210
 1650SOL     OW 5623   3.621   1.747   1.154
 1650SOL    HW1 5624   3.682   1.777   1.081
 1650SOL    HW2 5625   3.583   1.658   1.132
 1651SOL     OW 5626   3.114   1.731   1.128
 1651SOL    HW1 5627   3.198   1.736   1.074
 1651SOL    HW2 5628   3.091   1.635   1.146
 1652SOL     OW 5629   1.945   1.258   1.022
 1652SOL    HW1 5630   1.940   1.257   1.122
 1652SOL    HW2 5631   1.862   1.217   0.984
 1653SOL     OW 5632   2.765   0.086   0.133
 1653SOL    HW1 5633   2.816   0.087   0.047
 1653SOL    HW2 5634   2.821   0.044   0.204
 1654SOL     OW 5635   3.250   1.573   0.477
 1654SOL    HW1 5636   3.317   1.585   0.403
 1654SOL    HW2 5637   3.210   1.662   0.500
 1655SOL     OW 5638   1.992   1.794   1.851
 1655SOL    HW1 5639   1.951   1.720   1.904
 1655SOL    HW2 5640   2.056   1.845   1.909
 1656SOL     OW 5641   3.142   0.927   0.672
 1656SOL    HW1 5642   3.202   0.846   0.674
 1656SOL    HW2 5643   3.182   0.996   0.612
 1657SOL     OW 5644   2.692   1.273   1.422
 1657SOL    HW1 5645   2.687   1.306   1.517
 1657SOL    HW2 5646   2.606   1.292   1.376
 1658SOL     OW 5647   2.534   1.616   0.154
 1658SOL    HW1 5648   2.543   1.626   0.055
 1658SOL    HW2 5649   2.494   1.527   0.175
 1659SOL     OW 5650   3.512   1.720   1.394
 1659SOL    HW1 5651   3.565   1.730   1.310
 1659SOL    HW2 5652   3.485   1.810   1.428
 1660SOL     OW 5653   2.125   0.326   0.720
 1660SOL    HW1 5654   2.046   0.377   0.686
 1660SOL    HW2 5655   2.116   0.311   0.818
 1661SOL     OW 5656   3.056   1.612   0.031
 1661SOL    HW1 5657   3.062   1.519   0.068
 1661SOL    HW2 5658   2.997   1.612  -0.049
 1662SOL     OW 5659   2.684   1.002   1.372
 1662SOL    HW1 5660   2.724   1.001   1.280
 1662SOL    HW2 5661   2.694   1.094   1.412
 1663SOL     OW 5662   2.778   0.910   0.291
 1663SOL    HW1 5663   2.841   0.948   0.223
 1663SOL    HW2 5664   2.818   0.827   0.330
 1664SOL     OW 5665   2.234   1.288   1.490
 1664SOL    HW1 5666   2.221   1.381   1.456
 1664SOL    HW2 5667   2.150   1.236   1.477
 1665SOL     OW 5668   3.476   1.292   1.289
 1665SOL    HW1 5669   3.536   1.295   1.369
 1665SOL    HW2 5670   3.401   1.356   1.302
 1666SOL     OW 5671   2.901   1.098   0.696
 1666SOL    HW1 5672   2.831   1.051   0.750
 1666SOL    HW2 5673   2.960   1.030   0.653
 1667SOL     OW 5674   2.876   0.236   0.971
 1667SOL    HW1 5675   2.868   0.200   0.878
 1667SOL    HW2 5676   2.874   0.160   1.036
 1668SOL     OW 5677   2.452   1.487   0.491
 1668SOL    HW1 5678   2.494   1.429   0.421
 1668SOL    HW2 5679   2.408   1.566   0.447
 1669SOL     OW 5680   3.571   0.385   1.381
 1669SOL    HW1 5681   3.644   0.454   1.385
 1669SOL    HW2 5682   3.599   0.310   1.322
 1670SOL     OW 5683   2.117   1.348   0.290
 1670SOL    HW1 5684   2.021   1.349   0.263
 1670SOL    HW2 5685   2.129   1.401   0.374
 1671SOL     OW 5686   1.967   1.013   1.726
 1671SOL    HW1 5687   1.890   0.980   1.780
 1671SOL    HW2 5688   2.052   0.983   1.768
 1672SOL     OW 5689   2.534   0.203   1.489
 1672SOL    HW1 5690   2.624   0.187   1.449
 1672SOL    HW2 5691   2.542   0.208   1.588
 1673SOL     OW 5692   3.302   0.856   1.398
 1673SOL    HW1 5693   3.245   0.908   1.335
 1673SOL    HW2 5694   3.398   0.868   1.374
 1674SOL     OW 5695   1.934   0.166   0.318
 1674SOL    HW1 5696   1.917   0.249   0.264
 1674SOL    HW2 5697   2.024   0.129   0.296
 1675SOL     OW 5698   2.475   0.842   1.431
 1675SOL    HW1 5699   2.531   0.923   1.414
 1675SOL    HW2 5700   2.534   0.762   1.434
 1676SOL     OW 5701   3.355   1.767   0.959
 1676SOL    HW1 5702   3.388   1.831   0.890
 1676SOL    HW2 5703   3.421   1.761   1.034
 1677SOL     OW 5704   2.578   0.565   1.708
 1677SOL    HW1 5705   2.597   0.630   1.782
 1677SOL    HW2 5706   2.638   0.485   1.717
 1678SOL     OW 5707   3.312   1.220   1.633
 1678SOL    HW1 5708   3.303   1.210   1.732
 1678SOL    HW2 5709   3.408   1.213   1.607
 1679SOL     OW 5710   2.252   1.741   1.560
 1679SOL    HW1 5711   2.161   1.782   1.558
 1679SOL    HW2 5712   2.245   1.647   1.592
 1680SOL     OW 5713   3.536   0.883   1.254
 1680SOL    HW1 5714   3.509   0.794   1.217
 1680SOL    HW2 5715   3.537   0.951   1.181
 1681SOL     OW 5716   3.087   0.325   0.449
 1681SOL    HW1 5717   3.152   0.251   0.438
 1681SOL    HW2 5718   3.107   0.375   0.533
 1682SOL     OW 5719   2.456   0.745   0.652
 1682SOL    HW1 5720   2.506   0.830   0.633
 1682SOL    HW2 5721   2.368   0.747   0.604
 1683SOL     OW 5722   3.639   0.342   1.642
 1683SOL    HW1 5723   3.622   0.373   1.548
 1683SOL    HW2 5724   3.555   0.305   1.680
 1684SOL     OW 5725   3.592   0.934   1.517
 1684SOL    HW1 5726   3.630   1.025   1.532
 1684SOL    HW2 5727   3.584   0.917   1.418
 1685SOL     OW 5728   2.721   1.374   0.016
 1685SOL    HW1 5729   2.675   1.389   0.104
 1685SOL    HW2 5730   2.765   1.459  -0.014
 1686SOL     OW 5731   2.523   1.790   0.953
 1686SOL    HW1 5732   2.477   1.878   0.940
 1686SOL    HW2 5733   2.622   1.802   0.946
 1687SOL     OW 5734   2.721   0.956   0.861
 1687SOL    HW1 5735   2.775   0.887   0.909
 1687SOL    HW2 5736   2.689   1.025   0.927
 1688SOL     OW 5737   3.723   1.569   0.851
 1688SOL    HW1 5738   3.652   1.557   0.781
 1688SOL    HW2 5739   3.724   1.490   0.911
 1689SOL     OW 5740   2.083   1.314   1.844
 1689SOL    HW1 5741   2.018   1.241   1.823
 1689SOL    HW2 5742   2.087   1.328   1.942
 1690SOL     OW 5743   1.941   1.240   0.653
 1690SOL    HW1 5744   1.940   1.193   0.741
 1690SOL    HW2 5745   2.023   1.212   0.602
 1691SOL     OW 5746   2.534   1.391   1.624
 1691SOL    HW1 5747   2.456   1.341   1.662
 1691SOL    HW2 5748   2.531   1.486   1.655
 1692SOL     OW 5749   3.567   1.487   1.104
 1692SOL    HW1 5750   3.474   1.462   1.077
 1692SOL    HW2 5751   3.593   1.437   1.186
 1693SOL     OW 5752   2.179   0.547   1.280
 1693SOL    HW1 5753   2.217   0.488   1.352
 1693SOL    HW2 5754   2.219   0.521   1.192
 1694SOL     OW 5755   2.674   1.586   0.687
 1694SOL    HW1 5756   2.706   1.596   0.593
 1694SOL    HW2 5757   2.595   1.524   0.689
 1695SOL     OW 5758   2.863   0.034   1.154
 1695SOL    HW1 5759   2.800  -0.038   1.123
 1695SOL    HW2 5760   2.956  -0.002   1.154
 1696SOL     OW 5761   2.632   1.330   0.301
 1696SOL    HW1 5762   2.586   1.243   0.318
 1696SOL    HW2 5763   2.723   1.327   0.342
 1697SOL     OW 5764   2.480   1.567   1.284
 1697SOL    HW1 5765   2.475   1.649   1.341
 1697SOL    HW2 5766   2.569   1.564   1.239
 1698SOL     OW 5767   3.162   0.453   0.691
 1698SOL    HW1 5768   3.103   0.533   0.695
 1698SOL    HW2 5769   3.177   0.418   0.784
 1699SOL     OW 5770   1.901   1.077   0.300
 1699SOL    HW1 5771   2.000   1.066   0.291
 1699SOL    HW2 5772   1.861   0.991   0.332
 1700SOL     OW 5773   2.737   1.646   0.337
 1700SOL    HW1 5774   2.660   1.611   0.283
 1700SOL    HW2 5775   2.705   1.717   0.399
 1701SOL     OW 5776   2.092   0.628   1.975
 1701SOL    HW1 5777   1.999   0.626   2.012
 1701SOL    HW2 5778   2.093   0.589   1.883
 1702SOL     OW 5779   2.087   0.275   2.858
 1702SOL    HW1 5780   2.122   0.258   2.950
 1702SOL    HW2 5781   1.999   0.230   2.846
 1703SOL     OW 5782   1.881   0.368   2.509
 1703SOL    HW1 5783   1.799   0.411   2.548
 1703SOL    HW2 5784   1.853   0.295   2.446
 1704SOL     OW 5785   2.431   1.275   3.027
 1704SOL    HW1 5786   2.338   1.268   2.990
 1704SOL    HW2 5787   2.442   1.364   3.071
 1705SOL     OW 5788   3.417   1.511   2.565
 1705SOL    HW1 5789   3.360   1.495   2.646
 1705SOL    HW2 5790   3.358   1.521   2.485
 1706SOL     OW 5791   2.997   0.703   2.579
 1706SOL    HW1 5792   3.054   0.781   2.554
 1706SOL    HW2 5793   2.937   0.729   2.655
 1707SOL     OW 5794   3.617   0.607   2.093
 1707SOL    HW1 5795   3.605   0.594   1.994
 1707SOL    HW2 5796   3.587   0.526   2.142
 1708SOL     OW 5797   2.630   1.144   2.885
 1708SOL    HW1 5798   2.552   1.161   2.945
 1708SOL    HW2 5799   2.664   1.231   2.849
 1709SOL     OW 5800   2.712   0.798   3.685
 1709SOL    HW1 5801   2.708   0.874   3.750
 1709SOL    HW2 5802   2.734   0.834   3.594
 1710SOL     OW 5803   2.547   1.012   2.527
 1710SOL    HW1 5804   2.616   0.996   2.597
 1710SOL    HW2 5805   2.474   1.069   2.565
 1711SOL     OW 5806   2.548   1.161   3.665
 1711SOL    HW1 5807   2.608   1.240   3.679
 1711SOL    HW2 5808   2.462   1.192   3.624
 1712SOL     OW 5809   2.197   1.435   2.923
 1712SOL    HW1 5810   2.119   1.404   2.870
 1712SOL    HW2 5811   2.255   1.493   2.866
 1713SOL     OW 5812   3.322   1.505   3.201
 1713SOL    HW1 5813   3.346   1.599   3.227
 1713SOL    HW2 5814   3.306   1.451   3.283
 1714SOL     OW 5815   2.300   0.392   3.361
 1714SOL    HW1 5816   2.382   0.336   3.370
 1714SOL    HW2 5817   2.219   0.334   3.365
 1715SOL     OW 5818   3.465   0.447   2.599
 1715SOL    HW1 5819   3.391   0.493   2.549
 1715SOL    HW2 5820   3.516   0.515   2.652
 1716SOL     OW 5821   2.093   1.713   2.345
 1716SOL    HW1 5822   2.127   1.790   2.399
 1716SOL    HW2 5823   2.137   1.713   2.255
 1717SOL     OW 5824   2.989   1.341   3.552
 1717SOL    HW1 5825   3.036   1.341   3.640
 1717SOL    HW2 5826   2.941   1.254   3.541
 1718SOL     OW 5827   2.092   1.434   2.400
 1718SOL    HW1 5828   2.066   1.530   2.400
 1718SOL    HW2 5829   2.021   1.380   2.445
 1719SOL     OW 5830   2.102   1.091   2.748
 1719SOL    HW1 5831   2.116   1.007   2.800
 1719SOL    HW2 5832   2.047   1.155   2.803
 1720SOL     OW 5833   2.482   1.786   3.301
 1720SOL    HW1 5834   2.390   1.769   3.336
 1720SOL    HW2 5835   2.510   1.878   3.327
 1721SOL     OW 5836   2.468   0.964   1.985
 1721SOL    HW1 5837   2.475   1.048   1.931
 1721SOL    HW2 5838   2.514   0.977   2.073
 1722SOL     OW 5839   3.456   0.114   3.342
 1722SOL    HW1 5840   3.438   0.181   3.270
 1722SOL    HW2 5841   3.453   0.160   3.431
 1723SOL     OW 5842   3.704   1.767   2.221
 1723SOL    HW1 5843   3.758   1.738   2.301
 1723SOL    HW2 5844   3.734   1.857   2.192
 1724SOL     OW 5845   1.889   1.596   1.979
 1724SOL    HW1 5846   1.870   1.500   2.000
 1724SOL    HW2 5847   1.856   1.654   2.054
 1725SOL     OW 5848   3.551   0.922   2.474
 1725SOL    HW1 5849   3.646   0.893   2.482
 1725SOL    HW2 5850   3.543   0.987   2.399
 1726SOL     OW 5851   3.503   1.108   2.294
 1726SOL    HW1 5852   3.589   1.110   2.242
 1726SOL    HW2 5853   3.517   1.155   2.382
 1727SOL     OW 5854   1.975   0.737   3.459
 1727SOL    HW1 5855   2.063   0.724   3.504
 1727SOL    HW2 5856   1.962   0.834   3.437
 1728SOL     OW 5857   2.475   1.365   2.588
 1728SOL    HW1 5858   2.426   1.278   2.597
 1728SOL    HW2 5859   2.452   1.408   2.501
 1729SOL     OW 5860   3.155   1.228   3.285
 1729SOL    HW1 5861   3.192   1.155   3.227
 1729SOL    HW2 5862   3.207   1.233   3.370
 1730SOL     OW 5863   2.671   0.004   2.364
 1730SOL    HW1 5864   2.711   0.095   2.355
 1730SOL    HW2 5865   2.571   0.012   2.370
 1731SOL     OW 5866   3.387   0.999   2.052
 1731SOL    HW1 5867   3.324   0.923   2.065
 1731SOL    HW2 5868   3.435   1.017   2.138
 1732SOL     OW 5869   3.049   1.792   3.478
 1732SOL    HW1 5870   3.073   1.852   3.402
 1732SOL    HW2 5871   3.056   1.697   3.448
 1733SOL     OW 5872   2.179   0.251   3.663
 1733SOL    HW1 5873   2.250   0.322   3.669
 1733SOL    HW2 5874   2.091   0.290   3.691
 1734SOL     OW 5875   3.328   1.417   2.815
 1734SOL    HW1 5876   3.269   1.423   2.895
 1734SOL    HW2 5877   3.313   1.329   2.769
 1735SOL     OW 5878   3.529   1.714   2.434
 1735SOL    HW1 5879   3.488   1.691   2.346
 1735SOL    HW2 5880   3.511   1.640   2.499
 1736SOL     OW 5881   2.460   0.729   2.132
 1736SOL    HW1 5882   2.484   0.798   2.064
 1736SOL    HW2 5883   2.382   0.762   2.186
 1737SOL     OW 5884   3.143   0.345   2.806
 1737SOL    HW1 5885   3.057   0.295   2.793
 1737SOL    HW2 5886   3.205   0.291   2.862
 1738SOL     OW 5887   3.438   1.662   2.169
 1738SOL    HW1 5888   3.527   1.708   2.172
 1738SOL    HW2 5889   3.417   1.638   2.074
 1739SOL     OW 5890   2.669   0.605   3.327
 1739SOL    HW1 5891   2.622   0.602   3.416
 1739SOL    HW2 5892   2.618   0.550   3.261
 1740SOL     OW 5893   3.256   0.469   3.536
 1740SOL    HW1 5894   3.236   0.512   3.624
 1740SOL    HW2 5895   3.334   0.407   3.545
 1741SOL     OW 5896   2.835   0.890   3.434
 1741SOL    HW1 5897   2.881   0.806   3.405
 1741SOL    HW2 5898   2.779   0.924   3.359
 1742SOL     OW 5899   2.853   0.410   3.104
 1742SOL    HW1 5900   2.776   0.444   3.158
 1742SOL    HW2 5901   2.819   0.359   3.025
 1743SOL     OW 5902   2.903   0.701   2.291
 1743SOL    HW1 5903   2.929   0.697   2.387
 1743SOL    HW2 5904   2.818   0.650   2.277
 1744SOL     OW 5905   1.992   1.821   3.433
 1744SOL    HW1 5906   1.982   1.806   3.532
 1744SOL    HW2 5907   1.906   1.857   3.397
 1745SOL     OW 5908   2.727   0.348   2.057
 1745SOL    HW1 5909   2.786   0.411   2.008
 1745SOL    HW2 5910   2.746   0.254   2.028
 1746SOL     OW 5911   3.224   1.144   2.407
 1746SOL    HW1 5912   3.307   1.115   2.359
 1746SOL    HW2 5913   3.175   1.211   2.351
 1747SOL     OW 5914   2.412   0.196   2.747
 1747SOL    HW1 5915   2.407   0.191   2.847
 1747SOL    HW2 5916   2.414   0.292   2.718
 1748SOL     OW 5917   2.870   1.456   2.339
 1748SOL    HW1 5918   2.824   1.528   2.287
 1748SOL    HW2 5919   2.866   1.476   2.437
 1749SOL     OW 5920   2.213   1.801   2.715
 1749SOL    HW1 5921   2.263   1.715   2.721
 1749SOL    HW2 5922   2.278   1.878   2.712
 1750SOL     OW 5923   3.657   1.066   2.735
 1750SOL    HW1 5924   3.595   1.051   2.659
 1750SOL    HW2 5925   3.605   1.077   2.820
 1751SOL     OW 5926   3.089   1.550   3.368
 1751SOL    HW1 5927   3.095   1.473   3.432
 1751SOL    HW2 5928   3.037   1.524   3.288
 1752SOL     OW 5929   2.183   0.943   2.104
 1752SOL    HW1 5930   2.265   0.982   2.062
 1752SOL    HW2 5931   2.156   0.861   2.055
 1753SOL     OW 5932   3.320   0.735   2.590
 1753SOL    HW1 5933   3.315   0.670   2.665
 1753SOL    HW2 5934   3.400   0.794   2.603
 1754SOL     OW 5935   2.323   1.266   3.589
 1754SOL    HW1 5936   2.273   1.267   3.503
 1754SOL    HW2 5937   2.260   1.248   3.665
 1755SOL     OW 5938   2.973   1.776   2.099
 1755SOL    HW1 5939   2.913   1.714   2.149
 1755SOL    HW2 5940   3.004   1.732   2.014
 1756SOL     OW 5941   2.064   0.285   3.360
 1756SOL    HW1 5942   1.984   0.345   3.347
 1756SOL    HW2 5943   2.054   0.236   3.446
 1757SOL     OW 5944   3.494   1.377   1.943
 1757SOL    HW1 5945   3.462   1.471   1.933
 1757SOL    HW2 5946   3.418   1.314   1.931
 1758SOL     OW 5947   2.326   1.743   2.185
 1758SOL    HW1 5948   2.359   1.782   2.271
 1758SOL    HW2 5949   2.402   1.736   2.120
 1759SOL     OW 5950   3.262   0.107   2.288
 1759SOL    HW1 5951   3.238   0.070   2.198
 1759SOL    HW2 5952   3.361   0.123   2.292
 1760SOL     OW 5953   2.111   1.785   3.103
 1760SOL    HW1 5954   2.168   1.720   3.153
 1760SOL    HW2 5955   2.095   1.752   3.010
 1761SOL     OW 5956   2.802   1.698   2.766
 1761SOL    HW1 5957   2.882   1.641   2.787
 1761SOL    HW2 5958   2.753   1.658   2.689
 1762SOL     OW 5959   2.244   0.700   2.342
 1762SOL    HW1 5960   2.289   0.610   2.339
 1762SOL    HW2 5961   2.150   0.689   2.375
 1763SOL     OW 5962   3.409   0.222   3.591
 1763SOL    HW1 5963   3.404   0.259   3.683
 1763SOL    HW2 5964   3.337   0.153   3.579
 1764SOL     OW 5965   2.476   0.122   1.979
 1764SOL    HW1 5966   2.574   0.100   1.986
 1764SOL    HW2 5967   2.445   0.105   1.886
 1765SOL     OW 5968   2.643   0.264   3.611
 1765SOL    HW1 5969   2.710   0.203   3.654
 1765SOL    HW2 5970   2.570   0.283   3.676
 1766SOL     OW 5971   2.750   1.514   3.057
 1766SOL    HW1 5972   2.727   1.489   2.963
 1766SOL    HW2 5973   2.811   1.445   3.096
 1767SOL     OW 5974   3.213   0.590   3.295
 1767SOL    HW1 5975   3.241   0.547   3.380
 1767SOL    HW2 5976   3.238   0.686   3.296
 1768SOL     OW 5977   2.665   1.402   2.786
 1768SOL    HW1 5978   2.755   1.416   2.744
 1768SOL    HW2 5979   2.594   1.404   2.715
 1769SOL     OW 5980   2.784   0.503   2.761
 1769SOL    HW1 5981   2.759   0.494   2.665
 1769SOL    HW2 5982   2.832   0.421   2.792
 1770SOL     OW 5983   2.401   0.064   2.374
 1770SOL    HW1 5984   2.320   0.065   2.432
 1770SOL    HW2 5985   2.404   0.147   2.319
 1771SOL     OW 5986   3.296   1.188   1.903
 1771SOL    HW1 5987   3.328   1.112   1.960
 1771SOL    HW2 5988   3.204   1.215   1.933
 1772SOL     OW 5989   2.159   0.035   2.033
 1772SOL    HW1 5990   2.208   0.119   2.012
 1772SOL    HW2 5991   2.221  -0.030   2.078
 1773SOL     OW 5992   2.797   0.236   2.342
 1773SOL    HW1 5993   2.749   0.277   2.264
 1773SOL    HW2 5994   2.896   0.234   2.323
 1774SOL     OW 5995   2.938   0.683   3.326
 1774SOL    HW1 5996   2.858   0.622   3.329
 1774SOL    HW2 5997   3.019   0.630   3.302
 1775SOL     OW 5998   3.089   1.570   2.655
 1775SOL    HW1 5999   3.110   1.644   2.590
 1775SOL    HW2 6000   3.157   1.570   2.728
 1776SOL     OW 6001   2.321   1.152   2.603
 1776SOL    HW1 6002   2.250   1.125   2.668
 1776SOL    HW2 6003   2.295   1.124   2.510
 1777SOL     OW 6004   3.133   1.797   2.453
 1777SOL    HW1 6005   3.177   1.861   2.389
 1777SOL    HW2 6006   3.083   1.849   2.523
 1778SOL     OW 6007   2.894   0.549   1.878
 1778SOL    HW1 6008   2.853   0.631   1.839
 1778SOL    HW2 6009   2.958   0.575   1.951
 1779SOL     OW 6010   1.940   0.556   3.248
 1779SOL    HW1 6011   2.032   0.555   3.207
 1779SOL    HW2 6012   1.934   0.630   3.315
 1780SOL     OW 6013   2.423   0.222   3.009
 1780SOL    HW1 6014   2.461   0.138   3.046
 1780SOL    HW2 6015   2.335   0.241   3.053
 1781SOL     OW 6016   2.728   0.454   2.504
 1781SOL    HW1 6017   2.696   0.526   2.442
 1781SOL    HW2 6018   2.752   0.373   2.451
 1782SOL     OW 6019   2.879   0.039   2.615
 1782SOL    HW1 6020   2.807   0.044   2.546
 1782SOL    HW2 6021   2.855  -0.030   2.684
 1783SOL     OW 6022   3.291   1.173   2.729
 1783SOL    HW1 6023   3.236   1.089   2.722
 1783SOL    HW2 6024   3.317   1.202   2.637
 1784SOL     OW 6025   3.328   0.590   2.854
 1784SOL    HW1 6026   3.298   0.495   2.861
 1784SOL    HW2 6027   3.401   0.606   2.920
 1785SOL     OW 6028   3.719   0.833   2.239
 1785SOL    HW1 6029   3.761   0.769   2.303
 1785SOL    HW2 6030   3.681   0.782   2.161
 1786SOL     OW 6031   2.350   1.385   2.036
 1786SOL    HW1 6032   2.263   1.370   2.083
 1786SOL    HW2 6033   2.333   1.411   1.941
 1787SOL     OW 6034   3.526   1.280   2.519
 1787SOL    HW1 6035   3.625   1.288   2.533
 1787SOL    HW2 6036   3.481   1.364   2.550
 1788SOL     OW 6037   3.252   0.575   1.940
 1788SOL    HW1 6038   3.198   0.554   2.021
 1788SOL    HW2 6039   3.343   0.534   1.949
 1789SOL     OW 6040   2.389   0.256   2.190
 1789SOL    HW1 6041   2.416   0.197   2.115
 1789SOL    HW2 6042   2.389   0.351   2.159
 1790SOL     OW 6043   2.926   1.347   3.202
 1790SOL    HW1 6044   2.846   1.324   3.257
 1790SOL    HW2 6045   3.009   1.321   3.251
 1791SOL     OW 6046   3.454   1.629   3.487
 1791SOL    HW1 6047   3.481   1.663   3.397
 1791SOL    HW2 6048   3.533   1.591   3.533
 1792SOL     OW 6049   2.973   1.195   2.962
 1792SOL    HW1 6050   2.933   1.239   3.043
 1792SOL    HW2 6051   2.932   1.232   2.879
 1793SOL     OW 6052   3.500   1.099   2.941
 1793SOL    HW1 6053   3.505   1.180   3.000
 1793SOL    HW2 6054   3.414   1.101   2.890
 1794SOL     OW 6055   2.777   0.089   3.264
 1794SOL    HW1 6056   2.802   0.069   3.169
 1794SOL    HW2 6057   2.849   0.145   3.306
 1795SOL     OW 6058   2.842   1.116   3.581
 1795SOL    HW1 6059   2.743   1.122   3.591
 1795SOL    HW2 6060   2.865   1.036   3.525
 1796SOL     OW 6061   2.567   1.050   2.230
 1796SOL    HW1 6062   2.553   1.057   2.329
 1796SOL    HW2 6063   2.651   0.999   2.212
 1797SOL     OW 6064   2.272   0.813   3.113
 1797SOL    HW1 6065   2.358   0.825   3.163
 1797SOL    HW2 6066   2.230   0.726   3.140
 1798SOL     OW 6067   3.136   0.386   3.124
 1798SOL    HW1 6068   3.157   0.460   3.188
 1798SOL    HW2 6069   3.047   0.403   3.081
 1799SOL     OW 6070   1.926   1.564   3.193
 1799SOL    HW1 6071   1.880   1.646   3.159
 1799SOL    HW2 6072   2.024   1.583   3.202
 1800SOL     OW 6073   2.229   1.100   2.363
 1800SOL    HW1 6074   2.222   1.183   2.307
 1800SOL    HW2 6075   2.233   1.020   2.303
 1801SOL     OW 6076   2.428   0.537   2.727
 1801SOL    HW1 6077   2.440   0.603   2.653
 1801SOL    HW2 6078   2.474   0.571   2.810
 1802SOL     OW 6079   3.114   1.348   2.250
 1802SOL    HW1 6080   3.164   1.425   2.290
 1802SOL    HW2 6081   3.019   1.350   2.282
 1803SOL     OW 6082   3.134   1.445   3.004
 1803SOL    HW1 6083   3.181   1.458   3.091
 1803SOL    HW2 6084   3.068   1.371   3.013
 1804SOL     OW 6085   3.444   0.639   2.334
 1804SOL    HW1 6086   3.413   0.700   2.407
 1804SOL    HW2 6087   3.494   0.691   2.265
 1805SOL     OW 6088   2.216   1.510   3.191
 1805SOL    HW1 6089   2.195   1.466   3.104
 1805SOL    HW2 6090   2.313   1.536   3.194
 1806SOL     OW 6091   2.264   0.751   3.460
 1806SOL    HW1 6092   2.332   0.806   3.413
 1806SOL    HW2 6093   2.304   0.663   3.487
 1807SOL     OW 6094   2.875   0.105   3.632
 1807SOL    HW1 6095   2.881   0.190   3.580
 1807SOL    HW2 6096   2.907   0.029   3.575
 1808SOL     OW 6097   2.366   0.050   3.602
 1808SOL    HW1 6098   2.324  -0.007   3.532
 1808SOL    HW2 6099   2.300   0.119   3.634
 1809SOL     OW 6100   2.435   0.870   2.891
 1809SOL    HW1 6101   2.479   0.959   2.882
 1809SOL    HW2 6102   2.372   0.870   2.968
 1810SOL     OW 6103   3.222   0.862   2.907
 1810SOL    HW1 6104   3.147   0.862   2.841
 1810SOL    HW2 6105   3.259   0.770   2.916
 1811SOL     OW 6106   3.071   0.525   2.137
 1811SOL    HW1 6107   3.084   0.441   2.191
 1811SOL    HW2 6108   3.042   0.599   2.197
 1812SOL     OW 6109   2.169   0.213   3.093
 1812SOL    HW1 6110   2.146   0.250   3.183
 1812SOL    HW2 6111   2.139   0.118   3.087
 1813SOL     OW 6112   1.899   1.310   3.144
 1813SOL    HW1 6113   1.952   1.261   3.212
 1813SOL    HW2 6114   1.921   1.408   3.149
 1814SOL     OW 6115   2.594   0.634   2.926
 1814SOL    HW1 6116   2.653   0.608   2.850
 1814SOL    HW2 6117   2.566   0.730   2.915
 1815SOL     OW 6118   2.169   0.063   2.480
 1815SOL    HW1 6119   2.158   0.157   2.513
 1815SOL    HW2 6120   2.164   0.000   2.557
 1816SOL     OW 6121   3.484   0.367   2.236
 1816SOL    HW1 6122   3.486   0.291   2.300
 1816SOL    HW2 6123   3.436   0.444   2.276
 1817SOL     OW 6124   2.885   0.766   2.828
 1817SOL    HW1 6125   2.900   0.787   2.924
 1817SOL    HW2 6126   2.855   0.671   2.819
 1818SOL     OW 6127   2.842   1.573   3.562
 1818SOL    HW1 6128   2.822   1.617   3.474
 1818SOL    HW2 6129   2.881   1.482   3.546
 1819SOL     OW 6130   3.721   1.518   3.467
 1819SOL    HW1 6131   3.735   1.545   3.372
 1819SOL    HW2 6132   3.804   1.540   3.520
 1820SOL     OW 6133   2.212   0.898   3.666
 1820SOL    HW1 6134   2.288   0.942   3.714
 1820SOL    HW2 6135   2.247   0.851   3.584
 1821SOL     OW 6136   3.402   0.274   1.987
 1821SOL    HW1 6137   3.341   0.199   2.010
 1821SOL    HW2 6138   3.424   0.326   2.070
 1822SOL     OW 6139   3.165   0.838   1.904
 1822SOL    HW1 6140   3.199   0.745   1.919
 1822SOL    HW2 6141   3.183   0.865   1.809
 1823SOL     OW 6142   2.930   1.333   2.711
 1823SOL    HW1 6143   2.937   1.249   2.656
 1823SOL    HW2 6144   2.992   1.402   2.675
 1824SOL     OW 6145   2.181   0.810   2.811
 1824SOL    HW1 6146   2.274   0.846   2.816
 1824SOL    HW2 6147   2.175   0.725   2.863
 1825SOL     OW 6148   2.201   0.509   2.868
 1825SOL    HW1 6149   2.149   0.426   2.851
 1825SOL    HW2 6150   2.278   0.514   2.804
 1826SOL     OW 6151   3.000   0.380   3.540
 1826SOL    HW1 6152   2.955   0.443   3.604
 1826SOL    HW2 6153   3.093   0.411   3.523
 1827SOL     OW 6154   3.022   0.207   3.339
 1827SOL    HW1 6155   3.022   0.271   3.416
 1827SOL    HW2 6156   3.050   0.255   3.256
 1828SOL     OW 6157   1.870   1.326   2.062
 1828SOL    HW1 6158   1.777   1.347   2.031
 1828SOL    HW2 6159   1.880   1.227   2.075
 1829SOL     OW 6160   1.950   1.801   2.789
 1829SOL    HW1 6161   1.908   1.715   2.762
 1829SOL    HW2 6162   2.044   1.804   2.755
 1830SOL     OW 6163   2.366   1.568   2.772
 1830SOL    HW1 6164   2.432   1.642   2.781
 1830SOL    HW2 6165   2.410   1.489   2.730
 1831SOL     OW 6166   2.864   0.796   3.100
 1831SOL    HW1 6167   2.905   0.764   3.186
 1831SOL    HW2 6168   2.768   0.769   3.097
 1832SOL     OW 6169   2.051   0.520   3.584
 1832SOL    HW1 6170   2.110   0.480   3.514
 1832SOL    HW2 6171   1.993   0.591   3.543
 1833SOL     OW 6172   2.677   0.572   2.187
 1833SOL    HW1 6173   2.684   0.483   2.141
 1833SOL    HW2 6174   2.583   0.606   2.179
 1834SOL     OW 6175   3.519   0.604   3.068
 1834SOL    HW1 6176   3.481   0.535   3.130
 1834SOL    HW2 6177   3.601   0.568   3.024
 1835SOL     OW 6178   2.114   1.564   3.606
 1835SOL    HW1 6179   2.084   1.621   3.682
 1835SOL    HW2 6180   2.107   1.467   3.632
 1836SOL     OW 6181   2.533   0.464   3.131
 1836SOL    HW1 6182   2.499   0.375   3.101
 1836SOL    HW2 6183   2.559   0.518   3.051
 1837SOL     OW 6184   2.792   1.678   3.327
 1837SOL    HW1 6185   2.768   1.660   3.232
 1837SOL    HW2 6186   2.822   1.772   3.337
 1838SOL     OW 6187   2.335   0.500   2.053
 1838SOL    HW1 6188   2.396   0.580   2.057
 1838SOL    HW2 6189   2.240   0.531   2.060
 1839SOL     OW 6190   2.021   1.137   3.328
 1839SOL    HW1 6191   2.043   1.076   3.404
 1839SOL    HW2 6192   2.031   1.088   3.242
 1840SOL     OW 6193   3.209   1.059   3.096
 1840SOL    HW1 6194   3.233   0.996   3.022
 1840SOL    HW2 6195   3.119   1.099   3.078
 1841SOL     OW 6196   3.164   0.855   2.171
 1841SOL    HW1 6197   3.078   0.824   2.213
 1841SOL    HW2 6198   3.160   0.841   2.072
 1842SOL     OW 6199   3.621   1.747   3.016
 1842SOL    HW1 6200   3.682   1.777   2.943
 1842SOL    HW2 6201   3.583   1.658   2.994
 1843SOL     OW 6202   3.114   1.731   2.990
 1843SOL    HW1 6203   3.198   1.736   2.936
 1843SOL    HW2 6204   3.091   1.635   3.008
 1844SOL     OW 6205   2.550   1.662   3.578
 1844SOL    HW1 6206   2.494   1.743   3.587
 1844SOL    HW2 6207   2.602   1.666   3.492
 1845SOL     OW 6208   3.588   0.135   2.385
 1845SOL    HW1 6209   3.661   0.118   2.318
 1845SOL    HW2 6210   3.557   0.048   2.423
 1846SOL     OW 6211   3.250   1.573   2.339
 1846SOL    HW1 6212   3.317   1.585   2.265
 1846SOL    HW2 6213   3.210   1.662   2.362
 1847SOL     OW 6214   1.992   1.794   3.713
 1847SOL    HW1 6215   1.951   1.720   3.766
 1847SOL    HW2 6216   2.056   1.845   3.771
 1848SOL     OW 6217   3.142   0.927   2.534
 1848SOL    HW1 6218   3.202   0.846   2.536
 1848SOL    HW2 6219   3.182   0.996   2.474
 1849SOL     OW 6220   2.692   1.273   3.284
 1849SOL    HW1 6221   2.687   1.306   3.379
 1849SOL    HW2 6222   2.606   1.292   3.238
 1850SOL     OW 6223   3.512   1.720   3.256
 1850SOL    HW1 6224   3.565   1.730   3.172
 1850SOL    HW2 6225   3.485   1.810   3.290
 1851SOL     OW 6226   3.703   0.175   2.825
 1851SOL    HW1 6227   3.742   0.090   2.789
 1851SOL    HW2 6228   3.605   0.177   2.806
 1852SOL     OW 6229   2.125   0.326   2.582
 1852SOL    HW1 6230   2.046   0.377   2.548
 1852SOL    HW2 6231   2.116   0.311   2.680
 1853SOL     OW 6232   3.056   1.612   1.893
 1853SOL    HW1 6233   3.062   1.519   1.930
 1853SOL    HW2 6234   2.997   1.612   1.813
 1854SOL     OW 6235   2.684   1.002   3.234
 1854SOL    HW1 6236   2.724   1.001   3.142
 1854SOL    HW2 6237   2.694   1.094   3.274
 1855SOL     OW 6238   2.778   0.910   2.153
 1855SOL    HW1 6239   2.841   0.948   2.085
 1855SOL    HW2 6240   2.818   0.827   2.192
 1856SOL     OW 6241   3.366   1.607   1.906
 1856SOL    HW1 6242   3.274   1.644   1.913
 1856SOL    HW2 6243   3.404   1.627   1.816
 1857SOL     OW 6244   2.234   1.288   3.352
 1857SOL    HW1 6245   2.221   1.381   3.318
 1857SOL    HW2 6246   2.150   1.236   3.339
 1858SOL     OW 6247   3.476   1.292   3.151
 1858SOL    HW1 6248   3.536   1.295   3.231
 1858SOL    HW2 6249   3.401   1.356   3.164
 1859SOL     OW 6250   2.901   1.098   2.558
 1859SOL    HW1 6251   2.831   1.051   2.612
 1859SOL    HW2 6252   2.960   1.030   2.515
 1860SOL     OW 6253   2.876   0.236   2.833
 1860SOL    HW1 6254   2.868   0.200   2.740
 1860SOL    HW2 6255   2.874   0.160   2.898
 1861SOL     OW 6256   2.452   1.487   2.353
 1861SOL    HW1 6257   2.494   1.429   2.283
 1861SOL    HW2 6258   2.408   1.566   2.309
 1862SOL     OW 6259   3.571   0.385   3.243
 1862SOL    HW1 6260   3.644   0.454   3.247
 1862SOL    HW2 6261   3.599   0.310   3.184
 1863SOL     OW 6262   2.117   1.348   2.152
 1863SOL    HW1 6263   2.021   1.349   2.125
 1863SOL    HW2 6264   2.129   1.401   2.236
 1864SOL     OW 6265   1.967   1.013   3.588
 1864SOL    HW1 6266   1.890   0.980   3.642
 1864SOL    HW2 6267   2.052   0.983   3.630
 1865SOL     OW 6268   2.534   0.203   3.351
 1865SOL    HW1 6269   2.624   0.187   3.311
 1865SOL    HW2 6270   2.542   0.208   3.450
 1866SOL     OW 6271   1.937   0.345   1.895
 1866SOL    HW1 6272   1.845   0.317   1.866
 1866SOL    HW2 6273   1.968   0.422   1.839
 1867SOL     OW 6274   1.934   0.166   2.180
 1867SOL    HW1 6275   1.917   0.249   2.126
 1867SOL    HW2 6276   2.024   0.129   2.158
 1868SOL     OW 6277   3.045   1.335   1.981
 1868SOL    HW1 6278   2.946   1.324   1.983
 1868SOL    HW2 6279   3.079   1.350   2.074
 1869SOL     OW 6280   2.475   0.842   3.293
 1869SOL    HW1 6281   2.531   0.923   3.276
 1869SOL    HW2 6282   2.534   0.762   3.296
 1870SOL     OW 6283   3.355   1.767   2.821
 1870SOL    HW1 6284   3.388   1.831   2.752
 1870SOL    HW2 6285   3.421   1.761   2.896
 1871SOL     OW 6286   2.578   0.565   3.570
 1871SOL    HW1 6287   2.597   0.630   3.644
 1871SOL    HW2 6288   2.638   0.485   3.579
 1872SOL     OW 6289   3.312   1.220   3.495
 1872SOL    HW1 6290   3.303   1.210   3.594
 1872SOL    HW2 6291   3.408   1.213   3.469
 1873SOL     OW 6292   2.252   1.741   3.422
 1873SOL    HW1 6293   2.161   1.782   3.420
 1873SOL    HW2 6294   2.245   1.647   3.454
 1874SOL     OW 6295   3.536   0.883   3.116
 1874SOL    HW1 6296   3.509   0.794   3.079
 1874SOL    HW2 6297   3.537   0.951   3.043
 1875SOL     OW 6298   3.087   0.325   2.311
 1875SOL    HW1 6299   3.152   0.251   2.300
 1875SOL    HW2 6300   3.107   0.375   2.395
 1876SOL     OW 6301   2.456   0.745   2.514
 1876SOL    HW1 6302   2.506   0.830   2.495
 1876SOL    HW2 6303   2.368   0.747   2.466
 1877SOL     OW 6304   3.639   0.342   3.504
 1877SOL    HW1 6305   3.622   0.373   3.410
 1877SOL    HW2 6306   3.555   0.305   3.542
 1878SOL     OW 6307   2.721   1.374   1.878
 1878SOL    HW1 6308   2.675   1.389   1.966
 1878SOL    HW2 6309   2.765   1.459   1.848
 1879SOL     OW 6310   2.523   1.790   2.815
 1879SOL    HW1 6311   2.477   1.878   2.802
 1879SOL    HW2 6312   2.622   1.802   2.808
 1880SOL     OW 6313   2.721   0.956   2.723
 1880SOL    HW1 6314   2.775   0.887   2.771
 1880SOL    HW2 6315   2.689   1.025   2.789
 1881SOL     OW 6316   2.945   0.984   1.949
 1881SOL    HW1 6317   2.922   1.037   1.867
 1881SOL    HW2 6318   3.026   0.928   1.930
 1882SOL     OW 6319   3.723   1.569   2.713
 1882SOL    HW1 6320   3.652   1.557   2.643
 1882SOL    HW2 6321   3.724   1.490   2.773
 1883SOL     OW 6322   2.083   1.314   3.706
 1883SOL    HW1 6323   2.018   1.241   3.685
 1883SOL    HW2 6324   2.087   1.328   3.804
 1884SOL     OW 6325   2.534   1.391   3.486
 1884SOL    HW1 6326   2.456   1.341   3.524
 1884SOL    HW2 6327   2.531   1.486   3.517
 1885SOL     OW 6328   3.686   0.192   3.089
 1885SOL    HW1 6329   3.682   0.102   3.133
 1885SOL    HW2 6330   3.689   0.181   2.990
 1886SOL     OW 6331   2.290   0.424   2.382
 1886SOL    HW1 6332   2.320   0.352   2.320
 1886SOL    HW2 6333   2.251   0.384   2.465
 1887SOL     OW 6334   3.567   1.487   2.966
 1887SOL    HW1 6335   3.474   1.462   2.939
 1887SOL    HW2 6336   3.593   1.437   3.048
 1888SOL     OW 6337   2.179   0.547   3.142
 1888SOL    HW1 6338   2.217   0.488   3.214
 1888SOL    HW2 6339   2.219   0.521   3.054
 1889SOL     OW 6340   2.674   1.586   2.549
 1889SOL    HW1 6341   2.706   1.596   2.455
 1889SOL    HW2 6342   2.595   1.524   2.551
 1890SOL     OW 6343   3.286   0.214   2.974
 1890SOL    HW1 6344   3.338   0.149   3.029
 1890SOL    HW2 6345   3.237   0.277   3.035
 1891SOL     OW 6346   2.863   0.034   3.016
 1891SOL    HW1 6347   2.800  -0.038   2.985
 1891SOL    HW2 6348   2.956  -0.002   3.016
 1892SOL     OW 6349   2.632   1.330   2.163
 1892SOL    HW1 6350   2.586   1.243   2.180
 1892SOL    HW2 6351   2.723   1.327   2.204
 1893SOL     OW 6352   2.480   1.567   3.146
 1893SOL    HW1 6353   2.475   1.649   3.203
 1893SOL    HW2 6354   2.569   1.564   3.101
 1894SOL     OW 6355   3.214   0.052   2.030
 1894SOL    HW1 6356   3.249   0.011   1.946
 1894SOL    HW2 6357   3.124   0.014   2.050
 1895SOL     OW 6358   3.162   0.453   2.553
 1895SOL    HW1 6359   3.103   0.533   2.557
 1895SOL    HW2 6360   3.177   0.418   2.646
 1896SOL     OW 6361   3.455   0.221   2.744
 1896SOL    HW1 6362   3.371   0.220   2.798
 1896SOL    HW2 6363   3.457   0.304   2.688
 1897SOL     OW 6364   1.901   1.077   2.162
 1897SOL    HW1 6365   2.000   1.066   2.153
 1897SOL    HW2 6366   1.861   0.991   2.194
 1898SOL     OW 6367   2.092   0.628   3.837
 1898SOL    HW1 6368   1.999   0.626   3.874
 1898SOL    HW2 6369   2.093   0.589   3.745
 1899SOL     OW 6370   2.087   0.275   4.720
 1899SOL    HW1 6371   2.122   0.258   4.812
 1899SOL    HW2 6372   1.999   0.230   4.708
 1900SOL     OW 6373   1.881   0.368   4.371
 1900SOL    HW1 6374   1.799   0.411   4.410
 1900SOL    HW2 6375   1.853   0.295   4.308
 1901SOL     OW 6376   2.431   1.275   4.889
 1901SOL    HW1 6377   2.338   1.268   4.852
 1901SOL    HW2 6378   2.442   1.364   4.933
 1902SOL     OW 6379   3.417   1.511   4.427
 1902SOL    HW1 6380   3.360   1.495   4.508
 1902SOL    HW2 6381   3.358   1.521   4.347
 1903SOL     OW 6382   2.997   0.703   4.441
 1903SOL    HW1 6383   3.054   0.781   4.416
 1903SOL    HW2 6384   2.937   0.729   4.517
 1904SOL     OW 6385   3.617   0.607   3.955
 1904SOL    HW1 6386   3.605   0.594   3.856
 1904SOL    HW2 6387   3.587   0.526   4.004
 1905SOL     OW 6388   2.630   1.144   4.747
 1905SOL    HW1 6389   2.552   1.161   4.807
 1905SOL    HW2 6390   2.664   1.231   4.711
 1906SOL     OW 6391   2.547   1.012   4.389
 1906SOL    HW1 6392   2.616   0.996   4.459
 1906SOL    HW2 6393   2.474   1.069   4.427
 1907SOL     OW 6394   2.197   1.435   4.785
 1907SOL    HW1 6395   2.119   1.404   4.732
 1907SOL    HW2 6396   2.255   1.493   4.728
 1908SOL     OW 6397   3.465   0.447   4.461
 1908SOL    HW1 6398   3.391   0.493   4.411
 1908SOL    HW2 6399   3.516   0.515   4.514
 1909SOL     OW 6400   2.093   1.713   4.207
 1909SOL    HW1 6401   2.127   1.790   4.261
 1909SOL    HW2 6402   2.137   1.713   4.117
 1910SOL     OW 6403   2.092   1.434   4.262
 1910SOL    HW1 6404   2.066   1.530   4.262
 1910SOL    HW2 6405   2.021   1.380   4.307
 1911SOL     OW 6406   2.102   1.091   4.610
 1911SOL    HW1 6407   2.116   1.007   4.662
 1911SOL    HW2 6408   2.047   1.155   4.665
 1912SOL     OW 6409   2.482   1.786   5.163
 1912SOL    HW1 6410   2.390   1.769   5.198
 1912SOL    HW2 6411   2.510   1.878   5.189
 1913SOL     OW 6412   2.468   0.964   3.847
 1913SOL    HW1 6413   2.475   1.048   3.793
 1913SOL    HW2 6414   2.514   0.977   3.935
 1914SOL     OW 6415   1.984   0.643   4.287
 1914SOL    HW1 6416   1.939   0.555   4.304
 1914SOL    HW2 6417   1.983   0.697   4.371
 1915SOL     OW 6418   3.704   1.767   4.083
 1915SOL    HW1 6419   3.758   1.738   4.163
 1915SOL    HW2 6420   3.734   1.857   4.054
 1916SOL     OW 6421   1.889   1.596   3.841
 1916SOL    HW1 6422   1.870   1.500   3.862
 1916SOL    HW2 6423   1.856   1.654   3.916
 1917SOL     OW 6424   3.551   0.922   4.336
 1917SOL    HW1 6425   3.646   0.893   4.344
 1917SOL    HW2 6426   3.543   0.987   4.261
 1918SOL     OW 6427   2.475   1.365   4.450
 1918SOL    HW1 6428   2.426   1.278   4.459
 1918SOL    HW2 6429   2.452   1.408   4.363
 1919SOL     OW 6430   2.671   0.004   4.226
 1919SOL    HW1 6431   2.711   0.095   4.217
 1919SOL    HW2 6432   2.571   0.012   4.232
 1920SOL     OW 6433   2.059   0.976   4.988
 1920SOL    HW1 6434   2.148   0.931   4.974
 1920SOL    HW2 6435   1.986   0.911   4.969
 1921SOL     OW 6436   3.529   1.714   4.296
 1921SOL    HW1 6437   3.488   1.691   4.208
 1921SOL    HW2 6438   3.511   1.640   4.361
 1922SOL     OW 6439   2.460   0.729   3.994
 1922SOL    HW1 6440   2.484   0.798   3.926
 1922SOL    HW2 6441   2.382   0.762   4.048
 1923SOL     OW 6442   3.143   0.345   4.668
 1923SOL    HW1 6443   3.057   0.295   4.655
 1923SOL    HW2 6444   3.205   0.291   4.724
 1924SOL     OW 6445   3.438   1.662   4.031
 1924SOL    HW1 6446   3.527   1.708   4.034
 1924SOL    HW2 6447   3.417   1.638   3.936
 1925SOL     OW 6448   2.853   0.410   4.966
 1925SOL    HW1 6449   2.776   0.444   5.020
 1925SOL    HW2 6450   2.819   0.359   4.887
 1926SOL     OW 6451   2.903   0.701   4.153
 1926SOL    HW1 6452   2.929   0.697   4.249
 1926SOL    HW2 6453   2.818   0.650   4.139
 1927SOL     OW 6454   1.938   0.811   4.513
 1927SOL    HW1 6455   2.037   0.799   4.522
 1927SOL    HW2 6456   1.914   0.906   4.534
 1928SOL     OW 6457   2.727   0.348   3.919
 1928SOL    HW1 6458   2.786   0.411   3.870
 1928SOL    HW2 6459   2.746   0.254   3.890
 1929SOL     OW 6460   2.412   0.196   4.609
 1929SOL    HW1 6461   2.407   0.191   4.709
 1929SOL    HW2 6462   2.414   0.292   4.580
 1930SOL     OW 6463   2.870   1.456   4.201
 1930SOL    HW1 6464   2.824   1.528   4.149
 1930SOL    HW2 6465   2.866   1.476   4.299
 1931SOL     OW 6466   2.213   1.801   4.577
 1931SOL    HW1 6467   2.263   1.715   4.583
 1931SOL    HW2 6468   2.278   1.878   4.574
 1932SOL     OW 6469   3.657   1.066   4.597
 1932SOL    HW1 6470   3.595   1.051   4.521
 1932SOL    HW2 6471   3.605   1.077   4.682
 1933SOL     OW 6472   2.183   0.943   3.966
 1933SOL    HW1 6473   2.265   0.982   3.924
 1933SOL    HW2 6474   2.156   0.861   3.917
 1934SOL     OW 6475   3.320   0.735   4.452
 1934SOL    HW1 6476   3.315   0.670   4.527
 1934SOL    HW2 6477   3.400   0.794   4.465
 1935SOL     OW 6478   2.973   1.776   3.961
 1935SOL    HW1 6479   2.913   1.714   4.011
 1935SOL    HW2 6480   3.004   1.732   3.876
 1936SOL     OW 6481   3.494   1.377   3.805
 1936SOL    HW1 6482   3.462   1.471   3.795
 1936SOL    HW2 6483   3.418   1.314   3.793
 1937SOL     OW 6484   2.326   1.743   4.047
 1937SOL    HW1 6485   2.359   1.782   4.133
 1937SOL    HW2 6486   2.402   1.736   3.982
 1938SOL     OW 6487   3.262   0.107   4.150
 1938SOL    HW1 6488   3.238   0.070   4.060
 1938SOL    HW2 6489   3.361   0.123   4.154
 1939SOL     OW 6490   2.111   1.785   4.965
 1939SOL    HW1 6491   2.168   1.720   5.015
 1939SOL    HW2 6492   2.095   1.752   4.872
 1940SOL     OW 6493   2.802   1.698   4.628
 1940SOL    HW1 6494   2.882   1.641   4.649
 1940SOL    HW2 6495   2.753   1.658   4.551
 1941SOL     OW 6496   2.244   0.700   4.204
 1941SOL    HW1 6497   2.289   0.610   4.201
 1941SOL    HW2 6498   2.150   0.689   4.237
 1942SOL     OW 6499   2.476   0.122   3.841
 1942SOL    HW1 6500   2.574   0.100   3.848
 1942SOL    HW2 6501   2.445   0.105   3.748
 1943SOL     OW 6502   2.665   1.402   4.648
 1943SOL    HW1 6503   2.755   1.416   4.606
 1943SOL    HW2 6504   2.594   1.404   4.577
 1944SOL     OW 6505   2.784   0.503   4.623
 1944SOL    HW1 6506   2.759   0.494   4.527
 1944SOL    HW2 6507   2.832   0.421   4.654
 1945SOL     OW 6508   2.401   0.064   4.236
 1945SOL    HW1 6509   2.320   0.065   4.294
 1945SOL    HW2 6510   2.404   0.147   4.181
 1946SOL     OW 6511   3.296   1.188   3.765
 1946SOL    HW1 6512   3.328   1.112   3.822
 1946SOL    HW2 6513   3.204   1.215   3.795
 1947SOL     OW 6514   2.159   0.035   3.895
 1947SOL    HW1 6515   2.208   0.119   3.874
 1947SOL    HW2 6516   2.221  -0.030   3.940
 1948SOL     OW 6517   2.797   0.236   4.204
 1948SOL    HW1 6518   2.749   0.277   4.126
 1948SOL    HW2 6519   2.896   0.234   4.185
 1949SOL     OW 6520   3.089   1.570   4.517
 1949SOL    HW1 6521   3.110   1.644   4.452
 1949SOL    HW2 6522   3.157   1.570   4.590
 1950SOL     OW 6523   2.321   1.152   4.465
 1950SOL    HW1 6524   2.250   1.125   4.530
 1950SOL    HW2 6525   2.295   1.124   4.372
 1951SOL     OW 6526   3.133   1.797   4.315
 1951SOL    HW1 6527   3.177   1.861   4.251
 1951SOL    HW2 6528   3.083   1.849   4.385
 1952SOL     OW 6529   2.894   0.549   3.740
 1952SOL    HW1 6530   2.853   0.631   3.701
 1952SOL    HW2 6531   2.958   0.575   3.813
 1953SOL     OW 6532   2.423   0.222   4.871
 1953SOL    HW1 6533   2.461   0.138   4.908
 1953SOL    HW2 6534   2.335   0.241   4.915
 1954SOL     OW 6535   2.728   0.454   4.366
 1954SOL    HW1 6536   2.696   0.526   4.304
 1954SOL    HW2 6537   2.752   0.373   4.313
 1955SOL     OW 6538   2.879   0.039   4.477
 1955SOL    HW1 6539   2.807   0.044   4.408
 1955SOL    HW2 6540   2.855  -0.030   4.546
 1956SOL     OW 6541   3.328   0.590   4.716
 1956SOL    HW1 6542   3.298   0.495   4.723
 1956SOL    HW2 6543   3.401   0.606   4.782
 1957SOL     OW 6544   3.719   0.833   4.101
 1957SOL    HW1 6545   3.761   0.769   4.165
 1957SOL    HW2 6546   3.681   0.782   4.023
 1958SOL     OW 6547   2.350   1.385   3.898
 1958SOL    HW1 6548   2.263   1.370   3.945
 1958SOL    HW2 6549   2.333   1.411   3.803
 1959SOL     OW 6550   3.526   1.280   4.381
 1959SOL    HW1 6551   3.625   1.288   4.395
 1959SOL    HW2 6552   3.481   1.364   4.412
 1960SOL     OW 6553   3.252   0.575   3.802
 1960SOL    HW1 6554   3.198   0.554   3.883
 1960SOL    HW2 6555   3.343   0.534   3.811
 1961SOL     OW 6556   2.389   0.256   4.052
 1961SOL    HW1 6557   2.416   0.197   3.977
 1961SOL    HW2 6558   2.389   0.351   4.021
 1962SOL     OW 6559   2.567   1.050   4.092
 1962SOL    HW1 6560   2.553   1.057   4.191
 1962SOL    HW2 6561   2.651   0.999   4.074
 1963SOL     OW 6562   2.272   0.813   4.975
 1963SOL    HW1 6563   2.358   0.825   5.025
 1963SOL    HW2 6564   2.230   0.726   5.002
 1964SOL     OW 6565   3.136   0.386   4.986
 1964SOL    HW1 6566   3.157   0.460   5.050
 1964SOL    HW2 6567   3.047   0.403   4.943
 1965SOL     OW 6568   2.229   1.100   4.225
 1965SOL    HW1 6569   2.222   1.183   4.169
 1965SOL    HW2 6570   2.233   1.020   4.165
 1966SOL     OW 6571   2.428   0.537   4.589
 1966SOL    HW1 6572   2.440   0.603   4.515
 1966SOL    HW2 6573   2.474   0.571   4.672
 1967SOL     OW 6574   3.114   1.348   4.112
 1967SOL    HW1 6575   3.164   1.425   4.152
 1967SOL    HW2 6576   3.019   1.350   4.144
 1968SOL     OW 6577   2.216   1.510   5.053
 1968SOL    HW1 6578   2.195   1.466   4.966
 1968SOL    HW2 6579   2.313   1.536   5.056
 1969SOL     OW 6580   2.435   0.870   4.753
 1969SOL    HW1 6581   2.479   0.959   4.744
 1969SOL    HW2 6582   2.372   0.870   4.830
 1970SOL     OW 6583   3.071   0.525   3.999
 1970SOL    HW1 6584   3.084   0.441   4.053
 1970SOL    HW2 6585   3.042   0.599   4.059
 1971SOL     OW 6586   2.169   0.213   4.955
 1971SOL    HW1 6587   2.146   0.250   5.045
 1971SOL    HW2 6588   2.139   0.118   4.949
 1972SOL     OW 6589   1.899   1.310   5.006
 1972SOL    HW1 6590   1.952   1.261   5.074
 1972SOL    HW2 6591   1.921   1.408   5.011
 1973SOL     OW 6592   2.594   0.634   4.788
 1973SOL    HW1 6593   2.653   0.608   4.712
 1973SOL    HW2 6594   2.566   0.730   4.777
 1974SOL     OW 6595   2.169   0.063   4.342
 1974SOL    HW1 6596   2.158   0.157   4.375
 1974SOL    HW2 6597   2.164   0.000   4.419
 1975SOL     OW 6598   3.484   0.367   4.098
 1975SOL    HW1 6599   3.486   0.291   4.162
 1975SOL    HW2 6600   3.436   0.444   4.138
 1976SOL     OW 6601   2.885   0.766   4.690
 1976SOL    HW1 6602   2.900   0.787   4.786
 1976SOL    HW2 6603   2.855   0.671   4.681
 1977SOL     OW 6604   3.402   0.274   3.849
 1977SOL    HW1 6605   3.341   0.199   3.872
 1977SOL    HW2 6606   3.424   0.326   3.932
 1978SOL     OW 6607   3.165   0.838   3.766
 1978SOL    HW1 6608   3.199   0.745   3.781
 1978SOL    HW2 6609   3.183   0.865   3.671
 1979SOL     OW 6610   2.930   1.333   4.573
 1979SOL    HW1 6611   2.937   1.249   4.518
 1979SOL    HW2 6612   2.992   1.402   4.537
 1980SOL     OW 6613   2.181   0.810   4.673
 1980SOL    HW1 6614   2.274   0.846   4.678
 1980SOL    HW2 6615   2.175   0.725   4.725
 1981SOL     OW 6616   2.201   0.509   4.730
 1981SOL    HW1 6617   2.149   0.426   4.713
 1981SOL    HW2 6618   2.278   0.514   4.666
 1982SOL     OW 6619   3.022   0.207   5.201
 1982SOL    HW1 6620   3.022   0.271   5.278
 1982SOL    HW2 6621   3.050   0.255   5.118
 1983SOL     OW 6622   1.870   1.326   3.924
 1983SOL    HW1 6623   1.777   1.347   3.893
 1983SOL    HW2 6624   1.880   1.227   3.937
 1984SOL     OW 6625   1.950   1.801   4.651
 1984SOL    HW1 6626   1.908   1.715   4.624
 1984SOL    HW2 6627   2.044   1.804   4.617
 1985SOL     OW 6628   2.366   1.568   4.634
 1985SOL    HW1 6629   2.432   1.642   4.643
 1985SOL    HW2 6630   2.410   1.489   4.592
 1986SOL     OW 6631   2.864   0.796   4.962
 1986SOL    HW1 6632   2.905   0.764   5.048
 1986SOL    HW2 6633   2.768   0.769   4.959
 1987SOL     OW 6634   1.902   0.544   4.838
 1987SOL    HW1 6635   1.987   0.511   4.797
 1987SOL    HW2 6636   1.915   0.559   4.936
 1988SOL     OW 6637   2.677   0.572   4.049
 1988SOL    HW1 6638   2.684   0.483   4.003
 1988SOL    HW2 6639   2.583   0.606   4.041
 1989SOL     OW 6640   3.519   0.604   4.930
 1989SOL    HW1 6641   3.481   0.535   4.992
 1989SOL    HW2 6642   3.601   0.568   4.886
 1990SOL     OW 6643   2.533   0.464   4.993
 1990SOL    HW1 6644   2.499   0.375   4.963
 1990SOL    HW2 6645   2.559   0.518   4.913
 1991SOL     OW 6646   2.792   1.678   5.189
 1991SOL    HW1 6647   2.768   1.660   5.094
 1991SOL    HW2 6648   2.822   1.772   5.199
 1992SOL     OW 6649   2.335   0.500   3.915
 1992SOL    HW1 6650   2.396   0.580   3.919
 1992SOL    HW2 6651   2.240   0.531   3.922
 1993SOL     OW 6652   3.164   0.855   4.033
 1993SOL    HW1 6653   3.078   0.824   4.075
 1993SOL    HW2 6654   3.160   0.841   3.934
 1994SOL     OW 6655   3.621   1.747   4.878
 1994SOL    HW1 6656   3.682   1.777   4.805
 1994SOL    HW2 6657   3.583   1.658   4.856
 1995SOL     OW 6658   3.114   1.731   4.852
 1995SOL    HW1 6659   3.198   1.736   4.798
 1995SOL    HW2 6660   3.091   1.635   4.870
 1996SOL     OW 6661   1.945   1.258   4.746
 1996SOL    HW1 6662   1.940   1.257   4.846
 1996SOL    HW2 6663   1.862   1.217   4.708
 1997SOL     OW 6664   3.588   0.135   4.247
 1997SOL    HW1 6665   3.661   0.118   4.180
 1997SOL    HW2 6666   3.557   0.048   4.285
 1998SOL     OW 6667   3.250   1.573   4.201
 1998SOL    HW1 6668   3.317   1.585   4.127
 1998SOL    HW2 6669   3.210   1.662   4.224
 1999SOL     OW 6670   2.534   1.616   3.878
 1999SOL    HW1 6671   2.543   1.626   3.779
 1999SOL    HW2 6672   2.494   1.527   3.899
 2000SOL     OW 6673   3.703   0.175   4.687
 2000SOL    HW1 6674   3.742   0.090   4.651
 2000SOL    HW2 6675   3.605   0.177   4.668
 2001SOL     OW 6676   2.125   0.326   4.444
 2001SOL    HW1 6677   2.046   0.377   4.410
 2001SOL    HW2 6678   2.116   0.311   4.542
 2002SOL     OW 6679   3.056   1.612   3.755
 2002SOL    HW1 6680   3.062   1.519   3.792
 2002SOL    HW2 6681   2.997   1.612   3.675
 2003SOL     OW 6682   2.684   1.002   5.096
 2003SOL    HW1 6683   2.724   1.001   5.004
 2003SOL    HW2 6684   2.694   1.094   5.136
 2004SOL     OW 6685   2.778   0.910   4.015
 2004SOL    HW1 6686   2.841   0.948   3.947
 2004SOL    HW2 6687   2.818   0.827   4.054
 2005SOL     OW 6688   3.366   1.607   3.768
 2005SOL    HW1 6689   3.274   1.644   3.775
 2005SOL    HW2 6690   3.404   1.627   3.678
 2006SOL     OW 6691   2.901   1.098   4.420
 2006SOL    HW1 6692   2.831   1.051   4.474
 2006SOL    HW2 6693   2.960   1.030   4.377
 2007SOL     OW 6694   2.876   0.236   4.695
 2007SOL    HW1 6695   2.868   0.200   4.602
 2007SOL    HW2 6696   2.874   0.160   4.760
 2008SOL     OW 6697   2.452   1.487   4.215
 2008SOL    HW1 6698   2.494   1.429   4.145
 2008SOL    HW2 6699   2.408   1.566   4.171
 2009SOL     OW 6700   3.571   0.385   5.105
 2009SOL    HW1 6701   3.644   0.454   5.109
 2009SOL    HW2 6702   3.599   0.310   5.046
 2010SOL     OW 6703   2.117   1.348   4.014
 2010SOL    HW1 6704   2.021   1.349   3.987
 2010SOL    HW2 6705   2.129   1.401   4.098
 2011SOL     OW 6706   1.937   0.345   3.757
 2011SOL    HW1 6707   1.845   0.317   3.728
 2011SOL    HW2 6708   1.968   0.422   3.701
 2012SOL     OW 6709   1.934   0.166   4.042
 2012SOL    HW1 6710   1.917   0.249   3.988
 2012SOL    HW2 6711   2.024   0.129   4.020
 2013SOL     OW 6712   3.045   1.335   3.843
 2013SOL    HW1 6713   2.946   1.324   3.845
 2013SOL    HW2 6714   3.079   1.350   3.936
 2014SOL     OW 6715   3.355   1.767   4.683
 2014SOL    HW1 6716   3.388   1.831   4.614
 2014SOL    HW2 6717   3.421   1.761   4.758
 2015SOL     OW 6718   3.312   1.220   5.357
 2015SOL    HW1 6719   3.303   1.210   5.456
 2015SOL    HW2 6720   3.408   1.213   5.331
 2016SOL     OW 6721   3.536   0.883   4.978
 2016SOL    HW1 6722   3.509   0.794   4.941
 2016SOL    HW2 6723   3.537   0.951   4.905
 2017SOL     OW 6724   3.087   0.325   4.173
 2017SOL    HW1 6725   3.152   0.251   4.162
 2017SOL    HW2 6726   3.107   0.375   4.257
 2018SOL     OW 6727   2.456   0.745   4.376
 2018SOL    HW1 6728   2.506   0.830   4.357
 2018SOL    HW2 6729   2.368   0.747   4.328
 2019SOL     OW 6730   3.592   0.934   5.241
 2019SOL    HW1 6731   3.630   1.025   5.256
 2019SOL    HW2 6732   3.584   0.917   5.142
 2020SOL     OW 6733   2.721   1.374   3.740
 2020SOL    HW1 6734   2.675   1.389   3.828
 2020SOL    HW2 6735   2.765   1.459   3.710
 2021SOL     OW 6736   2.523   1.790   4.677
 2021SOL    HW1 6737   2.477   1.878   4.664
 2021SOL    HW2 6738   2.622   1.802   4.670
 2022SOL     OW 6739   2.721   0.956   4.585
 2022SOL    HW1 6740   2.775   0.887   4.633
 2022SOL    HW2 6741   2.689   1.025   4.651
 2023SOL     OW 6742   2.945   0.984   3.811
 2023SOL    HW1 6743   2.922   1.037   3.729
 2023SOL    HW2 6744   3.026   0.928   3.792
 2024SOL     OW 6745   3.723   1.569   4.575
 2024SOL    HW1 6746   3.652   1.557   4.505
 2024SOL    HW2 6747   3.724   1.490   4.635
 2025SOL     OW 6748   1.941   1.240   4.377
 2025SOL    HW1 6749   1.940   1.193   4.465
 2025SOL    HW2 6750   2.023   1.212   4.326
 2026SOL     OW 6751   3.686   0.192   4.951
 2026SOL    HW1 6752   3.682   0.102   4.995
 2026SOL    HW2 6753   3.689   0.181   4.852
 2027SOL     OW 6754   2.290   0.424   4.244
 2027SOL    HW1 6755   2.320   0.352   4.182
 2027SOL    HW2 6756   2.251   0.384   4.327
 2028SOL     OW 6757   2.674   1.586   4.411
 2028SOL    HW1 6758   2.706   1.596   4.317
 2028SOL    HW2 6759   2.595   1.524   4.413
 2029SOL     OW 6760   3.286   0.214   4.836
 2029SOL    HW1 6761   3.338   0.149   4.891
 2029SOL    HW2 6762   3.237   0.277   4.897
 2030SOL     OW 6763   2.863   0.034   4.878
 2030SOL    HW1 6764   2.800  -0.038   4.847
 2030SOL    HW2 6765   2.956  -0.002   4.878
 2031SOL     OW 6766   2.632   1.330   4.025
 2031SOL    HW1 6767   2.586   1.243   4.042
 2031SOL    HW2 6768   2.723   1.327   4.066
 2032SOL     OW 6769   3.214   0.052   3.892
 2032SOL    HW1 6770   3.249   0.011   3.808
 2032SOL    HW2 6771   3.124   0.014   3.912
 2033SOL     OW 6772   3.162   0.453   4.415
 2033SOL    HW1 6773   3.103   0.533   4.419
 2033SOL    HW2 6774   3.177   0.418   4.508
 2034SOL     OW 6775   3.455   0.221   4.606
 2034SOL    HW1 6776   3.371   0.220   4.660
 2034SOL    HW2 6777   3.457   0.304   4.550
 2035SOL     OW 6778   1.901   1.077   4.024
 2035SOL    HW1 6779   2.000   1.066   4.015
 2035SOL    HW2 6780   1.861   0.991   4.056
 2036SOL     OW 6781   2.737   1.646   4.061
 2036SOL    HW1 6782   2.660   1.611   4.007
 2036SOL    HW2 6783   2.705   1.717   4.123
 2037SOL     OW 6784   2.092   2.490   0.113
 2037SOL    HW1 6785   1.999   2.488   0.150
 2037SOL    HW2 6786   2.093   2.451   0.021
 2038SOL     OW 6787   2.087   2.137   0.996
 2038SOL    HW1 6788   2.122   2.120   1.088
 2038SOL    HW2 6789   1.999   2.092   0.984
 2039SOL     OW 6790   1.881   2.230   0.647
 2039SOL    HW1 6791   1.799   2.273   0.686
 2039SOL    HW2 6792   1.853   2.157   0.584
 2040SOL     OW 6793   3.417   3.373   0.703
 2040SOL    HW1 6794   3.360   3.357   0.784
 2040SOL    HW2 6795   3.358   3.383   0.623
 2041SOL     OW 6796   2.997   2.565   0.717
 2041SOL    HW1 6797   3.054   2.643   0.692
 2041SOL    HW2 6798   2.937   2.591   0.793
 2042SOL     OW 6799   2.712   2.660   1.823
 2042SOL    HW1 6800   2.708   2.736   1.888
 2042SOL    HW2 6801   2.734   2.696   1.732
 2043SOL     OW 6802   2.547   2.874   0.665
 2043SOL    HW1 6803   2.616   2.858   0.735
 2043SOL    HW2 6804   2.474   2.931   0.703
 2044SOL     OW 6805   2.548   3.023   1.803
 2044SOL    HW1 6806   2.608   3.102   1.817
 2044SOL    HW2 6807   2.462   3.054   1.762
 2045SOL     OW 6808   2.197   3.297   1.061
 2045SOL    HW1 6809   2.119   3.266   1.008
 2045SOL    HW2 6810   2.255   3.355   1.004
 2046SOL     OW 6811   3.322   3.367   1.339
 2046SOL    HW1 6812   3.346   3.461   1.365
 2046SOL    HW2 6813   3.306   3.313   1.421
 2047SOL     OW 6814   3.465   2.309   0.737
 2047SOL    HW1 6815   3.391   2.355   0.687
 2047SOL    HW2 6816   3.516   2.377   0.790
 2048SOL     OW 6817   2.093   3.575   0.483
 2048SOL    HW1 6818   2.127   3.652   0.537
 2048SOL    HW2 6819   2.137   3.575   0.393
 2049SOL     OW 6820   2.989   3.203   1.690
 2049SOL    HW1 6821   3.036   3.203   1.778
 2049SOL    HW2 6822   2.941   3.116   1.679
 2050SOL     OW 6823   2.092   3.296   0.538
 2050SOL    HW1 6824   2.066   3.392   0.538
 2050SOL    HW2 6825   2.021   3.242   0.583
 2051SOL     OW 6826   2.102   2.953   0.886
 2051SOL    HW1 6827   2.116   2.869   0.938
 2051SOL    HW2 6828   2.047   3.017   0.941
 2052SOL     OW 6829   2.482   3.648   1.439
 2052SOL    HW1 6830   2.390   3.631   1.474
 2052SOL    HW2 6831   2.510   3.740   1.465
 2053SOL     OW 6832   2.468   2.826   0.123
 2053SOL    HW1 6833   2.475   2.910   0.069
 2053SOL    HW2 6834   2.514   2.839   0.211
 2054SOL     OW 6835   3.456   1.976   1.480
 2054SOL    HW1 6836   3.438   2.043   1.408
 2054SOL    HW2 6837   3.453   2.022   1.569
 2055SOL     OW 6838   1.984   2.505   0.563
 2055SOL    HW1 6839   1.939   2.417   0.580
 2055SOL    HW2 6840   1.983   2.559   0.647
 2056SOL     OW 6841   3.704   3.629   0.359
 2056SOL    HW1 6842   3.758   3.600   0.439
 2056SOL    HW2 6843   3.734   3.719   0.330
 2057SOL     OW 6844   1.889   3.458   0.117
 2057SOL    HW1 6845   1.870   3.362   0.138
 2057SOL    HW2 6846   1.856   3.516   0.192
 2058SOL     OW 6847   3.503   2.970   0.432
 2058SOL    HW1 6848   3.589   2.972   0.380
 2058SOL    HW2 6849   3.517   3.017   0.520
 2059SOL     OW 6850   1.975   2.599   1.597
 2059SOL    HW1 6851   2.063   2.586   1.642
 2059SOL    HW2 6852   1.962   2.696   1.575
 2060SOL     OW 6853   2.475   3.227   0.726
 2060SOL    HW1 6854   2.426   3.140   0.735
 2060SOL    HW2 6855   2.452   3.270   0.639
 2061SOL     OW 6856   3.155   3.090   1.423
 2061SOL    HW1 6857   3.192   3.017   1.365
 2061SOL    HW2 6858   3.207   3.095   1.508
 2062SOL     OW 6859   2.671   1.866   0.502
 2062SOL    HW1 6860   2.711   1.957   0.493
 2062SOL    HW2 6861   2.571   1.874   0.508
 2063SOL     OW 6862   2.059   2.838   1.264
 2063SOL    HW1 6863   2.148   2.793   1.250
 2063SOL    HW2 6864   1.986   2.773   1.245
 2064SOL     OW 6865   3.387   2.861   0.190
 2064SOL    HW1 6866   3.324   2.785   0.203
 2064SOL    HW2 6867   3.435   2.879   0.276
 2065SOL     OW 6868   3.049   3.654   1.616
 2065SOL    HW1 6869   3.073   3.714   1.540
 2065SOL    HW2 6870   3.056   3.559   1.586
 2066SOL     OW 6871   2.179   2.113   1.801
 2066SOL    HW1 6872   2.250   2.184   1.807
 2066SOL    HW2 6873   2.091   2.152   1.829
 2067SOL     OW 6874   3.328   3.279   0.953
 2067SOL    HW1 6875   3.269   3.285   1.033
 2067SOL    HW2 6876   3.313   3.191   0.907
 2068SOL     OW 6877   3.529   3.576   0.572
 2068SOL    HW1 6878   3.488   3.553   0.484
 2068SOL    HW2 6879   3.511   3.502   0.637
 2069SOL     OW 6880   2.460   2.591   0.270
 2069SOL    HW1 6881   2.484   2.660   0.202
 2069SOL    HW2 6882   2.382   2.624   0.324
 2070SOL     OW 6883   3.143   2.207   0.944
 2070SOL    HW1 6884   3.057   2.157   0.931
 2070SOL    HW2 6885   3.205   2.153   1.000
 2071SOL     OW 6886   3.438   3.524   0.307
 2071SOL    HW1 6887   3.527   3.570   0.310
 2071SOL    HW2 6888   3.417   3.500   0.212
 2072SOL     OW 6889   2.669   2.467   1.465
 2072SOL    HW1 6890   2.622   2.464   1.554
 2072SOL    HW2 6891   2.618   2.412   1.399
 2073SOL     OW 6892   3.256   2.331   1.674
 2073SOL    HW1 6893   3.236   2.374   1.762
 2073SOL    HW2 6894   3.334   2.269   1.683
 2074SOL     OW 6895   2.835   2.752   1.572
 2074SOL    HW1 6896   2.881   2.668   1.543
 2074SOL    HW2 6897   2.779   2.786   1.497
 2075SOL     OW 6898   2.853   2.272   1.242
 2075SOL    HW1 6899   2.776   2.306   1.296
 2075SOL    HW2 6900   2.819   2.221   1.163
 2076SOL     OW 6901   2.903   2.563   0.429
 2076SOL    HW1 6902   2.929   2.559   0.525
 2076SOL    HW2 6903   2.818   2.512   0.415
 2077SOL     OW 6904   1.938   2.673   0.789
 2077SOL    HW1 6905   2.037   2.661   0.798
 2077SOL    HW2 6906   1.914   2.768   0.810
 2078SOL     OW 6907   1.992   3.683   1.571
 2078SOL    HW1 6908   1.982   3.668   1.670
 2078SOL    HW2 6909   1.906   3.719   1.535
 2079SOL     OW 6910   2.727   2.210   0.195
 2079SOL    HW1 6911   2.786   2.273   0.146
 2079SOL    HW2 6912   2.746   2.116   0.166
 2080SOL     OW 6913   3.581   2.447   1.831
 2080SOL    HW1 6914   3.555   2.536   1.795
 2080SOL    HW2 6915   3.579   2.379   1.758
 2081SOL     OW 6916   3.224   3.006   0.545
 2081SOL    HW1 6917   3.307   2.977   0.497
 2081SOL    HW2 6918   3.175   3.073   0.489
 2082SOL     OW 6919   2.412   2.058   0.885
 2082SOL    HW1 6920   2.407   2.053   0.985
 2082SOL    HW2 6921   2.414   2.154   0.856
 2083SOL     OW 6922   2.870   3.318   0.477
 2083SOL    HW1 6923   2.824   3.390   0.425
 2083SOL    HW2 6924   2.866   3.338   0.575
 2084SOL     OW 6925   2.213   3.663   0.853
 2084SOL    HW1 6926   2.263   3.577   0.859
 2084SOL    HW2 6927   2.278   3.740   0.850
 2085SOL     OW 6928   3.657   2.928   0.873
 2085SOL    HW1 6929   3.595   2.913   0.797
 2085SOL    HW2 6930   3.605   2.939   0.958
 2086SOL     OW 6931   3.089   3.412   1.506
 2086SOL    HW1 6932   3.095   3.335   1.570
 2086SOL    HW2 6933   3.037   3.386   1.426
 2087SOL     OW 6934   2.183   2.805   0.242
 2087SOL    HW1 6935   2.265   2.844   0.200
 2087SOL    HW2 6936   2.156   2.723   0.193
 2088SOL     OW 6937   3.320   2.597   0.728
 2088SOL    HW1 6938   3.315   2.532   0.803
 2088SOL    HW2 6939   3.400   2.656   0.741
 2089SOL     OW 6940   2.323   3.128   1.727
 2089SOL    HW1 6941   2.273   3.129   1.641
 2089SOL    HW2 6942   2.260   3.110   1.803
 2090SOL     OW 6943   2.973   3.638   0.237
 2090SOL    HW1 6944   2.913   3.576   0.287
 2090SOL    HW2 6945   3.004   3.594   0.152
 2091SOL     OW 6946   2.064   2.147   1.498
 2091SOL    HW1 6947   1.984   2.207   1.485
 2091SOL    HW2 6948   2.054   2.098   1.584
 2092SOL     OW 6949   3.494   3.239   0.081
 2092SOL    HW1 6950   3.462   3.333   0.071
 2092SOL    HW2 6951   3.418   3.176   0.069
 2093SOL     OW 6952   2.326   3.605   0.323
 2093SOL    HW1 6953   2.359   3.644   0.409
 2093SOL    HW2 6954   2.402   3.598   0.258
 2094SOL     OW 6955   3.262   1.969   0.426
 2094SOL    HW1 6956   3.238   1.932   0.336
 2094SOL    HW2 6957   3.361   1.985   0.430
 2095SOL     OW 6958   2.111   3.647   1.241
 2095SOL    HW1 6959   2.168   3.582   1.291
 2095SOL    HW2 6960   2.095   3.614   1.148
 2096SOL     OW 6961   2.244   2.562   0.480
 2096SOL    HW1 6962   2.289   2.472   0.477
 2096SOL    HW2 6963   2.150   2.551   0.513
 2097SOL     OW 6964   3.409   2.084   1.729
 2097SOL    HW1 6965   3.404   2.121   1.821
 2097SOL    HW2 6966   3.337   2.015   1.717
 2098SOL     OW 6967   3.213   2.452   1.433
 2098SOL    HW1 6968   3.241   2.409   1.518
 2098SOL    HW2 6969   3.238   2.548   1.434
 2099SOL     OW 6970   2.784   2.365   0.899
 2099SOL    HW1 6971   2.759   2.356   0.803
 2099SOL    HW2 6972   2.832   2.283   0.930
 2100SOL     OW 6973   2.401   1.926   0.512
 2100SOL    HW1 6974   2.320   1.927   0.570
 2100SOL    HW2 6975   2.404   2.009   0.457
 2101SOL     OW 6976   3.296   3.050   0.041
 2101SOL    HW1 6977   3.328   2.974   0.098
 2101SOL    HW2 6978   3.204   3.077   0.071
 2102SOL     OW 6979   2.159   1.897   0.171
 2102SOL    HW1 6980   2.208   1.981   0.150
 2102SOL    HW2 6981   2.221   1.832   0.216
 2103SOL     OW 6982   2.797   2.098   0.480
 2103SOL    HW1 6983   2.749   2.139   0.402
 2103SOL    HW2 6984   2.896   2.096   0.461
 2104SOL     OW 6985   2.938   2.545   1.464
 2104SOL    HW1 6986   2.858   2.484   1.467
 2104SOL    HW2 6987   3.019   2.492   1.440
 2105SOL     OW 6988   3.089   3.432   0.793
 2105SOL    HW1 6989   3.110   3.506   0.728
 2105SOL    HW2 6990   3.157   3.432   0.866
 2106SOL     OW 6991   2.321   3.014   0.741
 2106SOL    HW1 6992   2.250   2.987   0.806
 2106SOL    HW2 6993   2.295   2.986   0.648
 2107SOL     OW 6994   3.133   3.659   0.591
 2107SOL    HW1 6995   3.177   3.723   0.527
 2107SOL    HW2 6996   3.083   3.711   0.661
 2108SOL     OW 6997   2.894   2.411   0.016
 2108SOL    HW1 6998   2.853   2.493  -0.023
 2108SOL    HW2 6999   2.958   2.437   0.089
 2109SOL     OW 7000   1.940   2.418   1.386
 2109SOL    HW1 7001   2.032   2.417   1.345
 2109SOL    HW2 7002   1.934   2.492   1.453
 2110SOL     OW 7003   2.423   2.084   1.147
 2110SOL    HW1 7004   2.461   2.000   1.184
 2110SOL    HW2 7005   2.335   2.103   1.191
 2111SOL     OW 7006   2.728   2.316   0.642
 2111SOL    HW1 7007   2.696   2.388   0.580
 2111SOL    HW2 7008   2.752   2.235   0.589
 2112SOL     OW 7009   2.879   1.901   0.753
 2112SOL    HW1 7010   2.807   1.906   0.684
 2112SOL    HW2 7011   2.855   1.832   0.822
 2113SOL     OW 7012   3.291   3.035   0.867
 2113SOL    HW1 7013   3.236   2.951   0.860
 2113SOL    HW2 7014   3.317   3.064   0.775
 2114SOL     OW 7015   3.328   2.452   0.992
 2114SOL    HW1 7016   3.298   2.357   0.999
 2114SOL    HW2 7017   3.401   2.468   1.058
 2115SOL     OW 7018   2.350   3.247   0.174
 2115SOL    HW1 7019   2.263   3.232   0.221
 2115SOL    HW2 7020   2.333   3.273   0.079
 2116SOL     OW 7021   3.526   3.142   0.657
 2116SOL    HW1 7022   3.625   3.150   0.671
 2116SOL    HW2 7023   3.481   3.226   0.688
 2117SOL     OW 7024   3.252   2.437   0.078
 2117SOL    HW1 7025   3.198   2.416   0.159
 2117SOL    HW2 7026   3.343   2.396   0.087
 2118SOL     OW 7027   2.389   2.118   0.328
 2118SOL    HW1 7028   2.416   2.059   0.253
 2118SOL    HW2 7029   2.389   2.213   0.297
 2119SOL     OW 7030   3.616   3.085   1.588
 2119SOL    HW1 7031   3.707   3.046   1.575
 2119SOL    HW2 7032   3.624   3.181   1.612
 2120SOL     OW 7033   3.454   3.491   1.625
 2120SOL    HW1 7034   3.481   3.525   1.535
 2120SOL    HW2 7035   3.533   3.453   1.671
 2121SOL     OW 7036   3.500   2.961   1.079
 2121SOL    HW1 7037   3.505   3.042   1.138
 2121SOL    HW2 7038   3.414   2.963   1.028
 2122SOL     OW 7039   2.777   1.951   1.402
 2122SOL    HW1 7040   2.802   1.931   1.307
 2122SOL    HW2 7041   2.849   2.007   1.444
 2123SOL     OW 7042   2.842   2.978   1.719
 2123SOL    HW1 7043   2.743   2.984   1.729
 2123SOL    HW2 7044   2.865   2.898   1.663
 2124SOL     OW 7045   2.567   2.912   0.368
 2124SOL    HW1 7046   2.553   2.919   0.467
 2124SOL    HW2 7047   2.651   2.861   0.350
 2125SOL     OW 7048   2.272   2.675   1.251
 2125SOL    HW1 7049   2.358   2.687   1.301
 2125SOL    HW2 7050   2.230   2.588   1.278
 2126SOL     OW 7051   3.136   2.248   1.262
 2126SOL    HW1 7052   3.157   2.322   1.326
 2126SOL    HW2 7053   3.047   2.265   1.219
 2127SOL     OW 7054   1.926   3.426   1.331
 2127SOL    HW1 7055   1.880   3.508   1.297
 2127SOL    HW2 7056   2.024   3.445   1.340
 2128SOL     OW 7057   2.229   2.962   0.501
 2128SOL    HW1 7058   2.222   3.045   0.445
 2128SOL    HW2 7059   2.233   2.882   0.441
 2129SOL     OW 7060   2.428   2.399   0.865
 2129SOL    HW1 7061   2.440   2.465   0.791
 2129SOL    HW2 7062   2.474   2.433   0.948
 2130SOL     OW 7063   3.114   3.210   0.388
 2130SOL    HW1 7064   3.164   3.287   0.428
 2130SOL    HW2 7065   3.019   3.212   0.420
 2131SOL     OW 7066   3.134   3.307   1.142
 2131SOL    HW1 7067   3.181   3.320   1.229
 2131SOL    HW2 7068   3.068   3.233   1.151
 2132SOL     OW 7069   3.444   2.501   0.472
 2132SOL    HW1 7070   3.413   2.562   0.545
 2132SOL    HW2 7071   3.494   2.553   0.403
 2133SOL     OW 7072   2.216   3.372   1.329
 2133SOL    HW1 7073   2.195   3.328   1.242
 2133SOL    HW2 7074   2.313   3.398   1.332
 2134SOL     OW 7075   2.264   2.613   1.598
 2134SOL    HW1 7076   2.332   2.668   1.551
 2134SOL    HW2 7077   2.304   2.525   1.625
 2135SOL     OW 7078   3.449   2.641   1.670
 2135SOL    HW1 7079   3.357   2.679   1.665
 2135SOL    HW2 7080   3.509   2.688   1.605
 2136SOL     OW 7081   2.435   2.732   1.029
 2136SOL    HW1 7082   2.479   2.821   1.020
 2136SOL    HW2 7083   2.372   2.732   1.106
 2137SOL     OW 7084   3.222   2.724   1.045
 2137SOL    HW1 7085   3.147   2.724   0.979
 2137SOL    HW2 7086   3.259   2.632   1.054
 2138SOL     OW 7087   3.071   2.387   0.275
 2138SOL    HW1 7088   3.084   2.303   0.329
 2138SOL    HW2 7089   3.042   2.461   0.335
 2139SOL     OW 7090   2.169   2.075   1.231
 2139SOL    HW1 7091   2.146   2.112   1.321
 2139SOL    HW2 7092   2.139   1.980   1.225
 2140SOL     OW 7093   1.899   3.172   1.282
 2140SOL    HW1 7094   1.952   3.123   1.350
 2140SOL    HW2 7095   1.921   3.270   1.287
 2141SOL     OW 7096   2.594   2.496   1.064
 2141SOL    HW1 7097   2.653   2.470   0.988
 2141SOL    HW2 7098   2.566   2.592   1.053
 2142SOL     OW 7099   3.590   2.797   1.854
 2142SOL    HW1 7100   3.544   2.790   1.765
 2142SOL    HW2 7101   3.528   2.841   1.920
 2143SOL     OW 7102   2.169   1.925   0.618
 2143SOL    HW1 7103   2.158   2.019   0.651
 2143SOL    HW2 7104   2.164   1.862   0.695
 2144SOL     OW 7105   3.484   2.229   0.374
 2144SOL    HW1 7106   3.486   2.153   0.438
 2144SOL    HW2 7107   3.436   2.306   0.414
 2145SOL     OW 7108   2.885   2.628   0.966
 2145SOL    HW1 7109   2.900   2.649   1.062
 2145SOL    HW2 7110   2.855   2.533   0.957
 2146SOL     OW 7111   2.842   3.435   1.700
 2146SOL    HW1 7112   2.822   3.479   1.612
 2146SOL    HW2 7113   2.881   3.344   1.684
 2147SOL     OW 7114   3.721   3.380   1.605
 2147SOL    HW1 7115   3.735   3.407   1.510
 2147SOL    HW2 7116   3.804   3.402   1.658
 2148SOL     OW 7117   2.212   2.760   1.804
 2148SOL    HW1 7118   2.288   2.804   1.852
 2148SOL    HW2 7119   2.247   2.713   1.722
 2149SOL     OW 7120   3.402   2.136   0.125
 2149SOL    HW1 7121   3.341   2.061   0.148
 2149SOL    HW2 7122   3.424   2.188   0.208
 2150SOL     OW 7123   3.165   2.700   0.042
 2150SOL    HW1 7124   3.199   2.607   0.057
 2150SOL    HW2 7125   3.183   2.727  -0.053
 2151SOL     OW 7126   2.181   2.672   0.949
 2151SOL    HW1 7127   2.274   2.708   0.954
 2151SOL    HW2 7128   2.175   2.587   1.001
 2152SOL     OW 7129   2.201   2.371   1.006
 2152SOL    HW1 7130   2.149   2.288   0.989
 2152SOL    HW2 7131   2.278   2.376   0.942
 2153SOL     OW 7132   1.950   3.663   0.927
 2153SOL    HW1 7133   1.908   3.577   0.900
 2153SOL    HW2 7134   2.044   3.666   0.893
 2154SOL     OW 7135   2.366   3.430   0.910
 2154SOL    HW1 7136   2.432   3.504   0.919
 2154SOL    HW2 7137   2.410   3.351   0.868
 2155SOL     OW 7138   2.864   2.658   1.238
 2155SOL    HW1 7139   2.905   2.626   1.324
 2155SOL    HW2 7140   2.768   2.631   1.235
 2156SOL     OW 7141   1.902   2.406   1.114
 2156SOL    HW1 7142   1.987   2.373   1.073
 2156SOL    HW2 7143   1.915   2.421   1.212
 2157SOL     OW 7144   2.051   2.382   1.722
 2157SOL    HW1 7145   2.110   2.342   1.652
 2157SOL    HW2 7146   1.993   2.453   1.681
 2158SOL     OW 7147   3.231   2.812   1.660
 2158SOL    HW1 7148   3.270   2.901   1.680
 2158SOL    HW2 7149   3.241   2.792   1.563
 2159SOL     OW 7150   2.677   2.434   0.325
 2159SOL    HW1 7151   2.684   2.345   0.279
 2159SOL    HW2 7152   2.583   2.468   0.317
 2160SOL     OW 7153   3.519   2.466   1.206
 2160SOL    HW1 7154   3.481   2.397   1.268
 2160SOL    HW2 7155   3.601   2.430   1.162
 2161SOL     OW 7156   2.114   3.426   1.744
 2161SOL    HW1 7157   2.084   3.483   1.820
 2161SOL    HW2 7158   2.107   3.329   1.770
 2162SOL     OW 7159   2.792   3.540   1.465
 2162SOL    HW1 7160   2.768   3.522   1.370
 2162SOL    HW2 7161   2.822   3.634   1.475
 2163SOL     OW 7162   2.335   2.362   0.191
 2163SOL    HW1 7163   2.396   2.442   0.195
 2163SOL    HW2 7164   2.240   2.393   0.198
 2164SOL     OW 7165   2.021   2.999   1.466
 2164SOL    HW1 7166   2.043   2.938   1.542
 2164SOL    HW2 7167   2.031   2.950   1.380
 2165SOL     OW 7168   3.209   2.921   1.234
 2165SOL    HW1 7169   3.233   2.858   1.160
 2165SOL    HW2 7170   3.119   2.961   1.216
 2166SOL     OW 7171   3.164   2.717   0.309
 2166SOL    HW1 7172   3.078   2.686   0.351
 2166SOL    HW2 7173   3.160   2.703   0.210
 2167SOL     OW 7174   3.621   3.609   1.154
 2167SOL    HW1 7175   3.682   3.639   1.081
 2167SOL    HW2 7176   3.583   3.520   1.132
 2168SOL     OW 7177   1.945   3.120   1.022
 2168SOL    HW1 7178   1.940   3.119   1.122
 2168SOL    HW2 7179   1.862   3.079   0.984
 2169SOL     OW 7180   2.550   3.524   1.716
 2169SOL    HW1 7181   2.494   3.605   1.725
 2169SOL    HW2 7182   2.602   3.528   1.630
 2170SOL     OW 7183   2.765   1.948   0.133
 2170SOL    HW1 7184   2.816   1.949   0.047
 2170SOL    HW2 7185   2.821   1.906   0.204
 2171SOL     OW 7186   3.588   1.997   0.523
 2171SOL    HW1 7187   3.661   1.980   0.456
 2171SOL    HW2 7188   3.557   1.910   0.561
 2172SOL     OW 7189   3.250   3.435   0.477
 2172SOL    HW1 7190   3.317   3.447   0.403
 2172SOL    HW2 7191   3.210   3.524   0.500
 2173SOL     OW 7192   1.992   3.656   1.851
 2173SOL    HW1 7193   1.951   3.582   1.904
 2173SOL    HW2 7194   2.056   3.707   1.909
 2174SOL     OW 7195   3.142   2.789   0.672
 2174SOL    HW1 7196   3.202   2.708   0.674
 2174SOL    HW2 7197   3.182   2.858   0.612
 2175SOL     OW 7198   2.692   3.135   1.422
 2175SOL    HW1 7199   2.687   3.168   1.517
 2175SOL    HW2 7200   2.606   3.154   1.376
 2176SOL     OW 7201   2.534   3.478   0.154
 2176SOL    HW1 7202   2.543   3.488   0.055
 2176SOL    HW2 7203   2.494   3.389   0.175
 2177SOL     OW 7204   3.512   3.582   1.394
 2177SOL    HW1 7205   3.565   3.592   1.310
 2177SOL    HW2 7206   3.485   3.672   1.428
 2178SOL     OW 7207   3.703   2.037   0.963
 2178SOL    HW1 7208   3.742   1.952   0.927
 2178SOL    HW2 7209   3.605   2.039   0.944
 2179SOL     OW 7210   2.125   2.188   0.720
 2179SOL    HW1 7211   2.046   2.239   0.686
 2179SOL    HW2 7212   2.116   2.173   0.818
 2180SOL     OW 7213   3.056   3.474   0.031
 2180SOL    HW1 7214   3.062   3.381   0.068
 2180SOL    HW2 7215   2.997   3.474  -0.049
 2181SOL     OW 7216   2.684   2.864   1.372
 2181SOL    HW1 7217   2.724   2.863   1.280
 2181SOL    HW2 7218   2.694   2.956   1.412
 2182SOL     OW 7219   2.778   2.772   0.291
 2182SOL    HW1 7220   2.841   2.810   0.223
 2182SOL    HW2 7221   2.818   2.689   0.330
 2183SOL     OW 7222   3.366   3.469   0.044
 2183SOL    HW1 7223   3.274   3.506   0.051
 2183SOL    HW2 7224   3.404   3.489  -0.046
 2184SOL     OW 7225   2.234   3.150   1.490
 2184SOL    HW1 7226   2.221   3.243   1.456
 2184SOL    HW2 7227   2.150   3.098   1.477
 2185SOL     OW 7228   3.476   3.154   1.289
 2185SOL    HW1 7229   3.536   3.157   1.369
 2185SOL    HW2 7230   3.401   3.218   1.302
 2186SOL     OW 7231   2.901   2.960   0.696
 2186SOL    HW1 7232   2.831   2.913   0.750
 2186SOL    HW2 7233   2.960   2.892   0.653
 2187SOL     OW 7234   2.876   2.098   0.971
 2187SOL    HW1 7235   2.868   2.062   0.878
 2187SOL    HW2 7236   2.874   2.022   1.036
 2188SOL     OW 7237   2.452   3.349   0.491
 2188SOL    HW1 7238   2.494   3.291   0.421
 2188SOL    HW2 7239   2.408   3.428   0.447
 2189SOL     OW 7240   3.571   2.247   1.381
 2189SOL    HW1 7241   3.644   2.316   1.385
 2189SOL    HW2 7242   3.599   2.172   1.322
 2190SOL     OW 7243   2.117   3.210   0.290
 2190SOL    HW1 7244   2.021   3.211   0.263
 2190SOL    HW2 7245   2.129   3.263   0.374
 2191SOL     OW 7246   1.967   2.875   1.726
 2191SOL    HW1 7247   1.890   2.842   1.780
 2191SOL    HW2 7248   2.052   2.845   1.768
 2192SOL     OW 7249   3.302   2.718   1.398
 2192SOL    HW1 7250   3.245   2.770   1.335
 2192SOL    HW2 7251   3.398   2.730   1.374
 2193SOL     OW 7252   1.934   2.028   0.318
 2193SOL    HW1 7253   1.917   2.111   0.264
 2193SOL    HW2 7254   2.024   1.991   0.296
 2194SOL     OW 7255   3.045   3.197   0.119
 2194SOL    HW1 7256   2.946   3.186   0.121
 2194SOL    HW2 7257   3.079   3.212   0.212
 2195SOL     OW 7258   2.475   2.704   1.431
 2195SOL    HW1 7259   2.531   2.785   1.414
 2195SOL    HW2 7260   2.534   2.624   1.434
 2196SOL     OW 7261   3.355   3.629   0.959
 2196SOL    HW1 7262   3.388   3.693   0.890
 2196SOL    HW2 7263   3.421   3.623   1.034
 2197SOL     OW 7264   3.312   3.082   1.633
 2197SOL    HW1 7265   3.303   3.072   1.732
 2197SOL    HW2 7266   3.408   3.075   1.607
 2198SOL     OW 7267   2.252   3.603   1.560
 2198SOL    HW1 7268   2.161   3.644   1.558
 2198SOL    HW2 7269   2.245   3.509   1.592
 2199SOL     OW 7270   3.536   2.745   1.254
 2199SOL    HW1 7271   3.509   2.656   1.217
 2199SOL    HW2 7272   3.537   2.813   1.181
 2200SOL     OW 7273   3.087   2.187   0.449
 2200SOL    HW1 7274   3.152   2.113   0.438
 2200SOL    HW2 7275   3.107   2.237   0.533
 2201SOL     OW 7276   2.456   2.607   0.652
 2201SOL    HW1 7277   2.506   2.692   0.633
 2201SOL    HW2 7278   2.368   2.609   0.604
 2202SOL     OW 7279   3.639   2.204   1.642
 2202SOL    HW1 7280   3.622   2.235   1.548
 2202SOL    HW2 7281   3.555   2.167   1.680
 2203SOL     OW 7282   3.592   2.796   1.517
 2203SOL    HW1 7283   3.630   2.887   1.532
 2203SOL    HW2 7284   3.584   2.779   1.418
 2204SOL     OW 7285   2.721   3.236   0.016
 2204SOL    HW1 7286   2.675   3.251   0.104
 2204SOL    HW2 7287   2.765   3.321  -0.014
 2205SOL     OW 7288   2.523   3.652   0.953
 2205SOL    HW1 7289   2.477   3.740   0.940
 2205SOL    HW2 7290   2.622   3.664   0.946
 2206SOL     OW 7291   2.721   2.818   0.861
 2206SOL    HW1 7292   2.775   2.749   0.909
 2206SOL    HW2 7293   2.689   2.887   0.927
 2207SOL     OW 7294   2.945   2.846   0.087
 2207SOL    HW1 7295   2.922   2.899   0.005
 2207SOL    HW2 7296   3.026   2.790   0.068
 2208SOL     OW 7297   3.723   3.431   0.851
 2208SOL    HW1 7298   3.652   3.419   0.781
 2208SOL    HW2 7299   3.724   3.352   0.911
 2209SOL     OW 7300   2.083   3.176   1.844
 2209SOL    HW1 7301   2.018   3.103   1.823
 2209SOL    HW2 7302   2.087   3.190   1.942
 2210SOL     OW 7303   1.941   3.102   0.653
 2210SOL    HW1 7304   1.940   3.055   0.741
 2210SOL    HW2 7305   2.023   3.074   0.602
 2211SOL     OW 7306   2.534   3.253   1.624
 2211SOL    HW1 7307   2.456   3.203   1.662
 2211SOL    HW2 7308   2.531   3.348   1.655
 2212SOL     OW 7309   3.686   2.054   1.227
 2212SOL    HW1 7310   3.682   1.964   1.271
 2212SOL    HW2 7311   3.689   2.043   1.128
 2213SOL     OW 7312   2.290   2.286   0.520
 2213SOL    HW1 7313   2.320   2.214   0.458
 2213SOL    HW2 7314   2.251   2.246   0.603
 2214SOL     OW 7315   3.567   3.349   1.104
 2214SOL    HW1 7316   3.474   3.324   1.077
 2214SOL    HW2 7317   3.593   3.299   1.186
 2215SOL     OW 7318   2.179   2.409   1.280
 2215SOL    HW1 7319   2.217   2.350   1.352
 2215SOL    HW2 7320   2.219   2.383   1.192
 2216SOL     OW 7321   2.674   3.448   0.687
 2216SOL    HW1 7322   2.706   3.458   0.593
 2216SOL    HW2 7323   2.595   3.386   0.689
 2217SOL     OW 7324   3.286   2.076   1.112
 2217SOL    HW1 7325   3.338   2.011   1.167
 2217SOL    HW2 7326   3.237   2.139   1.173
 2218SOL     OW 7327   2.863   1.896   1.154
 2218SOL    HW1 7328   2.800   1.824   1.123
 2218SOL    HW2 7329   2.956   1.860   1.154
 2219SOL     OW 7330   2.632   3.192   0.301
 2219SOL    HW1 7331   2.586   3.105   0.318
 2219SOL    HW2 7332   2.723   3.189   0.342
 2220SOL     OW 7333   2.480   3.429   1.284
 2220SOL    HW1 7334   2.475   3.511   1.341
 2220SOL    HW2 7335   2.569   3.426   1.239
 2221SOL     OW 7336   3.214   1.914   0.168
 2221SOL    HW1 7337   3.249   1.873   0.084
 2221SOL    HW2 7338   3.124   1.876   0.188
 2222SOL     OW 7339   3.162   2.315   0.691
 2222SOL    HW1 7340   3.103   2.395   0.695
 2222SOL    HW2 7341   3.177   2.280   0.784
 2223SOL     OW 7342   3.455   2.083   0.882
 2223SOL    HW1 7343   3.371   2.082   0.936
 2223SOL    HW2 7344   3.457   2.166   0.826
 2224SOL     OW 7345   1.901   2.939   0.300
 2224SOL    HW1 7346   2.000   2.928   0.291
 2224SOL    HW2 7347   1.861   2.853   0.332
 2225SOL     OW 7348   2.737   3.508   0.337
 2225SOL    HW1 7349   2.660   3.473   0.283
 2225SOL    HW2 7350   2.705   3.579   0.399
 2226SOL     OW 7351   2.092   2.490   1.975
 2226SOL    HW1 7352   1.999   2.488   2.012
 2226SOL    HW2 7353   2.093   2.451   1.883
 2227SOL     OW 7354   2.087   2.137   2.858
 2227SOL    HW1 7355   2.122   2.120   2.950
 2227SOL    HW2 7356   1.999   2.092   2.846
 2228SOL     OW 7357   1.881   2.230   2.509
 2228SOL    HW1 7358   1.799   2.273   2.548
 2228SOL    HW2 7359   1.853   2.157   2.446
 2229SOL     OW 7360   2.431   3.137   3.027
 2229SOL    HW1 7361   2.338   3.130   2.990
 2229SOL    HW2 7362   2.442   3.226   3.071
 2230SOL     OW 7363   3.417   3.373   2.565
 2230SOL    HW1 7364   3.360   3.357   2.646
 2230SOL    HW2 7365   3.358   3.383   2.485
 2231SOL     OW 7366   3.617   2.469   2.093
 2231SOL    HW1 7367   3.605   2.456   1.994
 2231SOL    HW2 7368   3.587   2.388   2.142
 2232SOL     OW 7369   2.630   3.006   2.885
 2232SOL    HW1 7370   2.552   3.023   2.945
 2232SOL    HW2 7371   2.664   3.093   2.849
 2233SOL     OW 7372   2.712   2.660   3.685
 2233SOL    HW1 7373   2.708   2.736   3.750
 2233SOL    HW2 7374   2.734   2.696   3.594
 2234SOL     OW 7375   2.548   3.023   3.665
 2234SOL    HW1 7376   2.608   3.102   3.679
 2234SOL    HW2 7377   2.462   3.054   3.624
 2235SOL     OW 7378   2.197   3.297   2.923
 2235SOL    HW1 7379   2.119   3.266   2.870
 2235SOL    HW2 7380   2.255   3.355   2.866
 2236SOL     OW 7381   3.322   3.367   3.201
 2236SOL    HW1 7382   3.346   3.461   3.227
 2236SOL    HW2 7383   3.306   3.313   3.283
 2237SOL     OW 7384   2.300   2.254   3.361
 2237SOL    HW1 7385   2.382   2.198   3.370
 2237SOL    HW2 7386   2.219   2.196   3.365
 2238SOL     OW 7387   3.465   2.309   2.599
 2238SOL    HW1 7388   3.391   2.355   2.549
 2238SOL    HW2 7389   3.516   2.377   2.652
 2239SOL     OW 7390   2.093   3.575   2.345
 2239SOL    HW1 7391   2.127   3.652   2.399
 2239SOL    HW2 7392   2.137   3.575   2.255
 2240SOL     OW 7393   2.989   3.203   3.552
 2240SOL    HW1 7394   3.036   3.203   3.640
 2240SOL    HW2 7395   2.941   3.116   3.541
 2241SOL     OW 7396   2.092   3.296   2.400
 2241SOL    HW1 7397   2.066   3.392   2.400
 2241SOL    HW2 7398   2.021   3.242   2.445
 2242SOL     OW 7399   2.102   2.953   2.748
 2242SOL    HW1 7400   2.116   2.869   2.800
 2242SOL    HW2 7401   2.047   3.017   2.803
 2243SOL     OW 7402   2.468   2.826   1.985
 2243SOL    HW1 7403   2.475   2.910   1.931
 2243SOL    HW2 7404   2.514   2.839   2.073
 2244SOL     OW 7405   3.456   1.976   3.342
 2244SOL    HW1 7406   3.438   2.043   3.270
 2244SOL    HW2 7407   3.453   2.022   3.431
 2245SOL     OW 7408   3.704   3.629   2.221
 2245SOL    HW1 7409   3.758   3.600   2.301
 2245SOL    HW2 7410   3.734   3.719   2.192
 2246SOL     OW 7411   1.889   3.458   1.979
 2246SOL    HW1 7412   1.870   3.362   2.000
 2246SOL    HW2 7413   1.856   3.516   2.054
 2247SOL     OW 7414   1.975   2.599   3.459
 2247SOL    HW1 7415   2.063   2.586   3.504
 2247SOL    HW2 7416   1.962   2.696   3.437
 2248SOL     OW 7417   2.475   3.227   2.588
 2248SOL    HW1 7418   2.426   3.140   2.597
 2248SOL    HW2 7419   2.452   3.270   2.501
 2249SOL     OW 7420   3.155   3.090   3.285
 2249SOL    HW1 7421   3.192   3.017   3.227
 2249SOL    HW2 7422   3.207   3.095   3.370
 2250SOL     OW 7423   2.671   1.866   2.364
 2250SOL    HW1 7424   2.711   1.957   2.355
 2250SOL    HW2 7425   2.571   1.874   2.370
 2251SOL     OW 7426   2.059   2.838   3.126
 2251SOL    HW1 7427   2.148   2.793   3.112
 2251SOL    HW2 7428   1.986   2.773   3.107
 2252SOL     OW 7429   2.179   2.113   3.663
 2252SOL    HW1 7430   2.250   2.184   3.669
 2252SOL    HW2 7431   2.091   2.152   3.691
 2253SOL     OW 7432   3.328   3.279   2.815
 2253SOL    HW1 7433   3.269   3.285   2.895
 2253SOL    HW2 7434   3.313   3.191   2.769
 2254SOL     OW 7435   2.460   2.591   2.132
 2254SOL    HW1 7436   2.484   2.660   2.064
 2254SOL    HW2 7437   2.382   2.624   2.186
 2255SOL     OW 7438   3.143   2.207   2.806
 2255SOL    HW1 7439   3.057   2.157   2.793
 2255SOL    HW2 7440   3.205   2.153   2.862
 2256SOL     OW 7441   3.438   3.524   2.169
 2256SOL    HW1 7442   3.527   3.570   2.172
 2256SOL    HW2 7443   3.417   3.500   2.074
 2257SOL     OW 7444   2.669   2.467   3.327
 2257SOL    HW1 7445   2.622   2.464   3.416
 2257SOL    HW2 7446   2.618   2.412   3.261
 2258SOL     OW 7447   3.256   2.331   3.536
 2258SOL    HW1 7448   3.236   2.374   3.624
 2258SOL    HW2 7449   3.334   2.269   3.545
 2259SOL     OW 7450   2.835   2.752   3.434
 2259SOL    HW1 7451   2.881   2.668   3.405
 2259SOL    HW2 7452   2.779   2.786   3.359
 2260SOL     OW 7453   2.853   2.272   3.104
 2260SOL    HW1 7454   2.776   2.306   3.158
 2260SOL    HW2 7455   2.819   2.221   3.025
 2261SOL     OW 7456   2.903   2.563   2.291
 2261SOL    HW1 7457   2.929   2.559   2.387
 2261SOL    HW2 7458   2.818   2.512   2.277
 2262SOL     OW 7459   1.938   2.673   2.651
 2262SOL    HW1 7460   2.037   2.661   2.660
 2262SOL    HW2 7461   1.914   2.768   2.672
 2263SOL     OW 7462   3.581   2.447   3.693
 2263SOL    HW1 7463   3.555   2.536   3.657
 2263SOL    HW2 7464   3.579   2.379   3.620
 2264SOL     OW 7465   2.412   2.058   2.747
 2264SOL    HW1 7466   2.407   2.053   2.847
 2264SOL    HW2 7467   2.414   2.154   2.718
 2265SOL     OW 7468   2.213   3.663   2.715
 2265SOL    HW1 7469   2.263   3.577   2.721
 2265SOL    HW2 7470   2.278   3.740   2.712
 2266SOL     OW 7471   3.657   2.928   2.735
 2266SOL    HW1 7472   3.595   2.913   2.659
 2266SOL    HW2 7473   3.605   2.939   2.820
 2267SOL     OW 7474   3.089   3.412   3.368
 2267SOL    HW1 7475   3.095   3.335   3.432
 2267SOL    HW2 7476   3.037   3.386   3.288
 2268SOL     OW 7477   2.183   2.805   2.104
 2268SOL    HW1 7478   2.265   2.844   2.062
 2268SOL    HW2 7479   2.156   2.723   2.055
 2269SOL     OW 7480   3.320   2.597   2.590
 2269SOL    HW1 7481   3.315   2.532   2.665
 2269SOL    HW2 7482   3.400   2.656   2.603
 2270SOL     OW 7483   2.323   3.128   3.589
 2270SOL    HW1 7484   2.273   3.129   3.503
 2270SOL    HW2 7485   2.260   3.110   3.665
 2271SOL     OW 7486   2.973   3.638   2.099
 2271SOL    HW1 7487   2.913   3.576   2.149
 2271SOL    HW2 7488   3.004   3.594   2.014
 2272SOL     OW 7489   2.064   2.147   3.360
 2272SOL    HW1 7490   1.984   2.207   3.347
 2272SOL    HW2 7491   2.054   2.098   3.446
 2273SOL     OW 7492   3.494   3.239   1.943
 2273SOL    HW1 7493   3.462   3.333   1.933
 2273SOL    HW2 7494   3.418   3.176   1.931
 2274SOL     OW 7495   2.326   3.605   2.185
 2274SOL    HW1 7496   2.359   3.644   2.271
 2274SOL    HW2 7497   2.402   3.598   2.120
 2275SOL     OW 7498   3.262   1.969   2.288
 2275SOL    HW1 7499   3.238   1.932   2.198
 2275SOL    HW2 7500   3.361   1.985   2.292
 2276SOL     OW 7501   2.802   3.560   2.766
 2276SOL    HW1 7502   2.882   3.503   2.787
 2276SOL    HW2 7503   2.753   3.520   2.689
 2277SOL     OW 7504   2.244   2.562   2.342
 2277SOL    HW1 7505   2.289   2.472   2.339
 2277SOL    HW2 7506   2.150   2.551   2.375
 2278SOL     OW 7507   3.409   2.084   3.591
 2278SOL    HW1 7508   3.404   2.121   3.683
 2278SOL    HW2 7509   3.337   2.015   3.579
 2279SOL     OW 7510   2.643   2.126   3.611
 2279SOL    HW1 7511   2.710   2.065   3.654
 2279SOL    HW2 7512   2.570   2.145   3.676
 2280SOL     OW 7513   2.750   3.376   3.057
 2280SOL    HW1 7514   2.727   3.351   2.963
 2280SOL    HW2 7515   2.811   3.307   3.096
 2281SOL     OW 7516   3.213   2.452   3.295
 2281SOL    HW1 7517   3.241   2.409   3.380
 2281SOL    HW2 7518   3.238   2.548   3.296
 2282SOL     OW 7519   2.665   3.264   2.786
 2282SOL    HW1 7520   2.755   3.278   2.744
 2282SOL    HW2 7521   2.594   3.266   2.715
 2283SOL     OW 7522   2.401   1.926   2.374
 2283SOL    HW1 7523   2.320   1.927   2.432
 2283SOL    HW2 7524   2.404   2.009   2.319
 2284SOL     OW 7525   2.159   1.897   2.033
 2284SOL    HW1 7526   2.208   1.981   2.012
 2284SOL    HW2 7527   2.221   1.832   2.078
 2285SOL     OW 7528   2.797   2.098   2.342
 2285SOL    HW1 7529   2.749   2.139   2.264
 2285SOL    HW2 7530   2.896   2.096   2.323
 2286SOL     OW 7531   2.938   2.545   3.326
 2286SOL    HW1 7532   2.858   2.484   3.329
 2286SOL    HW2 7533   3.019   2.492   3.302
 2287SOL     OW 7534   3.089   3.432   2.655
 2287SOL    HW1 7535   3.110   3.506   2.590
 2287SOL    HW2 7536   3.157   3.432   2.728
 2288SOL     OW 7537   2.321   3.014   2.603
 2288SOL    HW1 7538   2.250   2.987   2.668
 2288SOL    HW2 7539   2.295   2.986   2.510
 2289SOL     OW 7540   3.133   3.659   2.453
 2289SOL    HW1 7541   3.177   3.723   2.389
 2289SOL    HW2 7542   3.083   3.711   2.523
 2290SOL     OW 7543   2.894   2.411   1.878
 2290SOL    HW1 7544   2.853   2.493   1.839
 2290SOL    HW2 7545   2.958   2.437   1.951
 2291SOL     OW 7546   1.940   2.418   3.248
 2291SOL    HW1 7547   2.032   2.417   3.207
 2291SOL    HW2 7548   1.934   2.492   3.315
 2292SOL     OW 7549   2.423   2.084   3.009
 2292SOL    HW1 7550   2.461   2.000   3.046
 2292SOL    HW2 7551   2.335   2.103   3.053
 2293SOL     OW 7552   2.879   1.901   2.615
 2293SOL    HW1 7553   2.807   1.906   2.546
 2293SOL    HW2 7554   2.855   1.832   2.684
 2294SOL     OW 7555   3.291   3.035   2.729
 2294SOL    HW1 7556   3.236   2.951   2.722
 2294SOL    HW2 7557   3.317   3.064   2.637
 2295SOL     OW 7558   3.328   2.452   2.854
 2295SOL    HW1 7559   3.298   2.357   2.861
 2295SOL    HW2 7560   3.401   2.468   2.920
 2296SOL     OW 7561   3.719   2.695   2.239
 2296SOL    HW1 7562   3.761   2.631   2.303
 2296SOL    HW2 7563   3.681   2.644   2.161
 2297SOL     OW 7564   2.350   3.247   2.036
 2297SOL    HW1 7565   2.263   3.232   2.083
 2297SOL    HW2 7566   2.333   3.273   1.941
 2298SOL     OW 7567   3.526   3.142   2.519
 2298SOL    HW1 7568   3.625   3.150   2.533
 2298SOL    HW2 7569   3.481   3.226   2.550
 2299SOL     OW 7570   3.252   2.437   1.940
 2299SOL    HW1 7571   3.198   2.416   2.021
 2299SOL    HW2 7572   3.343   2.396   1.949
 2300SOL     OW 7573   2.389   2.118   2.190
 2300SOL    HW1 7574   2.416   2.059   2.115
 2300SOL    HW2 7575   2.389   2.213   2.159
 2301SOL     OW 7576   3.616   3.085   3.450
 2301SOL    HW1 7577   3.707   3.046   3.437
 2301SOL    HW2 7578   3.624   3.181   3.474
 2302SOL     OW 7579   2.926   3.209   3.202
 2302SOL    HW1 7580   2.846   3.186   3.257
 2302SOL    HW2 7581   3.009   3.183   3.251
 2303SOL     OW 7582   3.454   3.491   3.487
 2303SOL    HW1 7583   3.481   3.525   3.397
 2303SOL    HW2 7584   3.533   3.453   3.533
 2304SOL     OW 7585   2.973   3.057   2.962
 2304SOL    HW1 7586   2.933   3.101   3.043
 2304SOL    HW2 7587   2.932   3.094   2.879
 2305SOL     OW 7588   3.500   2.961   2.941
 2305SOL    HW1 7589   3.505   3.042   3.000
 2305SOL    HW2 7590   3.414   2.963   2.890
 2306SOL     OW 7591   2.777   1.951   3.264
 2306SOL    HW1 7592   2.802   1.931   3.169
 2306SOL    HW2 7593   2.849   2.007   3.306
 2307SOL     OW 7594   2.842   2.978   3.581
 2307SOL    HW1 7595   2.743   2.984   3.591
 2307SOL    HW2 7596   2.865   2.898   3.525
 2308SOL     OW 7597   2.272   2.675   3.113
 2308SOL    HW1 7598   2.358   2.687   3.163
 2308SOL    HW2 7599   2.230   2.588   3.140
 2309SOL     OW 7600   3.136   2.248   3.124
 2309SOL    HW1 7601   3.157   2.322   3.188
 2309SOL    HW2 7602   3.047   2.265   3.081
 2310SOL     OW 7603   2.229   2.962   2.363
 2310SOL    HW1 7604   2.222   3.045   2.307
 2310SOL    HW2 7605   2.233   2.882   2.303
 2311SOL     OW 7606   3.134   3.307   3.004
 2311SOL    HW1 7607   3.181   3.320   3.091
 2311SOL    HW2 7608   3.068   3.233   3.013
 2312SOL     OW 7609   3.444   2.501   2.334
 2312SOL    HW1 7610   3.413   2.562   2.407
 2312SOL    HW2 7611   3.494   2.553   2.265
 2313SOL     OW 7612   2.264   2.613   3.460
 2313SOL    HW1 7613   2.332   2.668   3.413
 2313SOL    HW2 7614   2.304   2.525   3.487
 2314SOL     OW 7615   3.449   2.641   3.532
 2314SOL    HW1 7616   3.357   2.679   3.527
 2314SOL    HW2 7617   3.509   2.688   3.467
 2315SOL     OW 7618   2.875   1.967   3.632
 2315SOL    HW1 7619   2.881   2.052   3.580
 2315SOL    HW2 7620   2.907   1.891   3.575
 2316SOL     OW 7621   2.366   1.912   3.602
 2316SOL    HW1 7622   2.324   1.855   3.532
 2316SOL    HW2 7623   2.300   1.981   3.634
 2317SOL     OW 7624   2.435   2.732   2.891
 2317SOL    HW1 7625   2.479   2.821   2.882
 2317SOL    HW2 7626   2.372   2.732   2.968
 2318SOL     OW 7627   3.222   2.724   2.907
 2318SOL    HW1 7628   3.147   2.724   2.841
 2318SOL    HW2 7629   3.259   2.632   2.916
 2319SOL     OW 7630   3.071   2.387   2.137
 2319SOL    HW1 7631   3.084   2.303   2.191
 2319SOL    HW2 7632   3.042   2.461   2.197
 2320SOL     OW 7633   2.169   2.075   3.093
 2320SOL    HW1 7634   2.146   2.112   3.183
 2320SOL    HW2 7635   2.139   1.980   3.087
 2321SOL     OW 7636   1.899   3.172   3.144
 2321SOL    HW1 7637   1.952   3.123   3.212
 2321SOL    HW2 7638   1.921   3.270   3.149
 2322SOL     OW 7639   3.590   2.797   3.716
 2322SOL    HW1 7640   3.544   2.790   3.627
 2322SOL    HW2 7641   3.528   2.841   3.782
 2323SOL     OW 7642   2.169   1.925   2.480
 2323SOL    HW1 7643   2.158   2.019   2.513
 2323SOL    HW2 7644   2.164   1.862   2.557
 2324SOL     OW 7645   3.484   2.229   2.236
 2324SOL    HW1 7646   3.486   2.153   2.300
 2324SOL    HW2 7647   3.436   2.306   2.276
 2325SOL     OW 7648   2.885   2.628   2.828
 2325SOL    HW1 7649   2.900   2.649   2.924
 2325SOL    HW2 7650   2.855   2.533   2.819
 2326SOL     OW 7651   3.721   3.380   3.467
 2326SOL    HW1 7652   3.735   3.407   3.372
 2326SOL    HW2 7653   3.804   3.402   3.520
 2327SOL     OW 7654   2.212   2.760   3.666
 2327SOL    HW1 7655   2.288   2.804   3.714
 2327SOL    HW2 7656   2.247   2.713   3.584
 2328SOL     OW 7657   3.402   2.136   1.987
 2328SOL    HW1 7658   3.341   2.061   2.010
 2328SOL    HW2 7659   3.424   2.188   2.070
 2329SOL     OW 7660   2.930   3.195   2.711
 2329SOL    HW1 7661   2.937   3.111   2.656
 2329SOL    HW2 7662   2.992   3.264   2.675
 2330SOL     OW 7663   2.181   2.672   2.811
 2330SOL    HW1 7664   2.274   2.708   2.816
 2330SOL    HW2 7665   2.175   2.587   2.863
 2331SOL     OW 7666   2.201   2.371   2.868
 2331SOL    HW1 7667   2.149   2.288   2.851
 2331SOL    HW2 7668   2.278   2.376   2.804
 2332SOL     OW 7669   3.000   2.242   3.540
 2332SOL    HW1 7670   2.955   2.305   3.604
 2332SOL    HW2 7671   3.093   2.273   3.523
 2333SOL     OW 7672   3.022   2.069   3.339
 2333SOL    HW1 7673   3.022   2.133   3.416
 2333SOL    HW2 7674   3.050   2.117   3.256
 2334SOL     OW 7675   1.870   3.188   2.062
 2334SOL    HW1 7676   1.777   3.209   2.031
 2334SOL    HW2 7677   1.880   3.089   2.075
 2335SOL     OW 7678   1.950   3.663   2.789
 2335SOL    HW1 7679   1.908   3.577   2.762
 2335SOL    HW2 7680   2.044   3.666   2.755
 2336SOL     OW 7681   2.366   3.430   2.772
 2336SOL    HW1 7682   2.432   3.504   2.781
 2336SOL    HW2 7683   2.410   3.351   2.730
 2337SOL     OW 7684   2.864   2.658   3.100
 2337SOL    HW1 7685   2.905   2.626   3.186
 2337SOL    HW2 7686   2.768   2.631   3.097
 2338SOL     OW 7687   1.902   2.406   2.976
 2338SOL    HW1 7688   1.987   2.373   2.935
 2338SOL    HW2 7689   1.915   2.421   3.074
 2339SOL     OW 7690   2.051   2.382   3.584
 2339SOL    HW1 7691   2.110   2.342   3.514
 2339SOL    HW2 7692   1.993   2.453   3.543
 2340SOL     OW 7693   3.231   2.812   3.522
 2340SOL    HW1 7694   3.270   2.901   3.542
 2340SOL    HW2 7695   3.241   2.792   3.425
 2341SOL     OW 7696   2.677   2.434   2.187
 2341SOL    HW1 7697   2.684   2.345   2.141
 2341SOL    HW2 7698   2.583   2.468   2.179
 2342SOL     OW 7699   3.519   2.466   3.068
 2342SOL    HW1 7700   3.481   2.397   3.130
 2342SOL    HW2 7701   3.601   2.430   3.024
 2343SOL     OW 7702   2.114   3.426   3.606
 2343SOL    HW1 7703   2.084   3.483   3.682
 2343SOL    HW2 7704   2.107   3.329   3.632
 2344SOL     OW 7705   2.533   2.326   3.131
 2344SOL    HW1 7706   2.499   2.237   3.101
 2344SOL    HW2 7707   2.559   2.380   3.051
 2345SOL     OW 7708   2.335   2.362   2.053
 2345SOL    HW1 7709   2.396   2.442   2.057
 2345SOL    HW2 7710   2.240   2.393   2.060
 2346SOL     OW 7711   2.021   2.999   3.328
 2346SOL    HW1 7712   2.043   2.938   3.404
 2346SOL    HW2 7713   2.031   2.950   3.242
 2347SOL     OW 7714   3.209   2.921   3.096
 2347SOL    HW1 7715   3.233   2.858   3.022
 2347SOL    HW2 7716   3.119   2.961   3.078
 2348SOL     OW 7717   3.164   2.717   2.171
 2348SOL    HW1 7718   3.078   2.686   2.213
 2348SOL    HW2 7719   3.160   2.703   2.072
 2349SOL     OW 7720   3.621   3.609   3.016
 2349SOL    HW1 7721   3.682   3.639   2.943
 2349SOL    HW2 7722   3.583   3.520   2.994
 2350SOL     OW 7723   3.114   3.593   2.990
 2350SOL    HW1 7724   3.198   3.598   2.936
 2350SOL    HW2 7725   3.091   3.497   3.008
 2351SOL     OW 7726   1.945   3.120   2.884
 2351SOL    HW1 7727   1.940   3.119   2.984
 2351SOL    HW2 7728   1.862   3.079   2.846
 2352SOL     OW 7729   2.550   3.524   3.578
 2352SOL    HW1 7730   2.494   3.605   3.587
 2352SOL    HW2 7731   2.602   3.528   3.492
 2353SOL     OW 7732   3.588   1.997   2.385
 2353SOL    HW1 7733   3.661   1.980   2.318
 2353SOL    HW2 7734   3.557   1.910   2.423
 2354SOL     OW 7735   1.992   3.656   3.713
 2354SOL    HW1 7736   1.951   3.582   3.766
 2354SOL    HW2 7737   2.056   3.707   3.771
 2355SOL     OW 7738   3.142   2.789   2.534
 2355SOL    HW1 7739   3.202   2.708   2.536
 2355SOL    HW2 7740   3.182   2.858   2.474
 2356SOL     OW 7741   2.692   3.135   3.284
 2356SOL    HW1 7742   2.687   3.168   3.379
 2356SOL    HW2 7743   2.606   3.154   3.238
 2357SOL     OW 7744   2.534   3.478   2.016
 2357SOL    HW1 7745   2.543   3.488   1.917
 2357SOL    HW2 7746   2.494   3.389   2.037
 2358SOL     OW 7747   3.512   3.582   3.256
 2358SOL    HW1 7748   3.565   3.592   3.172
 2358SOL    HW2 7749   3.485   3.672   3.290
 2359SOL     OW 7750   3.703   2.037   2.825
 2359SOL    HW1 7751   3.742   1.952   2.789
 2359SOL    HW2 7752   3.605   2.039   2.806
 2360SOL     OW 7753   2.684   2.864   3.234
 2360SOL    HW1 7754   2.724   2.863   3.142
 2360SOL    HW2 7755   2.694   2.956   3.274
 2361SOL     OW 7756   2.778   2.772   2.153
 2361SOL    HW1 7757   2.841   2.810   2.085
 2361SOL    HW2 7758   2.818   2.689   2.192
 2362SOL     OW 7759   3.366   3.469   1.906
 2362SOL    HW1 7760   3.274   3.506   1.913
 2362SOL    HW2 7761   3.404   3.489   1.816
 2363SOL     OW 7762   3.476   3.154   3.151
 2363SOL    HW1 7763   3.536   3.157   3.231
 2363SOL    HW2 7764   3.401   3.218   3.164
 2364SOL     OW 7765   2.901   2.960   2.558
 2364SOL    HW1 7766   2.831   2.913   2.612
 2364SOL    HW2 7767   2.960   2.892   2.515
 2365SOL     OW 7768   2.876   2.098   2.833
 2365SOL    HW1 7769   2.868   2.062   2.740
 2365SOL    HW2 7770   2.874   2.022   2.898
 2366SOL     OW 7771   2.452   3.349   2.353
 2366SOL    HW1 7772   2.494   3.291   2.283
 2366SOL    HW2 7773   2.408   3.428   2.309
 2367SOL     OW 7774   3.571   2.247   3.243
 2367SOL    HW1 7775   3.644   2.316   3.247
 2367SOL    HW2 7776   3.599   2.172   3.184
 2368SOL     OW 7777   2.117   3.210   2.152
 2368SOL    HW1 7778   2.021   3.211   2.125
 2368SOL    HW2 7779   2.129   3.263   2.236
 2369SOL     OW 7780   1.967   2.875   3.588
 2369SOL    HW1 7781   1.890   2.842   3.642
 2369SOL    HW2 7782   2.052   2.845   3.630
 2370SOL     OW 7783   2.534   2.065   3.351
 2370SOL    HW1 7784   2.624   2.049   3.311
 2370SOL    HW2 7785   2.542   2.070   3.450
 2371SOL     OW 7786   1.937   2.207   1.895
 2371SOL    HW1 7787   1.845   2.179   1.866
 2371SOL    HW2 7788   1.968   2.284   1.839
 2372SOL     OW 7789   3.302   2.718   3.260
 2372SOL    HW1 7790   3.245   2.770   3.197
 2372SOL    HW2 7791   3.398   2.730   3.236
 2373SOL     OW 7792   1.934   2.028   2.180
 2373SOL    HW1 7793   1.917   2.111   2.126
 2373SOL    HW2 7794   2.024   1.991   2.158
 2374SOL     OW 7795   2.475   2.704   3.293
 2374SOL    HW1 7796   2.531   2.785   3.276
 2374SOL    HW2 7797   2.534   2.624   3.296
 2375SOL     OW 7798   3.355   3.629   2.821
 2375SOL    HW1 7799   3.388   3.693   2.752
 2375SOL    HW2 7800   3.421   3.623   2.896
 2376SOL     OW 7801   2.578   2.427   3.570
 2376SOL    HW1 7802   2.597   2.492   3.644
 2376SOL    HW2 7803   2.638   2.347   3.579
 2377SOL     OW 7804   3.312   3.082   3.495
 2377SOL    HW1 7805   3.303   3.072   3.594
 2377SOL    HW2 7806   3.408   3.075   3.469
 2378SOL     OW 7807   3.536   2.745   3.116
 2378SOL    HW1 7808   3.509   2.656   3.079
 2378SOL    HW2 7809   3.537   2.813   3.043
 2379SOL     OW 7810   3.087   2.187   2.311
 2379SOL    HW1 7811   3.152   2.113   2.300
 2379SOL    HW2 7812   3.107   2.237   2.395
 2380SOL     OW 7813   3.639   2.204   3.504
 2380SOL    HW1 7814   3.622   2.235   3.410
 2380SOL    HW2 7815   3.555   2.167   3.542
 2381SOL     OW 7816   3.592   2.796   3.379
 2381SOL    HW1 7817   3.630   2.887   3.394
 2381SOL    HW2 7818   3.584   2.779   3.280
 2382SOL     OW 7819   2.523   3.652   2.815
 2382SOL    HW1 7820   2.477   3.740   2.802
 2382SOL    HW2 7821   2.622   3.664   2.808
 2383SOL     OW 7822   2.945   2.846   1.949
 2383SOL    HW1 7823   2.922   2.899   1.867
 2383SOL    HW2 7824   3.026   2.790   1.930
 2384SOL     OW 7825   3.723   3.431   2.713
 2384SOL    HW1 7826   3.652   3.419   2.643
 2384SOL    HW2 7827   3.724   3.352   2.773
 2385SOL     OW 7828   2.083   3.176   3.706
 2385SOL    HW1 7829   2.018   3.103   3.685
 2385SOL    HW2 7830   2.087   3.190   3.804
 2386SOL     OW 7831   1.941   3.102   2.515
 2386SOL    HW1 7832   1.940   3.055   2.603
 2386SOL    HW2 7833   2.023   3.074   2.464
 2387SOL     OW 7834   2.534   3.253   3.486
 2387SOL    HW1 7835   2.456   3.203   3.524
 2387SOL    HW2 7836   2.531   3.348   3.517
 2388SOL     OW 7837   3.686   2.054   3.089
 2388SOL    HW1 7838   3.682   1.964   3.133
 2388SOL    HW2 7839   3.689   2.043   2.990
 2389SOL     OW 7840   3.567   3.349   2.966
 2389SOL    HW1 7841   3.474   3.324   2.939
 2389SOL    HW2 7842   3.593   3.299   3.048
 2390SOL     OW 7843   2.179   2.409   3.142
 2390SOL    HW1 7844   2.217   2.350   3.214
 2390SOL    HW2 7845   2.219   2.383   3.054
 2391SOL     OW 7846   2.674   3.448   2.549
 2391SOL    HW1 7847   2.706   3.458   2.455
 2391SOL    HW2 7848   2.595   3.386   2.551
 2392SOL     OW 7849   3.286   2.076   2.974
 2392SOL    HW1 7850   3.338   2.011   3.029
 2392SOL    HW2 7851   3.237   2.139   3.035
 2393SOL     OW 7852   2.863   1.896   3.016
 2393SOL    HW1 7853   2.800   1.824   2.985
 2393SOL    HW2 7854   2.956   1.860   3.016
 2394SOL     OW 7855   2.632   3.192   2.163
 2394SOL    HW1 7856   2.586   3.105   2.180
 2394SOL    HW2 7857   2.723   3.189   2.204
 2395SOL     OW 7858   2.480   3.429   3.146
 2395SOL    HW1 7859   2.475   3.511   3.203
 2395SOL    HW2 7860   2.569   3.426   3.101
 2396SOL     OW 7861   3.214   1.914   2.030
 2396SOL    HW1 7862   3.249   1.873   1.946
 2396SOL    HW2 7863   3.124   1.876   2.050
 2397SOL     OW 7864   3.455   2.083   2.744
 2397SOL    HW1 7865   3.371   2.082   2.798
 2397SOL    HW2 7866   3.457   2.166   2.688
 2398SOL     OW 7867   1.901   2.939   2.162
 2398SOL    HW1 7868   2.000   2.928   2.153
 2398SOL    HW2 7869   1.861   2.853   2.194
 2399SOL     OW 7870   2.092   2.490   3.837
 2399SOL    HW1 7871   1.999   2.488   3.874
 2399SOL    HW2 7872   2.093   2.451   3.745
 2400SOL     OW 7873   2.087   2.137   4.720
 2400SOL    HW1 7874   2.122   2.120   4.812
 2400SOL    HW2 7875   1.999   2.092   4.708
 2401SOL     OW 7876   1.881   2.230   4.371
 2401SOL    HW1 7877   1.799   2.273   4.410
 2401SOL    HW2 7878   1.853   2.157   4.308
 2402SOL     OW 7879   2.431   3.137   4.889
 2402SOL    HW1 7880   2.338   3.130   4.852
 2402SOL    HW2 7881   2.442   3.226   4.933
 2403SOL     OW 7882   3.417   3.373   4.427
 2403SOL    HW1 7883   3.360   3.357   4.508
 2403SOL    HW2 7884   3.358   3.383   4.347
 2404SOL     OW 7885   2.997   2.565   4.441
 2404SOL    HW1 7886   3.054   2.643   4.416
 2404SOL    HW2 7887   2.937   2.591   4.517
 2405SOL     OW 7888   3.617   2.469   3.955
 2405SOL    HW1 7889   3.605   2.456   3.856
 2405SOL    HW2 7890   3.587   2.388   4.004
 2406SOL     OW 7891   2.630   3.006   4.747
 2406SOL    HW1 7892   2.552   3.023   4.807
 2406SOL    HW2 7893   2.664   3.093   4.711
 2407SOL     OW 7894   2.547   2.874   4.389
 2407SOL    HW1 7895   2.616   2.858   4.459
 2407SOL    HW2 7896   2.474   2.931   4.427
 2408SOL     OW 7897   2.197   3.297   4.785
 2408SOL    HW1 7898   2.119   3.266   4.732
 2408SOL    HW2 7899   2.255   3.355   4.728
 2409SOL     OW 7900   3.465   2.309   4.461
 2409SOL    HW1 7901   3.391   2.355   4.411
 2409SOL    HW2 7902   3.516   2.377   4.514
 2410SOL     OW 7903   2.093   3.575   4.207
 2410SOL    HW1 7904   2.127   3.652   4.261
 2410SOL    HW2 7905   2.137   3.575   4.117
 2411SOL     OW 7906   2.092   3.296   4.262
 2411SOL    HW1 7907   2.066   3.392   4.262
 2411SOL    HW2 7908   2.021   3.242   4.307
 2412SOL     OW 7909   2.102   2.953   4.610
 2412SOL    HW1 7910   2.116   2.869   4.662
 2412SOL    HW2 7911   2.047   3.017   4.665
 2413SOL     OW 7912   2.482   3.648   5.163
 2413SOL    HW1 7913   2.390   3.631   5.198
 2413SOL    HW2 7914   2.510   3.740   5.189
 2414SOL     OW 7915   2.468   2.826   3.847
 2414SOL    HW1 7916   2.475   2.910   3.793
 2414SOL    HW2 7917   2.514   2.839   3.935
 2415SOL     OW 7918   1.984   2.505   4.287
 2415SOL    HW1 7919   1.939   2.417   4.304
 2415SOL    HW2 7920   1.983   2.559   4.371
 2416SOL     OW 7921   3.704   3.629   4.083
 2416SOL    HW1 7922   3.758   3.600   4.163
 2416SOL    HW2 7923   3.734   3.719   4.054
 2417SOL     OW 7924   1.889   3.458   3.841
 2417SOL    HW1 7925   1.870   3.362   3.862
 2417SOL    HW2 7926   1.856   3.516   3.916
 2418SOL     OW 7927   3.551   2.784   4.336
 2418SOL    HW1 7928   3.646   2.755   4.344
 2418SOL    HW2 7929   3.543   2.849   4.261
 2419SOL     OW 7930   3.503   2.970   4.156
 2419SOL    HW1 7931   3.589   2.972   4.104
 2419SOL    HW2 7932   3.517   3.017   4.244
 2420SOL     OW 7933   2.475   3.227   4.450
 2420SOL    HW1 7934   2.426   3.140   4.459
 2420SOL    HW2 7935   2.452   3.270   4.363
 2421SOL     OW 7936   2.671   1.866   4.226
 2421SOL    HW1 7937   2.711   1.957   4.217
 2421SOL    HW2 7938   2.571   1.874   4.232
 2422SOL     OW 7939   2.059   2.838   4.988
 2422SOL    HW1 7940   2.148   2.793   4.974
 2422SOL    HW2 7941   1.986   2.773   4.969
 2423SOL     OW 7942   3.387   2.861   3.914
 2423SOL    HW1 7943   3.324   2.785   3.927
 2423SOL    HW2 7944   3.435   2.879   4.000
 2424SOL     OW 7945   3.328   3.279   4.677
 2424SOL    HW1 7946   3.269   3.285   4.757
 2424SOL    HW2 7947   3.313   3.191   4.631
 2425SOL     OW 7948   3.529   3.576   4.296
 2425SOL    HW1 7949   3.488   3.553   4.208
 2425SOL    HW2 7950   3.511   3.502   4.361
 2426SOL     OW 7951   2.460   2.591   3.994
 2426SOL    HW1 7952   2.484   2.660   3.926
 2426SOL    HW2 7953   2.382   2.624   4.048
 2427SOL     OW 7954   3.143   2.207   4.668
 2427SOL    HW1 7955   3.057   2.157   4.655
 2427SOL    HW2 7956   3.205   2.153   4.724
 2428SOL     OW 7957   3.438   3.524   4.031
 2428SOL    HW1 7958   3.527   3.570   4.034
 2428SOL    HW2 7959   3.417   3.500   3.936
 2429SOL     OW 7960   2.853   2.272   4.966
 2429SOL    HW1 7961   2.776   2.306   5.020
 2429SOL    HW2 7962   2.819   2.221   4.887
 2430SOL     OW 7963   2.903   2.563   4.153
 2430SOL    HW1 7964   2.929   2.559   4.249
 2430SOL    HW2 7965   2.818   2.512   4.139
 2431SOL     OW 7966   1.938   2.673   4.513
 2431SOL    HW1 7967   2.037   2.661   4.522
 2431SOL    HW2 7968   1.914   2.768   4.534
 2432SOL     OW 7969   2.727   2.210   3.919
 2432SOL    HW1 7970   2.786   2.273   3.870
 2432SOL    HW2 7971   2.746   2.116   3.890
 2433SOL     OW 7972   3.224   3.006   4.269
 2433SOL    HW1 7973   3.307   2.977   4.221
 2433SOL    HW2 7974   3.175   3.073   4.213
 2434SOL     OW 7975   2.412   2.058   4.609
 2434SOL    HW1 7976   2.407   2.053   4.709
 2434SOL    HW2 7977   2.414   2.154   4.580
 2435SOL     OW 7978   2.870   3.318   4.201
 2435SOL    HW1 7979   2.824   3.390   4.149
 2435SOL    HW2 7980   2.866   3.338   4.299
 2436SOL     OW 7981   2.213   3.663   4.577
 2436SOL    HW1 7982   2.263   3.577   4.583
 2436SOL    HW2 7983   2.278   3.740   4.574
 2437SOL     OW 7984   3.657   2.928   4.597
 2437SOL    HW1 7985   3.595   2.913   4.521
 2437SOL    HW2 7986   3.605   2.939   4.682
 2438SOL     OW 7987   2.183   2.805   3.966
 2438SOL    HW1 7988   2.265   2.844   3.924
 2438SOL    HW2 7989   2.156   2.723   3.917
 2439SOL     OW 7990   3.320   2.597   4.452
 2439SOL    HW1 7991   3.315   2.532   4.527
 2439SOL    HW2 7992   3.400   2.656   4.465
 2440SOL     OW 7993   2.973   3.638   3.961
 2440SOL    HW1 7994   2.913   3.576   4.011
 2440SOL    HW2 7995   3.004   3.594   3.876
 2441SOL     OW 7996   3.494   3.239   3.805
 2441SOL    HW1 7997   3.462   3.333   3.795
 2441SOL    HW2 7998   3.418   3.176   3.793
 2442SOL     OW 7999   2.326   3.605   4.047
 2442SOL    HW1 8000   2.359   3.644   4.133
 2442SOL    HW2 8001   2.402   3.598   3.982
 2443SOL     OW 8002   3.262   1.969   4.150
 2443SOL    HW1 8003   3.238   1.932   4.060
 2443SOL    HW2 8004   3.361   1.985   4.154
 2444SOL     OW 8005   2.111   3.647   4.965
 2444SOL    HW1 8006   2.168   3.582   5.015
 2444SOL    HW2 8007   2.095   3.614   4.872
 2445SOL     OW 8008   2.802   3.560   4.628
 2445SOL    HW1 8009   2.882   3.503   4.649
 2445SOL    HW2 8010   2.753   3.520   4.551
 2446SOL     OW 8011   2.244   2.562   4.204
 2446SOL    HW1 8012   2.289   2.472   4.201
 2446SOL    HW2 8013   2.150   2.551   4.237
 2447SOL     OW 8014   2.476   1.984   3.841
 2447SOL    HW1 8015   2.574   1.962   3.848
 2447SOL    HW2 8016   2.445   1.967   3.748
 2448SOL     OW 8017   2.665   3.264   4.648
 2448SOL    HW1 8018   2.755   3.278   4.606
 2448SOL    HW2 8019   2.594   3.266   4.577
 2449SOL     OW 8020   2.784   2.365   4.623
 2449SOL    HW1 8021   2.759   2.356   4.527
 2449SOL    HW2 8022   2.832   2.283   4.654
 2450SOL     OW 8023   2.401   1.926   4.236
 2450SOL    HW1 8024   2.320   1.927   4.294
 2450SOL    HW2 8025   2.404   2.009   4.181
 2451SOL     OW 8026   3.296   3.050   3.765
 2451SOL    HW1 8027   3.328   2.974   3.822
 2451SOL    HW2 8028   3.204   3.077   3.795
 2452SOL     OW 8029   2.159   1.897   3.895
 2452SOL    HW1 8030   2.208   1.981   3.874
 2452SOL    HW2 8031   2.221   1.832   3.940
 2453SOL     OW 8032   2.797   2.098   4.204
 2453SOL    HW1 8033   2.749   2.139   4.126
 2453SOL    HW2 8034   2.896   2.096   4.185
 2454SOL     OW 8035   3.089   3.432   4.517
 2454SOL    HW1 8036   3.110   3.506   4.452
 2454SOL    HW2 8037   3.157   3.432   4.590
 2455SOL     OW 8038   2.321   3.014   4.465
 2455SOL    HW1 8039   2.250   2.987   4.530
 2455SOL    HW2 8040   2.295   2.986   4.372
 2456SOL     OW 8041   3.133   3.659   4.315
 2456SOL    HW1 8042   3.177   3.723   4.251
 2456SOL    HW2 8043   3.083   3.711   4.385
 2457SOL     OW 8044   2.894   2.411   3.740
 2457SOL    HW1 8045   2.853   2.493   3.701
 2457SOL    HW2 8046   2.958   2.437   3.813
 2458SOL     OW 8047   2.423   2.084   4.871
 2458SOL    HW1 8048   2.461   2.000   4.908
 2458SOL    HW2 8049   2.335   2.103   4.915
 2459SOL     OW 8050   2.728   2.316   4.366
 2459SOL    HW1 8051   2.696   2.388   4.304
 2459SOL    HW2 8052   2.752   2.235   4.313
 2460SOL     OW 8053   2.879   1.901   4.477
 2460SOL    HW1 8054   2.807   1.906   4.408
 2460SOL    HW2 8055   2.855   1.832   4.546
 2461SOL     OW 8056   3.291   3.035   4.591
 2461SOL    HW1 8057   3.236   2.951   4.584
 2461SOL    HW2 8058   3.317   3.064   4.499
 2462SOL     OW 8059   3.328   2.452   4.716
 2462SOL    HW1 8060   3.298   2.357   4.723
 2462SOL    HW2 8061   3.401   2.468   4.782
 2463SOL     OW 8062   3.719   2.695   4.101
 2463SOL    HW1 8063   3.761   2.631   4.165
 2463SOL    HW2 8064   3.681   2.644   4.023
 2464SOL     OW 8065   2.350   3.247   3.898
 2464SOL    HW1 8066   2.263   3.232   3.945
 2464SOL    HW2 8067   2.333   3.273   3.803
 2465SOL     OW 8068   3.526   3.142   4.381
 2465SOL    HW1 8069   3.625   3.150   4.395
 2465SOL    HW2 8070   3.481   3.226   4.412
 2466SOL     OW 8071   3.252   2.437   3.802
 2466SOL    HW1 8072   3.198   2.416   3.883
 2466SOL    HW2 8073   3.343   2.396   3.811
 2467SOL     OW 8074   2.389   2.118   4.052
 2467SOL    HW1 8075   2.416   2.059   3.977
 2467SOL    HW2 8076   2.389   2.213   4.021
 2468SOL     OW 8077   2.973   3.057   4.824
 2468SOL    HW1 8078   2.933   3.101   4.905
 2468SOL    HW2 8079   2.932   3.094   4.741
 2469SOL     OW 8080   3.500   2.961   4.803
 2469SOL    HW1 8081   3.505   3.042   4.862
 2469SOL    HW2 8082   3.414   2.963   4.752
 2470SOL     OW 8083   2.567   2.912   4.092
 2470SOL    HW1 8084   2.553   2.919   4.191
 2470SOL    HW2 8085   2.651   2.861   4.074
 2471SOL     OW 8086   2.272   2.675   4.975
 2471SOL    HW1 8087   2.358   2.687   5.025
 2471SOL    HW2 8088   2.230   2.588   5.002
 2472SOL     OW 8089   3.136   2.248   4.986
 2472SOL    HW1 8090   3.157   2.322   5.050
 2472SOL    HW2 8091   3.047   2.265   4.943
 2473SOL     OW 8092   2.229   2.962   4.225
 2473SOL    HW1 8093   2.222   3.045   4.169
 2473SOL    HW2 8094   2.233   2.882   4.165
 2474SOL     OW 8095   2.428   2.399   4.589
 2474SOL    HW1 8096   2.440   2.465   4.515
 2474SOL    HW2 8097   2.474   2.433   4.672
 2475SOL     OW 8098   3.114   3.210   4.112
 2475SOL    HW1 8099   3.164   3.287   4.152
 2475SOL    HW2 8100   3.019   3.212   4.144
 2476SOL     OW 8101   3.134   3.307   4.866
 2476SOL    HW1 8102   3.181   3.320   4.953
 2476SOL    HW2 8103   3.068   3.233   4.875
 2477SOL     OW 8104   3.444   2.501   4.196
 2477SOL    HW1 8105   3.413   2.562   4.269
 2477SOL    HW2 8106   3.494   2.553   4.127
 2478SOL     OW 8107   2.216   3.372   5.053
 2478SOL    HW1 8108   2.195   3.328   4.966
 2478SOL    HW2 8109   2.313   3.398   5.056
 2479SOL     OW 8110   2.435   2.732   4.753
 2479SOL    HW1 8111   2.479   2.821   4.744
 2479SOL    HW2 8112   2.372   2.732   4.830
 2480SOL     OW 8113   3.222   2.724   4.769
 2480SOL    HW1 8114   3.147   2.724   4.703
 2480SOL    HW2 8115   3.259   2.632   4.778
 2481SOL     OW 8116   3.071   2.387   3.999
 2481SOL    HW1 8117   3.084   2.303   4.053
 2481SOL    HW2 8118   3.042   2.461   4.059
 2482SOL     OW 8119   2.169   2.075   4.955
 2482SOL    HW1 8120   2.146   2.112   5.045
 2482SOL    HW2 8121   2.139   1.980   4.949
 2483SOL     OW 8122   1.899   3.172   5.006
 2483SOL    HW1 8123   1.952   3.123   5.074
 2483SOL    HW2 8124   1.921   3.270   5.011
 2484SOL     OW 8125   2.594   2.496   4.788
 2484SOL    HW1 8126   2.653   2.470   4.712
 2484SOL    HW2 8127   2.566   2.592   4.777
 2485SOL     OW 8128   2.169   1.925   4.342
 2485SOL    HW1 8129   2.158   2.019   4.375
 2485SOL    HW2 8130   2.164   1.862   4.419
 2486SOL     OW 8131   3.484   2.229   4.098
 2486SOL    HW1 8132   3.486   2.153   4.162
 2486SOL    HW2 8133   3.436   2.306   4.138
 2487SOL     OW 8134   2.885   2.628   4.690
 2487SOL    HW1 8135   2.900   2.649   4.786
 2487SOL    HW2 8136   2.855   2.533   4.681
 2488SOL     OW 8137   3.402   2.136   3.849
 2488SOL    HW1 8138   3.341   2.061   3.872
 2488SOL    HW2 8139   3.424   2.188   3.932
 2489SOL     OW 8140   3.165   2.700   3.766
 2489SOL    HW1 8141   3.199   2.607   3.781
 2489SOL    HW2 8142   3.183   2.727   3.671
 2490SOL     OW 8143   2.930   3.195   4.573
 2490SOL    HW1 8144   2.937   3.111   4.518
 2490SOL    HW2 8145   2.992   3.264   4.537
 2491SOL     OW 8146   2.181   2.672   4.673
 2491SOL    HW1 8147   2.274   2.708   4.678
 2491SOL    HW2 8148   2.175   2.587   4.725
 2492SOL     OW 8149   2.201   2.371   4.730
 2492SOL    HW1 8150   2.149   2.288   4.713
 2492SOL    HW2 8151   2.278   2.376   4.666
 2493SOL     OW 8152   3.022   2.069   5.201
 2493SOL    HW1 8153   3.022   2.133   5.278
 2493SOL    HW2 8154   3.050   2.117   5.118
 2494SOL     OW 8155   1.870   3.188   3.924
 2494SOL    HW1 8156   1.777   3.209   3.893
 2494SOL    HW2 8157   1.880   3.089   3.937
 2495SOL     OW 8158   1.950   3.663   4.651
 2495SOL    HW1 8159   1.908   3.577   4.624
 2495SOL    HW2 8160   2.044   3.666   4.617
 2496SOL     OW 8161   2.366   3.430   4.634
 2496SOL    HW1 8162   2.432   3.504   4.643
 2496SOL    HW2 8163   2.410   3.351   4.592
 2497SOL     OW 8164   2.864   2.658   4.962
 2497SOL    HW1 8165   2.905   2.626   5.048
 2497SOL    HW2 8166   2.768   2.631   4.959
 2498SOL     OW 8167   1.902   2.406   4.838
 2498SOL    HW1 8168   1.987   2.373   4.797
 2498SOL    HW2 8169   1.915   2.421   4.936
 2499SOL     OW 8170   2.677   2.434   4.049
 2499SOL    HW1 8171   2.684   2.345   4.003
 2499SOL    HW2 8172   2.583   2.468   4.041
 2500SOL     OW 8173   3.519   2.466   4.930
 2500SOL    HW1 8174   3.481   2.397   4.992
 2500SOL    HW2 8175   3.601   2.430   4.886
 2501SOL     OW 8176   2.533   2.326   4.993
 2501SOL    HW1 8177   2.499   2.237   4.963
 2501SOL    HW2 8178   2.559   2.380   4.913
 2502SOL     OW 8179   2.792   3.540   5.189
 2502SOL    HW1 8180   2.768   3.522   5.094
 2502SOL    HW2 8181   2.822   3.634   5.199
 2503SOL     OW 8182   2.335   2.362   3.915
 2503SOL    HW1 8183   2.396   2.442   3.919
 2503SOL    HW2 8184   2.240   2.393   3.922
 2504SOL     OW 8185   3.209   2.921   4.958
 2504SOL    HW1 8186   3.233   2.858   4.884
 2504SOL    HW2 8187   3.119   2.961   4.940
 2505SOL     OW 8188   3.164   2.717   4.033
 2505SOL    HW1 8189   3.078   2.686   4.075
 2505SOL    HW2 8190   3.160   2.703   3.934
 2506SOL     OW 8191   3.621   3.609   4.878
 2506SOL    HW1 8192   3.682   3.639   4.805
 2506SOL    HW2 8193   3.583   3.520   4.856
 2507SOL     OW 8194   3.114   3.593   4.852
 2507SOL    HW1 8195   3.198   3.598   4.798
 2507SOL    HW2 8196   3.091   3.497   4.870
 2508SOL     OW 8197   1.945   3.120   4.746
 2508SOL    HW1 8198   1.940   3.119   4.846
 2508SOL    HW2 8199   1.862   3.079   4.708
 2509SOL     OW 8200   3.588   1.997   4.247
 2509SOL    HW1 8201   3.661   1.980   4.180
 2509SOL    HW2 8202   3.557   1.910   4.285
 2510SOL     OW 8203   3.250   3.435   4.201
 2510SOL    HW1 8204   3.317   3.447   4.127
 2510SOL    HW2 8205   3.210   3.524   4.224
 2511SOL     OW 8206   3.142   2.789   4.396
 2511SOL    HW1 8207   3.202   2.708   4.398
 2511SOL    HW2 8208   3.182   2.858   4.336
 2512SOL     OW 8209   2.534   3.478   3.878
 2512SOL    HW1 8210   2.543   3.488   3.779
 2512SOL    HW2 8211   2.494   3.389   3.899
 2513SOL     OW 8212   3.512   3.582   5.118
 2513SOL    HW1 8213   3.565   3.592   5.034
 2513SOL    HW2 8214   3.485   3.672   5.152
 2514SOL     OW 8215   3.703   2.037   4.687
 2514SOL    HW1 8216   3.742   1.952   4.651
 2514SOL    HW2 8217   3.605   2.039   4.668
 2515SOL     OW 8218   2.125   2.188   4.444
 2515SOL    HW1 8219   2.046   2.239   4.410
 2515SOL    HW2 8220   2.116   2.173   4.542
 2516SOL     OW 8221   3.056   3.474   3.755
 2516SOL    HW1 8222   3.062   3.381   3.792
 2516SOL    HW2 8223   2.997   3.474   3.675
 2517SOL     OW 8224   2.684   2.864   5.096
 2517SOL    HW1 8225   2.724   2.863   5.004
 2517SOL    HW2 8226   2.694   2.956   5.136
 2518SOL     OW 8227   2.778   2.772   4.015
 2518SOL    HW1 8228   2.841   2.810   3.947
 2518SOL    HW2 8229   2.818   2.689   4.054
 2519SOL     OW 8230   3.366   3.469   3.768
 2519SOL    HW1 8231   3.274   3.506   3.775
 2519SOL    HW2 8232   3.404   3.489   3.678
 2520SOL     OW 8233   2.901   2.960   4.420
 2520SOL    HW1 8234   2.831   2.913   4.474
 2520SOL    HW2 8235   2.960   2.892   4.377
 2521SOL     OW 8236   2.876   2.098   4.695
 2521SOL    HW1 8237   2.868   2.062   4.602
 2521SOL    HW2 8238   2.874   2.022   4.760
 2522SOL     OW 8239   2.452   3.349   4.215
 2522SOL    HW1 8240   2.494   3.291   4.145
 2522SOL    HW2 8241   2.408   3.428   4.171
 2523SOL     OW 8242   3.571   2.247   5.105
 2523SOL    HW1 8243   3.644   2.316   5.109
 2523SOL    HW2 8244   3.599   2.172   5.046
 2524SOL     OW 8245   2.117   3.210   4.014
 2524SOL    HW1 8246   2.021   3.211   3.987
 2524SOL    HW2 8247   2.129   3.263   4.098
 2525SOL     OW 8248   1.937   2.207   3.757
 2525SOL    HW1 8249   1.845   2.179   3.728
 2525SOL    HW2 8250   1.968   2.284   3.701
 2526SOL     OW 8251   1.934   2.028   4.042
 2526SOL    HW1 8252   1.917   2.111   3.988
 2526SOL    HW2 8253   2.024   1.991   4.020
 2527SOL     OW 8254   3.045   3.197   3.843
 2527SOL    HW1 8255   2.946   3.186   3.845
 2527SOL    HW2 8256   3.079   3.212   3.936
 2528SOL     OW 8257   3.355   3.629   4.683
 2528SOL    HW1 8258   3.388   3.693   4.614
 2528SOL    HW2 8259   3.421   3.623   4.758
 2529SOL     OW 8260   3.312   3.082   5.357
 2529SOL    HW1 8261   3.303   3.072   5.456
 2529SOL    HW2 8262   3.408   3.075   5.331
 2530SOL     OW 8263   3.536   2.745   4.978
 2530SOL    HW1 8264   3.509   2.656   4.941
 2530SOL    HW2 8265   3.537   2.813   4.905
 2531SOL     OW 8266   3.087   2.187   4.173
 2531SOL    HW1 8267   3.152   2.113   4.162
 2531SOL    HW2 8268   3.107   2.237   4.257
 2532SOL     OW 8269   2.456   2.607   4.376
 2532SOL    HW1 8270   2.506   2.692   4.357
 2532SOL    HW2 8271   2.368   2.609   4.328
 2533SOL     OW 8272   3.592   2.796   5.241
 2533SOL    HW1 8273   3.630   2.887   5.256
 2533SOL    HW2 8274   3.584   2.779   5.142
 2534SOL     OW 8275   2.721   3.236   3.740
 2534SOL    HW1 8276   2.675   3.251   3.828
 2534SOL    HW2 8277   2.765   3.321   3.710
 2535SOL     OW 8278   2.523   3.652   4.677
 2535SOL    HW1 8279   2.477   3.740   4.664
 2535SOL    HW2 8280   2.622   3.664   4.670
 2536SOL     OW 8281   2.721   2.818   4.585
 2536SOL    HW1 8282   2.775   2.749   4.633
 2536SOL    HW2 8283   2.689   2.887   4.651
 2537SOL     OW 8284   2.945   2.846   3.811
 2537SOL    HW1 8285   2.922   2.899   3.729
 2537SOL    HW2 8286   3.026   2.790   3.792
 2538SOL     OW 8287   3.723   3.431   4.575
 2538SOL    HW1 8288   3.652   3.419   4.505
 2538SOL    HW2 8289   3.724   3.352   4.635
 2539SOL     OW 8290   1.941   3.102   4.377
 2539SOL    HW1 8291   1.940   3.055   4.465
 2539SOL    HW2 8292   2.023   3.074   4.326
 2540SOL     OW 8293   3.686   2.054   4.951
 2540SOL    HW1 8294   3.682   1.964   4.995
 2540SOL    HW2 8295   3.689   2.043   4.852
 2541SOL     OW 8296   2.290   2.286   4.244
 2541SOL    HW1 8297   2.320   2.214   4.182
 2541SOL    HW2 8298   2.251   2.246   4.327
 2542SOL     OW 8299   3.567   3.349   4.828
 2542SOL    HW1 8300   3.474   3.324   4.801
 2542SOL    HW2 8301   3.593   3.299   4.910
 2543SOL     OW 8302   2.674   3.448   4.411
 2543SOL    HW1 8303   2.706   3.458   4.317
 2543SOL    HW2 8304   2.595   3.386   4.413
 2544SOL     OW 8305   3.286   2.076   4.836
 2544SOL    HW1 8306   3.338   2.011   4.891
 2544SOL    HW2 8307   3.237   2.139   4.897
 2545SOL     OW 8308   2.863   1.896   4.878
 2545SOL    HW1 8309   2.800   1.824   4.847
 2545SOL    HW2 8310   2.956   1.860   4.878
 2546SOL     OW 8311   2.632   3.192   4.025
 2546SOL    HW1 8312   2.586   3.105   4.042
 2546SOL    HW2 8313   2.723   3.189   4.066
 2547SOL     OW 8314   3.214   1.914   3.892
 2547SOL    HW1 8315   3.249   1.873   3.808
 2547SOL    HW2 8316   3.124   1.876   3.912
 2548SOL     OW 8317   3.162   2.315   4.415
 2548SOL    HW1 8318   3.103   2.395   4.419
 2548SOL    HW2 8319   3.177   2.280   4.508
 2549SOL     OW 8320   3.455   2.083   4.606
 2549SOL    HW1 8321   3.371   2.082   4.660
 2549SOL    HW2 8322   3.457   2.166   4.550
 2550SOL     OW 8323   1.901   2.939   4.024
 2550SOL    HW1 8324   2.000   2.928   4.015
 2550SOL    HW2 8325   1.861   2.853   4.056
 2551SOL     OW 8326   2.737   3.508   4.061
 2551SOL    HW1 8327   2.660   3.473   4.007
 2551SOL    HW2 8328   2.705   3.579   4.123
 2552SOL     OW 8329   2.092   4.352   0.113
 2552SOL    HW1 8330   1.999   4.350   0.150
 2552SOL    HW2 8331   2.093   4.313   0.021
 2553SOL     OW 8332   2.087   3.999   0.996
 2553SOL    HW1 8333   2.122   3.982   1.088
 2553SOL    HW2 8334   1.999   3.954   0.984
 2554SOL     OW 8335   2.431   4.999   1.165
 2554SOL    HW1 8336   2.338   4.992   1.128
 2554SOL    HW2 8337   2.442   5.088   1.209
 2555SOL     OW 8338   2.997   4.427   0.717
 2555SOL    HW1 8339   3.054   4.505   0.692
 2555SOL    HW2 8340   2.937   4.453   0.793
 2556SOL     OW 8341   3.617   4.331   0.231
 2556SOL    HW1 8342   3.605   4.318   0.132
 2556SOL    HW2 8343   3.587   4.250   0.280
 2557SOL     OW 8344   2.630   4.868   1.023
 2557SOL    HW1 8345   2.552   4.885   1.083
 2557SOL    HW2 8346   2.664   4.955   0.987
 2558SOL     OW 8347   2.712   4.522   1.823
 2558SOL    HW1 8348   2.708   4.598   1.888
 2558SOL    HW2 8349   2.734   4.558   1.732
 2559SOL     OW 8350   2.548   4.885   1.803
 2559SOL    HW1 8351   2.608   4.964   1.817
 2559SOL    HW2 8352   2.462   4.916   1.762
 2560SOL     OW 8353   2.197   5.159   1.061
 2560SOL    HW1 8354   2.119   5.128   1.008
 2560SOL    HW2 8355   2.255   5.217   1.004
 2561SOL     OW 8356   2.300   4.116   1.499
 2561SOL    HW1 8357   2.382   4.060   1.508
 2561SOL    HW2 8358   2.219   4.058   1.503
 2562SOL     OW 8359   3.465   4.171   0.737
 2562SOL    HW1 8360   3.391   4.217   0.687
 2562SOL    HW2 8361   3.516   4.239   0.790
 2563SOL     OW 8362   2.102   4.815   0.886
 2563SOL    HW1 8363   2.116   4.731   0.938
 2563SOL    HW2 8364   2.047   4.879   0.941
 2564SOL     OW 8365   2.468   4.688   0.123
 2564SOL    HW1 8366   2.475   4.772   0.069
 2564SOL    HW2 8367   2.514   4.701   0.211
 2565SOL     OW 8368   3.456   3.838   1.480
 2565SOL    HW1 8369   3.438   3.905   1.408
 2565SOL    HW2 8370   3.453   3.884   1.569
 2566SOL     OW 8371   1.984   4.367   0.563
 2566SOL    HW1 8372   1.939   4.279   0.580
 2566SOL    HW2 8373   1.983   4.421   0.647
 2567SOL     OW 8374   3.551   4.646   0.612
 2567SOL    HW1 8375   3.646   4.617   0.620
 2567SOL    HW2 8376   3.543   4.711   0.537
 2568SOL     OW 8377   1.975   4.461   1.597
 2568SOL    HW1 8378   2.063   4.448   1.642
 2568SOL    HW2 8379   1.962   4.558   1.575
 2569SOL     OW 8380   3.155   4.952   1.423
 2569SOL    HW1 8381   3.192   4.879   1.365
 2569SOL    HW2 8382   3.207   4.957   1.508
 2570SOL     OW 8383   2.671   3.728   0.502
 2570SOL    HW1 8384   2.711   3.819   0.493
 2570SOL    HW2 8385   2.571   3.736   0.508
 2571SOL     OW 8386   2.059   4.700   1.264
 2571SOL    HW1 8387   2.148   4.655   1.250
 2571SOL    HW2 8388   1.986   4.635   1.245
 2572SOL     OW 8389   3.387   4.723   0.190
 2572SOL    HW1 8390   3.324   4.647   0.203
 2572SOL    HW2 8391   3.435   4.741   0.276
 2573SOL     OW 8392   2.179   3.975   1.801
 2573SOL    HW1 8393   2.250   4.046   1.807
 2573SOL    HW2 8394   2.091   4.014   1.829
 2574SOL     OW 8395   2.460   4.453   0.270
 2574SOL    HW1 8396   2.484   4.522   0.202
 2574SOL    HW2 8397   2.382   4.486   0.324
 2575SOL     OW 8398   3.143   4.069   0.944
 2575SOL    HW1 8399   3.057   4.019   0.931
 2575SOL    HW2 8400   3.205   4.015   1.000
 2576SOL     OW 8401   2.669   4.329   1.465
 2576SOL    HW1 8402   2.622   4.326   1.554
 2576SOL    HW2 8403   2.618   4.274   1.399
 2577SOL     OW 8404   3.256   4.193   1.674
 2577SOL    HW1 8405   3.236   4.236   1.762
 2577SOL    HW2 8406   3.334   4.131   1.683
 2578SOL     OW 8407   2.835   4.614   1.572
 2578SOL    HW1 8408   2.881   4.530   1.543
 2578SOL    HW2 8409   2.779   4.648   1.497
 2579SOL     OW 8410   2.853   4.134   1.242
 2579SOL    HW1 8411   2.776   4.168   1.296
 2579SOL    HW2 8412   2.819   4.083   1.163
 2580SOL     OW 8413   1.938   4.535   0.789
 2580SOL    HW1 8414   2.037   4.523   0.798
 2580SOL    HW2 8415   1.914   4.630   0.810
 2581SOL     OW 8416   2.727   4.072   0.195
 2581SOL    HW1 8417   2.786   4.135   0.146
 2581SOL    HW2 8418   2.746   3.978   0.166
 2582SOL     OW 8419   3.581   4.309   1.831
 2582SOL    HW1 8420   3.555   4.398   1.795
 2582SOL    HW2 8421   3.579   4.241   1.758
 2583SOL     OW 8422   3.224   4.868   0.545
 2583SOL    HW1 8423   3.307   4.839   0.497
 2583SOL    HW2 8424   3.175   4.935   0.489
 2584SOL     OW 8425   2.412   3.920   0.885
 2584SOL    HW1 8426   2.407   3.915   0.985
 2584SOL    HW2 8427   2.414   4.016   0.856
 2585SOL     OW 8428   3.657   4.790   0.873
 2585SOL    HW1 8429   3.595   4.775   0.797
 2585SOL    HW2 8430   3.605   4.801   0.958
 2586SOL     OW 8431   2.183   4.667   0.242
 2586SOL    HW1 8432   2.265   4.706   0.200
 2586SOL    HW2 8433   2.156   4.585   0.193
 2587SOL     OW 8434   3.320   4.459   0.728
 2587SOL    HW1 8435   3.315   4.394   0.803
 2587SOL    HW2 8436   3.400   4.518   0.741
 2588SOL     OW 8437   2.064   4.009   1.498
 2588SOL    HW1 8438   1.984   4.069   1.485
 2588SOL    HW2 8439   2.054   3.960   1.584
 2589SOL     OW 8440   3.494   5.101   0.081
 2589SOL    HW1 8441   3.462   5.195   0.071
 2589SOL    HW2 8442   3.418   5.038   0.069
 2590SOL     OW 8443   3.262   3.831   0.426
 2590SOL    HW1 8444   3.238   3.794   0.336
 2590SOL    HW2 8445   3.361   3.847   0.430
 2591SOL     OW 8446   2.244   4.424   0.480
 2591SOL    HW1 8447   2.289   4.334   0.477
 2591SOL    HW2 8448   2.150   4.413   0.513
 2592SOL     OW 8449   3.409   3.946   1.729
 2592SOL    HW1 8450   3.404   3.983   1.821
 2592SOL    HW2 8451   3.337   3.877   1.717
 2593SOL     OW 8452   2.643   3.988   1.749
 2593SOL    HW1 8453   2.710   3.927   1.792
 2593SOL    HW2 8454   2.570   4.007   1.814
 2594SOL     OW 8455   3.213   4.314   1.433
 2594SOL    HW1 8456   3.241   4.271   1.518
 2594SOL    HW2 8457   3.238   4.410   1.434
 2595SOL     OW 8458   2.665   5.126   0.924
 2595SOL    HW1 8459   2.755   5.140   0.882
 2595SOL    HW2 8460   2.594   5.128   0.853
 2596SOL     OW 8461   2.784   4.227   0.899
 2596SOL    HW1 8462   2.759   4.218   0.803
 2596SOL    HW2 8463   2.832   4.145   0.930
 2597SOL     OW 8464   2.401   3.788   0.512
 2597SOL    HW1 8465   2.320   3.789   0.570
 2597SOL    HW2 8466   2.404   3.871   0.457
 2598SOL     OW 8467   3.296   4.912   0.041
 2598SOL    HW1 8468   3.328   4.836   0.098
 2598SOL    HW2 8469   3.204   4.939   0.071
 2599SOL     OW 8470   2.159   3.759   0.171
 2599SOL    HW1 8471   2.208   3.843   0.150
 2599SOL    HW2 8472   2.221   3.694   0.216
 2600SOL     OW 8473   2.797   3.960   0.480
 2600SOL    HW1 8474   2.749   4.001   0.402
 2600SOL    HW2 8475   2.896   3.958   0.461
 2601SOL     OW 8476   2.938   4.407   1.464
 2601SOL    HW1 8477   2.858   4.346   1.467
 2601SOL    HW2 8478   3.019   4.354   1.440
 2602SOL     OW 8479   2.894   4.273   0.016
 2602SOL    HW1 8480   2.853   4.355  -0.023
 2602SOL    HW2 8481   2.958   4.299   0.089
 2603SOL     OW 8482   1.940   4.280   1.386
 2603SOL    HW1 8483   2.032   4.279   1.345
 2603SOL    HW2 8484   1.934   4.354   1.453
 2604SOL     OW 8485   2.423   3.946   1.147
 2604SOL    HW1 8486   2.461   3.862   1.184
 2604SOL    HW2 8487   2.335   3.965   1.191
 2605SOL     OW 8488   2.728   4.178   0.642
 2605SOL    HW1 8489   2.696   4.250   0.580
 2605SOL    HW2 8490   2.752   4.097   0.589
 2606SOL     OW 8491   2.879   3.763   0.753
 2606SOL    HW1 8492   2.807   3.768   0.684
 2606SOL    HW2 8493   2.855   3.694   0.822
 2607SOL     OW 8494   3.291   4.897   0.867
 2607SOL    HW1 8495   3.236   4.813   0.860
 2607SOL    HW2 8496   3.317   4.926   0.775
 2608SOL     OW 8497   3.328   4.314   0.992
 2608SOL    HW1 8498   3.298   4.219   0.999
 2608SOL    HW2 8499   3.401   4.330   1.058
 2609SOL     OW 8500   3.719   4.557   0.377
 2609SOL    HW1 8501   3.761   4.493   0.441
 2609SOL    HW2 8502   3.681   4.506   0.299
 2610SOL     OW 8503   3.252   4.299   0.078
 2610SOL    HW1 8504   3.198   4.278   0.159
 2610SOL    HW2 8505   3.343   4.258   0.087
 2611SOL     OW 8506   2.389   3.980   0.328
 2611SOL    HW1 8507   2.416   3.921   0.253
 2611SOL    HW2 8508   2.389   4.075   0.297
 2612SOL     OW 8509   3.616   4.947   1.588
 2612SOL    HW1 8510   3.707   4.908   1.575
 2612SOL    HW2 8511   3.624   5.043   1.612
 2613SOL     OW 8512   3.500   4.823   1.079
 2613SOL    HW1 8513   3.505   4.904   1.138
 2613SOL    HW2 8514   3.414   4.825   1.028
 2614SOL     OW 8515   2.777   3.813   1.402
 2614SOL    HW1 8516   2.802   3.793   1.307
 2614SOL    HW2 8517   2.849   3.869   1.444
 2615SOL     OW 8518   2.842   4.840   1.719
 2615SOL    HW1 8519   2.743   4.846   1.729
 2615SOL    HW2 8520   2.865   4.760   1.663
 2616SOL     OW 8521   2.272   4.537   1.251
 2616SOL    HW1 8522   2.358   4.549   1.301
 2616SOL    HW2 8523   2.230   4.450   1.278
 2617SOL     OW 8524   3.136   4.110   1.262
 2617SOL    HW1 8525   3.157   4.184   1.326
 2617SOL    HW2 8526   3.047   4.127   1.219
 2618SOL     OW 8527   2.229   4.824   0.501
 2618SOL    HW1 8528   2.222   4.907   0.445
 2618SOL    HW2 8529   2.233   4.744   0.441
 2619SOL     OW 8530   2.428   4.261   0.865
 2619SOL    HW1 8531   2.440   4.327   0.791
 2619SOL    HW2 8532   2.474   4.295   0.948
 2620SOL     OW 8533   3.444   4.363   0.472
 2620SOL    HW1 8534   3.413   4.424   0.545
 2620SOL    HW2 8535   3.494   4.415   0.403
 2621SOL     OW 8536   2.264   4.475   1.598
 2621SOL    HW1 8537   2.332   4.530   1.551
 2621SOL    HW2 8538   2.304   4.387   1.625
 2622SOL     OW 8539   3.449   4.503   1.670
 2622SOL    HW1 8540   3.357   4.541   1.665
 2622SOL    HW2 8541   3.509   4.550   1.605
 2623SOL     OW 8542   2.875   3.829   1.770
 2623SOL    HW1 8543   2.881   3.914   1.718
 2623SOL    HW2 8544   2.907   3.753   1.713
 2624SOL     OW 8545   2.366   3.774   1.740
 2624SOL    HW1 8546   2.324   3.717   1.670
 2624SOL    HW2 8547   2.300   3.843   1.772
 2625SOL     OW 8548   2.435   4.594   1.029
 2625SOL    HW1 8549   2.479   4.683   1.020
 2625SOL    HW2 8550   2.372   4.594   1.106
 2626SOL     OW 8551   3.222   4.586   1.045
 2626SOL    HW1 8552   3.147   4.586   0.979
 2626SOL    HW2 8553   3.259   4.494   1.054
 2627SOL     OW 8554   3.071   4.249   0.275
 2627SOL    HW1 8555   3.084   4.165   0.329
 2627SOL    HW2 8556   3.042   4.323   0.335
 2628SOL     OW 8557   2.169   3.937   1.231
 2628SOL    HW1 8558   2.146   3.974   1.321
 2628SOL    HW2 8559   2.139   3.842   1.225
 2629SOL     OW 8560   2.594   4.358   1.064
 2629SOL    HW1 8561   2.653   4.332   0.988
 2629SOL    HW2 8562   2.566   4.454   1.053
 2630SOL     OW 8563   3.590   4.659   1.854
 2630SOL    HW1 8564   3.544   4.652   1.765
 2630SOL    HW2 8565   3.528   4.703   1.920
 2631SOL     OW 8566   2.169   3.787   0.618
 2631SOL    HW1 8567   2.158   3.881   0.651
 2631SOL    HW2 8568   2.164   3.724   0.695
 2632SOL     OW 8569   3.484   4.091   0.374
 2632SOL    HW1 8570   3.486   4.015   0.438
 2632SOL    HW2 8571   3.436   4.168   0.414
 2633SOL     OW 8572   2.885   4.490   0.966
 2633SOL    HW1 8573   2.900   4.511   1.062
 2633SOL    HW2 8574   2.855   4.395   0.957
 2634SOL     OW 8575   3.721   5.242   1.605
 2634SOL    HW1 8576   3.735   5.269   1.510
 2634SOL    HW2 8577   3.804   5.264   1.658
 2635SOL     OW 8578   2.212   4.622   1.804
 2635SOL    HW1 8579   2.288   4.666   1.852
 2635SOL    HW2 8580   2.247   4.575   1.722
 2636SOL     OW 8581   3.402   3.998   0.125
 2636SOL    HW1 8582   3.341   3.923   0.148
 2636SOL    HW2 8583   3.424   4.050   0.208
 2637SOL     OW 8584   3.165   4.562   0.042
 2637SOL    HW1 8585   3.199   4.469   0.057
 2637SOL    HW2 8586   3.183   4.589  -0.053
 2638SOL     OW 8587   2.181   4.534   0.949
 2638SOL    HW1 8588   2.274   4.570   0.954
 2638SOL    HW2 8589   2.175   4.449   1.001
 2639SOL     OW 8590   2.201   4.233   1.006
 2639SOL    HW1 8591   2.149   4.150   0.989
 2639SOL    HW2 8592   2.278   4.238   0.942
 2640SOL     OW 8593   3.000   4.104   1.678
 2640SOL    HW1 8594   2.955   4.167   1.742
 2640SOL    HW2 8595   3.093   4.135   1.661
 2641SOL     OW 8596   3.022   3.931   1.477
 2641SOL    HW1 8597   3.022   3.995   1.554
 2641SOL    HW2 8598   3.050   3.979   1.394
 2642SOL     OW 8599   2.864   4.520   1.238
 2642SOL    HW1 8600   2.905   4.488   1.324
 2642SOL    HW2 8601   2.768   4.493   1.235
 2643SOL     OW 8602   1.902   4.268   1.114
 2643SOL    HW1 8603   1.987   4.235   1.073
 2643SOL    HW2 8604   1.915   4.283   1.212
 2644SOL     OW 8605   2.051   4.244   1.722
 2644SOL    HW1 8606   2.110   4.204   1.652
 2644SOL    HW2 8607   1.993   4.315   1.681
 2645SOL     OW 8608   3.231   4.674   1.660
 2645SOL    HW1 8609   3.270   4.763   1.680
 2645SOL    HW2 8610   3.241   4.654   1.563
 2646SOL     OW 8611   2.677   4.296   0.325
 2646SOL    HW1 8612   2.684   4.207   0.279
 2646SOL    HW2 8613   2.583   4.330   0.317
 2647SOL     OW 8614   3.519   4.328   1.206
 2647SOL    HW1 8615   3.481   4.259   1.268
 2647SOL    HW2 8616   3.601   4.292   1.162
 2648SOL     OW 8617   2.533   4.188   1.269
 2648SOL    HW1 8618   2.499   4.099   1.239
 2648SOL    HW2 8619   2.559   4.242   1.189
 2649SOL     OW 8620   2.335   4.224   0.191
 2649SOL    HW1 8621   2.396   4.304   0.195
 2649SOL    HW2 8622   2.240   4.255   0.198
 2650SOL     OW 8623   2.021   4.861   1.466
 2650SOL    HW1 8624   2.043   4.800   1.542
 2650SOL    HW2 8625   2.031   4.812   1.380
 2651SOL     OW 8626   3.209   4.783   1.234
 2651SOL    HW1 8627   3.233   4.720   1.160
 2651SOL    HW2 8628   3.119   4.823   1.216
 2652SOL     OW 8629   3.164   4.579   0.309
 2652SOL    HW1 8630   3.078   4.548   0.351
 2652SOL    HW2 8631   3.160   4.565   0.210
 2653SOL     OW 8632   1.945   4.982   1.022
 2653SOL    HW1 8633   1.940   4.981   1.122
 2653SOL    HW2 8634   1.862   4.941   0.984
 2654SOL     OW 8635   2.765   3.810   0.133
 2654SOL    HW1 8636   2.816   3.811   0.047
 2654SOL    HW2 8637   2.821   3.768   0.204
 2655SOL     OW 8638   3.588   3.859   0.523
 2655SOL    HW1 8639   3.661   3.842   0.456
 2655SOL    HW2 8640   3.557   3.772   0.561
 2656SOL     OW 8641   3.142   4.651   0.672
 2656SOL    HW1 8642   3.202   4.570   0.674
 2656SOL    HW2 8643   3.182   4.720   0.612
 2657SOL     OW 8644   2.692   4.997   1.422
 2657SOL    HW1 8645   2.687   5.030   1.517
 2657SOL    HW2 8646   2.606   5.016   1.376
 2658SOL     OW 8647   3.703   3.899   0.963
 2658SOL    HW1 8648   3.742   3.814   0.927
 2658SOL    HW2 8649   3.605   3.901   0.944
 2659SOL     OW 8650   2.125   4.050   0.720
 2659SOL    HW1 8651   2.046   4.101   0.686
 2659SOL    HW2 8652   2.116   4.035   0.818
 2660SOL     OW 8653   2.684   4.726   1.372
 2660SOL    HW1 8654   2.724   4.725   1.280
 2660SOL    HW2 8655   2.694   4.818   1.412
 2661SOL     OW 8656   2.778   4.634   0.291
 2661SOL    HW1 8657   2.841   4.672   0.223
 2661SOL    HW2 8658   2.818   4.551   0.330
 2662SOL     OW 8659   2.234   5.012   1.490
 2662SOL    HW1 8660   2.221   5.105   1.456
 2662SOL    HW2 8661   2.150   4.960   1.477
 2663SOL     OW 8662   3.476   5.016   1.289
 2663SOL    HW1 8663   3.536   5.019   1.369
 2663SOL    HW2 8664   3.401   5.080   1.302
 2664SOL     OW 8665   3.571   4.109   1.381
 2664SOL    HW1 8666   3.644   4.178   1.385
 2664SOL    HW2 8667   3.599   4.034   1.322
 2665SOL     OW 8668   1.967   4.737   1.726
 2665SOL    HW1 8669   1.890   4.704   1.780
 2665SOL    HW2 8670   2.052   4.707   1.768
 2666SOL     OW 8671   2.534   3.927   1.489
 2666SOL    HW1 8672   2.624   3.911   1.449
 2666SOL    HW2 8673   2.542   3.932   1.588
 2667SOL     OW 8674   3.302   4.580   1.398
 2667SOL    HW1 8675   3.245   4.632   1.335
 2667SOL    HW2 8676   3.398   4.592   1.374
 2668SOL     OW 8677   1.934   3.890   0.318
 2668SOL    HW1 8678   1.917   3.973   0.264
 2668SOL    HW2 8679   2.024   3.853   0.296
 2669SOL     OW 8680   2.475   4.566   1.431
 2669SOL    HW1 8681   2.531   4.647   1.414
 2669SOL    HW2 8682   2.534   4.486   1.434
 2670SOL     OW 8683   2.578   4.289   1.708
 2670SOL    HW1 8684   2.597   4.354   1.782
 2670SOL    HW2 8685   2.638   4.209   1.717
 2671SOL     OW 8686   3.312   4.944   1.633
 2671SOL    HW1 8687   3.303   4.934   1.732
 2671SOL    HW2 8688   3.408   4.937   1.607
 2672SOL     OW 8689   3.536   4.607   1.254
 2672SOL    HW1 8690   3.509   4.518   1.217
 2672SOL    HW2 8691   3.537   4.675   1.181
 2673SOL     OW 8692   3.087   4.049   0.449
 2673SOL    HW1 8693   3.152   3.975   0.438
 2673SOL    HW2 8694   3.107   4.099   0.533
 2674SOL     OW 8695   2.456   4.469   0.652
 2674SOL    HW1 8696   2.506   4.554   0.633
 2674SOL    HW2 8697   2.368   4.471   0.604
 2675SOL     OW 8698   3.639   4.066   1.642
 2675SOL    HW1 8699   3.622   4.097   1.548
 2675SOL    HW2 8700   3.555   4.029   1.680
 2676SOL     OW 8701   3.592   4.658   1.517
 2676SOL    HW1 8702   3.630   4.749   1.532
 2676SOL    HW2 8703   3.584   4.641   1.418
 2677SOL     OW 8704   2.721   4.680   0.861
 2677SOL    HW1 8705   2.775   4.611   0.909
 2677SOL    HW2 8706   2.689   4.749   0.927
 2678SOL     OW 8707   2.945   4.708   0.087
 2678SOL    HW1 8708   2.922   4.761   0.005
 2678SOL    HW2 8709   3.026   4.652   0.068
 2679SOL     OW 8710   1.941   4.964   0.653
 2679SOL    HW1 8711   1.940   4.917   0.741
 2679SOL    HW2 8712   2.023   4.936   0.602
 2680SOL     OW 8713   3.686   3.916   1.227
 2680SOL    HW1 8714   3.682   3.826   1.271
 2680SOL    HW2 8715   3.689   3.905   1.128
 2681SOL     OW 8716   2.290   4.148   0.520
 2681SOL    HW1 8717   2.320   4.076   0.458
 2681SOL    HW2 8718   2.251   4.108   0.603
 2682SOL     OW 8719   2.179   4.271   1.280
 2682SOL    HW1 8720   2.217   4.212   1.352
 2682SOL    HW2 8721   2.219   4.245   1.192
 2683SOL     OW 8722   3.286   3.938   1.112
 2683SOL    HW1 8723   3.338   3.873   1.167
 2683SOL    HW2 8724   3.237   4.001   1.173
 2684SOL     OW 8725   3.214   3.776   0.168
 2684SOL    HW1 8726   3.249   3.735   0.084
 2684SOL    HW2 8727   3.124   3.738   0.188
 2685SOL     OW 8728   3.162   4.177   0.691
 2685SOL    HW1 8729   3.103   4.257   0.695
 2685SOL    HW2 8730   3.177   4.142   0.784
 2686SOL     OW 8731   3.455   3.945   0.882
 2686SOL    HW1 8732   3.371   3.944   0.936
 2686SOL    HW2 8733   3.457   4.028   0.826
 2687SOL     OW 8734   1.901   4.801   0.300
 2687SOL    HW1 8735   2.000   4.790   0.291
 2687SOL    HW2 8736   1.861   4.715   0.332
 2688SOL     OW 8737   2.092   4.352   1.975
 2688SOL    HW1 8738   1.999   4.350   2.012
 2688SOL    HW2 8739   2.093   4.313   1.883
 2689SOL     OW 8740   2.431   4.999   3.027
 2689SOL    HW1 8741   2.338   4.992   2.990
 2689SOL    HW2 8742   2.442   5.088   3.071
 2690SOL     OW 8743   3.417   5.235   2.565
 2690SOL    HW1 8744   3.360   5.219   2.646
 2690SOL    HW2 8745   3.358   5.245   2.485
 2691SOL     OW 8746   2.997   4.427   2.579
 2691SOL    HW1 8747   3.054   4.505   2.554
 2691SOL    HW2 8748   2.937   4.453   2.655
 2692SOL     OW 8749   3.617   4.331   2.093
 2692SOL    HW1 8750   3.605   4.318   1.994
 2692SOL    HW2 8751   3.587   4.250   2.142
 2693SOL     OW 8752   2.630   4.868   2.885
 2693SOL    HW1 8753   2.552   4.885   2.945
 2693SOL    HW2 8754   2.664   4.955   2.849
 2694SOL     OW 8755   2.712   4.522   3.685
 2694SOL    HW1 8756   2.708   4.598   3.750
 2694SOL    HW2 8757   2.734   4.558   3.594
 2695SOL     OW 8758   2.547   4.736   2.527
 2695SOL    HW1 8759   2.616   4.720   2.597
 2695SOL    HW2 8760   2.474   4.793   2.565
 2696SOL     OW 8761   2.548   4.885   3.665
 2696SOL    HW1 8762   2.608   4.964   3.679
 2696SOL    HW2 8763   2.462   4.916   3.624
 2697SOL     OW 8764   2.197   5.159   2.923
 2697SOL    HW1 8765   2.119   5.128   2.870
 2697SOL    HW2 8766   2.255   5.217   2.866
 2698SOL     OW 8767   3.465   4.171   2.599
 2698SOL    HW1 8768   3.391   4.217   2.549
 2698SOL    HW2 8769   3.516   4.239   2.652
 2699SOL     OW 8770   2.102   4.815   2.748
 2699SOL    HW1 8771   2.116   4.731   2.800
 2699SOL    HW2 8772   2.047   4.879   2.803
 2700SOL     OW 8773   2.468   4.688   1.985
 2700SOL    HW1 8774   2.475   4.772   1.931
 2700SOL    HW2 8775   2.514   4.701   2.073
 2701SOL     OW 8776   3.456   3.838   3.342
 2701SOL    HW1 8777   3.438   3.905   3.270
 2701SOL    HW2 8778   3.453   3.884   3.431
 2702SOL     OW 8779   1.984   4.367   2.425
 2702SOL    HW1 8780   1.939   4.279   2.442
 2702SOL    HW2 8781   1.983   4.421   2.509
 2703SOL     OW 8782   3.551   4.646   2.474
 2703SOL    HW1 8783   3.646   4.617   2.482
 2703SOL    HW2 8784   3.543   4.711   2.399
 2704SOL     OW 8785   3.503   4.832   2.294
 2704SOL    HW1 8786   3.589   4.834   2.242
 2704SOL    HW2 8787   3.517   4.879   2.382
 2705SOL     OW 8788   1.975   4.461   3.459
 2705SOL    HW1 8789   2.063   4.448   3.504
 2705SOL    HW2 8790   1.962   4.558   3.437
 2706SOL     OW 8791   3.155   4.952   3.285
 2706SOL    HW1 8792   3.192   4.879   3.227
 2706SOL    HW2 8793   3.207   4.957   3.370
 2707SOL     OW 8794   2.671   3.728   2.364
 2707SOL    HW1 8795   2.711   3.819   2.355
 2707SOL    HW2 8796   2.571   3.736   2.370
 2708SOL     OW 8797   2.059   4.700   3.126
 2708SOL    HW1 8798   2.148   4.655   3.112
 2708SOL    HW2 8799   1.986   4.635   3.107
 2709SOL     OW 8800   3.387   4.723   2.052
 2709SOL    HW1 8801   3.324   4.647   2.065
 2709SOL    HW2 8802   3.435   4.741   2.138
 2710SOL     OW 8803   2.179   3.975   3.663
 2710SOL    HW1 8804   2.250   4.046   3.669
 2710SOL    HW2 8805   2.091   4.014   3.691
 2711SOL     OW 8806   3.328   5.141   2.815
 2711SOL    HW1 8807   3.269   5.147   2.895
 2711SOL    HW2 8808   3.313   5.053   2.769
 2712SOL     OW 8809   2.460   4.453   2.132
 2712SOL    HW1 8810   2.484   4.522   2.064
 2712SOL    HW2 8811   2.382   4.486   2.186
 2713SOL     OW 8812   3.143   4.069   2.806
 2713SOL    HW1 8813   3.057   4.019   2.793
 2713SOL    HW2 8814   3.205   4.015   2.862
 2714SOL     OW 8815   2.669   4.329   3.327
 2714SOL    HW1 8816   2.622   4.326   3.416
 2714SOL    HW2 8817   2.618   4.274   3.261
 2715SOL     OW 8818   3.256   4.193   3.536
 2715SOL    HW1 8819   3.236   4.236   3.624
 2715SOL    HW2 8820   3.334   4.131   3.545
 2716SOL     OW 8821   2.835   4.614   3.434
 2716SOL    HW1 8822   2.881   4.530   3.405
 2716SOL    HW2 8823   2.779   4.648   3.359
 2717SOL     OW 8824   2.853   4.134   3.104
 2717SOL    HW1 8825   2.776   4.168   3.158
 2717SOL    HW2 8826   2.819   4.083   3.025
 2718SOL     OW 8827   2.903   4.425   2.291
 2718SOL    HW1 8828   2.929   4.421   2.387
 2718SOL    HW2 8829   2.818   4.374   2.277
 2719SOL     OW 8830   1.938   4.535   2.651
 2719SOL    HW1 8831   2.037   4.523   2.660
 2719SOL    HW2 8832   1.914   4.630   2.672
 2720SOL     OW 8833   2.727   4.072   2.057
 2720SOL    HW1 8834   2.786   4.135   2.008
 2720SOL    HW2 8835   2.746   3.978   2.028
 2721SOL     OW 8836   3.581   4.309   3.693
 2721SOL    HW1 8837   3.555   4.398   3.657
 2721SOL    HW2 8838   3.579   4.241   3.620
 2722SOL     OW 8839   3.224   4.868   2.407
 2722SOL    HW1 8840   3.307   4.839   2.359
 2722SOL    HW2 8841   3.175   4.935   2.351
 2723SOL     OW 8842   2.412   3.920   2.747
 2723SOL    HW1 8843   2.407   3.915   2.847
 2723SOL    HW2 8844   2.414   4.016   2.718
 2724SOL     OW 8845   3.657   4.790   2.735
 2724SOL    HW1 8846   3.595   4.775   2.659
 2724SOL    HW2 8847   3.605   4.801   2.820
 2725SOL     OW 8848   2.183   4.667   2.104
 2725SOL    HW1 8849   2.265   4.706   2.062
 2725SOL    HW2 8850   2.156   4.585   2.055
 2726SOL     OW 8851   3.320   4.459   2.590
 2726SOL    HW1 8852   3.315   4.394   2.665
 2726SOL    HW2 8853   3.400   4.518   2.603
 2727SOL     OW 8854   3.494   5.101   1.943
 2727SOL    HW1 8855   3.462   5.195   1.933
 2727SOL    HW2 8856   3.418   5.038   1.931
 2728SOL     OW 8857   3.262   3.831   2.288
 2728SOL    HW1 8858   3.238   3.794   2.198
 2728SOL    HW2 8859   3.361   3.847   2.292
 2729SOL     OW 8860   2.244   4.424   2.342
 2729SOL    HW1 8861   2.289   4.334   2.339
 2729SOL    HW2 8862   2.150   4.413   2.375
 2730SOL     OW 8863   3.409   3.946   3.591
 2730SOL    HW1 8864   3.404   3.983   3.683
 2730SOL    HW2 8865   3.337   3.877   3.579
 2731SOL     OW 8866   2.476   3.846   1.979
 2731SOL    HW1 8867   2.574   3.824   1.986
 2731SOL    HW2 8868   2.445   3.829   1.886
 2732SOL     OW 8869   2.643   3.988   3.611
 2732SOL    HW1 8870   2.710   3.927   3.654
 2732SOL    HW2 8871   2.570   4.007   3.676
 2733SOL     OW 8872   3.213   4.314   3.295
 2733SOL    HW1 8873   3.241   4.271   3.380
 2733SOL    HW2 8874   3.238   4.410   3.296
 2734SOL     OW 8875   2.665   5.126   2.786
 2734SOL    HW1 8876   2.755   5.140   2.744
 2734SOL    HW2 8877   2.594   5.128   2.715
 2735SOL     OW 8878   2.784   4.227   2.761
 2735SOL    HW1 8879   2.759   4.218   2.665
 2735SOL    HW2 8880   2.832   4.145   2.792
 2736SOL     OW 8881   2.401   3.788   2.374
 2736SOL    HW1 8882   2.320   3.789   2.432
 2736SOL    HW2 8883   2.404   3.871   2.319
 2737SOL     OW 8884   3.296   4.912   1.903
 2737SOL    HW1 8885   3.328   4.836   1.960
 2737SOL    HW2 8886   3.204   4.939   1.933
 2738SOL     OW 8887   2.159   3.759   2.033
 2738SOL    HW1 8888   2.208   3.843   2.012
 2738SOL    HW2 8889   2.221   3.694   2.078
 2739SOL     OW 8890   2.797   3.960   2.342
 2739SOL    HW1 8891   2.749   4.001   2.264
 2739SOL    HW2 8892   2.896   3.958   2.323
 2740SOL     OW 8893   2.938   4.407   3.326
 2740SOL    HW1 8894   2.858   4.346   3.329
 2740SOL    HW2 8895   3.019   4.354   3.302
 2741SOL     OW 8896   3.089   5.294   2.655
 2741SOL    HW1 8897   3.110   5.368   2.590
 2741SOL    HW2 8898   3.157   5.294   2.728
 2742SOL     OW 8899   2.321   4.876   2.603
 2742SOL    HW1 8900   2.250   4.849   2.668
 2742SOL    HW2 8901   2.295   4.848   2.510
 2743SOL     OW 8902   2.894   4.273   1.878
 2743SOL    HW1 8903   2.853   4.355   1.839
 2743SOL    HW2 8904   2.958   4.299   1.951
 2744SOL     OW 8905   2.728   4.178   2.504
 2744SOL    HW1 8906   2.696   4.250   2.442
 2744SOL    HW2 8907   2.752   4.097   2.451
 2745SOL     OW 8908   2.879   3.763   2.615
 2745SOL    HW1 8909   2.807   3.768   2.546
 2745SOL    HW2 8910   2.855   3.694   2.684
 2746SOL     OW 8911   3.291   4.897   2.729
 2746SOL    HW1 8912   3.236   4.813   2.722
 2746SOL    HW2 8913   3.317   4.926   2.637
 2747SOL     OW 8914   3.328   4.314   2.854
 2747SOL    HW1 8915   3.298   4.219   2.861
 2747SOL    HW2 8916   3.401   4.330   2.920
 2748SOL     OW 8917   3.719   4.557   2.239
 2748SOL    HW1 8918   3.761   4.493   2.303
 2748SOL    HW2 8919   3.681   4.506   2.161
 2749SOL     OW 8920   3.526   5.004   2.519
 2749SOL    HW1 8921   3.625   5.012   2.533
 2749SOL    HW2 8922   3.481   5.088   2.550
 2750SOL     OW 8923   3.252   4.299   1.940
 2750SOL    HW1 8924   3.198   4.278   2.021
 2750SOL    HW2 8925   3.343   4.258   1.949
 2751SOL     OW 8926   2.389   3.980   2.190
 2751SOL    HW1 8927   2.416   3.921   2.115
 2751SOL    HW2 8928   2.389   4.075   2.159
 2752SOL     OW 8929   3.616   4.947   3.450
 2752SOL    HW1 8930   3.707   4.908   3.437
 2752SOL    HW2 8931   3.624   5.043   3.474
 2753SOL     OW 8932   3.500   4.823   2.941
 2753SOL    HW1 8933   3.505   4.904   3.000
 2753SOL    HW2 8934   3.414   4.825   2.890
 2754SOL     OW 8935   2.842   4.840   3.581
 2754SOL    HW1 8936   2.743   4.846   3.591
 2754SOL    HW2 8937   2.865   4.760   3.525
 2755SOL     OW 8938   2.567   4.774   2.230
 2755SOL    HW1 8939   2.553   4.781   2.329
 2755SOL    HW2 8940   2.651   4.723   2.212
 2756SOL     OW 8941   2.272   4.537   3.113
 2756SOL    HW1 8942   2.358   4.549   3.163
 2756SOL    HW2 8943   2.230   4.450   3.140
 2757SOL     OW 8944   3.136   4.110   3.124
 2757SOL    HW1 8945   3.157   4.184   3.188
 2757SOL    HW2 8946   3.047   4.127   3.081
 2758SOL     OW 8947   2.229   4.824   2.363
 2758SOL    HW1 8948   2.222   4.907   2.307
 2758SOL    HW2 8949   2.233   4.744   2.303
 2759SOL     OW 8950   2.428   4.261   2.727
 2759SOL    HW1 8951   2.440   4.327   2.653
 2759SOL    HW2 8952   2.474   4.295   2.810
 2760SOL     OW 8953   3.444   4.363   2.334
 2760SOL    HW1 8954   3.413   4.424   2.407
 2760SOL    HW2 8955   3.494   4.415   2.265
 2761SOL     OW 8956   2.264   4.475   3.460
 2761SOL    HW1 8957   2.332   4.530   3.413
 2761SOL    HW2 8958   2.304   4.387   3.487
 2762SOL     OW 8959   3.449   4.503   3.532
 2762SOL    HW1 8960   3.357   4.541   3.527
 2762SOL    HW2 8961   3.509   4.550   3.467
 2763SOL     OW 8962   2.435   4.594   2.891
 2763SOL    HW1 8963   2.479   4.683   2.882
 2763SOL    HW2 8964   2.372   4.594   2.968
 2764SOL     OW 8965   3.222   4.586   2.907
 2764SOL    HW1 8966   3.147   4.586   2.841
 2764SOL    HW2 8967   3.259   4.494   2.916
 2765SOL     OW 8968   3.071   4.249   2.137
 2765SOL    HW1 8969   3.084   4.165   2.191
 2765SOL    HW2 8970   3.042   4.323   2.197
 2766SOL     OW 8971   2.594   4.358   2.926
 2766SOL    HW1 8972   2.653   4.332   2.850
 2766SOL    HW2 8973   2.566   4.454   2.915
 2767SOL     OW 8974   3.590   4.659   3.716
 2767SOL    HW1 8975   3.544   4.652   3.627
 2767SOL    HW2 8976   3.528   4.703   3.782
 2768SOL     OW 8977   2.169   3.787   2.480
 2768SOL    HW1 8978   2.158   3.881   2.513
 2768SOL    HW2 8979   2.164   3.724   2.557
 2769SOL     OW 8980   3.484   4.091   2.236
 2769SOL    HW1 8981   3.486   4.015   2.300
 2769SOL    HW2 8982   3.436   4.168   2.276
 2770SOL     OW 8983   2.885   4.490   2.828
 2770SOL    HW1 8984   2.900   4.511   2.924
 2770SOL    HW2 8985   2.855   4.395   2.819
 2771SOL     OW 8986   3.721   5.242   3.467
 2771SOL    HW1 8987   3.735   5.269   3.372
 2771SOL    HW2 8988   3.804   5.264   3.520
 2772SOL     OW 8989   2.212   4.622   3.666
 2772SOL    HW1 8990   2.288   4.666   3.714
 2772SOL    HW2 8991   2.247   4.575   3.584
 2773SOL     OW 8992   3.402   3.998   1.987
 2773SOL    HW1 8993   3.341   3.923   2.010
 2773SOL    HW2 8994   3.424   4.050   2.070
 2774SOL     OW 8995   3.165   4.562   1.904
 2774SOL    HW1 8996   3.199   4.469   1.919
 2774SOL    HW2 8997   3.183   4.589   1.809
 2775SOL     OW 8998   2.181   4.534   2.811
 2775SOL    HW1 8999   2.274   4.570   2.816
 2775SOL    HW2 9000   2.175   4.449   2.863
 2776SOL     OW 9001   2.201   4.233   2.868
 2776SOL    HW1 9002   2.149   4.150   2.851
 2776SOL    HW2 9003   2.278   4.238   2.804
 2777SOL     OW 9004   3.000   4.104   3.540
 2777SOL    HW1 9005   2.955   4.167   3.604
 2777SOL    HW2 9006   3.093   4.135   3.523
 2778SOL     OW 9007   1.870   5.050   2.062
 2778SOL    HW1 9008   1.777   5.071   2.031
 2778SOL    HW2 9009   1.880   4.951   2.075
 2779SOL     OW 9010   2.864   4.520   3.100
 2779SOL    HW1 9011   2.905   4.488   3.186
 2779SOL    HW2 9012   2.768   4.493   3.097
 2780SOL     OW 9013   2.051   4.244   3.584
 2780SOL    HW1 9014   2.110   4.204   3.514
 2780SOL    HW2 9015   1.993   4.315   3.543
 2781SOL     OW 9016   3.231   4.674   3.522
 2781SOL    HW1 9017   3.270   4.763   3.542
 2781SOL    HW2 9018   3.241   4.654   3.425
 2782SOL     OW 9019   2.677   4.296   2.187
 2782SOL    HW1 9020   2.684   4.207   2.141
 2782SOL    HW2 9021   2.583   4.330   2.179
 2783SOL     OW 9022   3.519   4.328   3.068
 2783SOL    HW1 9023   3.481   4.259   3.130
 2783SOL    HW2 9024   3.601   4.292   3.024
 2784SOL     OW 9025   2.335   4.224   2.053
 2784SOL    HW1 9026   2.396   4.304   2.057
 2784SOL    HW2 9027   2.240   4.255   2.060
 2785SOL     OW 9028   2.021   4.861   3.328
 2785SOL    HW1 9029   2.043   4.800   3.404
 2785SOL    HW2 9030   2.031   4.812   3.242
 2786SOL     OW 9031   3.209   4.783   3.096
 2786SOL    HW1 9032   3.233   4.720   3.022
 2786SOL    HW2 9033   3.119   4.823   3.078
 2787SOL     OW 9034   3.164   4.579   2.171
 2787SOL    HW1 9035   3.078   4.548   2.213
 2787SOL    HW2 9036   3.160   4.565   2.072
 2788SOL     OW 9037   1.945   4.982   2.884
 2788SOL    HW1 9038   1.940   4.981   2.984
 2788SOL    HW2 9039   1.862   4.941   2.846
 2789SOL     OW 9040   3.588   3.859   2.385
 2789SOL    HW1 9041   3.661   3.842   2.318
 2789SOL    HW2 9042   3.557   3.772   2.423
 2790SOL     OW 9043   3.142   4.651   2.534
 2790SOL    HW1 9044   3.202   4.570   2.536
 2790SOL    HW2 9045   3.182   4.720   2.474
 2791SOL     OW 9046   2.692   4.997   3.284
 2791SOL    HW1 9047   2.687   5.030   3.379
 2791SOL    HW2 9048   2.606   5.016   3.238
 2792SOL     OW 9049   3.703   3.899   2.825
 2792SOL    HW1 9050   3.742   3.814   2.789
 2792SOL    HW2 9051   3.605   3.901   2.806
 2793SOL     OW 9052   3.056   5.336   1.893
 2793SOL    HW1 9053   3.062   5.243   1.930
 2793SOL    HW2 9054   2.997   5.336   1.813
 2794SOL     OW 9055   2.684   4.726   3.234
 2794SOL    HW1 9056   2.724   4.725   3.142
 2794SOL    HW2 9057   2.694   4.818   3.274
 2795SOL     OW 9058   2.778   4.634   2.153
 2795SOL    HW1 9059   2.841   4.672   2.085
 2795SOL    HW2 9060   2.818   4.551   2.192
 2796SOL     OW 9061   2.234   5.012   3.352
 2796SOL    HW1 9062   2.221   5.105   3.318
 2796SOL    HW2 9063   2.150   4.960   3.339
 2797SOL     OW 9064   3.476   5.016   3.151
 2797SOL    HW1 9065   3.536   5.019   3.231
 2797SOL    HW2 9066   3.401   5.080   3.164
 2798SOL     OW 9067   2.901   4.822   2.558
 2798SOL    HW1 9068   2.831   4.775   2.612
 2798SOL    HW2 9069   2.960   4.754   2.515
 2799SOL     OW 9070   2.876   3.960   2.833
 2799SOL    HW1 9071   2.868   3.924   2.740
 2799SOL    HW2 9072   2.874   3.884   2.898
 2800SOL     OW 9073   3.571   4.109   3.243
 2800SOL    HW1 9074   3.644   4.178   3.247
 2800SOL    HW2 9075   3.599   4.034   3.184
 2801SOL     OW 9076   1.967   4.737   3.588
 2801SOL    HW1 9077   1.890   4.704   3.642
 2801SOL    HW2 9078   2.052   4.707   3.630
 2802SOL     OW 9079   1.937   4.069   1.895
 2802SOL    HW1 9080   1.845   4.041   1.866
 2802SOL    HW2 9081   1.968   4.146   1.839
 2803SOL     OW 9082   3.302   4.580   3.260
 2803SOL    HW1 9083   3.245   4.632   3.197
 2803SOL    HW2 9084   3.398   4.592   3.236
 2804SOL     OW 9085   1.934   3.890   2.180
 2804SOL    HW1 9086   1.917   3.973   2.126
 2804SOL    HW2 9087   2.024   3.853   2.158
 2805SOL     OW 9088   2.475   4.566   3.293
 2805SOL    HW1 9089   2.531   4.647   3.276
 2805SOL    HW2 9090   2.534   4.486   3.296
 2806SOL     OW 9091   2.578   4.289   3.570
 2806SOL    HW1 9092   2.597   4.354   3.644
 2806SOL    HW2 9093   2.638   4.209   3.579
 2807SOL     OW 9094   3.312   4.944   3.495
 2807SOL    HW1 9095   3.303   4.934   3.594
 2807SOL    HW2 9096   3.408   4.937   3.469
 2808SOL     OW 9097   3.536   4.607   3.116
 2808SOL    HW1 9098   3.509   4.518   3.079
 2808SOL    HW2 9099   3.537   4.675   3.043
 2809SOL     OW 9100   3.087   4.049   2.311
 2809SOL    HW1 9101   3.152   3.975   2.300
 2809SOL    HW2 9102   3.107   4.099   2.395
 2810SOL     OW 9103   2.456   4.469   2.514
 2810SOL    HW1 9104   2.506   4.554   2.495
 2810SOL    HW2 9105   2.368   4.471   2.466
 2811SOL     OW 9106   3.639   4.066   3.504
 2811SOL    HW1 9107   3.622   4.097   3.410
 2811SOL    HW2 9108   3.555   4.029   3.542
 2812SOL     OW 9109   3.592   4.658   3.379
 2812SOL    HW1 9110   3.630   4.749   3.394
 2812SOL    HW2 9111   3.584   4.641   3.280
 2813SOL     OW 9112   2.721   4.680   2.723
 2813SOL    HW1 9113   2.775   4.611   2.771
 2813SOL    HW2 9114   2.689   4.749   2.789
 2814SOL     OW 9115   2.945   4.708   1.949
 2814SOL    HW1 9116   2.922   4.761   1.867
 2814SOL    HW2 9117   3.026   4.652   1.930
 2815SOL     OW 9118   1.941   4.964   2.515
 2815SOL    HW1 9119   1.940   4.917   2.603
 2815SOL    HW2 9120   2.023   4.936   2.464
 2816SOL     OW 9121   3.686   3.916   3.089
 2816SOL    HW1 9122   3.682   3.826   3.133
 2816SOL    HW2 9123   3.689   3.905   2.990
 2817SOL     OW 9124   2.290   4.148   2.382
 2817SOL    HW1 9125   2.320   4.076   2.320
 2817SOL    HW2 9126   2.251   4.108   2.465
 2818SOL     OW 9127   2.179   4.271   3.142
 2818SOL    HW1 9128   2.217   4.212   3.214
 2818SOL    HW2 9129   2.219   4.245   3.054
 2819SOL     OW 9130   3.286   3.938   2.974
 2819SOL    HW1 9131   3.338   3.873   3.029
 2819SOL    HW2 9132   3.237   4.001   3.035
 2820SOL     OW 9133   2.863   3.758   3.016
 2820SOL    HW1 9134   2.800   3.686   2.985
 2820SOL    HW2 9135   2.956   3.722   3.016
 2821SOL     OW 9136   2.632   5.054   2.163
 2821SOL    HW1 9137   2.586   4.967   2.180
 2821SOL    HW2 9138   2.723   5.051   2.204
 2822SOL     OW 9139   3.214   3.776   2.030
 2822SOL    HW1 9140   3.249   3.735   1.946
 2822SOL    HW2 9141   3.124   3.738   2.050
 2823SOL     OW 9142   3.162   4.177   2.553
 2823SOL    HW1 9143   3.103   4.257   2.557
 2823SOL    HW2 9144   3.177   4.142   2.646
 2824SOL     OW 9145   3.455   3.945   2.744
 2824SOL    HW1 9146   3.371   3.944   2.798
 2824SOL    HW2 9147   3.457   4.028   2.688
 2825SOL     OW 9148   1.901   4.801   2.162
 2825SOL    HW1 9149   2.000   4.790   2.153
 2825SOL    HW2 9150   1.861   4.715   2.194
 2826SOL     OW 9151   2.092   4.352   3.837
 2826SOL    HW1 9152   1.999   4.350   3.874
 2826SOL    HW2 9153   2.093   4.313   3.745
 2827SOL     OW 9154   2.087   3.999   4.720
 2827SOL    HW1 9155   2.122   3.982   4.812
 2827SOL    HW2 9156   1.999   3.954   4.708
 2828SOL     OW 9157   1.881   4.092   4.371
 2828SOL    HW1 9158   1.799   4.135   4.410
 2828SOL    HW2 9159   1.853   4.019   4.308
 2829SOL     OW 9160   2.431   4.999   4.889
 2829SOL    HW1 9161   2.338   4.992   4.852
 2829SOL    HW2 9162   2.442   5.088   4.933
 2830SOL     OW 9163   3.417   5.235   4.427
 2830SOL    HW1 9164   3.360   5.219   4.508
 2830SOL    HW2 9165   3.358   5.245   4.347
 2831SOL     OW 9166   2.997   4.427   4.441
 2831SOL    HW1 9167   3.054   4.505   4.416
 2831SOL    HW2 9168   2.937   4.453   4.517
 2832SOL     OW 9169   3.617   4.331   3.955
 2832SOL    HW1 9170   3.605   4.318   3.856
 2832SOL    HW2 9171   3.587   4.250   4.004
 2833SOL     OW 9172   2.630   4.868   4.747
 2833SOL    HW1 9173   2.552   4.885   4.807
 2833SOL    HW2 9174   2.664   4.955   4.711
 2834SOL     OW 9175   2.547   4.736   4.389
 2834SOL    HW1 9176   2.616   4.720   4.459
 2834SOL    HW2 9177   2.474   4.793   4.427
 2835SOL     OW 9178   2.197   5.159   4.785
 2835SOL    HW1 9179   2.119   5.128   4.732
 2835SOL    HW2 9180   2.255   5.217   4.728
 2836SOL     OW 9181   3.465   4.171   4.461
 2836SOL    HW1 9182   3.391   4.217   4.411
 2836SOL    HW2 9183   3.516   4.239   4.514
 2837SOL     OW 9184   2.102   4.815   4.610
 2837SOL    HW1 9185   2.116   4.731   4.662
 2837SOL    HW2 9186   2.047   4.879   4.665
 2838SOL     OW 9187   2.468   4.688   3.847
 2838SOL    HW1 9188   2.475   4.772   3.793
 2838SOL    HW2 9189   2.514   4.701   3.935
 2839SOL     OW 9190   1.984   4.367   4.287
 2839SOL    HW1 9191   1.939   4.279   4.304
 2839SOL    HW2 9192   1.983   4.421   4.371
 2840SOL     OW 9193   3.551   4.646   4.336
 2840SOL    HW1 9194   3.646   4.617   4.344
 2840SOL    HW2 9195   3.543   4.711   4.261
 2841SOL     OW 9196   3.503   4.832   4.156
 2841SOL    HW1 9197   3.589   4.834   4.104
 2841SOL    HW2 9198   3.517   4.879   4.244
 2842SOL     OW 9199   2.671   3.728   4.226
 2842SOL    HW1 9200   2.711   3.819   4.217
 2842SOL    HW2 9201   2.571   3.736   4.232
 2843SOL     OW 9202   2.059   4.700   4.988
 2843SOL    HW1 9203   2.148   4.655   4.974
 2843SOL    HW2 9204   1.986   4.635   4.969
 2844SOL     OW 9205   3.387   4.723   3.914
 2844SOL    HW1 9206   3.324   4.647   3.927
 2844SOL    HW2 9207   3.435   4.741   4.000
 2845SOL     OW 9208   3.328   5.141   4.677
 2845SOL    HW1 9209   3.269   5.147   4.757
 2845SOL    HW2 9210   3.313   5.053   4.631
 2846SOL     OW 9211   2.460   4.453   3.994
 2846SOL    HW1 9212   2.484   4.522   3.926
 2846SOL    HW2 9213   2.382   4.486   4.048
 2847SOL     OW 9214   3.143   4.069   4.668
 2847SOL    HW1 9215   3.057   4.019   4.655
 2847SOL    HW2 9216   3.205   4.015   4.724
 2848SOL     OW 9217   2.853   4.134   4.966
 2848SOL    HW1 9218   2.776   4.168   5.020
 2848SOL    HW2 9219   2.819   4.083   4.887
 2849SOL     OW 9220   2.903   4.425   4.153
 2849SOL    HW1 9221   2.929   4.421   4.249
 2849SOL    HW2 9222   2.818   4.374   4.139
 2850SOL     OW 9223   1.938   4.535   4.513
 2850SOL    HW1 9224   2.037   4.523   4.522
 2850SOL    HW2 9225   1.914   4.630   4.534
 2851SOL     OW 9226   2.727   4.072   3.919
 2851SOL    HW1 9227   2.786   4.135   3.870
 2851SOL    HW2 9228   2.746   3.978   3.890
 2852SOL     OW 9229   3.224   4.868   4.269
 2852SOL    HW1 9230   3.307   4.839   4.221
 2852SOL    HW2 9231   3.175   4.935   4.213
 2853SOL     OW 9232   2.412   3.920   4.609
 2853SOL    HW1 9233   2.407   3.915   4.709
 2853SOL    HW2 9234   2.414   4.016   4.580
 2854SOL     OW 9235   3.657   4.790   4.597
 2854SOL    HW1 9236   3.595   4.775   4.521
 2854SOL    HW2 9237   3.605   4.801   4.682
 2855SOL     OW 9238   2.183   4.667   3.966
 2855SOL    HW1 9239   2.265   4.706   3.924
 2855SOL    HW2 9240   2.156   4.585   3.917
 2856SOL     OW 9241   3.320   4.459   4.452
 2856SOL    HW1 9242   3.315   4.394   4.527
 2856SOL    HW2 9243   3.400   4.518   4.465
 2857SOL     OW 9244   3.494   5.101   3.805
 2857SOL    HW1 9245   3.462   5.195   3.795
 2857SOL    HW2 9246   3.418   5.038   3.793
 2858SOL     OW 9247   3.262   3.831   4.150
 2858SOL    HW1 9248   3.238   3.794   4.060
 2858SOL    HW2 9249   3.361   3.847   4.154
 2859SOL     OW 9250   2.244   4.424   4.204
 2859SOL    HW1 9251   2.289   4.334   4.201
 2859SOL    HW2 9252   2.150   4.413   4.237
 2860SOL     OW 9253   2.476   3.846   3.841
 2860SOL    HW1 9254   2.574   3.824   3.848
 2860SOL    HW2 9255   2.445   3.829   3.748
 2861SOL     OW 9256   2.665   5.126   4.648
 2861SOL    HW1 9257   2.755   5.140   4.606
 2861SOL    HW2 9258   2.594   5.128   4.577
 2862SOL     OW 9259   2.784   4.227   4.623
 2862SOL    HW1 9260   2.759   4.218   4.527
 2862SOL    HW2 9261   2.832   4.145   4.654
 2863SOL     OW 9262   2.401   3.788   4.236
 2863SOL    HW1 9263   2.320   3.789   4.294
 2863SOL    HW2 9264   2.404   3.871   4.181
 2864SOL     OW 9265   3.296   4.912   3.765
 2864SOL    HW1 9266   3.328   4.836   3.822
 2864SOL    HW2 9267   3.204   4.939   3.795
 2865SOL     OW 9268   2.159   3.759   3.895
 2865SOL    HW1 9269   2.208   3.843   3.874
 2865SOL    HW2 9270   2.221   3.694   3.940
 2866SOL     OW 9271   2.797   3.960   4.204
 2866SOL    HW1 9272   2.749   4.001   4.126
 2866SOL    HW2 9273   2.896   3.958   4.185
 2867SOL     OW 9274   3.089   5.294   4.517
 2867SOL    HW1 9275   3.110   5.368   4.452
 2867SOL    HW2 9276   3.157   5.294   4.590
 2868SOL     OW 9277   2.321   4.876   4.465
 2868SOL    HW1 9278   2.250   4.849   4.530
 2868SOL    HW2 9279   2.295   4.848   4.372
 2869SOL     OW 9280   2.894   4.273   3.740
 2869SOL    HW1 9281   2.853   4.355   3.701
 2869SOL    HW2 9282   2.958   4.299   3.813
 2870SOL     OW 9283   2.423   3.946   4.871
 2870SOL    HW1 9284   2.461   3.862   4.908
 2870SOL    HW2 9285   2.335   3.965   4.915
 2871SOL     OW 9286   2.728   4.178   4.366
 2871SOL    HW1 9287   2.696   4.250   4.304
 2871SOL    HW2 9288   2.752   4.097   4.313
 2872SOL     OW 9289   2.879   3.763   4.477
 2872SOL    HW1 9290   2.807   3.768   4.408
 2872SOL    HW2 9291   2.855   3.694   4.546
 2873SOL     OW 9292   3.291   4.897   4.591
 2873SOL    HW1 9293   3.236   4.813   4.584
 2873SOL    HW2 9294   3.317   4.926   4.499
 2874SOL     OW 9295   3.328   4.314   4.716
 2874SOL    HW1 9296   3.298   4.219   4.723
 2874SOL    HW2 9297   3.401   4.330   4.782
 2875SOL     OW 9298   3.719   4.557   4.101
 2875SOL    HW1 9299   3.761   4.493   4.165
 2875SOL    HW2 9300   3.681   4.506   4.023
 2876SOL     OW 9301   3.526   5.004   4.381
 2876SOL    HW1 9302   3.625   5.012   4.395
 2876SOL    HW2 9303   3.481   5.088   4.412
 2877SOL     OW 9304   3.252   4.299   3.802
 2877SOL    HW1 9305   3.198   4.278   3.883
 2877SOL    HW2 9306   3.343   4.258   3.811
 2878SOL     OW 9307   2.389   3.980   4.052
 2878SOL    HW1 9308   2.416   3.921   3.977
 2878SOL    HW2 9309   2.389   4.075   4.021
 2879SOL     OW 9310   3.500   4.823   4.803
 2879SOL    HW1 9311   3.505   4.904   4.862
 2879SOL    HW2 9312   3.414   4.825   4.752
 2880SOL     OW 9313   2.567   4.774   4.092
 2880SOL    HW1 9314   2.553   4.781   4.191
 2880SOL    HW2 9315   2.651   4.723   4.074
 2881SOL     OW 9316   2.272   4.537   4.975
 2881SOL    HW1 9317   2.358   4.549   5.025
 2881SOL    HW2 9318   2.230   4.450   5.002
 2882SOL     OW 9319   3.136   4.110   4.986
 2882SOL    HW1 9320   3.157   4.184   5.050
 2882SOL    HW2 9321   3.047   4.127   4.943
 2883SOL     OW 9322   2.229   4.824   4.225
 2883SOL    HW1 9323   2.222   4.907   4.169
 2883SOL    HW2 9324   2.233   4.744   4.165
 2884SOL     OW 9325   2.428   4.261   4.589
 2884SOL    HW1 9326   2.440   4.327   4.515
 2884SOL    HW2 9327   2.474   4.295   4.672
 2885SOL     OW 9328   3.444   4.363   4.196
 2885SOL    HW1 9329   3.413   4.424   4.269
 2885SOL    HW2 9330   3.494   4.415   4.127
 2886SOL     OW 9331   2.435   4.594   4.753
 2886SOL    HW1 9332   2.479   4.683   4.744
 2886SOL    HW2 9333   2.372   4.594   4.830
 2887SOL     OW 9334   3.222   4.586   4.769
 2887SOL    HW1 9335   3.147   4.586   4.703
 2887SOL    HW2 9336   3.259   4.494   4.778
 2888SOL     OW 9337   3.071   4.249   3.999
 2888SOL    HW1 9338   3.084   4.165   4.053
 2888SOL    HW2 9339   3.042   4.323   4.059
 2889SOL     OW 9340   2.169   3.937   4.955
 2889SOL    HW1 9341   2.146   3.974   5.045
 2889SOL    HW2 9342   2.139   3.842   4.949
 2890SOL     OW 9343   2.594   4.358   4.788
 2890SOL    HW1 9344   2.653   4.332   4.712
 2890SOL    HW2 9345   2.566   4.454   4.777
 2891SOL     OW 9346   2.169   3.787   4.342
 2891SOL    HW1 9347   2.158   3.881   4.375
 2891SOL    HW2 9348   2.164   3.724   4.419
 2892SOL     OW 9349   3.484   4.091   4.098
 2892SOL    HW1 9350   3.486   4.015   4.162
 2892SOL    HW2 9351   3.436   4.168   4.138
 2893SOL     OW 9352   2.885   4.490   4.690
 2893SOL    HW1 9353   2.900   4.511   4.786
 2893SOL    HW2 9354   2.855   4.395   4.681
 2894SOL     OW 9355   3.402   3.998   3.849
 2894SOL    HW1 9356   3.341   3.923   3.872
 2894SOL    HW2 9357   3.424   4.050   3.932
 2895SOL     OW 9358   3.165   4.562   3.766
 2895SOL    HW1 9359   3.199   4.469   3.781
 2895SOL    HW2 9360   3.183   4.589   3.671
 2896SOL     OW 9361   2.181   4.534   4.673
 2896SOL    HW1 9362   2.274   4.570   4.678
 2896SOL    HW2 9363   2.175   4.449   4.725
 2897SOL     OW 9364   2.201   4.233   4.730
 2897SOL    HW1 9365   2.149   4.150   4.713
 2897SOL    HW2 9366   2.278   4.238   4.666
 2898SOL     OW 9367   3.022   3.931   5.201
 2898SOL    HW1 9368   3.022   3.995   5.278
 2898SOL    HW2 9369   3.050   3.979   5.118
 2899SOL     OW 9370   1.870   5.050   3.924
 2899SOL    HW1 9371   1.777   5.071   3.893
 2899SOL    HW2 9372   1.880   4.951   3.937
 2900SOL     OW 9373   2.864   4.520   4.962
 2900SOL    HW1 9374   2.905   4.488   5.048
 2900SOL    HW2 9375   2.768   4.493   4.959
 2901SOL     OW 9376   1.902   4.268   4.838
 2901SOL    HW1 9377   1.987   4.235   4.797
 2901SOL    HW2 9378   1.915   4.283   4.936
 2902SOL     OW 9379   2.677   4.296   4.049
 2902SOL    HW1 9380   2.684   4.207   4.003
 2902SOL    HW2 9381   2.583   4.330   4.041
 2903SOL     OW 9382   3.519   4.328   4.930
 2903SOL    HW1 9383   3.481   4.259   4.992
 2903SOL    HW2 9384   3.601   4.292   4.886
 2904SOL     OW 9385   2.533   4.188   4.993
 2904SOL    HW1 9386   2.499   4.099   4.963
 2904SOL    HW2 9387   2.559   4.242   4.913
 2905SOL     OW 9388   2.335   4.224   3.915
 2905SOL    HW1 9389   2.396   4.304   3.919
 2905SOL    HW2 9390   2.240   4.255   3.922
 2906SOL     OW 9391   3.209   4.783   4.958
 2906SOL    HW1 9392   3.233   4.720   4.884
 2906SOL    HW2 9393   3.119   4.823   4.940
 2907SOL     OW 9394   3.164   4.579   4.033
 2907SOL    HW1 9395   3.078   4.548   4.075
 2907SOL    HW2 9396   3.160   4.565   3.934
 2908SOL     OW 9397   1.945   4.982   4.746
 2908SOL    HW1 9398   1.940   4.981   4.846
 2908SOL    HW2 9399   1.862   4.941   4.708
 2909SOL     OW 9400   3.588   3.859   4.247
 2909SOL    HW1 9401   3.661   3.842   4.180
 2909SOL    HW2 9402   3.557   3.772   4.285
 2910SOL     OW 9403   3.142   4.651   4.396
 2910SOL    HW1 9404   3.202   4.570   4.398
 2910SOL    HW2 9405   3.182   4.720   4.336
 2911SOL     OW 9406   2.692   4.997   5.146
 2911SOL    HW1 9407   2.687   5.030   5.241
 2911SOL    HW2 9408   2.606   5.016   5.100
 2912SOL     OW 9409   3.703   3.899   4.687
 2912SOL    HW1 9410   3.742   3.814   4.651
 2912SOL    HW2 9411   3.605   3.901   4.668
 2913SOL     OW 9412   2.125   4.050   4.444
 2913SOL    HW1 9413   2.046   4.101   4.410
 2913SOL    HW2 9414   2.116   4.035   4.542
 2914SOL     OW 9415   3.056   5.336   3.755
 2914SOL    HW1 9416   3.062   5.243   3.792
 2914SOL    HW2 9417   2.997   5.336   3.675
 2915SOL     OW 9418   2.684   4.726   5.096
 2915SOL    HW1 9419   2.724   4.725   5.004
 2915SOL    HW2 9420   2.694   4.818   5.136
 2916SOL     OW 9421   2.778   4.634   4.015
 2916SOL    HW1 9422   2.841   4.672   3.947
 2916SOL    HW2 9423   2.818   4.551   4.054
 2917SOL     OW 9424   2.901   4.822   4.420
 2917SOL    HW1 9425   2.831   4.775   4.474
 2917SOL    HW2 9426   2.960   4.754   4.377
 2918SOL     OW 9427   2.876   3.960   4.695
 2918SOL    HW1 9428   2.868   3.924   4.602
 2918SOL    HW2 9429   2.874   3.884   4.760
 2919SOL     OW 9430   3.571   4.109   5.105
 2919SOL    HW1 9431   3.644   4.178   5.109
 2919SOL    HW2 9432   3.599   4.034   5.046
 2920SOL     OW 9433   1.934   3.890   4.042
 2920SOL    HW1 9434   1.917   3.973   3.988
 2920SOL    HW2 9435   2.024   3.853   4.020
 2921SOL     OW 9436   3.536   4.607   4.978
 2921SOL    HW1 9437   3.509   4.518   4.941
 2921SOL    HW2 9438   3.537   4.675   4.905
 2922SOL     OW 9439   3.087   4.049   4.173
 2922SOL    HW1 9440   3.152   3.975   4.162
 2922SOL    HW2 9441   3.107   4.099   4.257
 2923SOL     OW 9442   2.456   4.469   4.376
 2923SOL    HW1 9443   2.506   4.554   4.357
 2923SOL    HW2 9444   2.368   4.471   4.328
 2924SOL     OW 9445   3.592   4.658   5.241
 2924SOL    HW1 9446   3.630   4.749   5.256
 2924SOL    HW2 9447   3.584   4.641   5.142
 2925SOL     OW 9448   2.721   4.680   4.585
 2925SOL    HW1 9449   2.775   4.611   4.633
 2925SOL    HW2 9450   2.689   4.749   4.651
 2926SOL     OW 9451   2.945   4.708   3.811
 2926SOL    HW1 9452   2.922   4.761   3.729
 2926SOL    HW2 9453   3.026   4.652   3.792
 2927SOL     OW 9454   1.941   4.964   4.377
 2927SOL    HW1 9455   1.940   4.917   4.465
 2927SOL    HW2 9456   2.023   4.936   4.326
 2928SOL     OW 9457   3.686   3.916   4.951
 2928SOL    HW1 9458   3.682   3.826   4.995
 2928SOL    HW2 9459   3.689   3.905   4.852
 2929SOL     OW 9460   2.290   4.148   4.244
 2929SOL    HW1 9461   2.320   4.076   4.182
 2929SOL    HW2 9462   2.251   4.108   4.327
 2930SOL     OW 9463   3.286   3.938   4.836
 2930SOL    HW1 9464   3.338   3.873   4.891
 2930SOL    HW2 9465   3.237   4.001   4.897
 2931SOL     OW 9466   2.863   3.758   4.878
 2931SOL    HW1 9467   2.800   3.686   4.847
 2931SOL    HW2 9468   2.956   3.722   4.878
 2932SOL     OW 9469   2.632   5.054   4.025
 2932SOL    HW1 9470   2.586   4.967   4.042
 2932SOL    HW2 9471   2.723   5.051   4.066
 2933SOL     OW 9472   3.214   3.776   3.892
 2933SOL    HW1 9473   3.249   3.735   3.808
 2933SOL    HW2 9474   3.124   3.738   3.912
 2934SOL     OW 9475   3.162   4.177   4.415
 2934SOL    HW1 9476   3.103   4.257   4.419
 2934SOL    HW2 9477   3.177   4.142   4.508
 2935SOL     OW 9478   3.455   3.945   4.606
 2935SOL    HW1 9479   3.371   3.944   4.660
 2935SOL    HW2 9480   3.457   4.028   4.550
 2936SOL     OW 9481   1.901   4.801   4.024
 2936SOL    HW1 9482   2.000   4.790   4.015
 2936SOL    HW2 9483   1.861   4.715   4.056
 2937SOL     OW 9484   3.954   0.628   0.113
 2937SOL    HW1 9485   3.861   0.626   0.150
 2937SOL    HW2 9486   3.955   0.589   0.021
 2938SOL     OW 9487   3.949   0.275   0.996
 2938SOL    HW1 9488   3.984   0.258   1.088
 2938SOL    HW2 9489   3.861   0.230   0.984
 2939SOL     OW 9490   4.293   1.275   1.165
 2939SOL    HW1 9491   4.200   1.268   1.128
 2939SOL    HW2 9492   4.304   1.364   1.209
 2940SOL     OW 9493   4.859   0.703   0.717
 2940SOL    HW1 9494   4.916   0.781   0.692
 2940SOL    HW2 9495   4.799   0.729   0.793
 2941SOL     OW 9496   4.492   1.144   1.023
 2941SOL    HW1 9497   4.414   1.161   1.083
 2941SOL    HW2 9498   4.526   1.231   0.987
 2942SOL     OW 9499   4.574   0.798   1.823
 2942SOL    HW1 9500   4.570   0.874   1.888
 2942SOL    HW2 9501   4.596   0.834   1.732
 2943SOL     OW 9502   4.409   1.012   0.665
 2943SOL    HW1 9503   4.478   0.996   0.735
 2943SOL    HW2 9504   4.336   1.069   0.703
 2944SOL     OW 9505   4.410   1.161   1.803
 2944SOL    HW1 9506   4.470   1.240   1.817
 2944SOL    HW2 9507   4.324   1.192   1.762
 2945SOL     OW 9508   4.059   1.435   1.061
 2945SOL    HW1 9509   3.981   1.404   1.008
 2945SOL    HW2 9510   4.117   1.493   1.004
 2946SOL     OW 9511   4.162   0.392   1.499
 2946SOL    HW1 9512   4.244   0.336   1.508
 2946SOL    HW2 9513   4.081   0.334   1.503
 2947SOL     OW 9514   3.955   1.713   0.483
 2947SOL    HW1 9515   3.989   1.790   0.537
 2947SOL    HW2 9516   3.999   1.713   0.393
 2948SOL     OW 9517   4.851   1.341   1.690
 2948SOL    HW1 9518   4.898   1.341   1.778
 2948SOL    HW2 9519   4.803   1.254   1.679
 2949SOL     OW 9520   3.954   1.434   0.538
 2949SOL    HW1 9521   3.928   1.530   0.538
 2949SOL    HW2 9522   3.883   1.380   0.583
 2950SOL     OW 9523   3.964   1.091   0.886
 2950SOL    HW1 9524   3.978   1.007   0.938
 2950SOL    HW2 9525   3.909   1.155   0.941
 2951SOL     OW 9526   4.344   1.786   1.439
 2951SOL    HW1 9527   4.252   1.769   1.474
 2951SOL    HW2 9528   4.372   1.878   1.465
 2952SOL     OW 9529   4.330   0.964   0.123
 2952SOL    HW1 9530   4.337   1.048   0.069
 2952SOL    HW2 9531   4.376   0.977   0.211
 2953SOL     OW 9532   3.846   0.643   0.563
 2953SOL    HW1 9533   3.801   0.555   0.580
 2953SOL    HW2 9534   3.845   0.697   0.647
 2954SOL     OW 9535   3.751   1.596   0.117
 2954SOL    HW1 9536   3.732   1.500   0.138
 2954SOL    HW2 9537   3.718   1.654   0.192
 2955SOL     OW 9538   3.837   0.737   1.597
 2955SOL    HW1 9539   3.925   0.724   1.642
 2955SOL    HW2 9540   3.824   0.834   1.575
 2956SOL     OW 9541   5.017   1.228   1.423
 2956SOL    HW1 9542   5.054   1.155   1.365
 2956SOL    HW2 9543   5.069   1.233   1.508
 2957SOL     OW 9544   4.533   0.004   0.502
 2957SOL    HW1 9545   4.573   0.095   0.493
 2957SOL    HW2 9546   4.433   0.012   0.508
 2958SOL     OW 9547   3.921   0.976   1.264
 2958SOL    HW1 9548   4.010   0.931   1.250
 2958SOL    HW2 9549   3.848   0.911   1.245
 2959SOL     OW 9550   4.911   1.792   1.616
 2959SOL    HW1 9551   4.935   1.852   1.540
 2959SOL    HW2 9552   4.918   1.697   1.586
 2960SOL     OW 9553   4.041   0.251   1.801
 2960SOL    HW1 9554   4.112   0.322   1.807
 2960SOL    HW2 9555   3.953   0.290   1.829
 2961SOL     OW 9556   5.005   0.345   0.944
 2961SOL    HW1 9557   4.919   0.295   0.931
 2961SOL    HW2 9558   5.067   0.291   1.000
 2962SOL     OW 9559   4.531   0.605   1.465
 2962SOL    HW1 9560   4.484   0.602   1.554
 2962SOL    HW2 9561   4.480   0.550   1.399
 2963SOL     OW 9562   4.697   0.890   1.572
 2963SOL    HW1 9563   4.743   0.806   1.543
 2963SOL    HW2 9564   4.641   0.924   1.497
 2964SOL     OW 9565   3.800   0.811   0.789
 2964SOL    HW1 9566   3.899   0.799   0.798
 2964SOL    HW2 9567   3.776   0.906   0.810
 2965SOL     OW 9568   3.854   1.821   1.571
 2965SOL    HW1 9569   3.844   1.806   1.670
 2965SOL    HW2 9570   3.768   1.857   1.535
 2966SOL     OW 9571   4.589   0.348   0.195
 2966SOL    HW1 9572   4.648   0.411   0.146
 2966SOL    HW2 9573   4.608   0.254   0.166
 2967SOL     OW 9574   4.274   0.196   0.885
 2967SOL    HW1 9575   4.269   0.191   0.985
 2967SOL    HW2 9576   4.276   0.292   0.856
 2968SOL     OW 9577   4.075   1.801   0.853
 2968SOL    HW1 9578   4.125   1.715   0.859
 2968SOL    HW2 9579   4.140   1.878   0.850
 2969SOL     OW 9580   4.951   1.550   1.506
 2969SOL    HW1 9581   4.957   1.473   1.570
 2969SOL    HW2 9582   4.899   1.524   1.426
 2970SOL     OW 9583   4.045   0.943   0.242
 2970SOL    HW1 9584   4.127   0.982   0.200
 2970SOL    HW2 9585   4.018   0.861   0.193
 2971SOL     OW 9586   4.185   1.266   1.727
 2971SOL    HW1 9587   4.135   1.267   1.641
 2971SOL    HW2 9588   4.122   1.248   1.803
 2972SOL     OW 9589   4.835   1.776   0.237
 2972SOL    HW1 9590   4.775   1.714   0.287
 2972SOL    HW2 9591   4.866   1.732   0.152
 2973SOL     OW 9592   3.926   0.285   1.498
 2973SOL    HW1 9593   3.846   0.345   1.485
 2973SOL    HW2 9594   3.916   0.236   1.584
 2974SOL     OW 9595   5.356   1.377   0.081
 2974SOL    HW1 9596   5.324   1.471   0.071
 2974SOL    HW2 9597   5.280   1.314   0.069
 2975SOL     OW 9598   4.188   1.743   0.323
 2975SOL    HW1 9599   4.221   1.782   0.409
 2975SOL    HW2 9600   4.264   1.736   0.258
 2976SOL     OW 9601   3.973   1.785   1.241
 2976SOL    HW1 9602   4.030   1.720   1.291
 2976SOL    HW2 9603   3.957   1.752   1.148
 2977SOL     OW 9604   4.664   1.698   0.904
 2977SOL    HW1 9605   4.744   1.641   0.925
 2977SOL    HW2 9606   4.615   1.658   0.827
 2978SOL     OW 9607   4.106   0.700   0.480
 2978SOL    HW1 9608   4.151   0.610   0.477
 2978SOL    HW2 9609   4.012   0.689   0.513
 2979SOL     OW 9610   4.338   0.122   0.117
 2979SOL    HW1 9611   4.436   0.100   0.124
 2979SOL    HW2 9612   4.307   0.105   0.024
 2980SOL     OW 9613   4.505   0.264   1.749
 2980SOL    HW1 9614   4.572   0.203   1.792
 2980SOL    HW2 9615   4.432   0.283   1.814
 2981SOL     OW 9616   4.612   1.514   1.195
 2981SOL    HW1 9617   4.589   1.489   1.101
 2981SOL    HW2 9618   4.673   1.445   1.234
 2982SOL     OW 9619   4.527   1.402   0.924
 2982SOL    HW1 9620   4.617   1.416   0.882
 2982SOL    HW2 9621   4.456   1.404   0.853
 2983SOL     OW 9622   4.646   0.503   0.899
 2983SOL    HW1 9623   4.621   0.494   0.803
 2983SOL    HW2 9624   4.694   0.421   0.930
 2984SOL     OW 9625   4.263   0.064   0.512
 2984SOL    HW1 9626   4.182   0.065   0.570
 2984SOL    HW2 9627   4.266   0.147   0.457
 2985SOL     OW 9628   4.021   0.035   0.171
 2985SOL    HW1 9629   4.070   0.119   0.150
 2985SOL    HW2 9630   4.083  -0.030   0.216
 2986SOL     OW 9631   4.659   0.236   0.480
 2986SOL    HW1 9632   4.611   0.277   0.402
 2986SOL    HW2 9633   4.758   0.234   0.461
 2987SOL     OW 9634   4.951   1.570   0.793
 2987SOL    HW1 9635   4.972   1.644   0.728
 2987SOL    HW2 9636   5.019   1.570   0.866
 2988SOL     OW 9637   4.183   1.152   0.741
 2988SOL    HW1 9638   4.112   1.125   0.806
 2988SOL    HW2 9639   4.157   1.124   0.648
 2989SOL     OW 9640   4.995   1.797   0.591
 2989SOL    HW1 9641   5.039   1.861   0.527
 2989SOL    HW2 9642   4.945   1.849   0.661
 2990SOL     OW 9643   3.802   0.556   1.386
 2990SOL    HW1 9644   3.894   0.555   1.345
 2990SOL    HW2 9645   3.796   0.630   1.453
 2991SOL     OW 9646   4.285   0.222   1.147
 2991SOL    HW1 9647   4.323   0.138   1.184
 2991SOL    HW2 9648   4.197   0.241   1.191
 2992SOL     OW 9649   4.590   0.454   0.642
 2992SOL    HW1 9650   4.558   0.526   0.580
 2992SOL    HW2 9651   4.614   0.373   0.589
 2993SOL     OW 9652   4.741   0.039   0.753
 2993SOL    HW1 9653   4.669   0.044   0.684
 2993SOL    HW2 9654   4.717  -0.030   0.822
 2994SOL     OW 9655   4.212   1.385   0.174
 2994SOL    HW1 9656   4.125   1.370   0.221
 2994SOL    HW2 9657   4.195   1.411   0.079
 2995SOL     OW 9658   5.388   1.280   0.657
 2995SOL    HW1 9659   5.487   1.288   0.671
 2995SOL    HW2 9660   5.343   1.364   0.688
 2996SOL     OW 9661   4.251   0.256   0.328
 2996SOL    HW1 9662   4.278   0.197   0.253
 2996SOL    HW2 9663   4.251   0.351   0.297
 2997SOL     OW 9664   4.788   1.347   1.340
 2997SOL    HW1 9665   4.708   1.324   1.395
 2997SOL    HW2 9666   4.871   1.321   1.389
 2998SOL     OW 9667   4.835   1.195   1.100
 2998SOL    HW1 9668   4.795   1.239   1.181
 2998SOL    HW2 9669   4.794   1.232   1.017
 2999SOL     OW 9670   4.639   0.089   1.402
 2999SOL    HW1 9671   4.664   0.069   1.307
 2999SOL    HW2 9672   4.711   0.145   1.444
 3000SOL     OW 9673   4.704   1.116   1.719
 3000SOL    HW1 9674   4.605   1.122   1.729
 3000SOL    HW2 9675   4.727   1.036   1.663
 3001SOL     OW 9676   4.134   0.813   1.251
 3001SOL    HW1 9677   4.220   0.825   1.301
 3001SOL    HW2 9678   4.092   0.726   1.278
 3002SOL     OW 9679   3.788   1.564   1.331
 3002SOL    HW1 9680   3.742   1.646   1.297
 3002SOL    HW2 9681   3.886   1.583   1.340
 3003SOL     OW 9682   4.091   1.100   0.501
 3003SOL    HW1 9683   4.084   1.183   0.445
 3003SOL    HW2 9684   4.095   1.020   0.441
 3004SOL     OW 9685   4.290   0.537   0.865
 3004SOL    HW1 9686   4.302   0.603   0.791
 3004SOL    HW2 9687   4.336   0.571   0.948
 3005SOL     OW 9688   4.078   1.510   1.329
 3005SOL    HW1 9689   4.057   1.466   1.242
 3005SOL    HW2 9690   4.175   1.536   1.332
 3006SOL     OW 9691   4.126   0.751   1.598
 3006SOL    HW1 9692   4.194   0.806   1.551
 3006SOL    HW2 9693   4.166   0.663   1.625
 3007SOL     OW 9694   4.737   0.105   1.770
 3007SOL    HW1 9695   4.743   0.190   1.718
 3007SOL    HW2 9696   4.769   0.029   1.713
 3008SOL     OW 9697   4.228   0.050   1.740
 3008SOL    HW1 9698   4.186  -0.007   1.670
 3008SOL    HW2 9699   4.162   0.119   1.772
 3009SOL     OW 9700   4.297   0.870   1.029
 3009SOL    HW1 9701   4.341   0.959   1.020
 3009SOL    HW2 9702   4.234   0.870   1.106
 3010SOL     OW 9703   5.084   0.862   1.045
 3010SOL    HW1 9704   5.009   0.862   0.979
 3010SOL    HW2 9705   5.121   0.770   1.054
 3011SOL     OW 9706   4.031   0.213   1.231
 3011SOL    HW1 9707   4.008   0.250   1.321
 3011SOL    HW2 9708   4.001   0.118   1.225
 3012SOL     OW 9709   3.761   1.310   1.282
 3012SOL    HW1 9710   3.814   1.261   1.350
 3012SOL    HW2 9711   3.783   1.408   1.287
 3013SOL     OW 9712   4.456   0.634   1.064
 3013SOL    HW1 9713   4.515   0.608   0.988
 3013SOL    HW2 9714   4.428   0.730   1.053
 3014SOL     OW 9715   5.346   0.367   0.374
 3014SOL    HW1 9716   5.348   0.291   0.438
 3014SOL    HW2 9717   5.298   0.444   0.414
 3015SOL     OW 9718   4.747   0.766   0.966
 3015SOL    HW1 9719   4.762   0.787   1.062
 3015SOL    HW2 9720   4.717   0.671   0.957
 3016SOL     OW 9721   4.704   1.573   1.700
 3016SOL    HW1 9722   4.684   1.617   1.612
 3016SOL    HW2 9723   4.743   1.482   1.684
 3017SOL     OW 9724   4.074   0.898   1.804
 3017SOL    HW1 9725   4.150   0.942   1.852
 3017SOL    HW2 9726   4.109   0.851   1.722
 3018SOL     OW 9727   5.027   0.838   0.042
 3018SOL    HW1 9728   5.061   0.745   0.057
 3018SOL    HW2 9729   5.045   0.865  -0.053
 3019SOL     OW 9730   4.043   0.810   0.949
 3019SOL    HW1 9731   4.136   0.846   0.954
 3019SOL    HW2 9732   4.037   0.725   1.001
 3020SOL     OW 9733   4.063   0.509   1.006
 3020SOL    HW1 9734   4.011   0.426   0.989
 3020SOL    HW2 9735   4.140   0.514   0.942
 3021SOL     OW 9736   4.862   0.380   1.678
 3021SOL    HW1 9737   4.817   0.443   1.742
 3021SOL    HW2 9738   4.955   0.411   1.661
 3022SOL     OW 9739   3.812   1.801   0.927
 3022SOL    HW1 9740   3.770   1.715   0.900
 3022SOL    HW2 9741   3.906   1.804   0.893
 3023SOL     OW 9742   4.228   1.568   0.910
 3023SOL    HW1 9743   4.294   1.642   0.919
 3023SOL    HW2 9744   4.272   1.489   0.868
 3024SOL     OW 9745   4.726   0.796   1.238
 3024SOL    HW1 9746   4.767   0.764   1.324
 3024SOL    HW2 9747   4.630   0.769   1.235
 3025SOL     OW 9748   3.764   0.544   1.114
 3025SOL    HW1 9749   3.849   0.511   1.073
 3025SOL    HW2 9750   3.777   0.559   1.212
 3026SOL     OW 9751   3.913   0.520   1.722
 3026SOL    HW1 9752   3.972   0.480   1.652
 3026SOL    HW2 9753   3.855   0.591   1.681
 3027SOL     OW 9754   4.539   0.572   0.325
 3027SOL    HW1 9755   4.546   0.483   0.279
 3027SOL    HW2 9756   4.445   0.606   0.317
 3028SOL     OW 9757   3.976   1.564   1.744
 3028SOL    HW1 9758   3.946   1.621   1.820
 3028SOL    HW2 9759   3.969   1.467   1.770
 3029SOL     OW 9760   4.395   0.464   1.269
 3029SOL    HW1 9761   4.361   0.375   1.239
 3029SOL    HW2 9762   4.421   0.518   1.189
 3030SOL     OW 9763   4.654   1.678   1.465
 3030SOL    HW1 9764   4.630   1.660   1.370
 3030SOL    HW2 9765   4.684   1.772   1.475
 3031SOL     OW 9766   4.197   0.500   0.191
 3031SOL    HW1 9767   4.258   0.580   0.195
 3031SOL    HW2 9768   4.102   0.531   0.198
 3032SOL     OW 9769   3.883   1.137   1.466
 3032SOL    HW1 9770   3.905   1.076   1.542
 3032SOL    HW2 9771   3.893   1.088   1.380
 3033SOL     OW 9772   4.976   1.731   1.128
 3033SOL    HW1 9773   5.060   1.736   1.074
 3033SOL    HW2 9774   4.953   1.635   1.146
 3034SOL     OW 9775   3.807   1.258   1.022
 3034SOL    HW1 9776   3.802   1.257   1.122
 3034SOL    HW2 9777   3.724   1.217   0.984
 3035SOL     OW 9778   4.412   1.662   1.716
 3035SOL    HW1 9779   4.356   1.743   1.725
 3035SOL    HW2 9780   4.464   1.666   1.630
 3036SOL     OW 9781   4.627   0.086   0.133
 3036SOL    HW1 9782   4.678   0.087   0.047
 3036SOL    HW2 9783   4.683   0.044   0.204
 3037SOL     OW 9784   5.112   1.573   0.477
 3037SOL    HW1 9785   5.179   1.585   0.403
 3037SOL    HW2 9786   5.072   1.662   0.500
 3038SOL     OW 9787   3.854   1.794   1.851
 3038SOL    HW1 9788   3.813   1.720   1.904
 3038SOL    HW2 9789   3.918   1.845   1.909
 3039SOL     OW 9790   5.004   0.927   0.672
 3039SOL    HW1 9791   5.064   0.846   0.674
 3039SOL    HW2 9792   5.044   0.996   0.612
 3040SOL     OW 9793   4.554   1.273   1.422
 3040SOL    HW1 9794   4.549   1.306   1.517
 3040SOL    HW2 9795   4.468   1.292   1.376
 3041SOL     OW 9796   4.396   1.616   0.154
 3041SOL    HW1 9797   4.405   1.626   0.055
 3041SOL    HW2 9798   4.356   1.527   0.175
 3042SOL     OW 9799   3.987   0.326   0.720
 3042SOL    HW1 9800   3.908   0.377   0.686
 3042SOL    HW2 9801   3.978   0.311   0.818
 3043SOL     OW 9802   4.918   1.612   0.031
 3043SOL    HW1 9803   4.924   1.519   0.068
 3043SOL    HW2 9804   4.859   1.612  -0.049
 3044SOL     OW 9805   4.546   1.002   1.372
 3044SOL    HW1 9806   4.586   1.001   1.280
 3044SOL    HW2 9807   4.556   1.094   1.412
 3045SOL     OW 9808   4.096   1.288   1.490
 3045SOL    HW1 9809   4.083   1.381   1.456
 3045SOL    HW2 9810   4.012   1.236   1.477
 3046SOL     OW 9811   4.763   1.098   0.696
 3046SOL    HW1 9812   4.693   1.051   0.750
 3046SOL    HW2 9813   4.822   1.030   0.653
 3047SOL     OW 9814   4.738   0.236   0.971
 3047SOL    HW1 9815   4.730   0.200   0.878
 3047SOL    HW2 9816   4.736   0.160   1.036
 3048SOL     OW 9817   3.979   1.348   0.290
 3048SOL    HW1 9818   3.883   1.349   0.263
 3048SOL    HW2 9819   3.991   1.401   0.374
 3049SOL     OW 9820   3.829   1.013   1.726
 3049SOL    HW1 9821   3.752   0.980   1.780
 3049SOL    HW2 9822   3.914   0.983   1.768
 3050SOL     OW 9823   4.396   0.203   1.489
 3050SOL    HW1 9824   4.486   0.187   1.449
 3050SOL    HW2 9825   4.404   0.208   1.588
 3051SOL     OW 9826   3.796   0.166   0.318
 3051SOL    HW1 9827   3.779   0.249   0.264
 3051SOL    HW2 9828   3.886   0.129   0.296
 3052SOL     OW 9829   4.337   0.842   1.431
 3052SOL    HW1 9830   4.393   0.923   1.414
 3052SOL    HW2 9831   4.396   0.762   1.434
 3053SOL     OW 9832   4.440   0.565   1.708
 3053SOL    HW1 9833   4.459   0.630   1.782
 3053SOL    HW2 9834   4.500   0.485   1.717
 3054SOL     OW 9835   4.114   1.741   1.560
 3054SOL    HW1 9836   4.023   1.782   1.558
 3054SOL    HW2 9837   4.107   1.647   1.592
 3055SOL     OW 9838   4.949   0.325   0.449
 3055SOL    HW1 9839   5.014   0.251   0.438
 3055SOL    HW2 9840   4.969   0.375   0.533
 3056SOL     OW 9841   4.318   0.745   0.652
 3056SOL    HW1 9842   4.368   0.830   0.633
 3056SOL    HW2 9843   4.230   0.747   0.604
 3057SOL     OW 9844   4.385   1.790   0.953
 3057SOL    HW1 9845   4.339   1.878   0.940
 3057SOL    HW2 9846   4.484   1.802   0.946
 3058SOL     OW 9847   4.583   0.956   0.861
 3058SOL    HW1 9848   4.637   0.887   0.909
 3058SOL    HW2 9849   4.551   1.025   0.927
 3059SOL     OW 9850   4.807   0.984   0.087
 3059SOL    HW1 9851   4.784   1.037   0.005
 3059SOL    HW2 9852   4.888   0.928   0.068
 3060SOL     OW 9853   3.945   1.314   1.844
 3060SOL    HW1 9854   3.880   1.241   1.823
 3060SOL    HW2 9855   3.949   1.328   1.942
 3061SOL     OW 9856   3.803   1.240   0.653
 3061SOL    HW1 9857   3.802   1.193   0.741
 3061SOL    HW2 9858   3.885   1.212   0.602
 3062SOL     OW 9859   4.396   1.391   1.624
 3062SOL    HW1 9860   4.318   1.341   1.662
 3062SOL    HW2 9861   4.393   1.486   1.655
 3063SOL     OW 9862   4.152   0.424   0.520
 3063SOL    HW1 9863   4.182   0.352   0.458
 3063SOL    HW2 9864   4.113   0.384   0.603
 3064SOL     OW 9865   4.041   0.547   1.280
 3064SOL    HW1 9866   4.079   0.488   1.352
 3064SOL    HW2 9867   4.081   0.521   1.192
 3065SOL     OW 9868   4.536   1.586   0.687
 3065SOL    HW1 9869   4.568   1.596   0.593
 3065SOL    HW2 9870   4.457   1.524   0.689
 3066SOL     OW 9871   4.725   0.034   1.154
 3066SOL    HW1 9872   4.662  -0.038   1.123
 3066SOL    HW2 9873   4.818  -0.002   1.154
 3067SOL     OW 9874   4.342   1.567   1.284
 3067SOL    HW1 9875   4.337   1.649   1.341
 3067SOL    HW2 9876   4.431   1.564   1.239
 3068SOL     OW 9877   3.763   1.077   0.300
 3068SOL    HW1 9878   3.862   1.066   0.291
 3068SOL    HW2 9879   3.723   0.991   0.332
 3069SOL     OW 9880   4.599   1.646   0.337
 3069SOL    HW1 9881   4.522   1.611   0.283
 3069SOL    HW2 9882   4.567   1.717   0.399
 3070SOL     OW 9883   3.954   0.628   1.975
 3070SOL    HW1 9884   3.861   0.626   2.012
 3070SOL    HW2 9885   3.955   0.589   1.883
 3071SOL     OW 9886   3.949   0.275   2.858
 3071SOL    HW1 9887   3.984   0.258   2.950
 3071SOL    HW2 9888   3.861   0.230   2.846
 3072SOL     OW 9889   3.743   0.368   2.509
 3072SOL    HW1 9890   3.661   0.411   2.548
 3072SOL    HW2 9891   3.715   0.295   2.446
 3073SOL     OW 9892   4.293   1.275   3.027
 3073SOL    HW1 9893   4.200   1.268   2.990
 3073SOL    HW2 9894   4.304   1.364   3.071
 3074SOL     OW 9895   4.859   0.703   2.579
 3074SOL    HW1 9896   4.916   0.781   2.554
 3074SOL    HW2 9897   4.799   0.729   2.655
 3075SOL     OW 9898   4.492   1.144   2.885
 3075SOL    HW1 9899   4.414   1.161   2.945
 3075SOL    HW2 9900   4.526   1.231   2.849
 3076SOL     OW 9901   4.574   0.798   3.685
 3076SOL    HW1 9902   4.570   0.874   3.750
 3076SOL    HW2 9903   4.596   0.834   3.594
 3077SOL     OW 9904   4.409   1.012   2.527
 3077SOL    HW1 9905   4.478   0.996   2.597
 3077SOL    HW2 9906   4.336   1.069   2.565
 3078SOL     OW 9907   4.410   1.161   3.665
 3078SOL    HW1 9908   4.470   1.240   3.679
 3078SOL    HW2 9909   4.324   1.192   3.624
 3079SOL     OW 9910   4.059   1.435   2.923
 3079SOL    HW1 9911   3.981   1.404   2.870
 3079SOL    HW2 9912   4.117   1.493   2.866
 3080SOL     OW 9913   4.162   0.392   3.361
 3080SOL    HW1 9914   4.244   0.336   3.370
 3080SOL    HW2 9915   4.081   0.334   3.365
 3081SOL     OW 9916   3.955   1.713   2.345
 3081SOL    HW1 9917   3.989   1.790   2.399
 3081SOL    HW2 9918   3.999   1.713   2.255
 3082SOL     OW 9919   4.851   1.341   3.552
 3082SOL    HW1 9920   4.898   1.341   3.640
 3082SOL    HW2 9921   4.803   1.254   3.541
 3083SOL     OW 9922   3.954   1.434   2.400
 3083SOL    HW1 9923   3.928   1.530   2.400
 3083SOL    HW2 9924   3.883   1.380   2.445
 3084SOL     OW 9925   3.964   1.091   2.748
 3084SOL    HW1 9926   3.978   1.007   2.800
 3084SOL    HW2 9927   3.909   1.155   2.803
 3085SOL     OW 9928   4.344   1.786   3.301
 3085SOL    HW1 9929   4.252   1.769   3.336
 3085SOL    HW2 9930   4.372   1.878   3.327
 3086SOL     OW 9931   4.330   0.964   1.985
 3086SOL    HW1 9932   4.337   1.048   1.931
 3086SOL    HW2 9933   4.376   0.977   2.073
 3087SOL     OW 9934   3.846   0.643   2.425
 3087SOL    HW1 9935   3.801   0.555   2.442
 3087SOL    HW2 9936   3.845   0.697   2.509
 3088SOL     OW 9937   3.751   1.596   1.979
 3088SOL    HW1 9938   3.732   1.500   2.000
 3088SOL    HW2 9939   3.718   1.654   2.054
 3089SOL     OW 9940   4.337   1.365   2.588
 3089SOL    HW1 9941   4.288   1.278   2.597
 3089SOL    HW2 9942   4.314   1.408   2.501
 3090SOL     OW 9943   5.017   1.228   3.285
 3090SOL    HW1 9944   5.054   1.155   3.227
 3090SOL    HW2 9945   5.069   1.233   3.370
 3091SOL     OW 9946   4.533   0.004   2.364
 3091SOL    HW1 9947   4.573   0.095   2.355
 3091SOL    HW2 9948   4.433   0.012   2.370
 3092SOL     OW 9949   4.911   1.792   3.478
 3092SOL    HW1 9950   4.935   1.852   3.402
 3092SOL    HW2 9951   4.918   1.697   3.448
 3093SOL     OW 9952   4.041   0.251   3.663
 3093SOL    HW1 9953   4.112   0.322   3.669
 3093SOL    HW2 9954   3.953   0.290   3.691
 3094SOL     OW 9955   4.322   0.729   2.132
 3094SOL    HW1 9956   4.346   0.798   2.064
 3094SOL    HW2 9957   4.244   0.762   2.186
 3095SOL     OW 9958   5.005   0.345   2.806
 3095SOL    HW1 9959   4.919   0.295   2.793
 3095SOL    HW2 9960   5.067   0.291   2.862
 3096SOL     OW 9961   4.531   0.605   3.327
 3096SOL    HW1 9962   4.484   0.602   3.416
 3096SOL    HW2 9963   4.480   0.550   3.261
 3097SOL     OW 9964   4.697   0.890   3.434
 3097SOL    HW1 9965   4.743   0.806   3.405
 3097SOL    HW2 9966   4.641   0.924   3.359
 3098SOL     OW 9967   4.715   0.410   3.104
 3098SOL    HW1 9968   4.638   0.444   3.158
 3098SOL    HW2 9969   4.681   0.359   3.025
 3099SOL     OW 9970   4.765   0.701   2.291
 3099SOL    HW1 9971   4.791   0.697   2.387
 3099SOL    HW2 9972   4.680   0.650   2.277
 3100SOL     OW 9973   3.800   0.811   2.651
 3100SOL    HW1 9974   3.899   0.799   2.660
 3100SOL    HW2 9975   3.776   0.906   2.672
 3101SOL     OW 9976   3.854   1.821   3.433
 3101SOL    HW1 9977   3.844   1.806   3.532
 3101SOL    HW2 9978   3.768   1.857   3.397
 3102SOL     OW 9979   4.589   0.348   2.057
 3102SOL    HW1 9980   4.648   0.411   2.008
 3102SOL    HW2 9981   4.608   0.254   2.028
 3103SOL     OW 9982   4.274   0.196   2.747
 3103SOL    HW1 9983   4.269   0.191   2.847
 3103SOL    HW2 9984   4.276   0.292   2.718
 3104SOL     OW 9985   4.732   1.456   2.339
 3104SOL    HW1 9986   4.686   1.528   2.287
 3104SOL    HW2 9987   4.728   1.476   2.437
 3105SOL     OW 9988   4.075   1.801   2.715
 3105SOL    HW1 9989   4.125   1.715   2.721
 3105SOL    HW2 9990   4.140   1.878   2.712
 3106SOL     OW 9991   4.951   1.550   3.368
 3106SOL    HW1 9992   4.957   1.473   3.432
 3106SOL    HW2 9993   4.899   1.524   3.288
 3107SOL     OW 9994   4.045   0.943   2.104
 3107SOL    HW1 9995   4.127   0.982   2.062
 3107SOL    HW2 9996   4.018   0.861   2.055
 3108SOL     OW 9997   4.185   1.266   3.589
 3108SOL    HW1 9998   4.135   1.267   3.503
 3108SOL    HW2 9999   4.122   1.248   3.665
 3109SOL     OW10000   3.926   0.285   3.360
 3109SOL    HW110001   3.846   0.345   3.347
 3109SOL    HW210002   3.916   0.236   3.446
 3110SOL     OW10003   4.188   1.743   2.185
 3110SOL    HW110004   4.221   1.782   2.271
 3110SOL    HW210005   4.264   1.736   2.120
 3111SOL     OW10006   3.973   1.785   3.103
 3111SOL    HW110007   4.030   1.720   3.153
 3111SOL    HW210008   3.957   1.752   3.010
 3112SOL     OW10009   4.664   1.698   2.766
 3112SOL    HW110010   4.744   1.641   2.787
 3112SOL    HW210011   4.615   1.658   2.689
 3113SOL     OW10012   4.106   0.700   2.342
 3113SOL    HW110013   4.151   0.610   2.339
 3113SOL    HW210014   4.012   0.689   2.375
 3114SOL     OW10015   4.338   0.122   1.979
 3114SOL    HW110016   4.436   0.100   1.986
 3114SOL    HW210017   4.307   0.105   1.886
 3115SOL     OW10018   4.612   1.514   3.057
 3115SOL    HW110019   4.589   1.489   2.963
 3115SOL    HW210020   4.673   1.445   3.096
 3116SOL     OW10021   4.527   1.402   2.786
 3116SOL    HW110022   4.617   1.416   2.744
 3116SOL    HW210023   4.456   1.404   2.715
 3117SOL     OW10024   4.646   0.503   2.761
 3117SOL    HW110025   4.621   0.494   2.665
 3117SOL    HW210026   4.694   0.421   2.792
 3118SOL     OW10027   4.263   0.064   2.374
 3118SOL    HW110028   4.182   0.065   2.432
 3118SOL    HW210029   4.266   0.147   2.319
 3119SOL     OW10030   4.021   0.035   2.033
 3119SOL    HW110031   4.070   0.119   2.012
 3119SOL    HW210032   4.083  -0.030   2.078
 3120SOL     OW10033   4.659   0.236   2.342
 3120SOL    HW110034   4.611   0.277   2.264
 3120SOL    HW210035   4.758   0.234   2.323
 3121SOL     OW10036   4.800   0.683   3.326
 3121SOL    HW110037   4.720   0.622   3.329
 3121SOL    HW210038   4.881   0.630   3.302
 3122SOL     OW10039   4.951   1.570   2.655
 3122SOL    HW110040   4.972   1.644   2.590
 3122SOL    HW210041   5.019   1.570   2.728
 3123SOL     OW10042   4.183   1.152   2.603
 3123SOL    HW110043   4.112   1.125   2.668
 3123SOL    HW210044   4.157   1.124   2.510
 3124SOL     OW10045   4.995   1.797   2.453
 3124SOL    HW110046   5.039   1.861   2.389
 3124SOL    HW210047   4.945   1.849   2.523
 3125SOL     OW10048   4.756   0.549   1.878
 3125SOL    HW110049   4.715   0.631   1.839
 3125SOL    HW210050   4.820   0.575   1.951
 3126SOL     OW10051   3.802   0.556   3.248
 3126SOL    HW110052   3.894   0.555   3.207
 3126SOL    HW210053   3.796   0.630   3.315
 3127SOL     OW10054   4.285   0.222   3.009
 3127SOL    HW110055   4.323   0.138   3.046
 3127SOL    HW210056   4.197   0.241   3.053
 3128SOL     OW10057   4.590   0.454   2.504
 3128SOL    HW110058   4.558   0.526   2.442
 3128SOL    HW210059   4.614   0.373   2.451
 3129SOL     OW10060   4.741   0.039   2.615
 3129SOL    HW110061   4.669   0.044   2.546
 3129SOL    HW210062   4.717  -0.030   2.684
 3130SOL     OW10063   4.212   1.385   2.036
 3130SOL    HW110064   4.125   1.370   2.083
 3130SOL    HW210065   4.195   1.411   1.941
 3131SOL     OW10066   5.388   1.280   2.519
 3131SOL    HW110067   5.487   1.288   2.533
 3131SOL    HW210068   5.343   1.364   2.550
 3132SOL     OW10069   4.251   0.256   2.190
 3132SOL    HW110070   4.278   0.197   2.115
 3132SOL    HW210071   4.251   0.351   2.159
 3133SOL     OW10072   4.788   1.347   3.202
 3133SOL    HW110073   4.708   1.324   3.257
 3133SOL    HW210074   4.871   1.321   3.251
 3134SOL     OW10075   4.835   1.195   2.962
 3134SOL    HW110076   4.795   1.239   3.043
 3134SOL    HW210077   4.794   1.232   2.879
 3135SOL     OW10078   4.704   1.116   3.581
 3135SOL    HW110079   4.605   1.122   3.591
 3135SOL    HW210080   4.727   1.036   3.525
 3136SOL     OW10081   4.429   1.050   2.230
 3136SOL    HW110082   4.415   1.057   2.329
 3136SOL    HW210083   4.513   0.999   2.212
 3137SOL     OW10084   4.134   0.813   3.113
 3137SOL    HW110085   4.220   0.825   3.163
 3137SOL    HW210086   4.092   0.726   3.140
 3138SOL     OW10087   4.998   0.386   3.124
 3138SOL    HW110088   5.019   0.460   3.188
 3138SOL    HW210089   4.909   0.403   3.081
 3139SOL     OW10090   3.788   1.564   3.193
 3139SOL    HW110091   3.742   1.646   3.159
 3139SOL    HW210092   3.886   1.583   3.202
 3140SOL     OW10093   4.091   1.100   2.363
 3140SOL    HW110094   4.084   1.183   2.307
 3140SOL    HW210095   4.095   1.020   2.303
 3141SOL     OW10096   4.290   0.537   2.727
 3141SOL    HW110097   4.302   0.603   2.653
 3141SOL    HW210098   4.336   0.571   2.810
 3142SOL     OW10099   4.976   1.348   2.250
 3142SOL    HW110100   5.026   1.425   2.290
 3142SOL    HW210101   4.881   1.350   2.282
 3143SOL     OW10102   4.078   1.510   3.191
 3143SOL    HW110103   4.057   1.466   3.104
 3143SOL    HW210104   4.175   1.536   3.194
 3144SOL     OW10105   4.126   0.751   3.460
 3144SOL    HW110106   4.194   0.806   3.413
 3144SOL    HW210107   4.166   0.663   3.487
 3145SOL     OW10108   4.228   0.050   3.602
 3145SOL    HW110109   4.186  -0.007   3.532
 3145SOL    HW210110   4.162   0.119   3.634
 3146SOL     OW10111   4.297   0.870   2.891
 3146SOL    HW110112   4.341   0.959   2.882
 3146SOL    HW210113   4.234   0.870   2.968
 3147SOL     OW10114   5.084   0.862   2.907
 3147SOL    HW110115   5.009   0.862   2.841
 3147SOL    HW210116   5.121   0.770   2.916
 3148SOL     OW10117   4.933   0.525   2.137
 3148SOL    HW110118   4.946   0.441   2.191
 3148SOL    HW210119   4.904   0.599   2.197
 3149SOL     OW10120   4.031   0.213   3.093
 3149SOL    HW110121   4.008   0.250   3.183
 3149SOL    HW210122   4.001   0.118   3.087
 3150SOL     OW10123   4.456   0.634   2.926
 3150SOL    HW110124   4.515   0.608   2.850
 3150SOL    HW210125   4.428   0.730   2.915
 3151SOL     OW10126   4.031   0.063   2.480
 3151SOL    HW110127   4.020   0.157   2.513
 3151SOL    HW210128   4.026   0.000   2.557
 3152SOL     OW10129   5.346   0.367   2.236
 3152SOL    HW110130   5.348   0.291   2.300
 3152SOL    HW210131   5.298   0.444   2.276
 3153SOL     OW10132   4.747   0.766   2.828
 3153SOL    HW110133   4.762   0.787   2.924
 3153SOL    HW210134   4.717   0.671   2.819
 3154SOL     OW10135   4.704   1.573   3.562
 3154SOL    HW110136   4.684   1.617   3.474
 3154SOL    HW210137   4.743   1.482   3.546
 3155SOL     OW10138   4.074   0.898   3.666
 3155SOL    HW110139   4.150   0.942   3.714
 3155SOL    HW210140   4.109   0.851   3.584
 3156SOL     OW10141   5.027   0.838   1.904
 3156SOL    HW110142   5.061   0.745   1.919
 3156SOL    HW210143   5.045   0.865   1.809
 3157SOL     OW10144   4.792   1.333   2.711
 3157SOL    HW110145   4.799   1.249   2.656
 3157SOL    HW210146   4.854   1.402   2.675
 3158SOL     OW10147   4.043   0.810   2.811
 3158SOL    HW110148   4.136   0.846   2.816
 3158SOL    HW210149   4.037   0.725   2.863
 3159SOL     OW10150   4.063   0.509   2.868
 3159SOL    HW110151   4.011   0.426   2.851
 3159SOL    HW210152   4.140   0.514   2.804
 3160SOL     OW10153   4.862   0.380   3.540
 3160SOL    HW110154   4.817   0.443   3.604
 3160SOL    HW210155   4.955   0.411   3.523
 3161SOL     OW10156   4.884   0.207   3.339
 3161SOL    HW110157   4.884   0.271   3.416
 3161SOL    HW210158   4.912   0.255   3.256
 3162SOL     OW10159   3.732   1.326   2.062
 3162SOL    HW110160   3.639   1.347   2.031
 3162SOL    HW210161   3.742   1.227   2.075
 3163SOL     OW10162   3.812   1.801   2.789
 3163SOL    HW110163   3.770   1.715   2.762
 3163SOL    HW210164   3.906   1.804   2.755
 3164SOL     OW10165   4.228   1.568   2.772
 3164SOL    HW110166   4.294   1.642   2.781
 3164SOL    HW210167   4.272   1.489   2.730
 3165SOL     OW10168   4.726   0.796   3.100
 3165SOL    HW110169   4.767   0.764   3.186
 3165SOL    HW210170   4.630   0.769   3.097
 3166SOL     OW10171   3.764   0.544   2.976
 3166SOL    HW110172   3.849   0.511   2.935
 3166SOL    HW210173   3.777   0.559   3.074
 3167SOL     OW10174   4.539   0.572   2.187
 3167SOL    HW110175   4.546   0.483   2.141
 3167SOL    HW210176   4.445   0.606   2.179
 3168SOL     OW10177   3.976   1.564   3.606
 3168SOL    HW110178   3.946   1.621   3.682
 3168SOL    HW210179   3.969   1.467   3.632
 3169SOL     OW10180   4.395   0.464   3.131
 3169SOL    HW110181   4.361   0.375   3.101
 3169SOL    HW210182   4.421   0.518   3.051
 3170SOL     OW10183   4.654   1.678   3.327
 3170SOL    HW110184   4.630   1.660   3.232
 3170SOL    HW210185   4.684   1.772   3.337
 3171SOL     OW10186   4.197   0.500   2.053
 3171SOL    HW110187   4.258   0.580   2.057
 3171SOL    HW210188   4.102   0.531   2.060
 3172SOL     OW10189   5.071   1.059   3.096
 3172SOL    HW110190   5.095   0.996   3.022
 3172SOL    HW210191   4.981   1.099   3.078
 3173SOL     OW10192   4.976   1.731   2.990
 3173SOL    HW110193   5.060   1.736   2.936
 3173SOL    HW210194   4.953   1.635   3.008
 3174SOL     OW10195   3.807   1.258   2.884
 3174SOL    HW110196   3.802   1.257   2.984
 3174SOL    HW210197   3.724   1.217   2.846
 3175SOL     OW10198   4.412   1.662   3.578
 3175SOL    HW110199   4.356   1.743   3.587
 3175SOL    HW210200   4.464   1.666   3.492
 3176SOL     OW10201   5.112   1.573   2.339
 3176SOL    HW110202   5.179   1.585   2.265
 3176SOL    HW210203   5.072   1.662   2.362
 3177SOL     OW10204   3.854   1.794   3.713
 3177SOL    HW110205   3.813   1.720   3.766
 3177SOL    HW210206   3.918   1.845   3.771
 3178SOL     OW10207   5.004   0.927   2.534
 3178SOL    HW110208   5.064   0.846   2.536
 3178SOL    HW210209   5.044   0.996   2.474
 3179SOL     OW10210   4.554   1.273   3.284
 3179SOL    HW110211   4.549   1.306   3.379
 3179SOL    HW210212   4.468   1.292   3.238
 3180SOL     OW10213   4.396   1.616   2.016
 3180SOL    HW110214   4.405   1.626   1.917
 3180SOL    HW210215   4.356   1.527   2.037
 3181SOL     OW10216   3.987   0.326   2.582
 3181SOL    HW110217   3.908   0.377   2.548
 3181SOL    HW210218   3.978   0.311   2.680
 3182SOL     OW10219   4.918   1.612   1.893
 3182SOL    HW110220   4.924   1.519   1.930
 3182SOL    HW210221   4.859   1.612   1.813
 3183SOL     OW10222   4.546   1.002   3.234
 3183SOL    HW110223   4.586   1.001   3.142
 3183SOL    HW210224   4.556   1.094   3.274
 3184SOL     OW10225   4.640   0.910   2.153
 3184SOL    HW110226   4.703   0.948   2.085
 3184SOL    HW210227   4.680   0.827   2.192
 3185SOL     OW10228   4.096   1.288   3.352
 3185SOL    HW110229   4.083   1.381   3.318
 3185SOL    HW210230   4.012   1.236   3.339
 3186SOL     OW10231   4.763   1.098   2.558
 3186SOL    HW110232   4.693   1.051   2.612
 3186SOL    HW210233   4.822   1.030   2.515
 3187SOL     OW10234   4.738   0.236   2.833
 3187SOL    HW110235   4.730   0.200   2.740
 3187SOL    HW210236   4.736   0.160   2.898
 3188SOL     OW10237   4.314   1.487   2.353
 3188SOL    HW110238   4.356   1.429   2.283
 3188SOL    HW210239   4.270   1.566   2.309
 3189SOL     OW10240   3.979   1.348   2.152
 3189SOL    HW110241   3.883   1.349   2.125
 3189SOL    HW210242   3.991   1.401   2.236
 3190SOL     OW10243   3.799   0.345   1.895
 3190SOL    HW110244   3.707   0.317   1.866
 3190SOL    HW210245   3.830   0.422   1.839
 3191SOL     OW10246   5.164   0.856   3.260
 3191SOL    HW110247   5.107   0.908   3.197
 3191SOL    HW210248   5.260   0.868   3.236
 3192SOL     OW10249   3.796   0.166   2.180
 3192SOL    HW110250   3.779   0.249   2.126
 3192SOL    HW210251   3.886   0.129   2.158
 3193SOL     OW10252   4.337   0.842   3.293
 3193SOL    HW110253   4.393   0.923   3.276
 3193SOL    HW210254   4.396   0.762   3.296
 3194SOL     OW10255   4.440   0.565   3.570
 3194SOL    HW110256   4.459   0.630   3.644
 3194SOL    HW210257   4.500   0.485   3.579
 3195SOL     OW10258   4.114   1.741   3.422
 3195SOL    HW110259   4.023   1.782   3.420
 3195SOL    HW210260   4.107   1.647   3.454
 3196SOL     OW10261   4.949   0.325   2.311
 3196SOL    HW110262   5.014   0.251   2.300
 3196SOL    HW210263   4.969   0.375   2.395
 3197SOL     OW10264   4.318   0.745   2.514
 3197SOL    HW110265   4.368   0.830   2.495
 3197SOL    HW210266   4.230   0.747   2.466
 3198SOL     OW10267   4.583   1.374   1.878
 3198SOL    HW110268   4.537   1.389   1.966
 3198SOL    HW210269   4.627   1.459   1.848
 3199SOL     OW10270   4.385   1.790   2.815
 3199SOL    HW110271   4.339   1.878   2.802
 3199SOL    HW210272   4.484   1.802   2.808
 3200SOL     OW10273   4.583   0.956   2.723
 3200SOL    HW110274   4.637   0.887   2.771
 3200SOL    HW210275   4.551   1.025   2.789
 3201SOL     OW10276   4.807   0.984   1.949
 3201SOL    HW110277   4.784   1.037   1.867
 3201SOL    HW210278   4.888   0.928   1.930
 3202SOL     OW10279   3.945   1.314   3.706
 3202SOL    HW110280   3.880   1.241   3.685
 3202SOL    HW210281   3.949   1.328   3.804
 3203SOL     OW10282   3.803   1.240   2.515
 3203SOL    HW110283   3.802   1.193   2.603
 3203SOL    HW210284   3.885   1.212   2.464
 3204SOL     OW10285   4.396   1.391   3.486
 3204SOL    HW110286   4.318   1.341   3.524
 3204SOL    HW210287   4.393   1.486   3.517
 3205SOL     OW10288   4.152   0.424   2.382
 3205SOL    HW110289   4.182   0.352   2.320
 3205SOL    HW210290   4.113   0.384   2.465
 3206SOL     OW10291   4.041   0.547   3.142
 3206SOL    HW110292   4.079   0.488   3.214
 3206SOL    HW210293   4.081   0.521   3.054
 3207SOL     OW10294   4.536   1.586   2.549
 3207SOL    HW110295   4.568   1.596   2.455
 3207SOL    HW210296   4.457   1.524   2.551
 3208SOL     OW10297   4.494   1.330   2.163
 3208SOL    HW110298   4.448   1.243   2.180
 3208SOL    HW210299   4.585   1.327   2.204
 3209SOL     OW10300   4.342   1.567   3.146
 3209SOL    HW110301   4.337   1.649   3.203
 3209SOL    HW210302   4.431   1.564   3.101
 3210SOL     OW10303   3.763   1.077   2.162
 3210SOL    HW110304   3.862   1.066   2.153
 3210SOL    HW210305   3.723   0.991   2.194
 3211SOL     OW10306   4.599   1.646   2.199
 3211SOL    HW110307   4.522   1.611   2.145
 3211SOL    HW210308   4.567   1.717   2.261
 3212SOL     OW10309   3.954   0.628   3.837
 3212SOL    HW110310   3.861   0.626   3.874
 3212SOL    HW210311   3.955   0.589   3.745
 3213SOL     OW10312   3.949   0.275   4.720
 3213SOL    HW110313   3.984   0.258   4.812
 3213SOL    HW210314   3.861   0.230   4.708
 3214SOL     OW10315   3.743   0.368   4.371
 3214SOL    HW110316   3.661   0.411   4.410
 3214SOL    HW210317   3.715   0.295   4.308
 3215SOL     OW10318   4.293   1.275   4.889
 3215SOL    HW110319   4.200   1.268   4.852
 3215SOL    HW210320   4.304   1.364   4.933
 3216SOL     OW10321   4.859   0.703   4.441
 3216SOL    HW110322   4.916   0.781   4.416
 3216SOL    HW210323   4.799   0.729   4.517
 3217SOL     OW10324   4.492   1.144   4.747
 3217SOL    HW110325   4.414   1.161   4.807
 3217SOL    HW210326   4.526   1.231   4.711
 3218SOL     OW10327   4.409   1.012   4.389
 3218SOL    HW110328   4.478   0.996   4.459
 3218SOL    HW210329   4.336   1.069   4.427
 3219SOL     OW10330   4.059   1.435   4.785
 3219SOL    HW110331   3.981   1.404   4.732
 3219SOL    HW210332   4.117   1.493   4.728
 3220SOL     OW10333   3.955   1.713   4.207
 3220SOL    HW110334   3.989   1.790   4.261
 3220SOL    HW210335   3.999   1.713   4.117
 3221SOL     OW10336   3.954   1.434   4.262
 3221SOL    HW110337   3.928   1.530   4.262
 3221SOL    HW210338   3.883   1.380   4.307
 3222SOL     OW10339   3.964   1.091   4.610
 3222SOL    HW110340   3.978   1.007   4.662
 3222SOL    HW210341   3.909   1.155   4.665
 3223SOL     OW10342   4.344   1.786   5.163
 3223SOL    HW110343   4.252   1.769   5.198
 3223SOL    HW210344   4.372   1.878   5.189
 3224SOL     OW10345   4.330   0.964   3.847
 3224SOL    HW110346   4.337   1.048   3.793
 3224SOL    HW210347   4.376   0.977   3.935
 3225SOL     OW10348   3.846   0.643   4.287
 3225SOL    HW110349   3.801   0.555   4.304
 3225SOL    HW210350   3.845   0.697   4.371
 3226SOL     OW10351   3.751   1.596   3.841
 3226SOL    HW110352   3.732   1.500   3.862
 3226SOL    HW210353   3.718   1.654   3.916
 3227SOL     OW10354   4.337   1.365   4.450
 3227SOL    HW110355   4.288   1.278   4.459
 3227SOL    HW210356   4.314   1.408   4.363
 3228SOL     OW10357   4.533   0.004   4.226
 3228SOL    HW110358   4.573   0.095   4.217
 3228SOL    HW210359   4.433   0.012   4.232
 3229SOL     OW10360   3.921   0.976   4.988
 3229SOL    HW110361   4.010   0.931   4.974
 3229SOL    HW210362   3.848   0.911   4.969
 3230SOL     OW10363   4.322   0.729   3.994
 3230SOL    HW110364   4.346   0.798   3.926
 3230SOL    HW210365   4.244   0.762   4.048
 3231SOL     OW10366   5.005   0.345   4.668
 3231SOL    HW110367   4.919   0.295   4.655
 3231SOL    HW210368   5.067   0.291   4.724
 3232SOL     OW10369   4.765   0.701   4.153
 3232SOL    HW110370   4.791   0.697   4.249
 3232SOL    HW210371   4.680   0.650   4.139
 3233SOL     OW10372   3.800   0.811   4.513
 3233SOL    HW110373   3.899   0.799   4.522
 3233SOL    HW210374   3.776   0.906   4.534
 3234SOL     OW10375   4.274   0.196   4.609
 3234SOL    HW110376   4.269   0.191   4.709
 3234SOL    HW210377   4.276   0.292   4.580
 3235SOL     OW10378   4.732   1.456   4.201
 3235SOL    HW110379   4.686   1.528   4.149
 3235SOL    HW210380   4.728   1.476   4.299
 3236SOL     OW10381   4.075   1.801   4.577
 3236SOL    HW110382   4.125   1.715   4.583
 3236SOL    HW210383   4.140   1.878   4.574
 3237SOL     OW10384   4.045   0.943   3.966
 3237SOL    HW110385   4.127   0.982   3.924
 3237SOL    HW210386   4.018   0.861   3.917
 3238SOL     OW10387   4.835   1.776   3.961
 3238SOL    HW110388   4.775   1.714   4.011
 3238SOL    HW210389   4.866   1.732   3.876
 3239SOL     OW10390   4.188   1.743   4.047
 3239SOL    HW110391   4.221   1.782   4.133
 3239SOL    HW210392   4.264   1.736   3.982
 3240SOL     OW10393   3.973   1.785   4.965
 3240SOL    HW110394   4.030   1.720   5.015
 3240SOL    HW210395   3.957   1.752   4.872
 3241SOL     OW10396   4.664   1.698   4.628
 3241SOL    HW110397   4.744   1.641   4.649
 3241SOL    HW210398   4.615   1.658   4.551
 3242SOL     OW10399   4.106   0.700   4.204
 3242SOL    HW110400   4.151   0.610   4.201
 3242SOL    HW210401   4.012   0.689   4.237
 3243SOL     OW10402   4.338   0.122   3.841
 3243SOL    HW110403   4.436   0.100   3.848
 3243SOL    HW210404   4.307   0.105   3.748
 3244SOL     OW10405   4.527   1.402   4.648
 3244SOL    HW110406   4.617   1.416   4.606
 3244SOL    HW210407   4.456   1.404   4.577
 3245SOL     OW10408   4.263   0.064   4.236
 3245SOL    HW110409   4.182   0.065   4.294
 3245SOL    HW210410   4.266   0.147   4.181
 3246SOL     OW10411   4.021   0.035   3.895
 3246SOL    HW110412   4.070   0.119   3.874
 3246SOL    HW210413   4.083  -0.030   3.940
 3247SOL     OW10414   4.659   0.236   4.204
 3247SOL    HW110415   4.611   0.277   4.126
 3247SOL    HW210416   4.758   0.234   4.185
 3248SOL     OW10417   4.951   1.570   4.517
 3248SOL    HW110418   4.972   1.644   4.452
 3248SOL    HW210419   5.019   1.570   4.590
 3249SOL     OW10420   4.183   1.152   4.465
 3249SOL    HW110421   4.112   1.125   4.530
 3249SOL    HW210422   4.157   1.124   4.372
 3250SOL     OW10423   4.995   1.797   4.315
 3250SOL    HW110424   5.039   1.861   4.251
 3250SOL    HW210425   4.945   1.849   4.385
 3251SOL     OW10426   4.756   0.549   3.740
 3251SOL    HW110427   4.715   0.631   3.701
 3251SOL    HW210428   4.820   0.575   3.813
 3252SOL     OW10429   4.285   0.222   4.871
 3252SOL    HW110430   4.323   0.138   4.908
 3252SOL    HW210431   4.197   0.241   4.915
 3253SOL     OW10432   4.590   0.454   4.366
 3253SOL    HW110433   4.558   0.526   4.304
 3253SOL    HW210434   4.614   0.373   4.313
 3254SOL     OW10435   4.741   0.039   4.477
 3254SOL    HW110436   4.669   0.044   4.408
 3254SOL    HW210437   4.717  -0.030   4.546
 3255SOL     OW10438   4.212   1.385   3.898
 3255SOL    HW110439   4.125   1.370   3.945
 3255SOL    HW210440   4.195   1.411   3.803
 3256SOL     OW10441   5.388   1.280   4.381
 3256SOL    HW110442   5.487   1.288   4.395
 3256SOL    HW210443   5.343   1.364   4.412
 3257SOL     OW10444   4.251   0.256   4.052
 3257SOL    HW110445   4.278   0.197   3.977
 3257SOL    HW210446   4.251   0.351   4.021
 3258SOL     OW10447   5.316   1.629   5.349
 3258SOL    HW110448   5.343   1.663   5.259
 3258SOL    HW210449   5.395   1.591   5.395
 3259SOL     OW10450   4.835   1.195   4.824
 3259SOL    HW110451   4.795   1.239   4.905
 3259SOL    HW210452   4.794   1.232   4.741
 3260SOL     OW10453   4.429   1.050   4.092
 3260SOL    HW110454   4.415   1.057   4.191
 3260SOL    HW210455   4.513   0.999   4.074
 3261SOL     OW10456   4.091   1.100   4.225
 3261SOL    HW110457   4.084   1.183   4.169
 3261SOL    HW210458   4.095   1.020   4.165
 3262SOL     OW10459   4.976   1.348   4.112
 3262SOL    HW110460   5.026   1.425   4.152
 3262SOL    HW210461   4.881   1.350   4.144
 3263SOL     OW10462   4.078   1.510   5.053
 3263SOL    HW110463   4.057   1.466   4.966
 3263SOL    HW210464   4.175   1.536   5.056
 3264SOL     OW10465   5.084   0.862   4.769
 3264SOL    HW110466   5.009   0.862   4.703
 3264SOL    HW210467   5.121   0.770   4.778
 3265SOL     OW10468   4.933   0.525   3.999
 3265SOL    HW110469   4.946   0.441   4.053
 3265SOL    HW210470   4.904   0.599   4.059
 3266SOL     OW10471   4.031   0.213   4.955
 3266SOL    HW110472   4.008   0.250   5.045
 3266SOL    HW210473   4.001   0.118   4.949
 3267SOL     OW10474   3.761   1.310   5.006
 3267SOL    HW110475   3.814   1.261   5.074
 3267SOL    HW210476   3.783   1.408   5.011
 3268SOL     OW10477   4.031   0.063   4.342
 3268SOL    HW110478   4.020   0.157   4.375
 3268SOL    HW210479   4.026   0.000   4.419
 3269SOL     OW10480   5.346   0.367   4.098
 3269SOL    HW110481   5.348   0.291   4.162
 3269SOL    HW210482   5.298   0.444   4.138
 3270SOL     OW10483   4.747   0.766   4.690
 3270SOL    HW110484   4.762   0.787   4.786
 3270SOL    HW210485   4.717   0.671   4.681
 3271SOL     OW10486   5.027   0.838   3.766
 3271SOL    HW110487   5.061   0.745   3.781
 3271SOL    HW210488   5.045   0.865   3.671
 3272SOL     OW10489   4.792   1.333   4.573
 3272SOL    HW110490   4.799   1.249   4.518
 3272SOL    HW210491   4.854   1.402   4.537
 3273SOL     OW10492   4.043   0.810   4.673
 3273SOL    HW110493   4.136   0.846   4.678
 3273SOL    HW210494   4.037   0.725   4.725
 3274SOL     OW10495   4.063   0.509   4.730
 3274SOL    HW110496   4.011   0.426   4.713
 3274SOL    HW210497   4.140   0.514   4.666
 3275SOL     OW10498   4.884   0.207   5.201
 3275SOL    HW110499   4.884   0.271   5.278
 3275SOL    HW210500   4.912   0.255   5.118
 3276SOL     OW10501   3.732   1.326   3.924
 3276SOL    HW110502   3.639   1.347   3.893
 3276SOL    HW210503   3.742   1.227   3.937
 3277SOL     OW10504   3.812   1.801   4.651
 3277SOL    HW110505   3.770   1.715   4.624
 3277SOL    HW210506   3.906   1.804   4.617
 3278SOL     OW10507   4.228   1.568   4.634
 3278SOL    HW110508   4.294   1.642   4.643
 3278SOL    HW210509   4.272   1.489   4.592
 3279SOL     OW10510   4.726   0.796   4.962
 3279SOL    HW110511   4.767   0.764   5.048
 3279SOL    HW210512   4.630   0.769   4.959
 3280SOL     OW10513   3.764   0.544   4.838
 3280SOL    HW110514   3.849   0.511   4.797
 3280SOL    HW210515   3.777   0.559   4.936
 3281SOL     OW10516   4.539   0.572   4.049
 3281SOL    HW110517   4.546   0.483   4.003
 3281SOL    HW210518   4.445   0.606   4.041
 3282SOL     OW10519   4.654   1.678   5.189
 3282SOL    HW110520   4.630   1.660   5.094
 3282SOL    HW210521   4.684   1.772   5.199
 3283SOL     OW10522   4.197   0.500   3.915
 3283SOL    HW110523   4.258   0.580   3.919
 3283SOL    HW210524   4.102   0.531   3.922
 3284SOL     OW10525   5.071   1.059   4.958
 3284SOL    HW110526   5.095   0.996   4.884
 3284SOL    HW210527   4.981   1.099   4.940
 3285SOL     OW10528   4.976   1.731   4.852
 3285SOL    HW110529   5.060   1.736   4.798
 3285SOL    HW210530   4.953   1.635   4.870
 3286SOL     OW10531   3.807   1.258   4.746
 3286SOL    HW110532   3.802   1.257   4.846
 3286SOL    HW210533   3.724   1.217   4.708
 3287SOL     OW10534   5.112   1.573   4.201
 3287SOL    HW110535   5.179   1.585   4.127
 3287SOL    HW210536   5.072   1.662   4.224
 3288SOL     OW10537   5.004   0.927   4.396
 3288SOL    HW110538   5.064   0.846   4.398
 3288SOL    HW210539   5.044   0.996   4.336
 3289SOL     OW10540   4.396   1.616   3.878
 3289SOL    HW110541   4.405   1.626   3.779
 3289SOL    HW210542   4.356   1.527   3.899
 3290SOL     OW10543   3.987   0.326   4.444
 3290SOL    HW110544   3.908   0.377   4.410
 3290SOL    HW210545   3.978   0.311   4.542
 3291SOL     OW10546   4.918   1.612   3.755
 3291SOL    HW110547   4.924   1.519   3.792
 3291SOL    HW210548   4.859   1.612   3.675
 3292SOL     OW10549   4.640   0.910   4.015
 3292SOL    HW110550   4.703   0.948   3.947
 3292SOL    HW210551   4.680   0.827   4.054
 3293SOL     OW10552   4.763   1.098   4.420
 3293SOL    HW110553   4.693   1.051   4.474
 3293SOL    HW210554   4.822   1.030   4.377
 3294SOL     OW10555   4.738   0.236   4.695
 3294SOL    HW110556   4.730   0.200   4.602
 3294SOL    HW210557   4.736   0.160   4.760
 3295SOL     OW10558   4.314   1.487   4.215
 3295SOL    HW110559   4.356   1.429   4.145
 3295SOL    HW210560   4.270   1.566   4.171
 3296SOL     OW10561   3.979   1.348   4.014
 3296SOL    HW110562   3.883   1.349   3.987
 3296SOL    HW210563   3.991   1.401   4.098
 3297SOL     OW10564   3.799   0.345   3.757
 3297SOL    HW110565   3.707   0.317   3.728
 3297SOL    HW210566   3.830   0.422   3.701
 3298SOL     OW10567   3.796   0.166   4.042
 3298SOL    HW110568   3.779   0.249   3.988
 3298SOL    HW210569   3.886   0.129   4.020
 3299SOL     OW10570   4.949   0.325   4.173
 3299SOL    HW110571   5.014   0.251   4.162
 3299SOL    HW210572   4.969   0.375   4.257
 3300SOL     OW10573   4.318   0.745   4.376
 3300SOL    HW110574   4.368   0.830   4.357
 3300SOL    HW210575   4.230   0.747   4.328
 3301SOL     OW10576   4.583   1.374   3.740
 3301SOL    HW110577   4.537   1.389   3.828
 3301SOL    HW210578   4.627   1.459   3.710
 3302SOL     OW10579   4.385   1.790   4.677
 3302SOL    HW110580   4.339   1.878   4.664
 3302SOL    HW210581   4.484   1.802   4.670
 3303SOL     OW10582   4.583   0.956   4.585
 3303SOL    HW110583   4.637   0.887   4.633
 3303SOL    HW210584   4.551   1.025   4.651
 3304SOL     OW10585   4.807   0.984   3.811
 3304SOL    HW110586   4.784   1.037   3.729
 3304SOL    HW210587   4.888   0.928   3.792
 3305SOL     OW10588   3.803   1.240   4.377
 3305SOL    HW110589   3.802   1.193   4.465
 3305SOL    HW210590   3.885   1.212   4.326
 3306SOL     OW10591   4.152   0.424   4.244
 3306SOL    HW110592   4.182   0.352   4.182
 3306SOL    HW210593   4.113   0.384   4.327
 3307SOL     OW10594   4.536   1.586   4.411
 3307SOL    HW110595   4.568   1.596   4.317
 3307SOL    HW210596   4.457   1.524   4.413
 3308SOL     OW10597   4.725   0.034   4.878
 3308SOL    HW110598   4.662  -0.038   4.847
 3308SOL    HW210599   4.818  -0.002   4.878
 3309SOL     OW10600   4.494   1.330   4.025
 3309SOL    HW110601   4.448   1.243   4.042
 3309SOL    HW210602   4.585   1.327   4.066
 3310SOL     OW10603   3.763   1.077   4.024
 3310SOL    HW110604   3.862   1.066   4.015
 3310SOL    HW210605   3.723   0.991   4.056
 3311SOL     OW10606   4.599   1.646   4.061
 3311SOL    HW110607   4.522   1.611   4.007
 3311SOL    HW210608   4.567   1.717   4.123
 3312SOL     OW10609   3.949   2.137   0.996
 3312SOL    HW110610   3.984   2.120   1.088
 3312SOL    HW210611   3.861   2.092   0.984
 3313SOL     OW10612   4.293   3.137   1.165
 3313SOL    HW110613   4.200   3.130   1.128
 3313SOL    HW210614   4.304   3.226   1.209
 3314SOL     OW10615   4.492   3.006   1.023
 3314SOL    HW110616   4.414   3.023   1.083
 3314SOL    HW210617   4.526   3.093   0.987
 3315SOL     OW10618   4.574   2.660   1.823
 3315SOL    HW110619   4.570   2.736   1.888
 3315SOL    HW210620   4.596   2.696   1.732
 3316SOL     OW10621   4.409   2.874   0.665
 3316SOL    HW110622   4.478   2.858   0.735
 3316SOL    HW210623   4.336   2.931   0.703
 3317SOL     OW10624   4.410   3.023   1.803
 3317SOL    HW110625   4.470   3.102   1.817
 3317SOL    HW210626   4.324   3.054   1.762
 3318SOL     OW10627   4.059   3.297   1.061
 3318SOL    HW110628   3.981   3.266   1.008
 3318SOL    HW210629   4.117   3.355   1.004
 3319SOL     OW10630   4.162   2.254   1.499
 3319SOL    HW110631   4.244   2.198   1.508
 3319SOL    HW210632   4.081   2.196   1.503
 3320SOL     OW10633   3.955   3.575   0.483
 3320SOL    HW110634   3.989   3.652   0.537
 3320SOL    HW210635   3.999   3.575   0.393
 3321SOL     OW10636   4.851   3.203   1.690
 3321SOL    HW110637   4.898   3.203   1.778
 3321SOL    HW210638   4.803   3.116   1.679
 3322SOL     OW10639   3.954   3.296   0.538
 3322SOL    HW110640   3.928   3.392   0.538
 3322SOL    HW210641   3.883   3.242   0.583
 3323SOL     OW10642   3.964   2.953   0.886
 3323SOL    HW110643   3.978   2.869   0.938
 3323SOL    HW210644   3.909   3.017   0.941
 3324SOL     OW10645   4.344   3.648   1.439
 3324SOL    HW110646   4.252   3.631   1.474
 3324SOL    HW210647   4.372   3.740   1.465
 3325SOL     OW10648   4.330   2.826   0.123
 3325SOL    HW110649   4.337   2.910   0.069
 3325SOL    HW210650   4.376   2.839   0.211
 3326SOL     OW10651   3.751   3.458   0.117
 3326SOL    HW110652   3.732   3.362   0.138
 3326SOL    HW210653   3.718   3.516   0.192
 3327SOL     OW10654   3.837   2.599   1.597
 3327SOL    HW110655   3.925   2.586   1.642
 3327SOL    HW210656   3.824   2.696   1.575
 3328SOL     OW10657   4.337   3.227   0.726
 3328SOL    HW110658   4.288   3.140   0.735
 3328SOL    HW210659   4.314   3.270   0.639
 3329SOL     OW10660   5.017   3.090   1.423
 3329SOL    HW110661   5.054   3.017   1.365
 3329SOL    HW210662   5.069   3.095   1.508
 3330SOL     OW10663   4.533   1.866   0.502
 3330SOL    HW110664   4.573   1.957   0.493
 3330SOL    HW210665   4.433   1.874   0.508
 3331SOL     OW10666   3.921   2.838   1.264
 3331SOL    HW110667   4.010   2.793   1.250
 3331SOL    HW210668   3.848   2.773   1.245
 3332SOL     OW10669   4.911   3.654   1.616
 3332SOL    HW110670   4.935   3.714   1.540
 3332SOL    HW210671   4.918   3.559   1.586
 3333SOL     OW10672   4.041   2.113   1.801
 3333SOL    HW110673   4.112   2.184   1.807
 3333SOL    HW210674   3.953   2.152   1.829
 3334SOL     OW10675   4.531   2.467   1.465
 3334SOL    HW110676   4.484   2.464   1.554
 3334SOL    HW210677   4.480   2.412   1.399
 3335SOL     OW10678   4.697   2.752   1.572
 3335SOL    HW110679   4.743   2.668   1.543
 3335SOL    HW210680   4.641   2.786   1.497
 3336SOL     OW10681   4.715   2.272   1.242
 3336SOL    HW110682   4.638   2.306   1.296
 3336SOL    HW210683   4.681   2.221   1.163
 3337SOL     OW10684   3.854   3.683   1.571
 3337SOL    HW110685   3.844   3.668   1.670
 3337SOL    HW210686   3.768   3.719   1.535
 3338SOL     OW10687   4.589   2.210   0.195
 3338SOL    HW110688   4.648   2.273   0.146
 3338SOL    HW210689   4.608   2.116   0.166
 3339SOL     OW10690   4.274   2.058   0.885
 3339SOL    HW110691   4.269   2.053   0.985
 3339SOL    HW210692   4.276   2.154   0.856
 3340SOL     OW10693   4.732   3.318   0.477
 3340SOL    HW110694   4.686   3.390   0.425
 3340SOL    HW210695   4.728   3.338   0.575
 3341SOL     OW10696   4.075   3.663   0.853
 3341SOL    HW110697   4.125   3.577   0.859
 3341SOL    HW210698   4.140   3.740   0.850
 3342SOL     OW10699   4.951   3.412   1.506
 3342SOL    HW110700   4.957   3.335   1.570
 3342SOL    HW210701   4.899   3.386   1.426
 3343SOL     OW10702   4.185   3.128   1.727
 3343SOL    HW110703   4.135   3.129   1.641
 3343SOL    HW210704   4.122   3.110   1.803
 3344SOL     OW10705   4.835   3.638   0.237
 3344SOL    HW110706   4.775   3.576   0.287
 3344SOL    HW210707   4.866   3.594   0.152
 3345SOL     OW10708   3.926   2.147   1.498
 3345SOL    HW110709   3.846   2.207   1.485
 3345SOL    HW210710   3.916   2.098   1.584
 3346SOL     OW10711   5.356   3.239   0.081
 3346SOL    HW110712   5.324   3.333   0.071
 3346SOL    HW210713   5.280   3.176   0.069
 3347SOL     OW10714   4.188   3.605   0.323
 3347SOL    HW110715   4.221   3.644   0.409
 3347SOL    HW210716   4.264   3.598   0.258
 3348SOL     OW10717   3.973   3.647   1.241
 3348SOL    HW110718   4.030   3.582   1.291
 3348SOL    HW210719   3.957   3.614   1.148
 3349SOL     OW10720   4.664   3.560   0.904
 3349SOL    HW110721   4.744   3.503   0.925
 3349SOL    HW210722   4.615   3.520   0.827
 3350SOL     OW10723   4.505   2.126   1.749
 3350SOL    HW110724   4.572   2.065   1.792
 3350SOL    HW210725   4.432   2.145   1.814
 3351SOL     OW10726   4.612   3.376   1.195
 3351SOL    HW110727   4.589   3.351   1.101
 3351SOL    HW210728   4.673   3.307   1.234
 3352SOL     OW10729   4.527   3.264   0.924
 3352SOL    HW110730   4.617   3.278   0.882
 3352SOL    HW210731   4.456   3.266   0.853
 3353SOL     OW10732   4.263   1.926   0.512
 3353SOL    HW110733   4.182   1.927   0.570
 3353SOL    HW210734   4.266   2.009   0.457
 3354SOL     OW10735   4.021   1.897   0.171
 3354SOL    HW110736   4.070   1.981   0.150
 3354SOL    HW210737   4.083   1.832   0.216
 3355SOL     OW10738   4.659   2.098   0.480
 3355SOL    HW110739   4.611   2.139   0.402
 3355SOL    HW210740   4.758   2.096   0.461
 3356SOL     OW10741   4.800   2.545   1.464
 3356SOL    HW110742   4.720   2.484   1.467
 3356SOL    HW210743   4.881   2.492   1.440
 3357SOL     OW10744   4.951   3.432   0.793
 3357SOL    HW110745   4.972   3.506   0.728
 3357SOL    HW210746   5.019   3.432   0.866
 3358SOL     OW10747   4.183   3.014   0.741
 3358SOL    HW110748   4.112   2.987   0.806
 3358SOL    HW210749   4.157   2.986   0.648
 3359SOL     OW10750   4.995   3.659   0.591
 3359SOL    HW110751   5.039   3.723   0.527
 3359SOL    HW210752   4.945   3.711   0.661
 3360SOL     OW10753   4.756   2.411   0.016
 3360SOL    HW110754   4.715   2.493  -0.023
 3360SOL    HW210755   4.820   2.437   0.089
 3361SOL     OW10756   3.802   2.418   1.386
 3361SOL    HW110757   3.894   2.417   1.345
 3361SOL    HW210758   3.796   2.492   1.453
 3362SOL     OW10759   4.285   2.084   1.147
 3362SOL    HW110760   4.323   2.000   1.184
 3362SOL    HW210761   4.197   2.103   1.191
 3363SOL     OW10762   4.741   1.901   0.753
 3363SOL    HW110763   4.669   1.906   0.684
 3363SOL    HW210764   4.717   1.832   0.822
 3364SOL     OW10765   4.212   3.247   0.174
 3364SOL    HW110766   4.125   3.232   0.221
 3364SOL    HW210767   4.195   3.273   0.079
 3365SOL     OW10768   5.388   3.142   0.657
 3365SOL    HW110769   5.487   3.150   0.671
 3365SOL    HW210770   5.343   3.226   0.688
 3366SOL     OW10771   4.251   2.118   0.328
 3366SOL    HW110772   4.278   2.059   0.253
 3366SOL    HW210773   4.251   2.213   0.297
 3367SOL     OW10774   4.788   3.209   1.340
 3367SOL    HW110775   4.708   3.186   1.395
 3367SOL    HW210776   4.871   3.183   1.389
 3368SOL     OW10777   4.835   3.057   1.100
 3368SOL    HW110778   4.795   3.101   1.181
 3368SOL    HW210779   4.794   3.094   1.017
 3369SOL     OW10780   4.639   1.951   1.402
 3369SOL    HW110781   4.664   1.931   1.307
 3369SOL    HW210782   4.711   2.007   1.444
 3370SOL     OW10783   4.704   2.978   1.719
 3370SOL    HW110784   4.605   2.984   1.729
 3370SOL    HW210785   4.727   2.898   1.663
 3371SOL     OW10786   4.429   2.912   0.368
 3371SOL    HW110787   4.415   2.919   0.467
 3371SOL    HW210788   4.513   2.861   0.350
 3372SOL     OW10789   4.134   2.675   1.251
 3372SOL    HW110790   4.220   2.687   1.301
 3372SOL    HW210791   4.092   2.588   1.278
 3373SOL     OW10792   4.998   2.248   1.262
 3373SOL    HW110793   5.019   2.322   1.326
 3373SOL    HW210794   4.909   2.265   1.219
 3374SOL     OW10795   3.788   3.426   1.331
 3374SOL    HW110796   3.742   3.508   1.297
 3374SOL    HW210797   3.886   3.445   1.340
 3375SOL     OW10798   4.091   2.962   0.501
 3375SOL    HW110799   4.084   3.045   0.445
 3375SOL    HW210800   4.095   2.882   0.441
 3376SOL     OW10801   4.290   2.399   0.865
 3376SOL    HW110802   4.302   2.465   0.791
 3376SOL    HW210803   4.336   2.433   0.948
 3377SOL     OW10804   4.976   3.210   0.388
 3377SOL    HW110805   5.026   3.287   0.428
 3377SOL    HW210806   4.881   3.212   0.420
 3378SOL     OW10807   4.078   3.372   1.329
 3378SOL    HW110808   4.057   3.328   1.242
 3378SOL    HW210809   4.175   3.398   1.332
 3379SOL     OW10810   4.126   2.613   1.598
 3379SOL    HW110811   4.194   2.668   1.551
 3379SOL    HW210812   4.166   2.525   1.625
 3380SOL     OW10813   4.737   1.967   1.770
 3380SOL    HW110814   4.743   2.052   1.718
 3380SOL    HW210815   4.769   1.891   1.713
 3381SOL     OW10816   4.228   1.912   1.740
 3381SOL    HW110817   4.186   1.855   1.670
 3381SOL    HW210818   4.162   1.981   1.772
 3382SOL     OW10819   4.297   2.732   1.029
 3382SOL    HW110820   4.341   2.821   1.020
 3382SOL    HW210821   4.234   2.732   1.106
 3383SOL     OW10822   4.933   2.387   0.275
 3383SOL    HW110823   4.946   2.303   0.329
 3383SOL    HW210824   4.904   2.461   0.335
 3384SOL     OW10825   4.031   2.075   1.231
 3384SOL    HW110826   4.008   2.112   1.321
 3384SOL    HW210827   4.001   1.980   1.225
 3385SOL     OW10828   3.761   3.172   1.282
 3385SOL    HW110829   3.814   3.123   1.350
 3385SOL    HW210830   3.783   3.270   1.287
 3386SOL     OW10831   4.031   1.925   0.618
 3386SOL    HW110832   4.020   2.019   0.651
 3386SOL    HW210833   4.026   1.862   0.695
 3387SOL     OW10834   5.346   2.229   0.374
 3387SOL    HW110835   5.348   2.153   0.438
 3387SOL    HW210836   5.298   2.306   0.414
 3388SOL     OW10837   4.704   3.435   1.700
 3388SOL    HW110838   4.684   3.479   1.612
 3388SOL    HW210839   4.743   3.344   1.684
 3389SOL     OW10840   4.074   2.760   1.804
 3389SOL    HW110841   4.150   2.804   1.852
 3389SOL    HW210842   4.109   2.713   1.722
 3390SOL     OW10843   5.027   2.700   0.042
 3390SOL    HW110844   5.061   2.607   0.057
 3390SOL    HW210845   5.045   2.727  -0.053
 3391SOL     OW10846   4.792   3.195   0.849
 3391SOL    HW110847   4.799   3.111   0.794
 3391SOL    HW210848   4.854   3.264   0.813
 3392SOL     OW10849   4.043   2.672   0.949
 3392SOL    HW110850   4.136   2.708   0.954
 3392SOL    HW210851   4.037   2.587   1.001
 3393SOL     OW10852   4.063   2.371   1.006
 3393SOL    HW110853   4.011   2.288   0.989
 3393SOL    HW210854   4.140   2.376   0.942
 3394SOL     OW10855   4.862   2.242   1.678
 3394SOL    HW110856   4.817   2.305   1.742
 3394SOL    HW210857   4.955   2.273   1.661
 3395SOL     OW10858   4.884   2.069   1.477
 3395SOL    HW110859   4.884   2.133   1.554
 3395SOL    HW210860   4.912   2.117   1.394
 3396SOL     OW10861   3.812   3.663   0.927
 3396SOL    HW110862   3.770   3.577   0.900
 3396SOL    HW210863   3.906   3.666   0.893
 3397SOL     OW10864   4.228   3.430   0.910
 3397SOL    HW110865   4.294   3.504   0.919
 3397SOL    HW210866   4.272   3.351   0.868
 3398SOL     OW10867   3.764   2.406   1.114
 3398SOL    HW110868   3.849   2.373   1.073
 3398SOL    HW210869   3.777   2.421   1.212
 3399SOL     OW10870   3.913   2.382   1.722
 3399SOL    HW110871   3.972   2.342   1.652
 3399SOL    HW210872   3.855   2.453   1.681
 3400SOL     OW10873   4.539   2.434   0.325
 3400SOL    HW110874   4.546   2.345   0.279
 3400SOL    HW210875   4.445   2.468   0.317
 3401SOL     OW10876   3.976   3.426   1.744
 3401SOL    HW110877   3.946   3.483   1.820
 3401SOL    HW210878   3.969   3.329   1.770
 3402SOL     OW10879   4.395   2.326   1.269
 3402SOL    HW110880   4.361   2.237   1.239
 3402SOL    HW210881   4.421   2.380   1.189
 3403SOL     OW10882   4.654   3.540   1.465
 3403SOL    HW110883   4.630   3.522   1.370
 3403SOL    HW210884   4.684   3.634   1.475
 3404SOL     OW10885   4.197   2.362   0.191
 3404SOL    HW110886   4.258   2.442   0.195
 3404SOL    HW210887   4.102   2.393   0.198
 3405SOL     OW10888   3.883   2.999   1.466
 3405SOL    HW110889   3.905   2.938   1.542
 3405SOL    HW210890   3.893   2.950   1.380
 3406SOL     OW10891   4.976   3.593   1.128
 3406SOL    HW110892   5.060   3.598   1.074
 3406SOL    HW210893   4.953   3.497   1.146
 3407SOL     OW10894   3.807   3.120   1.022
 3407SOL    HW110895   3.802   3.119   1.122
 3407SOL    HW210896   3.724   3.079   0.984
 3408SOL     OW10897   4.412   3.524   1.716
 3408SOL    HW110898   4.356   3.605   1.725
 3408SOL    HW210899   4.464   3.528   1.630
 3409SOL     OW10900   4.627   1.948   0.133
 3409SOL    HW110901   4.678   1.949   0.047
 3409SOL    HW210902   4.683   1.906   0.204
 3410SOL     OW10903   5.112   3.435   0.477
 3410SOL    HW110904   5.179   3.447   0.403
 3410SOL    HW210905   5.072   3.524   0.500
 3411SOL     OW10906   3.854   3.656   1.851
 3411SOL    HW110907   3.813   3.582   1.904
 3411SOL    HW210908   3.918   3.707   1.909
 3412SOL     OW10909   4.554   3.135   1.422
 3412SOL    HW110910   4.549   3.168   1.517
 3412SOL    HW210911   4.468   3.154   1.376
 3413SOL     OW10912   4.396   3.478   0.154
 3413SOL    HW110913   4.405   3.488   0.055
 3413SOL    HW210914   4.356   3.389   0.175
 3414SOL     OW10915   3.987   2.188   0.720
 3414SOL    HW110916   3.908   2.239   0.686
 3414SOL    HW210917   3.978   2.173   0.818
 3415SOL     OW10918   4.918   3.474   0.031
 3415SOL    HW110919   4.924   3.381   0.068
 3415SOL    HW210920   4.859   3.474  -0.049
 3416SOL     OW10921   4.546   2.864   1.372
 3416SOL    HW110922   4.586   2.863   1.280
 3416SOL    HW210923   4.556   2.956   1.412
 3417SOL     OW10924   4.096   3.150   1.490
 3417SOL    HW110925   4.083   3.243   1.456
 3417SOL    HW210926   4.012   3.098   1.477
 3418SOL     OW10927   4.738   2.098   0.971
 3418SOL    HW110928   4.730   2.062   0.878
 3418SOL    HW210929   4.736   2.022   1.036
 3419SOL     OW10930   4.314   3.349   0.491
 3419SOL    HW110931   4.356   3.291   0.421
 3419SOL    HW210932   4.270   3.428   0.447
 3420SOL     OW10933   3.829   2.875   1.726
 3420SOL    HW110934   3.752   2.842   1.780
 3420SOL    HW210935   3.914   2.845   1.768
 3421SOL     OW10936   4.396   2.065   1.489
 3421SOL    HW110937   4.486   2.049   1.449
 3421SOL    HW210938   4.404   2.070   1.588
 3422SOL     OW10939   3.796   2.028   0.318
 3422SOL    HW110940   3.779   2.111   0.264
 3422SOL    HW210941   3.886   1.991   0.296
 3423SOL     OW10942   4.337   2.704   1.431
 3423SOL    HW110943   4.393   2.785   1.414
 3423SOL    HW210944   4.396   2.624   1.434
 3424SOL     OW10945   4.440   2.427   1.708
 3424SOL    HW110946   4.459   2.492   1.782
 3424SOL    HW210947   4.500   2.347   1.717
 3425SOL     OW10948   4.114   3.603   1.560
 3425SOL    HW110949   4.023   3.644   1.558
 3425SOL    HW210950   4.107   3.509   1.592
 3426SOL     OW10951   4.949   2.187   0.449
 3426SOL    HW110952   5.014   2.113   0.438
 3426SOL    HW210953   4.969   2.237   0.533
 3427SOL     OW10954   4.318   2.607   0.652
 3427SOL    HW110955   4.368   2.692   0.633
 3427SOL    HW210956   4.230   2.609   0.604
 3428SOL     OW10957   4.583   3.236   0.016
 3428SOL    HW110958   4.537   3.251   0.104
 3428SOL    HW210959   4.627   3.321  -0.014
 3429SOL     OW10960   4.385   3.652   0.953
 3429SOL    HW110961   4.339   3.740   0.940
 3429SOL    HW210962   4.484   3.664   0.946
 3430SOL     OW10963   4.583   2.818   0.861
 3430SOL    HW110964   4.637   2.749   0.909
 3430SOL    HW210965   4.551   2.887   0.927
 3431SOL     OW10966   4.807   2.846   0.087
 3431SOL    HW110967   4.784   2.899   0.005
 3431SOL    HW210968   4.888   2.790   0.068
 3432SOL     OW10969   3.945   3.176   1.844
 3432SOL    HW110970   3.880   3.103   1.823
 3432SOL    HW210971   3.949   3.190   1.942
 3433SOL     OW10972   4.396   3.253   1.624
 3433SOL    HW110973   4.318   3.203   1.662
 3433SOL    HW210974   4.393   3.348   1.655
 3434SOL     OW10975   4.152   2.286   0.520
 3434SOL    HW110976   4.182   2.214   0.458
 3434SOL    HW210977   4.113   2.246   0.603
 3435SOL     OW10978   4.041   2.409   1.280
 3435SOL    HW110979   4.079   2.350   1.352
 3435SOL    HW210980   4.081   2.383   1.192
 3436SOL     OW10981   4.536   3.448   0.687
 3436SOL    HW110982   4.568   3.458   0.593
 3436SOL    HW210983   4.457   3.386   0.689
 3437SOL     OW10984   4.725   1.896   1.154
 3437SOL    HW110985   4.662   1.824   1.123
 3437SOL    HW210986   4.818   1.860   1.154
 3438SOL     OW10987   4.494   3.192   0.301
 3438SOL    HW110988   4.448   3.105   0.318
 3438SOL    HW210989   4.585   3.189   0.342
 3439SOL     OW10990   4.342   3.429   1.284
 3439SOL    HW110991   4.337   3.511   1.341
 3439SOL    HW210992   4.431   3.426   1.239
 3440SOL     OW10993   4.599   3.508   0.337
 3440SOL    HW110994   4.522   3.473   0.283
 3440SOL    HW210995   4.567   3.579   0.399
 3441SOL     OW10996   3.954   2.490   1.975
 3441SOL    HW110997   3.861   2.488   2.012
 3441SOL    HW210998   3.955   2.451   1.883
 3442SOL     OW10999   3.949   2.137   2.858
 3442SOL    HW111000   3.984   2.120   2.950
 3442SOL    HW211001   3.861   2.092   2.846
 3443SOL     OW11002   3.743   2.230   2.509
 3443SOL    HW111003   3.661   2.273   2.548
 3443SOL    HW211004   3.715   2.157   2.446
 3444SOL     OW11005   4.293   3.137   3.027
 3444SOL    HW111006   4.200   3.130   2.990
 3444SOL    HW211007   4.304   3.226   3.071
 3445SOL     OW11008   4.859   2.565   2.579
 3445SOL    HW111009   4.916   2.643   2.554
 3445SOL    HW211010   4.799   2.591   2.655
 3446SOL     OW11011   4.492   3.006   2.885
 3446SOL    HW111012   4.414   3.023   2.945
 3446SOL    HW211013   4.526   3.093   2.849
 3447SOL     OW11014   4.574   2.660   3.685
 3447SOL    HW111015   4.570   2.736   3.750
 3447SOL    HW211016   4.596   2.696   3.594
 3448SOL     OW11017   4.409   2.874   2.527
 3448SOL    HW111018   4.478   2.858   2.597
 3448SOL    HW211019   4.336   2.931   2.565
 3449SOL     OW11020   4.410   3.023   3.665
 3449SOL    HW111021   4.470   3.102   3.679
 3449SOL    HW211022   4.324   3.054   3.624
 3450SOL     OW11023   4.059   3.297   2.923
 3450SOL    HW111024   3.981   3.266   2.870
 3450SOL    HW211025   4.117   3.355   2.866
 3451SOL     OW11026   4.162   2.254   3.361
 3451SOL    HW111027   4.244   2.198   3.370
 3451SOL    HW211028   4.081   2.196   3.365
 3452SOL     OW11029   3.955   3.575   2.345
 3452SOL    HW111030   3.989   3.652   2.399
 3452SOL    HW211031   3.999   3.575   2.255
 3453SOL     OW11032   4.851   3.203   3.552
 3453SOL    HW111033   4.898   3.203   3.640
 3453SOL    HW211034   4.803   3.116   3.541
 3454SOL     OW11035   3.954   3.296   2.400
 3454SOL    HW111036   3.928   3.392   2.400
 3454SOL    HW211037   3.883   3.242   2.445
 3455SOL     OW11038   3.964   2.953   2.748
 3455SOL    HW111039   3.978   2.869   2.800
 3455SOL    HW211040   3.909   3.017   2.803
 3456SOL     OW11041   4.344   3.648   3.301
 3456SOL    HW111042   4.252   3.631   3.336
 3456SOL    HW211043   4.372   3.740   3.327
 3457SOL     OW11044   4.330   2.826   1.985
 3457SOL    HW111045   4.337   2.910   1.931
 3457SOL    HW211046   4.376   2.839   2.073
 3458SOL     OW11047   3.846   2.505   2.425
 3458SOL    HW111048   3.801   2.417   2.442
 3458SOL    HW211049   3.845   2.559   2.509
 3459SOL     OW11050   3.751   3.458   1.979
 3459SOL    HW111051   3.732   3.362   2.000
 3459SOL    HW211052   3.718   3.516   2.054
 3460SOL     OW11053   3.837   2.599   3.459
 3460SOL    HW111054   3.925   2.586   3.504
 3460SOL    HW211055   3.824   2.696   3.437
 3461SOL     OW11056   4.337   3.227   2.588
 3461SOL    HW111057   4.288   3.140   2.597
 3461SOL    HW211058   4.314   3.270   2.501
 3462SOL     OW11059   5.017   3.090   3.285
 3462SOL    HW111060   5.054   3.017   3.227
 3462SOL    HW211061   5.069   3.095   3.370
 3463SOL     OW11062   4.533   1.866   2.364
 3463SOL    HW111063   4.573   1.957   2.355
 3463SOL    HW211064   4.433   1.874   2.370
 3464SOL     OW11065   3.921   2.838   3.126
 3464SOL    HW111066   4.010   2.793   3.112
 3464SOL    HW211067   3.848   2.773   3.107
 3465SOL     OW11068   4.911   3.654   3.478
 3465SOL    HW111069   4.935   3.714   3.402
 3465SOL    HW211070   4.918   3.559   3.448
 3466SOL     OW11071   4.041   2.113   3.663
 3466SOL    HW111072   4.112   2.184   3.669
 3466SOL    HW211073   3.953   2.152   3.691
 3467SOL     OW11074   4.322   2.591   2.132
 3467SOL    HW111075   4.346   2.660   2.064
 3467SOL    HW211076   4.244   2.624   2.186
 3468SOL     OW11077   5.005   2.207   2.806
 3468SOL    HW111078   4.919   2.157   2.793
 3468SOL    HW211079   5.067   2.153   2.862
 3469SOL     OW11080   4.531   2.467   3.327
 3469SOL    HW111081   4.484   2.464   3.416
 3469SOL    HW211082   4.480   2.412   3.261
 3470SOL     OW11083   4.697   2.752   3.434
 3470SOL    HW111084   4.743   2.668   3.405
 3470SOL    HW211085   4.641   2.786   3.359
 3471SOL     OW11086   4.715   2.272   3.104
 3471SOL    HW111087   4.638   2.306   3.158
 3471SOL    HW211088   4.681   2.221   3.025
 3472SOL     OW11089   4.765   2.563   2.291
 3472SOL    HW111090   4.791   2.559   2.387
 3472SOL    HW211091   4.680   2.512   2.277
 3473SOL     OW11092   3.800   2.673   2.651
 3473SOL    HW111093   3.899   2.661   2.660
 3473SOL    HW211094   3.776   2.768   2.672
 3474SOL     OW11095   3.854   3.683   3.433
 3474SOL    HW111096   3.844   3.668   3.532
 3474SOL    HW211097   3.768   3.719   3.397
 3475SOL     OW11098   4.589   2.210   2.057
 3475SOL    HW111099   4.648   2.273   2.008
 3475SOL    HW211100   4.608   2.116   2.028
 3476SOL     OW11101   4.274   2.058   2.747
 3476SOL    HW111102   4.269   2.053   2.847
 3476SOL    HW211103   4.276   2.154   2.718
 3477SOL     OW11104   4.732   3.318   2.339
 3477SOL    HW111105   4.686   3.390   2.287
 3477SOL    HW211106   4.728   3.338   2.437
 3478SOL     OW11107   4.075   3.663   2.715
 3478SOL    HW111108   4.125   3.577   2.721
 3478SOL    HW211109   4.140   3.740   2.712
 3479SOL     OW11110   4.951   3.412   3.368
 3479SOL    HW111111   4.957   3.335   3.432
 3479SOL    HW211112   4.899   3.386   3.288
 3480SOL     OW11113   4.045   2.805   2.104
 3480SOL    HW111114   4.127   2.844   2.062
 3480SOL    HW211115   4.018   2.723   2.055
 3481SOL     OW11116   4.185   3.128   3.589
 3481SOL    HW111117   4.135   3.129   3.503
 3481SOL    HW211118   4.122   3.110   3.665
 3482SOL     OW11119   4.835   3.638   2.099
 3482SOL    HW111120   4.775   3.576   2.149
 3482SOL    HW211121   4.866   3.594   2.014
 3483SOL     OW11122   3.926   2.147   3.360
 3483SOL    HW111123   3.846   2.207   3.347
 3483SOL    HW211124   3.916   2.098   3.446
 3484SOL     OW11125   4.188   3.605   2.185
 3484SOL    HW111126   4.221   3.644   2.271
 3484SOL    HW211127   4.264   3.598   2.120
 3485SOL     OW11128   3.973   3.647   3.103
 3485SOL    HW111129   4.030   3.582   3.153
 3485SOL    HW211130   3.957   3.614   3.010
 3486SOL     OW11131   4.664   3.560   2.766
 3486SOL    HW111132   4.744   3.503   2.787
 3486SOL    HW211133   4.615   3.520   2.689
 3487SOL     OW11134   4.106   2.562   2.342
 3487SOL    HW111135   4.151   2.472   2.339
 3487SOL    HW211136   4.012   2.551   2.375
 3488SOL     OW11137   4.338   1.984   1.979
 3488SOL    HW111138   4.436   1.962   1.986
 3488SOL    HW211139   4.307   1.967   1.886
 3489SOL     OW11140   4.505   2.126   3.611
 3489SOL    HW111141   4.572   2.065   3.654
 3489SOL    HW211142   4.432   2.145   3.676
 3490SOL     OW11143   4.612   3.376   3.057
 3490SOL    HW111144   4.589   3.351   2.963
 3490SOL    HW211145   4.673   3.307   3.096
 3491SOL     OW11146   4.527   3.264   2.786
 3491SOL    HW111147   4.617   3.278   2.744
 3491SOL    HW211148   4.456   3.266   2.715
 3492SOL     OW11149   4.646   2.365   2.761
 3492SOL    HW111150   4.621   2.356   2.665
 3492SOL    HW211151   4.694   2.283   2.792
 3493SOL     OW11152   4.263   1.926   2.374
 3493SOL    HW111153   4.182   1.927   2.432
 3493SOL    HW211154   4.266   2.009   2.319
 3494SOL     OW11155   4.021   1.897   2.033
 3494SOL    HW111156   4.070   1.981   2.012
 3494SOL    HW211157   4.083   1.832   2.078
 3495SOL     OW11158   4.659   2.098   2.342
 3495SOL    HW111159   4.611   2.139   2.264
 3495SOL    HW211160   4.758   2.096   2.323
 3496SOL     OW11161   4.800   2.545   3.326
 3496SOL    HW111162   4.720   2.484   3.329
 3496SOL    HW211163   4.881   2.492   3.302
 3497SOL     OW11164   4.951   3.432   2.655
 3497SOL    HW111165   4.972   3.506   2.590
 3497SOL    HW211166   5.019   3.432   2.728
 3498SOL     OW11167   4.183   3.014   2.603
 3498SOL    HW111168   4.112   2.987   2.668
 3498SOL    HW211169   4.157   2.986   2.510
 3499SOL     OW11170   4.995   3.659   2.453
 3499SOL    HW111171   5.039   3.723   2.389
 3499SOL    HW211172   4.945   3.711   2.523
 3500SOL     OW11173   4.756   2.411   1.878
 3500SOL    HW111174   4.715   2.493   1.839
 3500SOL    HW211175   4.820   2.437   1.951
 3501SOL     OW11176   3.802   2.418   3.248
 3501SOL    HW111177   3.894   2.417   3.207
 3501SOL    HW211178   3.796   2.492   3.315
 3502SOL     OW11179   4.285   2.084   3.009
 3502SOL    HW111180   4.323   2.000   3.046
 3502SOL    HW211181   4.197   2.103   3.053
 3503SOL     OW11182   4.590   2.316   2.504
 3503SOL    HW111183   4.558   2.388   2.442
 3503SOL    HW211184   4.614   2.235   2.451
 3504SOL     OW11185   4.741   1.901   2.615
 3504SOL    HW111186   4.669   1.906   2.546
 3504SOL    HW211187   4.717   1.832   2.684
 3505SOL     OW11188   4.212   3.247   2.036
 3505SOL    HW111189   4.125   3.232   2.083
 3505SOL    HW211190   4.195   3.273   1.941
 3506SOL     OW11191   5.388   3.142   2.519
 3506SOL    HW111192   5.487   3.150   2.533
 3506SOL    HW211193   5.343   3.226   2.550
 3507SOL     OW11194   4.251   2.118   2.190
 3507SOL    HW111195   4.278   2.059   2.115
 3507SOL    HW211196   4.251   2.213   2.159
 3508SOL     OW11197   4.788   3.209   3.202
 3508SOL    HW111198   4.708   3.186   3.257
 3508SOL    HW211199   4.871   3.183   3.251
 3509SOL     OW11200   4.835   3.057   2.962
 3509SOL    HW111201   4.795   3.101   3.043
 3509SOL    HW211202   4.794   3.094   2.879
 3510SOL     OW11203   4.639   1.951   3.264
 3510SOL    HW111204   4.664   1.931   3.169
 3510SOL    HW211205   4.711   2.007   3.306
 3511SOL     OW11206   4.704   2.978   3.581
 3511SOL    HW111207   4.605   2.984   3.591
 3511SOL    HW211208   4.727   2.898   3.525
 3512SOL     OW11209   4.429   2.912   2.230
 3512SOL    HW111210   4.415   2.919   2.329
 3512SOL    HW211211   4.513   2.861   2.212
 3513SOL     OW11212   4.134   2.675   3.113
 3513SOL    HW111213   4.220   2.687   3.163
 3513SOL    HW211214   4.092   2.588   3.140
 3514SOL     OW11215   4.998   2.248   3.124
 3514SOL    HW111216   5.019   2.322   3.188
 3514SOL    HW211217   4.909   2.265   3.081
 3515SOL     OW11218   3.788   3.426   3.193
 3515SOL    HW111219   3.742   3.508   3.159
 3515SOL    HW211220   3.886   3.445   3.202
 3516SOL     OW11221   4.091   2.962   2.363
 3516SOL    HW111222   4.084   3.045   2.307
 3516SOL    HW211223   4.095   2.882   2.303
 3517SOL     OW11224   4.290   2.399   2.727
 3517SOL    HW111225   4.302   2.465   2.653
 3517SOL    HW211226   4.336   2.433   2.810
 3518SOL     OW11227   4.976   3.210   2.250
 3518SOL    HW111228   5.026   3.287   2.290
 3518SOL    HW211229   4.881   3.212   2.282
 3519SOL     OW11230   4.078   3.372   3.191
 3519SOL    HW111231   4.057   3.328   3.104
 3519SOL    HW211232   4.175   3.398   3.194
 3520SOL     OW11233   4.126   2.613   3.460
 3520SOL    HW111234   4.194   2.668   3.413
 3520SOL    HW211235   4.166   2.525   3.487
 3521SOL     OW11236   4.737   1.967   3.632
 3521SOL    HW111237   4.743   2.052   3.580
 3521SOL    HW211238   4.769   1.891   3.575
 3522SOL     OW11239   4.228   1.912   3.602
 3522SOL    HW111240   4.186   1.855   3.532
 3522SOL    HW211241   4.162   1.981   3.634
 3523SOL     OW11242   4.297   2.732   2.891
 3523SOL    HW111243   4.341   2.821   2.882
 3523SOL    HW211244   4.234   2.732   2.968
 3524SOL     OW11245   5.084   2.724   2.907
 3524SOL    HW111246   5.009   2.724   2.841
 3524SOL    HW211247   5.121   2.632   2.916
 3525SOL     OW11248   4.031   2.075   3.093
 3525SOL    HW111249   4.008   2.112   3.183
 3525SOL    HW211250   4.001   1.980   3.087
 3526SOL     OW11251   3.761   3.172   3.144
 3526SOL    HW111252   3.814   3.123   3.212
 3526SOL    HW211253   3.783   3.270   3.149
 3527SOL     OW11254   4.456   2.496   2.926
 3527SOL    HW111255   4.515   2.470   2.850
 3527SOL    HW211256   4.428   2.592   2.915
 3528SOL     OW11257   4.031   1.925   2.480
 3528SOL    HW111258   4.020   2.019   2.513
 3528SOL    HW211259   4.026   1.862   2.557
 3529SOL     OW11260   5.346   2.229   2.236
 3529SOL    HW111261   5.348   2.153   2.300
 3529SOL    HW211262   5.298   2.306   2.276
 3530SOL     OW11263   4.747   2.628   2.828
 3530SOL    HW111264   4.762   2.649   2.924
 3530SOL    HW211265   4.717   2.533   2.819
 3531SOL     OW11266   4.704   3.435   3.562
 3531SOL    HW111267   4.684   3.479   3.474
 3531SOL    HW211268   4.743   3.344   3.546
 3532SOL     OW11269   4.074   2.760   3.666
 3532SOL    HW111270   4.150   2.804   3.714
 3532SOL    HW211271   4.109   2.713   3.584
 3533SOL     OW11272   5.027   2.700   1.904
 3533SOL    HW111273   5.061   2.607   1.919
 3533SOL    HW211274   5.045   2.727   1.809
 3534SOL     OW11275   4.792   3.195   2.711
 3534SOL    HW111276   4.799   3.111   2.656
 3534SOL    HW211277   4.854   3.264   2.675
 3535SOL     OW11278   4.043   2.672   2.811
 3535SOL    HW111279   4.136   2.708   2.816
 3535SOL    HW211280   4.037   2.587   2.863
 3536SOL     OW11281   4.063   2.371   2.868
 3536SOL    HW111282   4.011   2.288   2.851
 3536SOL    HW211283   4.140   2.376   2.804
 3537SOL     OW11284   4.862   2.242   3.540
 3537SOL    HW111285   4.817   2.305   3.604
 3537SOL    HW211286   4.955   2.273   3.523
 3538SOL     OW11287   4.884   2.069   3.339
 3538SOL    HW111288   4.884   2.133   3.416
 3538SOL    HW211289   4.912   2.117   3.256
 3539SOL     OW11290   3.732   3.188   2.062
 3539SOL    HW111291   3.639   3.209   2.031
 3539SOL    HW211292   3.742   3.089   2.075
 3540SOL     OW11293   3.812   3.663   2.789
 3540SOL    HW111294   3.770   3.577   2.762
 3540SOL    HW211295   3.906   3.666   2.755
 3541SOL     OW11296   4.228   3.430   2.772
 3541SOL    HW111297   4.294   3.504   2.781
 3541SOL    HW211298   4.272   3.351   2.730
 3542SOL     OW11299   4.726   2.658   3.100
 3542SOL    HW111300   4.767   2.626   3.186
 3542SOL    HW211301   4.630   2.631   3.097
 3543SOL     OW11302   3.764   2.406   2.976
 3543SOL    HW111303   3.849   2.373   2.935
 3543SOL    HW211304   3.777   2.421   3.074
 3544SOL     OW11305   3.913   2.382   3.584
 3544SOL    HW111306   3.972   2.342   3.514
 3544SOL    HW211307   3.855   2.453   3.543
 3545SOL     OW11308   4.539   2.434   2.187
 3545SOL    HW111309   4.546   2.345   2.141
 3545SOL    HW211310   4.445   2.468   2.179
 3546SOL     OW11311   3.976   3.426   3.606
 3546SOL    HW111312   3.946   3.483   3.682
 3546SOL    HW211313   3.969   3.329   3.632
 3547SOL     OW11314   4.395   2.326   3.131
 3547SOL    HW111315   4.361   2.237   3.101
 3547SOL    HW211316   4.421   2.380   3.051
 3548SOL     OW11317   4.654   3.540   3.327
 3548SOL    HW111318   4.630   3.522   3.232
 3548SOL    HW211319   4.684   3.634   3.337
 3549SOL     OW11320   4.197   2.362   2.053
 3549SOL    HW111321   4.258   2.442   2.057
 3549SOL    HW211322   4.102   2.393   2.060
 3550SOL     OW11323   3.883   2.999   3.328
 3550SOL    HW111324   3.905   2.938   3.404
 3550SOL    HW211325   3.893   2.950   3.242
 3551SOL     OW11326   5.071   2.921   3.096
 3551SOL    HW111327   5.095   2.858   3.022
 3551SOL    HW211328   4.981   2.961   3.078
 3552SOL     OW11329   4.976   3.593   2.990
 3552SOL    HW111330   5.060   3.598   2.936
 3552SOL    HW211331   4.953   3.497   3.008
 3553SOL     OW11332   3.807   3.120   2.884
 3553SOL    HW111333   3.802   3.119   2.984
 3553SOL    HW211334   3.724   3.079   2.846
 3554SOL     OW11335   4.412   3.524   3.578
 3554SOL    HW111336   4.356   3.605   3.587
 3554SOL    HW211337   4.464   3.528   3.492
 3555SOL     OW11338   5.112   3.435   2.339
 3555SOL    HW111339   5.179   3.447   2.265
 3555SOL    HW211340   5.072   3.524   2.362
 3556SOL     OW11341   3.854   3.656   3.713
 3556SOL    HW111342   3.813   3.582   3.766
 3556SOL    HW211343   3.918   3.707   3.771
 3557SOL     OW11344   5.004   2.789   2.534
 3557SOL    HW111345   5.064   2.708   2.536
 3557SOL    HW211346   5.044   2.858   2.474
 3558SOL     OW11347   4.554   3.135   3.284
 3558SOL    HW111348   4.549   3.168   3.379
 3558SOL    HW211349   4.468   3.154   3.238
 3559SOL     OW11350   4.396   3.478   2.016
 3559SOL    HW111351   4.405   3.488   1.917
 3559SOL    HW211352   4.356   3.389   2.037
 3560SOL     OW11353   3.987   2.188   2.582
 3560SOL    HW111354   3.908   2.239   2.548
 3560SOL    HW211355   3.978   2.173   2.680
 3561SOL     OW11356   4.918   3.474   1.893
 3561SOL    HW111357   4.924   3.381   1.930
 3561SOL    HW211358   4.859   3.474   1.813
 3562SOL     OW11359   4.546   2.864   3.234
 3562SOL    HW111360   4.586   2.863   3.142
 3562SOL    HW211361   4.556   2.956   3.274
 3563SOL     OW11362   4.640   2.772   2.153
 3563SOL    HW111363   4.703   2.810   2.085
 3563SOL    HW211364   4.680   2.689   2.192
 3564SOL     OW11365   4.096   3.150   3.352
 3564SOL    HW111366   4.083   3.243   3.318
 3564SOL    HW211367   4.012   3.098   3.339
 3565SOL     OW11368   4.763   2.960   2.558
 3565SOL    HW111369   4.693   2.913   2.612
 3565SOL    HW211370   4.822   2.892   2.515
 3566SOL     OW11371   4.738   2.098   2.833
 3566SOL    HW111372   4.730   2.062   2.740
 3566SOL    HW211373   4.736   2.022   2.898
 3567SOL     OW11374   4.314   3.349   2.353
 3567SOL    HW111375   4.356   3.291   2.283
 3567SOL    HW211376   4.270   3.428   2.309
 3568SOL     OW11377   3.979   3.210   2.152
 3568SOL    HW111378   3.883   3.211   2.125
 3568SOL    HW211379   3.991   3.263   2.236
 3569SOL     OW11380   3.829   2.875   3.588
 3569SOL    HW111381   3.752   2.842   3.642
 3569SOL    HW211382   3.914   2.845   3.630
 3570SOL     OW11383   4.396   2.065   3.351
 3570SOL    HW111384   4.486   2.049   3.311
 3570SOL    HW211385   4.404   2.070   3.450
 3571SOL     OW11386   3.799   2.207   1.895
 3571SOL    HW111387   3.707   2.179   1.866
 3571SOL    HW211388   3.830   2.284   1.839
 3572SOL     OW11389   5.164   2.718   3.260
 3572SOL    HW111390   5.107   2.770   3.197
 3572SOL    HW211391   5.260   2.730   3.236
 3573SOL     OW11392   3.796   2.028   2.180
 3573SOL    HW111393   3.779   2.111   2.126
 3573SOL    HW211394   3.886   1.991   2.158
 3574SOL     OW11395   4.337   2.704   3.293
 3574SOL    HW111396   4.393   2.785   3.276
 3574SOL    HW211397   4.396   2.624   3.296
 3575SOL     OW11398   4.440   2.427   3.570
 3575SOL    HW111399   4.459   2.492   3.644
 3575SOL    HW211400   4.500   2.347   3.579
 3576SOL     OW11401   4.114   3.603   3.422
 3576SOL    HW111402   4.023   3.644   3.420
 3576SOL    HW211403   4.107   3.509   3.454
 3577SOL     OW11404   4.318   2.607   2.514
 3577SOL    HW111405   4.368   2.692   2.495
 3577SOL    HW211406   4.230   2.609   2.466
 3578SOL     OW11407   4.583   3.236   1.878
 3578SOL    HW111408   4.537   3.251   1.966
 3578SOL    HW211409   4.627   3.321   1.848
 3579SOL     OW11410   4.385   3.652   2.815
 3579SOL    HW111411   4.339   3.740   2.802
 3579SOL    HW211412   4.484   3.664   2.808
 3580SOL     OW11413   4.583   2.818   2.723
 3580SOL    HW111414   4.637   2.749   2.771
 3580SOL    HW211415   4.551   2.887   2.789
 3581SOL     OW11416   4.807   2.846   1.949
 3581SOL    HW111417   4.784   2.899   1.867
 3581SOL    HW211418   4.888   2.790   1.930
 3582SOL     OW11419   3.945   3.176   3.706
 3582SOL    HW111420   3.880   3.103   3.685
 3582SOL    HW211421   3.949   3.190   3.804
 3583SOL     OW11422   4.396   3.253   3.486
 3583SOL    HW111423   4.318   3.203   3.524
 3583SOL    HW211424   4.393   3.348   3.517
 3584SOL     OW11425   4.152   2.286   2.382
 3584SOL    HW111426   4.182   2.214   2.320
 3584SOL    HW211427   4.113   2.246   2.465
 3585SOL     OW11428   4.041   2.409   3.142
 3585SOL    HW111429   4.079   2.350   3.214
 3585SOL    HW211430   4.081   2.383   3.054
 3586SOL     OW11431   4.536   3.448   2.549
 3586SOL    HW111432   4.568   3.458   2.455
 3586SOL    HW211433   4.457   3.386   2.551
 3587SOL     OW11434   4.725   1.896   3.016
 3587SOL    HW111435   4.662   1.824   2.985
 3587SOL    HW211436   4.818   1.860   3.016
 3588SOL     OW11437   4.494   3.192   2.163
 3588SOL    HW111438   4.448   3.105   2.180
 3588SOL    HW211439   4.585   3.189   2.204
 3589SOL     OW11440   4.342   3.429   3.146
 3589SOL    HW111441   4.337   3.511   3.203
 3589SOL    HW211442   4.431   3.426   3.101
 3590SOL     OW11443   3.763   2.939   2.162
 3590SOL    HW111444   3.862   2.928   2.153
 3590SOL    HW211445   3.723   2.853   2.194
 3591SOL     OW11446   4.599   3.508   2.199
 3591SOL    HW111447   4.522   3.473   2.145
 3591SOL    HW211448   4.567   3.579   2.261
 3592SOL     OW11449   3.954   2.490   3.837
 3592SOL    HW111450   3.861   2.488   3.874
 3592SOL    HW211451   3.955   2.451   3.745
 3593SOL     OW11452   3.949   2.137   4.720
 3593SOL    HW111453   3.984   2.120   4.812
 3593SOL    HW211454   3.861   2.092   4.708
 3594SOL     OW11455   3.743   2.230   4.371
 3594SOL    HW111456   3.661   2.273   4.410
 3594SOL    HW211457   3.715   2.157   4.308
 3595SOL     OW11458   4.293   3.137   4.889
 3595SOL    HW111459   4.200   3.130   4.852
 3595SOL    HW211460   4.304   3.226   4.933
 3596SOL     OW11461   4.859   2.565   4.441
 3596SOL    HW111462   4.916   2.643   4.416
 3596SOL    HW211463   4.799   2.591   4.517
 3597SOL     OW11464   4.492   3.006   4.747
 3597SOL    HW111465   4.414   3.023   4.807
 3597SOL    HW211466   4.526   3.093   4.711
 3598SOL     OW11467   4.409   2.874   4.389
 3598SOL    HW111468   4.478   2.858   4.459
 3598SOL    HW211469   4.336   2.931   4.427
 3599SOL     OW11470   4.059   3.297   4.785
 3599SOL    HW111471   3.981   3.266   4.732
 3599SOL    HW211472   4.117   3.355   4.728
 3600SOL     OW11473   3.954   3.296   4.262
 3600SOL    HW111474   3.928   3.392   4.262
 3600SOL    HW211475   3.883   3.242   4.307
 3601SOL     OW11476   3.964   2.953   4.610
 3601SOL    HW111477   3.978   2.869   4.662
 3601SOL    HW211478   3.909   3.017   4.665
 3602SOL     OW11479   4.344   3.648   5.163
 3602SOL    HW111480   4.252   3.631   5.198
 3602SOL    HW211481   4.372   3.740   5.189
 3603SOL     OW11482   4.330   2.826   3.847
 3603SOL    HW111483   4.337   2.910   3.793
 3603SOL    HW211484   4.376   2.839   3.935
 3604SOL     OW11485   3.846   2.505   4.287
 3604SOL    HW111486   3.801   2.417   4.304
 3604SOL    HW211487   3.845   2.559   4.371
 3605SOL     OW11488   3.751   3.458   3.841
 3605SOL    HW111489   3.732   3.362   3.862
 3605SOL    HW211490   3.718   3.516   3.916
 3606SOL     OW11491   4.337   3.227   4.450
 3606SOL    HW111492   4.288   3.140   4.459
 3606SOL    HW211493   4.314   3.270   4.363
 3607SOL     OW11494   4.533   1.866   4.226
 3607SOL    HW111495   4.573   1.957   4.217
 3607SOL    HW211496   4.433   1.874   4.232
 3608SOL     OW11497   4.322   2.591   3.994
 3608SOL    HW111498   4.346   2.660   3.926
 3608SOL    HW211499   4.244   2.624   4.048
 3609SOL     OW11500   5.005   2.207   4.668
 3609SOL    HW111501   4.919   2.157   4.655
 3609SOL    HW211502   5.067   2.153   4.724
 3610SOL     OW11503   4.715   2.272   4.966
 3610SOL    HW111504   4.638   2.306   5.020
 3610SOL    HW211505   4.681   2.221   4.887
 3611SOL     OW11506   4.765   2.563   4.153
 3611SOL    HW111507   4.791   2.559   4.249
 3611SOL    HW211508   4.680   2.512   4.139
 3612SOL     OW11509   3.800   2.673   4.513
 3612SOL    HW111510   3.899   2.661   4.522
 3612SOL    HW211511   3.776   2.768   4.534
 3613SOL     OW11512   4.589   2.210   3.919
 3613SOL    HW111513   4.648   2.273   3.870
 3613SOL    HW211514   4.608   2.116   3.890
 3614SOL     OW11515   4.274   2.058   4.609
 3614SOL    HW111516   4.269   2.053   4.709
 3614SOL    HW211517   4.276   2.154   4.580
 3615SOL     OW11518   4.732   3.318   4.201
 3615SOL    HW111519   4.686   3.390   4.149
 3615SOL    HW211520   4.728   3.338   4.299
 3616SOL     OW11521   4.075   3.663   4.577
 3616SOL    HW111522   4.125   3.577   4.583
 3616SOL    HW211523   4.140   3.740   4.574
 3617SOL     OW11524   4.045   2.805   3.966
 3617SOL    HW111525   4.127   2.844   3.924
 3617SOL    HW211526   4.018   2.723   3.917
 3618SOL     OW11527   4.835   3.638   3.961
 3618SOL    HW111528   4.775   3.576   4.011
 3618SOL    HW211529   4.866   3.594   3.876
 3619SOL     OW11530   3.973   3.647   4.965
 3619SOL    HW111531   4.030   3.582   5.015
 3619SOL    HW211532   3.957   3.614   4.872
 3620SOL     OW11533   4.664   3.560   4.628
 3620SOL    HW111534   4.744   3.503   4.649
 3620SOL    HW211535   4.615   3.520   4.551
 3621SOL     OW11536   4.106   2.562   4.204
 3621SOL    HW111537   4.151   2.472   4.201
 3621SOL    HW211538   4.012   2.551   4.237
 3622SOL     OW11539   4.338   1.984   3.841
 3622SOL    HW111540   4.436   1.962   3.848
 3622SOL    HW211541   4.307   1.967   3.748
 3623SOL     OW11542   4.527   3.264   4.648
 3623SOL    HW111543   4.617   3.278   4.606
 3623SOL    HW211544   4.456   3.266   4.577
 3624SOL     OW11545   4.646   2.365   4.623
 3624SOL    HW111546   4.621   2.356   4.527
 3624SOL    HW211547   4.694   2.283   4.654
 3625SOL     OW11548   4.263   1.926   4.236
 3625SOL    HW111549   4.182   1.927   4.294
 3625SOL    HW211550   4.266   2.009   4.181
 3626SOL     OW11551   4.021   1.897   3.895
 3626SOL    HW111552   4.070   1.981   3.874
 3626SOL    HW211553   4.083   1.832   3.940
 3627SOL     OW11554   4.659   2.098   4.204
 3627SOL    HW111555   4.611   2.139   4.126
 3627SOL    HW211556   4.758   2.096   4.185
 3628SOL     OW11557   4.951   3.432   4.517
 3628SOL    HW111558   4.972   3.506   4.452
 3628SOL    HW211559   5.019   3.432   4.590
 3629SOL     OW11560   4.183   3.014   4.465
 3629SOL    HW111561   4.112   2.987   4.530
 3629SOL    HW211562   4.157   2.986   4.372
 3630SOL     OW11563   4.995   3.659   4.315
 3630SOL    HW111564   5.039   3.723   4.251
 3630SOL    HW211565   4.945   3.711   4.385
 3631SOL     OW11566   4.756   2.411   3.740
 3631SOL    HW111567   4.715   2.493   3.701
 3631SOL    HW211568   4.820   2.437   3.813
 3632SOL     OW11569   4.285   2.084   4.871
 3632SOL    HW111570   4.323   2.000   4.908
 3632SOL    HW211571   4.197   2.103   4.915
 3633SOL     OW11572   4.590   2.316   4.366
 3633SOL    HW111573   4.558   2.388   4.304
 3633SOL    HW211574   4.614   2.235   4.313
 3634SOL     OW11575   4.741   1.901   4.477
 3634SOL    HW111576   4.669   1.906   4.408
 3634SOL    HW211577   4.717   1.832   4.546
 3635SOL     OW11578   4.212   3.247   3.898
 3635SOL    HW111579   4.125   3.232   3.945
 3635SOL    HW211580   4.195   3.273   3.803
 3636SOL     OW11581   5.388   3.142   4.381
 3636SOL    HW111582   5.487   3.150   4.395
 3636SOL    HW211583   5.343   3.226   4.412
 3637SOL     OW11584   4.251   2.118   4.052
 3637SOL    HW111585   4.278   2.059   3.977
 3637SOL    HW211586   4.251   2.213   4.021
 3638SOL     OW11587   5.316   3.491   5.349
 3638SOL    HW111588   5.343   3.525   5.259
 3638SOL    HW211589   5.395   3.453   5.395
 3639SOL     OW11590   4.835   3.057   4.824
 3639SOL    HW111591   4.795   3.101   4.905
 3639SOL    HW211592   4.794   3.094   4.741
 3640SOL     OW11593   4.429   2.912   4.092
 3640SOL    HW111594   4.415   2.919   4.191
 3640SOL    HW211595   4.513   2.861   4.074
 3641SOL     OW11596   4.134   2.675   4.975
 3641SOL    HW111597   4.220   2.687   5.025
 3641SOL    HW211598   4.092   2.588   5.002
 3642SOL     OW11599   4.091   2.962   4.225
 3642SOL    HW111600   4.084   3.045   4.169
 3642SOL    HW211601   4.095   2.882   4.165
 3643SOL     OW11602   4.290   2.399   4.589
 3643SOL    HW111603   4.302   2.465   4.515
 3643SOL    HW211604   4.336   2.433   4.672
 3644SOL     OW11605   4.976   3.210   4.112
 3644SOL    HW111606   5.026   3.287   4.152
 3644SOL    HW211607   4.881   3.212   4.144
 3645SOL     OW11608   4.078   3.372   5.053
 3645SOL    HW111609   4.057   3.328   4.966
 3645SOL    HW211610   4.175   3.398   5.056
 3646SOL     OW11611   4.297   2.732   4.753
 3646SOL    HW111612   4.341   2.821   4.744
 3646SOL    HW211613   4.234   2.732   4.830
 3647SOL     OW11614   5.084   2.724   4.769
 3647SOL    HW111615   5.009   2.724   4.703
 3647SOL    HW211616   5.121   2.632   4.778
 3648SOL     OW11617   4.933   2.387   3.999
 3648SOL    HW111618   4.946   2.303   4.053
 3648SOL    HW211619   4.904   2.461   4.059
 3649SOL     OW11620   4.031   2.075   4.955
 3649SOL    HW111621   4.008   2.112   5.045
 3649SOL    HW211622   4.001   1.980   4.949
 3650SOL     OW11623   4.456   2.496   4.788
 3650SOL    HW111624   4.515   2.470   4.712
 3650SOL    HW211625   4.428   2.592   4.777
 3651SOL     OW11626   4.031   1.925   4.342
 3651SOL    HW111627   4.020   2.019   4.375
 3651SOL    HW211628   4.026   1.862   4.419
 3652SOL     OW11629   5.346   2.229   4.098
 3652SOL    HW111630   5.348   2.153   4.162
 3652SOL    HW211631   5.298   2.306   4.138
 3653SOL     OW11632   4.747   2.628   4.690
 3653SOL    HW111633   4.762   2.649   4.786
 3653SOL    HW211634   4.717   2.533   4.681
 3654SOL     OW11635   5.027   2.700   3.766
 3654SOL    HW111636   5.061   2.607   3.781
 3654SOL    HW211637   5.045   2.727   3.671
 3655SOL     OW11638   4.792   3.195   4.573
 3655SOL    HW111639   4.799   3.111   4.518
 3655SOL    HW211640   4.854   3.264   4.537
 3656SOL     OW11641   4.043   2.672   4.673
 3656SOL    HW111642   4.136   2.708   4.678
 3656SOL    HW211643   4.037   2.587   4.725
 3657SOL     OW11644   4.063   2.371   4.730
 3657SOL    HW111645   4.011   2.288   4.713
 3657SOL    HW211646   4.140   2.376   4.666
 3658SOL     OW11647   4.884   2.069   5.201
 3658SOL    HW111648   4.884   2.133   5.278
 3658SOL    HW211649   4.912   2.117   5.118
 3659SOL     OW11650   3.732   3.188   3.924
 3659SOL    HW111651   3.639   3.209   3.893
 3659SOL    HW211652   3.742   3.089   3.937
 3660SOL     OW11653   3.812   3.663   4.651
 3660SOL    HW111654   3.770   3.577   4.624
 3660SOL    HW211655   3.906   3.666   4.617
 3661SOL     OW11656   4.228   3.430   4.634
 3661SOL    HW111657   4.294   3.504   4.643
 3661SOL    HW211658   4.272   3.351   4.592
 3662SOL     OW11659   4.726   2.658   4.962
 3662SOL    HW111660   4.767   2.626   5.048
 3662SOL    HW211661   4.630   2.631   4.959
 3663SOL     OW11662   3.764   2.406   4.838
 3663SOL    HW111663   3.849   2.373   4.797
 3663SOL    HW211664   3.777   2.421   4.936
 3664SOL     OW11665   4.539   2.434   4.049
 3664SOL    HW111666   4.546   2.345   4.003
 3664SOL    HW211667   4.445   2.468   4.041
 3665SOL     OW11668   4.395   2.326   4.993
 3665SOL    HW111669   4.361   2.237   4.963
 3665SOL    HW211670   4.421   2.380   4.913
 3666SOL     OW11671   4.654   3.540   5.189
 3666SOL    HW111672   4.630   3.522   5.094
 3666SOL    HW211673   4.684   3.634   5.199
 3667SOL     OW11674   4.197   2.362   3.915
 3667SOL    HW111675   4.258   2.442   3.919
 3667SOL    HW211676   4.102   2.393   3.922
 3668SOL     OW11677   5.071   2.921   4.958
 3668SOL    HW111678   5.095   2.858   4.884
 3668SOL    HW211679   4.981   2.961   4.940
 3669SOL     OW11680   4.976   3.593   4.852
 3669SOL    HW111681   5.060   3.598   4.798
 3669SOL    HW211682   4.953   3.497   4.870
 3670SOL     OW11683   3.807   3.120   4.746
 3670SOL    HW111684   3.802   3.119   4.846
 3670SOL    HW211685   3.724   3.079   4.708
 3671SOL     OW11686   5.112   3.435   4.201
 3671SOL    HW111687   5.179   3.447   4.127
 3671SOL    HW211688   5.072   3.524   4.224
 3672SOL     OW11689   5.004   2.789   4.396
 3672SOL    HW111690   5.064   2.708   4.398
 3672SOL    HW211691   5.044   2.858   4.336
 3673SOL     OW11692   4.396   3.478   3.878
 3673SOL    HW111693   4.405   3.488   3.779
 3673SOL    HW211694   4.356   3.389   3.899
 3674SOL     OW11695   3.987   2.188   4.444
 3674SOL    HW111696   3.908   2.239   4.410
 3674SOL    HW211697   3.978   2.173   4.542
 3675SOL     OW11698   4.918   3.474   3.755
 3675SOL    HW111699   4.924   3.381   3.792
 3675SOL    HW211700   4.859   3.474   3.675
 3676SOL     OW11701   4.546   2.864   5.096
 3676SOL    HW111702   4.586   2.863   5.004
 3676SOL    HW211703   4.556   2.956   5.136
 3677SOL     OW11704   4.640   2.772   4.015
 3677SOL    HW111705   4.703   2.810   3.947
 3677SOL    HW211706   4.680   2.689   4.054
 3678SOL     OW11707   4.763   2.960   4.420
 3678SOL    HW111708   4.693   2.913   4.474
 3678SOL    HW211709   4.822   2.892   4.377
 3679SOL     OW11710   4.738   2.098   4.695
 3679SOL    HW111711   4.730   2.062   4.602
 3679SOL    HW211712   4.736   2.022   4.760
 3680SOL     OW11713   4.314   3.349   4.215
 3680SOL    HW111714   4.356   3.291   4.145
 3680SOL    HW211715   4.270   3.428   4.171
 3681SOL     OW11716   3.979   3.210   4.014
 3681SOL    HW111717   3.883   3.211   3.987
 3681SOL    HW211718   3.991   3.263   4.098
 3682SOL     OW11719   3.799   2.207   3.757
 3682SOL    HW111720   3.707   2.179   3.728
 3682SOL    HW211721   3.830   2.284   3.701
 3683SOL     OW11722   3.796   2.028   4.042
 3683SOL    HW111723   3.779   2.111   3.988
 3683SOL    HW211724   3.886   1.991   4.020
 3684SOL     OW11725   4.949   2.187   4.173
 3684SOL    HW111726   5.014   2.113   4.162
 3684SOL    HW211727   4.969   2.237   4.257
 3685SOL     OW11728   4.318   2.607   4.376
 3685SOL    HW111729   4.368   2.692   4.357
 3685SOL    HW211730   4.230   2.609   4.328
 3686SOL     OW11731   4.583   3.236   3.740
 3686SOL    HW111732   4.537   3.251   3.828
 3686SOL    HW211733   4.627   3.321   3.710
 3687SOL     OW11734   4.385   3.652   4.677
 3687SOL    HW111735   4.339   3.740   4.664
 3687SOL    HW211736   4.484   3.664   4.670
 3688SOL     OW11737   4.583   2.818   4.585
 3688SOL    HW111738   4.637   2.749   4.633
 3688SOL    HW211739   4.551   2.887   4.651
 3689SOL     OW11740   4.807   2.846   3.811
 3689SOL    HW111741   4.784   2.899   3.729
 3689SOL    HW211742   4.888   2.790   3.792
 3690SOL     OW11743   3.803   3.102   4.377
 3690SOL    HW111744   3.802   3.055   4.465
 3690SOL    HW211745   3.885   3.074   4.326
 3691SOL     OW11746   4.152   2.286   4.244
 3691SOL    HW111747   4.182   2.214   4.182
 3691SOL    HW211748   4.113   2.246   4.327
 3692SOL     OW11749   4.536   3.448   4.411
 3692SOL    HW111750   4.568   3.458   4.317
 3692SOL    HW211751   4.457   3.386   4.413
 3693SOL     OW11752   4.725   1.896   4.878
 3693SOL    HW111753   4.662   1.824   4.847
 3693SOL    HW211754   4.818   1.860   4.878
 3694SOL     OW11755   4.494   3.192   4.025
 3694SOL    HW111756   4.448   3.105   4.042
 3694SOL    HW211757   4.585   3.189   4.066
 3695SOL     OW11758   5.076   1.914   3.892
 3695SOL    HW111759   5.111   1.873   3.808
 3695SOL    HW211760   4.986   1.876   3.912
 3696SOL     OW11761   3.763   2.939   4.024
 3696SOL    HW111762   3.862   2.928   4.015
 3696SOL    HW211763   3.723   2.853   4.056
 3697SOL     OW11764   4.599   3.508   4.061
 3697SOL    HW111765   4.522   3.473   4.007
 3697SOL    HW211766   4.567   3.579   4.123
 3698SOL     OW11767   3.954   4.352   0.113
 3698SOL    HW111768   3.861   4.350   0.150
 3698SOL    HW211769   3.955   4.313   0.021
 3699SOL     OW11770   3.743   4.092   0.647
 3699SOL    HW111771   3.661   4.135   0.686
 3699SOL    HW211772   3.715   4.019   0.584
 3700SOL     OW11773   4.293   4.999   1.165
 3700SOL    HW111774   4.200   4.992   1.128
 3700SOL    HW211775   4.304   5.088   1.209
 3701SOL     OW11776   4.859   4.427   0.717
 3701SOL    HW111777   4.916   4.505   0.692
 3701SOL    HW211778   4.799   4.453   0.793
 3702SOL     OW11779   4.492   4.868   1.023
 3702SOL    HW111780   4.414   4.885   1.083
 3702SOL    HW211781   4.526   4.955   0.987
 3703SOL     OW11782   4.574   4.522   1.823
 3703SOL    HW111783   4.570   4.598   1.888
 3703SOL    HW211784   4.596   4.558   1.732
 3704SOL     OW11785   4.409   4.736   0.665
 3704SOL    HW111786   4.478   4.720   0.735
 3704SOL    HW211787   4.336   4.793   0.703
 3705SOL     OW11788   4.410   4.885   1.803
 3705SOL    HW111789   4.470   4.964   1.817
 3705SOL    HW211790   4.324   4.916   1.762
 3706SOL     OW11791   4.059   5.159   1.061
 3706SOL    HW111792   3.981   5.128   1.008
 3706SOL    HW211793   4.117   5.217   1.004
 3707SOL     OW11794   3.964   4.815   0.886
 3707SOL    HW111795   3.978   4.731   0.938
 3707SOL    HW211796   3.909   4.879   0.941
 3708SOL     OW11797   4.330   4.688   0.123
 3708SOL    HW111798   4.337   4.772   0.069
 3708SOL    HW211799   4.376   4.701   0.211
 3709SOL     OW11800   3.846   4.367   0.563
 3709SOL    HW111801   3.801   4.279   0.580
 3709SOL    HW211802   3.845   4.421   0.647
 3710SOL     OW11803   3.837   4.461   1.597
 3710SOL    HW111804   3.925   4.448   1.642
 3710SOL    HW211805   3.824   4.558   1.575
 3711SOL     OW11806   5.017   4.952   1.423
 3711SOL    HW111807   5.054   4.879   1.365
 3711SOL    HW211808   5.069   4.957   1.508
 3712SOL     OW11809   4.533   3.728   0.502
 3712SOL    HW111810   4.573   3.819   0.493
 3712SOL    HW211811   4.433   3.736   0.508
 3713SOL     OW11812   3.921   4.700   1.264
 3713SOL    HW111813   4.010   4.655   1.250
 3713SOL    HW211814   3.848   4.635   1.245
 3714SOL     OW11815   4.041   3.975   1.801
 3714SOL    HW111816   4.112   4.046   1.807
 3714SOL    HW211817   3.953   4.014   1.829
 3715SOL     OW11818   4.322   4.453   0.270
 3715SOL    HW111819   4.346   4.522   0.202
 3715SOL    HW211820   4.244   4.486   0.324
 3716SOL     OW11821   5.005   4.069   0.944
 3716SOL    HW111822   4.919   4.019   0.931
 3716SOL    HW211823   5.067   4.015   1.000
 3717SOL     OW11824   4.697   4.614   1.572
 3717SOL    HW111825   4.743   4.530   1.543
 3717SOL    HW211826   4.641   4.648   1.497
 3718SOL     OW11827   4.715   4.134   1.242
 3718SOL    HW111828   4.638   4.168   1.296
 3718SOL    HW211829   4.681   4.083   1.163
 3719SOL     OW11830   4.765   4.425   0.429
 3719SOL    HW111831   4.791   4.421   0.525
 3719SOL    HW211832   4.680   4.374   0.415
 3720SOL     OW11833   3.800   4.535   0.789
 3720SOL    HW111834   3.899   4.523   0.798
 3720SOL    HW211835   3.776   4.630   0.810
 3721SOL     OW11836   4.589   4.072   0.195
 3721SOL    HW111837   4.648   4.135   0.146
 3721SOL    HW211838   4.608   3.978   0.166
 3722SOL     OW11839   4.274   3.920   0.885
 3722SOL    HW111840   4.269   3.915   0.985
 3722SOL    HW211841   4.276   4.016   0.856
 3723SOL     OW11842   4.045   4.667   0.242
 3723SOL    HW111843   4.127   4.706   0.200
 3723SOL    HW211844   4.018   4.585   0.193
 3724SOL     OW11845   3.926   4.009   1.498
 3724SOL    HW111846   3.846   4.069   1.485
 3724SOL    HW211847   3.916   3.960   1.584
 3725SOL     OW11848   4.106   4.424   0.480
 3725SOL    HW111849   4.151   4.334   0.477
 3725SOL    HW211850   4.012   4.413   0.513
 3726SOL     OW11851   4.505   3.988   1.749
 3726SOL    HW111852   4.572   3.927   1.792
 3726SOL    HW211853   4.432   4.007   1.814
 3727SOL     OW11854   4.527   5.126   0.924
 3727SOL    HW111855   4.617   5.140   0.882
 3727SOL    HW211856   4.456   5.128   0.853
 3728SOL     OW11857   4.646   4.227   0.899
 3728SOL    HW111858   4.621   4.218   0.803
 3728SOL    HW211859   4.694   4.145   0.930
 3729SOL     OW11860   4.263   3.788   0.512
 3729SOL    HW111861   4.182   3.789   0.570
 3729SOL    HW211862   4.266   3.871   0.457
 3730SOL     OW11863   4.021   3.759   0.171
 3730SOL    HW111864   4.070   3.843   0.150
 3730SOL    HW211865   4.083   3.694   0.216
 3731SOL     OW11866   4.659   3.960   0.480
 3731SOL    HW111867   4.611   4.001   0.402
 3731SOL    HW211868   4.758   3.958   0.461
 3732SOL     OW11869   4.800   4.407   1.464
 3732SOL    HW111870   4.720   4.346   1.467
 3732SOL    HW211871   4.881   4.354   1.440
 3733SOL     OW11872   4.951   5.294   0.793
 3733SOL    HW111873   4.972   5.368   0.728
 3733SOL    HW211874   5.019   5.294   0.866
 3734SOL     OW11875   4.183   4.876   0.741
 3734SOL    HW111876   4.112   4.849   0.806
 3734SOL    HW211877   4.157   4.848   0.648
 3735SOL     OW11878   4.756   4.273   0.016
 3735SOL    HW111879   4.715   4.355  -0.023
 3735SOL    HW211880   4.820   4.299   0.089
 3736SOL     OW11881   3.802   4.280   1.386
 3736SOL    HW111882   3.894   4.279   1.345
 3736SOL    HW211883   3.796   4.354   1.453
 3737SOL     OW11884   4.285   3.946   1.147
 3737SOL    HW111885   4.323   3.862   1.184
 3737SOL    HW211886   4.197   3.965   1.191
 3738SOL     OW11887   4.590   4.178   0.642
 3738SOL    HW111888   4.558   4.250   0.580
 3738SOL    HW211889   4.614   4.097   0.589
 3739SOL     OW11890   4.741   3.763   0.753
 3739SOL    HW111891   4.669   3.768   0.684
 3739SOL    HW211892   4.717   3.694   0.822
 3740SOL     OW11893   4.251   3.980   0.328
 3740SOL    HW111894   4.278   3.921   0.253
 3740SOL    HW211895   4.251   4.075   0.297
 3741SOL     OW11896   4.639   3.813   1.402
 3741SOL    HW111897   4.664   3.793   1.307
 3741SOL    HW211898   4.711   3.869   1.444
 3742SOL     OW11899   4.704   4.840   1.719
 3742SOL    HW111900   4.605   4.846   1.729
 3742SOL    HW211901   4.727   4.760   1.663
 3743SOL     OW11902   4.429   4.774   0.368
 3743SOL    HW111903   4.415   4.781   0.467
 3743SOL    HW211904   4.513   4.723   0.350
 3744SOL     OW11905   4.998   4.110   1.262
 3744SOL    HW111906   5.019   4.184   1.326
 3744SOL    HW211907   4.909   4.127   1.219
 3745SOL     OW11908   4.091   4.824   0.501
 3745SOL    HW111909   4.084   4.907   0.445
 3745SOL    HW211910   4.095   4.744   0.441
 3746SOL     OW11911   4.290   4.261   0.865
 3746SOL    HW111912   4.302   4.327   0.791
 3746SOL    HW211913   4.336   4.295   0.948
 3747SOL     OW11914   4.976   5.072   0.388
 3747SOL    HW111915   5.026   5.149   0.428
 3747SOL    HW211916   4.881   5.074   0.420
 3748SOL     OW11917   4.737   3.829   1.770
 3748SOL    HW111918   4.743   3.914   1.718
 3748SOL    HW211919   4.769   3.753   1.713
 3749SOL     OW11920   4.297   4.594   1.029
 3749SOL    HW111921   4.341   4.683   1.020
 3749SOL    HW211922   4.234   4.594   1.106
 3750SOL     OW11923   5.084   4.586   1.045
 3750SOL    HW111924   5.009   4.586   0.979
 3750SOL    HW211925   5.121   4.494   1.054
 3751SOL     OW11926   4.933   4.249   0.275
 3751SOL    HW111927   4.946   4.165   0.329
 3751SOL    HW211928   4.904   4.323   0.335
 3752SOL     OW11929   4.456   4.358   1.064
 3752SOL    HW111930   4.515   4.332   0.988
 3752SOL    HW211931   4.428   4.454   1.053
 3753SOL     OW11932   4.031   3.787   0.618
 3753SOL    HW111933   4.020   3.881   0.651
 3753SOL    HW211934   4.026   3.724   0.695
 3754SOL     OW11935   5.346   4.091   0.374
 3754SOL    HW111936   5.348   4.015   0.438
 3754SOL    HW211937   5.298   4.168   0.414
 3755SOL     OW11938   4.747   4.490   0.966
 3755SOL    HW111939   4.762   4.511   1.062
 3755SOL    HW211940   4.717   4.395   0.957
 3756SOL     OW11941   4.074   4.622   1.804
 3756SOL    HW111942   4.150   4.666   1.852
 3756SOL    HW211943   4.109   4.575   1.722
 3757SOL     OW11944   5.027   4.562   0.042
 3757SOL    HW111945   5.061   4.469   0.057
 3757SOL    HW211946   5.045   4.589  -0.053
 3758SOL     OW11947   4.862   4.104   1.678
 3758SOL    HW111948   4.817   4.167   1.742
 3758SOL    HW211949   4.955   4.135   1.661
 3759SOL     OW11950   4.884   3.931   1.477
 3759SOL    HW111951   4.884   3.995   1.554
 3759SOL    HW211952   4.912   3.979   1.394
 3760SOL     OW11953   4.726   4.520   1.238
 3760SOL    HW111954   4.767   4.488   1.324
 3760SOL    HW211955   4.630   4.493   1.235
 3761SOL     OW11956   3.764   4.268   1.114
 3761SOL    HW111957   3.849   4.235   1.073
 3761SOL    HW211958   3.777   4.283   1.212
 3762SOL     OW11959   4.539   4.296   0.325
 3762SOL    HW111960   4.546   4.207   0.279
 3762SOL    HW211961   4.445   4.330   0.317
 3763SOL     OW11962   4.395   4.188   1.269
 3763SOL    HW111963   4.361   4.099   1.239
 3763SOL    HW211964   4.421   4.242   1.189
 3764SOL     OW11965   4.197   4.224   0.191
 3764SOL    HW111966   4.258   4.304   0.195
 3764SOL    HW211967   4.102   4.255   0.198
 3765SOL     OW11968   3.883   4.861   1.466
 3765SOL    HW111969   3.905   4.800   1.542
 3765SOL    HW211970   3.893   4.812   1.380
 3766SOL     OW11971   5.071   4.783   1.234
 3766SOL    HW111972   5.095   4.720   1.160
 3766SOL    HW211973   4.981   4.823   1.216
 3767SOL     OW11974   3.807   4.982   1.022
 3767SOL    HW111975   3.802   4.981   1.122
 3767SOL    HW211976   3.724   4.941   0.984
 3768SOL     OW11977   4.627   3.810   0.133
 3768SOL    HW111978   4.678   3.811   0.047
 3768SOL    HW211979   4.683   3.768   0.204
 3769SOL     OW11980   5.004   4.651   0.672
 3769SOL    HW111981   5.064   4.570   0.674
 3769SOL    HW211982   5.044   4.720   0.612
 3770SOL     OW11983   4.554   4.997   1.422
 3770SOL    HW111984   4.549   5.030   1.517
 3770SOL    HW211985   4.468   5.016   1.376
 3771SOL     OW11986   3.987   4.050   0.720
 3771SOL    HW111987   3.908   4.101   0.686
 3771SOL    HW211988   3.978   4.035   0.818
 3772SOL     OW11989   4.546   4.726   1.372
 3772SOL    HW111990   4.586   4.725   1.280
 3772SOL    HW211991   4.556   4.818   1.412
 3773SOL     OW11992   4.640   4.634   0.291
 3773SOL    HW111993   4.703   4.672   0.223
 3773SOL    HW211994   4.680   4.551   0.330
 3774SOL     OW11995   4.096   5.012   1.490
 3774SOL    HW111996   4.083   5.105   1.456
 3774SOL    HW211997   4.012   4.960   1.477
 3775SOL     OW11998   4.763   4.822   0.696
 3775SOL    HW111999   4.693   4.775   0.750
 3775SOL    HW212000   4.822   4.754   0.653
 3776SOL     OW12001   4.738   3.960   0.971
 3776SOL    HW112002   4.730   3.924   0.878
 3776SOL    HW212003   4.736   3.884   1.036
 3777SOL     OW12004   3.829   4.737   1.726
 3777SOL    HW112005   3.752   4.704   1.780
 3777SOL    HW212006   3.914   4.707   1.768
 3778SOL     OW12007   5.164   4.580   1.398
 3778SOL    HW112008   5.107   4.632   1.335
 3778SOL    HW212009   5.260   4.592   1.374
 3779SOL     OW12010   3.796   3.890   0.318
 3779SOL    HW112011   3.779   3.973   0.264
 3779SOL    HW212012   3.886   3.853   0.296
 3780SOL     OW12013   5.174   4.944   1.633
 3780SOL    HW112014   5.165   4.934   1.732
 3780SOL    HW212015   5.270   4.937   1.607
 3781SOL     OW12016   4.949   4.049   0.449
 3781SOL    HW112017   5.014   3.975   0.438
 3781SOL    HW212018   4.969   4.099   0.533
 3782SOL     OW12019   4.318   4.469   0.652
 3782SOL    HW112020   4.368   4.554   0.633
 3782SOL    HW212021   4.230   4.471   0.604
 3783SOL     OW12022   4.583   4.680   0.861
 3783SOL    HW112023   4.637   4.611   0.909
 3783SOL    HW212024   4.551   4.749   0.927
 3784SOL     OW12025   4.807   4.708   0.087
 3784SOL    HW112026   4.784   4.761   0.005
 3784SOL    HW212027   4.888   4.652   0.068
 3785SOL     OW12028   4.152   4.148   0.520
 3785SOL    HW112029   4.182   4.076   0.458
 3785SOL    HW212030   4.113   4.108   0.603
 3786SOL     OW12031   4.725   3.758   1.154
 3786SOL    HW112032   4.662   3.686   1.123
 3786SOL    HW212033   4.818   3.722   1.154
 3787SOL     OW12034   4.494   5.054   0.301
 3787SOL    HW112035   4.448   4.967   0.318
 3787SOL    HW212036   4.585   5.051   0.342
 3788SOL     OW12037   3.763   4.801   0.300
 3788SOL    HW112038   3.862   4.790   0.291
 3788SOL    HW212039   3.723   4.715   0.332
 3789SOL     OW12040   3.954   4.352   1.975
 3789SOL    HW112041   3.861   4.350   2.012
 3789SOL    HW212042   3.955   4.313   1.883
 3790SOL     OW12043   3.949   3.999   2.858
 3790SOL    HW112044   3.984   3.982   2.950
 3790SOL    HW212045   3.861   3.954   2.846
 3791SOL     OW12046   3.743   4.092   2.509
 3791SOL    HW112047   3.661   4.135   2.548
 3791SOL    HW212048   3.715   4.019   2.446
 3792SOL     OW12049   4.293   4.999   3.027
 3792SOL    HW112050   4.200   4.992   2.990
 3792SOL    HW212051   4.304   5.088   3.071
 3793SOL     OW12052   4.859   4.427   2.579
 3793SOL    HW112053   4.916   4.505   2.554
 3793SOL    HW212054   4.799   4.453   2.655
 3794SOL     OW12055   4.492   4.868   2.885
 3794SOL    HW112056   4.414   4.885   2.945
 3794SOL    HW212057   4.526   4.955   2.849
 3795SOL     OW12058   4.574   4.522   3.685
 3795SOL    HW112059   4.570   4.598   3.750
 3795SOL    HW212060   4.596   4.558   3.594
 3796SOL     OW12061   4.409   4.736   2.527
 3796SOL    HW112062   4.478   4.720   2.597
 3796SOL    HW212063   4.336   4.793   2.565
 3797SOL     OW12064   4.410   4.885   3.665
 3797SOL    HW112065   4.470   4.964   3.679
 3797SOL    HW212066   4.324   4.916   3.624
 3798SOL     OW12067   4.059   5.159   2.923
 3798SOL    HW112068   3.981   5.128   2.870
 3798SOL    HW212069   4.117   5.217   2.866
 3799SOL     OW12070   4.162   4.116   3.361
 3799SOL    HW112071   4.244   4.060   3.370
 3799SOL    HW212072   4.081   4.058   3.365
 3800SOL     OW12073   3.964   4.815   2.748
 3800SOL    HW112074   3.978   4.731   2.800
 3800SOL    HW212075   3.909   4.879   2.803
 3801SOL     OW12076   4.330   4.688   1.985
 3801SOL    HW112077   4.337   4.772   1.931
 3801SOL    HW212078   4.376   4.701   2.073
 3802SOL     OW12079   3.846   4.367   2.425
 3802SOL    HW112080   3.801   4.279   2.442
 3802SOL    HW212081   3.845   4.421   2.509
 3803SOL     OW12082   3.837   4.461   3.459
 3803SOL    HW112083   3.925   4.448   3.504
 3803SOL    HW212084   3.824   4.558   3.437
 3804SOL     OW12085   4.533   3.728   2.364
 3804SOL    HW112086   4.573   3.819   2.355
 3804SOL    HW212087   4.433   3.736   2.370
 3805SOL     OW12088   3.921   4.700   3.126
 3805SOL    HW112089   4.010   4.655   3.112
 3805SOL    HW212090   3.848   4.635   3.107
 3806SOL     OW12091   4.041   3.975   3.663
 3806SOL    HW112092   4.112   4.046   3.669
 3806SOL    HW212093   3.953   4.014   3.691
 3807SOL     OW12094   4.322   4.453   2.132
 3807SOL    HW112095   4.346   4.522   2.064
 3807SOL    HW212096   4.244   4.486   2.186
 3808SOL     OW12097   5.005   4.069   2.806
 3808SOL    HW112098   4.919   4.019   2.793
 3808SOL    HW212099   5.067   4.015   2.862
 3809SOL     OW12100   4.531   4.329   3.327
 3809SOL    HW112101   4.484   4.326   3.416
 3809SOL    HW212102   4.480   4.274   3.261
 3810SOL     OW12103   4.697   4.614   3.434
 3810SOL    HW112104   4.743   4.530   3.405
 3810SOL    HW212105   4.641   4.648   3.359
 3811SOL     OW12106   4.715   4.134   3.104
 3811SOL    HW112107   4.638   4.168   3.158
 3811SOL    HW212108   4.681   4.083   3.025
 3812SOL     OW12109   4.765   4.425   2.291
 3812SOL    HW112110   4.791   4.421   2.387
 3812SOL    HW212111   4.680   4.374   2.277
 3813SOL     OW12112   3.800   4.535   2.651
 3813SOL    HW112113   3.899   4.523   2.660
 3813SOL    HW212114   3.776   4.630   2.672
 3814SOL     OW12115   4.589   4.072   2.057
 3814SOL    HW112116   4.648   4.135   2.008
 3814SOL    HW212117   4.608   3.978   2.028
 3815SOL     OW12118   4.274   3.920   2.747
 3815SOL    HW112119   4.269   3.915   2.847
 3815SOL    HW212120   4.276   4.016   2.718
 3816SOL     OW12121   4.045   4.667   2.104
 3816SOL    HW112122   4.127   4.706   2.062
 3816SOL    HW212123   4.018   4.585   2.055
 3817SOL     OW12124   3.926   4.009   3.360
 3817SOL    HW112125   3.846   4.069   3.347
 3817SOL    HW212126   3.916   3.960   3.446
 3818SOL     OW12127   4.106   4.424   2.342
 3818SOL    HW112128   4.151   4.334   2.339
 3818SOL    HW212129   4.012   4.413   2.375
 3819SOL     OW12130   4.505   3.988   3.611
 3819SOL    HW112131   4.572   3.927   3.654
 3819SOL    HW212132   4.432   4.007   3.676
 3820SOL     OW12133   4.527   5.126   2.786
 3820SOL    HW112134   4.617   5.140   2.744
 3820SOL    HW212135   4.456   5.128   2.715
 3821SOL     OW12136   4.646   4.227   2.761
 3821SOL    HW112137   4.621   4.218   2.665
 3821SOL    HW212138   4.694   4.145   2.792
 3822SOL     OW12139   4.263   3.788   2.374
 3822SOL    HW112140   4.182   3.789   2.432
 3822SOL    HW212141   4.266   3.871   2.319
 3823SOL     OW12142   5.158   4.912   1.903
 3823SOL    HW112143   5.190   4.836   1.960
 3823SOL    HW212144   5.066   4.939   1.933
 3824SOL     OW12145   4.021   3.759   2.033
 3824SOL    HW112146   4.070   3.843   2.012
 3824SOL    HW212147   4.083   3.694   2.078
 3825SOL     OW12148   4.659   3.960   2.342
 3825SOL    HW112149   4.611   4.001   2.264
 3825SOL    HW212150   4.758   3.958   2.323
 3826SOL     OW12151   4.800   4.407   3.326
 3826SOL    HW112152   4.720   4.346   3.329
 3826SOL    HW212153   4.881   4.354   3.302
 3827SOL     OW12154   4.951   5.294   2.655
 3827SOL    HW112155   4.972   5.368   2.590
 3827SOL    HW212156   5.019   5.294   2.728
 3828SOL     OW12157   4.183   4.876   2.603
 3828SOL    HW112158   4.112   4.849   2.668
 3828SOL    HW212159   4.157   4.848   2.510
 3829SOL     OW12160   4.756   4.273   1.878
 3829SOL    HW112161   4.715   4.355   1.839
 3829SOL    HW212162   4.820   4.299   1.951
 3830SOL     OW12163   3.802   4.280   3.248
 3830SOL    HW112164   3.894   4.279   3.207
 3830SOL    HW212165   3.796   4.354   3.315
 3831SOL     OW12166   4.285   3.946   3.009
 3831SOL    HW112167   4.323   3.862   3.046
 3831SOL    HW212168   4.197   3.965   3.053
 3832SOL     OW12169   4.590   4.178   2.504
 3832SOL    HW112170   4.558   4.250   2.442
 3832SOL    HW212171   4.614   4.097   2.451
 3833SOL     OW12172   4.741   3.763   2.615
 3833SOL    HW112173   4.669   3.768   2.546
 3833SOL    HW212174   4.717   3.694   2.684
 3834SOL     OW12175   4.251   3.980   2.190
 3834SOL    HW112176   4.278   3.921   2.115
 3834SOL    HW212177   4.251   4.075   2.159
 3835SOL     OW12178   4.639   3.813   3.264
 3835SOL    HW112179   4.664   3.793   3.169
 3835SOL    HW212180   4.711   3.869   3.306
 3836SOL     OW12181   4.704   4.840   3.581
 3836SOL    HW112182   4.605   4.846   3.591
 3836SOL    HW212183   4.727   4.760   3.525
 3837SOL     OW12184   4.429   4.774   2.230
 3837SOL    HW112185   4.415   4.781   2.329
 3837SOL    HW212186   4.513   4.723   2.212
 3838SOL     OW12187   4.134   4.537   3.113
 3838SOL    HW112188   4.220   4.549   3.163
 3838SOL    HW212189   4.092   4.450   3.140
 3839SOL     OW12190   4.998   4.110   3.124
 3839SOL    HW112191   5.019   4.184   3.188
 3839SOL    HW212192   4.909   4.127   3.081
 3840SOL     OW12193   4.091   4.824   2.363
 3840SOL    HW112194   4.084   4.907   2.307
 3840SOL    HW212195   4.095   4.744   2.303
 3841SOL     OW12196   4.290   4.261   2.727
 3841SOL    HW112197   4.302   4.327   2.653
 3841SOL    HW212198   4.336   4.295   2.810
 3842SOL     OW12199   4.976   5.072   2.250
 3842SOL    HW112200   5.026   5.149   2.290
 3842SOL    HW212201   4.881   5.074   2.282
 3843SOL     OW12202   4.126   4.475   3.460
 3843SOL    HW112203   4.194   4.530   3.413
 3843SOL    HW212204   4.166   4.387   3.487
 3844SOL     OW12205   4.737   3.829   3.632
 3844SOL    HW112206   4.743   3.914   3.580
 3844SOL    HW212207   4.769   3.753   3.575
 3845SOL     OW12208   4.228   3.774   3.602
 3845SOL    HW112209   4.186   3.717   3.532
 3845SOL    HW212210   4.162   3.843   3.634
 3846SOL     OW12211   4.297   4.594   2.891
 3846SOL    HW112212   4.341   4.683   2.882
 3846SOL    HW212213   4.234   4.594   2.968
 3847SOL     OW12214   5.084   4.586   2.907
 3847SOL    HW112215   5.009   4.586   2.841
 3847SOL    HW212216   5.121   4.494   2.916
 3848SOL     OW12217   4.933   4.249   2.137
 3848SOL    HW112218   4.946   4.165   2.191
 3848SOL    HW212219   4.904   4.323   2.197
 3849SOL     OW12220   4.031   3.937   3.093
 3849SOL    HW112221   4.008   3.974   3.183
 3849SOL    HW212222   4.001   3.842   3.087
 3850SOL     OW12223   4.456   4.358   2.926
 3850SOL    HW112224   4.515   4.332   2.850
 3850SOL    HW212225   4.428   4.454   2.915
 3851SOL     OW12226   4.031   3.787   2.480
 3851SOL    HW112227   4.020   3.881   2.513
 3851SOL    HW212228   4.026   3.724   2.557
 3852SOL     OW12229   5.346   4.091   2.236
 3852SOL    HW112230   5.348   4.015   2.300
 3852SOL    HW212231   5.298   4.168   2.276
 3853SOL     OW12232   4.747   4.490   2.828
 3853SOL    HW112233   4.762   4.511   2.924
 3853SOL    HW212234   4.717   4.395   2.819
 3854SOL     OW12235   4.074   4.622   3.666
 3854SOL    HW112236   4.150   4.666   3.714
 3854SOL    HW212237   4.109   4.575   3.584
 3855SOL     OW12238   5.027   4.562   1.904
 3855SOL    HW112239   5.061   4.469   1.919
 3855SOL    HW212240   5.045   4.589   1.809
 3856SOL     OW12241   4.043   4.534   2.811
 3856SOL    HW112242   4.136   4.570   2.816
 3856SOL    HW212243   4.037   4.449   2.863
 3857SOL     OW12244   4.063   4.233   2.868
 3857SOL    HW112245   4.011   4.150   2.851
 3857SOL    HW212246   4.140   4.238   2.804
 3858SOL     OW12247   4.862   4.104   3.540
 3858SOL    HW112248   4.817   4.167   3.604
 3858SOL    HW212249   4.955   4.135   3.523
 3859SOL     OW12250   4.884   3.931   3.339
 3859SOL    HW112251   4.884   3.995   3.416
 3859SOL    HW212252   4.912   3.979   3.256
 3860SOL     OW12253   3.732   5.050   2.062
 3860SOL    HW112254   3.639   5.071   2.031
 3860SOL    HW212255   3.742   4.951   2.075
 3861SOL     OW12256   4.726   4.520   3.100
 3861SOL    HW112257   4.767   4.488   3.186
 3861SOL    HW212258   4.630   4.493   3.097
 3862SOL     OW12259   3.764   4.268   2.976
 3862SOL    HW112260   3.849   4.235   2.935
 3862SOL    HW212261   3.777   4.283   3.074
 3863SOL     OW12262   3.913   4.244   3.584
 3863SOL    HW112263   3.972   4.204   3.514
 3863SOL    HW212264   3.855   4.315   3.543
 3864SOL     OW12265   4.539   4.296   2.187
 3864SOL    HW112266   4.546   4.207   2.141
 3864SOL    HW212267   4.445   4.330   2.179
 3865SOL     OW12268   4.395   4.188   3.131
 3865SOL    HW112269   4.361   4.099   3.101
 3865SOL    HW212270   4.421   4.242   3.051
 3866SOL     OW12271   4.197   4.224   2.053
 3866SOL    HW112272   4.258   4.304   2.057
 3866SOL    HW212273   4.102   4.255   2.060
 3867SOL     OW12274   3.883   4.861   3.328
 3867SOL    HW112275   3.905   4.800   3.404
 3867SOL    HW212276   3.893   4.812   3.242
 3868SOL     OW12277   3.807   4.982   2.884
 3868SOL    HW112278   3.802   4.981   2.984
 3868SOL    HW212279   3.724   4.941   2.846
 3869SOL     OW12280   5.004   4.651   2.534
 3869SOL    HW112281   5.064   4.570   2.536
 3869SOL    HW212282   5.044   4.720   2.474
 3870SOL     OW12283   3.987   4.050   2.582
 3870SOL    HW112284   3.908   4.101   2.548
 3870SOL    HW212285   3.978   4.035   2.680
 3871SOL     OW12286   4.918   5.336   1.893
 3871SOL    HW112287   4.924   5.243   1.930
 3871SOL    HW212288   4.859   5.336   1.813
 3872SOL     OW12289   4.640   4.634   2.153
 3872SOL    HW112290   4.703   4.672   2.085
 3872SOL    HW212291   4.680   4.551   2.192
 3873SOL     OW12292   4.096   5.012   3.352
 3873SOL    HW112293   4.083   5.105   3.318
 3873SOL    HW212294   4.012   4.960   3.339
 3874SOL     OW12295   4.763   4.822   2.558
 3874SOL    HW112296   4.693   4.775   2.612
 3874SOL    HW212297   4.822   4.754   2.515
 3875SOL     OW12298   4.738   3.960   2.833
 3875SOL    HW112299   4.730   3.924   2.740
 3875SOL    HW212300   4.736   3.884   2.898
 3876SOL     OW12301   3.829   4.737   3.588
 3876SOL    HW112302   3.752   4.704   3.642
 3876SOL    HW212303   3.914   4.707   3.630
 3877SOL     OW12304   4.396   3.927   3.351
 3877SOL    HW112305   4.486   3.911   3.311
 3877SOL    HW212306   4.404   3.932   3.450
 3878SOL     OW12307   3.799   4.069   1.895
 3878SOL    HW112308   3.707   4.041   1.866
 3878SOL    HW212309   3.830   4.146   1.839
 3879SOL     OW12310   3.796   3.890   2.180
 3879SOL    HW112311   3.779   3.973   2.126
 3879SOL    HW212312   3.886   3.853   2.158
 3880SOL     OW12313   4.337   4.566   3.293
 3880SOL    HW112314   4.393   4.647   3.276
 3880SOL    HW212315   4.396   4.486   3.296
 3881SOL     OW12316   4.440   4.289   3.570
 3881SOL    HW112317   4.459   4.354   3.644
 3881SOL    HW212318   4.500   4.209   3.579
 3882SOL     OW12319   4.949   4.049   2.311
 3882SOL    HW112320   5.014   3.975   2.300
 3882SOL    HW212321   4.969   4.099   2.395
 3883SOL     OW12322   4.318   4.469   2.514
 3883SOL    HW112323   4.368   4.554   2.495
 3883SOL    HW212324   4.230   4.471   2.466
 3884SOL     OW12325   4.583   4.680   2.723
 3884SOL    HW112326   4.637   4.611   2.771
 3884SOL    HW212327   4.551   4.749   2.789
 3885SOL     OW12328   4.807   4.708   1.949
 3885SOL    HW112329   4.784   4.761   1.867
 3885SOL    HW212330   4.888   4.652   1.930
 3886SOL     OW12331   3.803   4.964   2.515
 3886SOL    HW112332   3.802   4.917   2.603
 3886SOL    HW212333   3.885   4.936   2.464
 3887SOL     OW12334   4.152   4.148   2.382
 3887SOL    HW112335   4.182   4.076   2.320
 3887SOL    HW212336   4.113   4.108   2.465
 3888SOL     OW12337   4.041   4.271   3.142
 3888SOL    HW112338   4.079   4.212   3.214
 3888SOL    HW212339   4.081   4.245   3.054
 3889SOL     OW12340   4.725   3.758   3.016
 3889SOL    HW112341   4.662   3.686   2.985
 3889SOL    HW212342   4.818   3.722   3.016
 3890SOL     OW12343   4.494   5.054   2.163
 3890SOL    HW112344   4.448   4.967   2.180
 3890SOL    HW212345   4.585   5.051   2.204
 3891SOL     OW12346   5.076   3.776   2.030
 3891SOL    HW112347   5.111   3.735   1.946
 3891SOL    HW212348   4.986   3.738   2.050
 3892SOL     OW12349   3.763   4.801   2.162
 3892SOL    HW112350   3.862   4.790   2.153
 3892SOL    HW212351   3.723   4.715   2.194
 3893SOL     OW12352   3.949   3.999   4.720
 3893SOL    HW112353   3.984   3.982   4.812
 3893SOL    HW212354   3.861   3.954   4.708
 3894SOL     OW12355   3.743   4.092   4.371
 3894SOL    HW112356   3.661   4.135   4.410
 3894SOL    HW212357   3.715   4.019   4.308
 3895SOL     OW12358   4.293   4.999   4.889
 3895SOL    HW112359   4.200   4.992   4.852
 3895SOL    HW212360   4.304   5.088   4.933
 3896SOL     OW12361   4.859   4.427   4.441
 3896SOL    HW112362   4.916   4.505   4.416
 3896SOL    HW212363   4.799   4.453   4.517
 3897SOL     OW12364   4.492   4.868   4.747
 3897SOL    HW112365   4.414   4.885   4.807
 3897SOL    HW212366   4.526   4.955   4.711
 3898SOL     OW12367   4.409   4.736   4.389
 3898SOL    HW112368   4.478   4.720   4.459
 3898SOL    HW212369   4.336   4.793   4.427
 3899SOL     OW12370   4.059   5.159   4.785
 3899SOL    HW112371   3.981   5.128   4.732
 3899SOL    HW212372   4.117   5.217   4.728
 3900SOL     OW12373   3.964   4.815   4.610
 3900SOL    HW112374   3.978   4.731   4.662
 3900SOL    HW212375   3.909   4.879   4.665
 3901SOL     OW12376   4.330   4.688   3.847
 3901SOL    HW112377   4.337   4.772   3.793
 3901SOL    HW212378   4.376   4.701   3.935
 3902SOL     OW12379   3.846   4.367   4.287
 3902SOL    HW112380   3.801   4.279   4.304
 3902SOL    HW212381   3.845   4.421   4.371
 3903SOL     OW12382   3.921   4.700   4.988
 3903SOL    HW112383   4.010   4.655   4.974
 3903SOL    HW212384   3.848   4.635   4.969
 3904SOL     OW12385   4.322   4.453   3.994
 3904SOL    HW112386   4.346   4.522   3.926
 3904SOL    HW212387   4.244   4.486   4.048
 3905SOL     OW12388   5.005   4.069   4.668
 3905SOL    HW112389   4.919   4.019   4.655
 3905SOL    HW212390   5.067   4.015   4.724
 3906SOL     OW12391   4.715   4.134   4.966
 3906SOL    HW112392   4.638   4.168   5.020
 3906SOL    HW212393   4.681   4.083   4.887
 3907SOL     OW12394   4.765   4.425   4.153
 3907SOL    HW112395   4.791   4.421   4.249
 3907SOL    HW212396   4.680   4.374   4.139
 3908SOL     OW12397   3.800   4.535   4.513
 3908SOL    HW112398   3.899   4.523   4.522
 3908SOL    HW212399   3.776   4.630   4.534
 3909SOL     OW12400   4.589   4.072   3.919
 3909SOL    HW112401   4.648   4.135   3.870
 3909SOL    HW212402   4.608   3.978   3.890
 3910SOL     OW12403   4.274   3.920   4.609
 3910SOL    HW112404   4.269   3.915   4.709
 3910SOL    HW212405   4.276   4.016   4.580
 3911SOL     OW12406   4.045   4.667   3.966
 3911SOL    HW112407   4.127   4.706   3.924
 3911SOL    HW212408   4.018   4.585   3.917
 3912SOL     OW12409   4.527   5.126   4.648
 3912SOL    HW112410   4.617   5.140   4.606
 3912SOL    HW212411   4.456   5.128   4.577
 3913SOL     OW12412   4.646   4.227   4.623
 3913SOL    HW112413   4.621   4.218   4.527
 3913SOL    HW212414   4.694   4.145   4.654
 3914SOL     OW12415   5.158   4.912   3.765
 3914SOL    HW112416   5.190   4.836   3.822
 3914SOL    HW212417   5.066   4.939   3.795
 3915SOL     OW12418   4.659   3.960   4.204
 3915SOL    HW112419   4.611   4.001   4.126
 3915SOL    HW212420   4.758   3.958   4.185
 3916SOL     OW12421   4.951   5.294   4.517
 3916SOL    HW112422   4.972   5.368   4.452
 3916SOL    HW212423   5.019   5.294   4.590
 3917SOL     OW12424   4.183   4.876   4.465
 3917SOL    HW112425   4.112   4.849   4.530
 3917SOL    HW212426   4.157   4.848   4.372
 3918SOL     OW12427   4.756   4.273   3.740
 3918SOL    HW112428   4.715   4.355   3.701
 3918SOL    HW212429   4.820   4.299   3.813
 3919SOL     OW12430   4.285   3.946   4.871
 3919SOL    HW112431   4.323   3.862   4.908
 3919SOL    HW212432   4.197   3.965   4.915
 3920SOL     OW12433   4.590   4.178   4.366
 3920SOL    HW112434   4.558   4.250   4.304
 3920SOL    HW212435   4.614   4.097   4.313
 3921SOL     OW12436   4.741   3.763   4.477
 3921SOL    HW112437   4.669   3.768   4.408
 3921SOL    HW212438   4.717   3.694   4.546
 3922SOL     OW12439   4.429   4.774   4.092
 3922SOL    HW112440   4.415   4.781   4.191
 3922SOL    HW212441   4.513   4.723   4.074
 3923SOL     OW12442   4.134   4.537   4.975
 3923SOL    HW112443   4.220   4.549   5.025
 3923SOL    HW212444   4.092   4.450   5.002
 3924SOL     OW12445   4.091   4.824   4.225
 3924SOL    HW112446   4.084   4.907   4.169
 3924SOL    HW212447   4.095   4.744   4.165
 3925SOL     OW12448   4.290   4.261   4.589
 3925SOL    HW112449   4.302   4.327   4.515
 3925SOL    HW212450   4.336   4.295   4.672
 3926SOL     OW12451   4.976   5.072   4.112
 3926SOL    HW112452   5.026   5.149   4.152
 3926SOL    HW212453   4.881   5.074   4.144
 3927SOL     OW12454   4.297   4.594   4.753
 3927SOL    HW112455   4.341   4.683   4.744
 3927SOL    HW212456   4.234   4.594   4.830
 3928SOL     OW12457   5.084   4.586   4.769
 3928SOL    HW112458   5.009   4.586   4.703
 3928SOL    HW212459   5.121   4.494   4.778
 3929SOL     OW12460   4.933   4.249   3.999
 3929SOL    HW112461   4.946   4.165   4.053
 3929SOL    HW212462   4.904   4.323   4.059
 3930SOL     OW12463   4.031   3.937   4.955
 3930SOL    HW112464   4.008   3.974   5.045
 3930SOL    HW212465   4.001   3.842   4.949
 3931SOL     OW12466   4.456   4.358   4.788
 3931SOL    HW112467   4.515   4.332   4.712
 3931SOL    HW212468   4.428   4.454   4.777
 3932SOL     OW12469   4.031   3.787   4.342
 3932SOL    HW112470   4.020   3.881   4.375
 3932SOL    HW212471   4.026   3.724   4.419
 3933SOL     OW12472   5.346   4.091   4.098
 3933SOL    HW112473   5.348   4.015   4.162
 3933SOL    HW212474   5.298   4.168   4.138
 3934SOL     OW12475   4.747   4.490   4.690
 3934SOL    HW112476   4.762   4.511   4.786
 3934SOL    HW212477   4.717   4.395   4.681
 3935SOL     OW12478   5.027   4.562   3.766
 3935SOL    HW112479   5.061   4.469   3.781
 3935SOL    HW212480   5.045   4.589   3.671
 3936SOL     OW12481   4.043   4.534   4.673
 3936SOL    HW112482   4.136   4.570   4.678
 3936SOL    HW212483   4.037   4.449   4.725
 3937SOL     OW12484   4.063   4.233   4.730
 3937SOL    HW112485   4.011   4.150   4.713
 3937SOL    HW212486   4.140   4.238   4.666
 3938SOL     OW12487   4.884   3.931   5.201
 3938SOL    HW112488   4.884   3.995   5.278
 3938SOL    HW212489   4.912   3.979   5.118
 3939SOL     OW12490   3.732   5.050   3.924
 3939SOL    HW112491   3.639   5.071   3.893
 3939SOL    HW212492   3.742   4.951   3.937
 3940SOL     OW12493   4.726   4.520   4.962
 3940SOL    HW112494   4.767   4.488   5.048
 3940SOL    HW212495   4.630   4.493   4.959
 3941SOL     OW12496   3.764   4.268   4.838
 3941SOL    HW112497   3.849   4.235   4.797
 3941SOL    HW212498   3.777   4.283   4.936
 3942SOL     OW12499   4.539   4.296   4.049
 3942SOL    HW112500   4.546   4.207   4.003
 3942SOL    HW212501   4.445   4.330   4.041
 3943SOL     OW12502   4.395   4.188   4.993
 3943SOL    HW112503   4.361   4.099   4.963
 3943SOL    HW212504   4.421   4.242   4.913
 3944SOL     OW12505   4.197   4.224   3.915
 3944SOL    HW112506   4.258   4.304   3.919
 3944SOL    HW212507   4.102   4.255   3.922
 3945SOL     OW12508   5.071   4.783   4.958
 3945SOL    HW112509   5.095   4.720   4.884
 3945SOL    HW212510   4.981   4.823   4.940
 3946SOL     OW12511   3.807   4.982   4.746
 3946SOL    HW112512   3.802   4.981   4.846
 3946SOL    HW212513   3.724   4.941   4.708
 3947SOL     OW12514   5.004   4.651   4.396
 3947SOL    HW112515   5.064   4.570   4.398
 3947SOL    HW212516   5.044   4.720   4.336
 3948SOL     OW12517   4.554   4.997   5.146
 3948SOL    HW112518   4.549   5.030   5.241
 3948SOL    HW212519   4.468   5.016   5.100
 3949SOL     OW12520   3.987   4.050   4.444
 3949SOL    HW112521   3.908   4.101   4.410
 3949SOL    HW212522   3.978   4.035   4.542
 3950SOL     OW12523   4.546   4.726   5.096
 3950SOL    HW112524   4.586   4.725   5.004
 3950SOL    HW212525   4.556   4.818   5.136
 3951SOL     OW12526   4.640   4.634   4.015
 3951SOL    HW112527   4.703   4.672   3.947
 3951SOL    HW212528   4.680   4.551   4.054
 3952SOL     OW12529   4.763   4.822   4.420
 3952SOL    HW112530   4.693   4.775   4.474
 3952SOL    HW212531   4.822   4.754   4.377
 3953SOL     OW12532   4.738   3.960   4.695
 3953SOL    HW112533   4.730   3.924   4.602
 3953SOL    HW212534   4.736   3.884   4.760
 3954SOL     OW12535   4.949   4.049   4.173
 3954SOL    HW112536   5.014   3.975   4.162
 3954SOL    HW212537   4.969   4.099   4.257
 3955SOL     OW12538   4.318   4.469   4.376
 3955SOL    HW112539   4.368   4.554   4.357
 3955SOL    HW212540   4.230   4.471   4.328
 3956SOL     OW12541   4.583   4.680   4.585
 3956SOL    HW112542   4.637   4.611   4.633
 3956SOL    HW212543   4.551   4.749   4.651
 3957SOL     OW12544   4.807   4.708   3.811
 3957SOL    HW112545   4.784   4.761   3.729
 3957SOL    HW212546   4.888   4.652   3.792
 3958SOL     OW12547   3.803   4.964   4.377
 3958SOL    HW112548   3.802   4.917   4.465
 3958SOL    HW212549   3.885   4.936   4.326
 3959SOL     OW12550   4.725   3.758   4.878
 3959SOL    HW112551   4.662   3.686   4.847
 3959SOL    HW212552   4.818   3.722   4.878
 3960SOL     OW12553   4.494   5.054   4.025
 3960SOL    HW112554   4.448   4.967   4.042
 3960SOL    HW212555   4.585   5.051   4.066
 3961SOL     OW12556   5.076   3.776   3.892
 3961SOL    HW112557   5.111   3.735   3.808
 3961SOL    HW212558   4.986   3.738   3.912
 3962SOL     OW12559   3.763   4.801   4.024
 3962SOL    HW112560   3.862   4.790   4.015
 3962SOL    HW212561   3.723   4.715   4.056
   5.08970   5.08970   5.08970
