256-Lipid DPPC Bilayer in water | solvent-stripped DPPC template
12800
    1DPPC    C1    1   5.809   5.563   5.614 -0.5566  0.3183  0.0166
    1DPPC    C2    2   5.821   5.721   5.449  0.3431 -0.0199 -0.5832
    1DPPC    C3    3   5.683   5.541   5.397 -0.1757  0.1352 -0.2563
    1DPPC    N4    4   5.727   5.626   5.509  0.0721  0.3076 -0.4836
    1DPPC    C5    5   5.620   5.699   5.578  0.3591  0.2393  0.0373
    1DPPC    C6    6   5.531   5.797   5.503  0.0237  0.1491  0.3150
    1DPPC    O7    7   5.586   5.924   5.468 -0.1826  0.2975  0.5244
    1DPPC    P8    8   5.463   6.027   5.461  0.0482  0.5497  0.1290
    1DPPC    O9    9   5.548   6.147   5.451 -0.1747  0.6911 -0.0659
    1DPPC   O10   10   5.390   5.988   5.584 -0.2511 -0.2303 -0.2885
    1DPPC   O11   11   5.380   6.000   5.325 -0.2056  0.7570  0.2418
    1DPPC   C12   12   5.406   6.111   5.239  0.8212  0.1584 -0.2307
    1DPPC   C13   13   5.362   6.089   5.094  0.1318  0.0628 -0.0113
    1DPPC   O14   14   5.227   6.129   5.066  0.1230 -0.0574 -0.1390
    1DPPC   C15   15   5.209   6.261   5.042 -0.2175 -0.0991 -0.1207
    1DPPC   O16   16   5.296   6.336   5.087 -0.4064 -0.1476  0.3335
    1DPPC   C17   17   5.073   6.309   4.992 -0.2191 -0.0536 -0.0725
    1DPPC   C18   18   5.077   6.427   4.895 -0.1832 -0.0660 -0.0857
    1DPPC   C19   19   4.962   6.436   4.795 -0.4744  0.4572  0.2932
    1DPPC   C20   20   4.964   6.559   4.703 -0.3410 -0.4115 -0.8862
    1DPPC   C21   21   5.079   6.543   4.603  0.1137  0.0855 -0.4504
    1DPPC   C22   22   5.074   6.645   4.489  0.2284  0.1309 -0.4146
    1DPPC   C23   23   5.184   6.592   4.396  0.4962  0.0018 -0.0254
    1DPPC   C24   24   5.176   6.674   4.268 -0.4259 -0.1199 -0.0563
    1DPPC   C25   25   5.258   6.595   4.165  0.0851  0.3951 -0.0506
    1DPPC   C26   26   5.242   6.671   4.033 -0.0301  0.1660 -0.1692
    1DPPC   C27   27   5.301   6.602   3.910  0.9104  0.1359  0.2836
    1DPPC   C28   28   5.268   6.679   3.781 -0.1465 -0.5661  0.1152
    1DPPC   C29   29   5.326   6.610   3.658  0.4225 -0.2900  0.2219
    1DPPC   C30   30   5.276   6.660   3.523  0.0974  0.1554  0.5072
    1DPPC   C31   31   5.303   6.811   3.514  0.5010  0.0676  0.1914
    1DPPC   C32   32   5.409   5.949   5.052 -0.0503 -0.0390  0.1262
    1DPPC   O33   33   5.503   5.958   4.946 -0.1872 -0.1991 -0.0097
    1DPPC   C34   34   5.592   5.855   4.933 -0.7045 -0.5397 -0.9583
    1DPPC   O35   35   5.592   5.772   5.024  0.2058  0.2853 -0.1899
    1DPPC   C36   36   5.683   5.853   4.810  0.2406 -0.0650 -0.2769
    1DPPC   C37   37   5.665   5.720   4.737 -0.2992  0.0769 -0.4086
    1DPPC   C38   38   5.752   5.709   4.612 -0.0111  0.0837 -0.2088
    1DPPC   C39   39   5.896   5.707   4.665 -0.1138 -0.1633  0.0601
    1DPPC   C40   40   6.002   5.702   4.555  0.1426 -0.0128  0.3010
    1DPPC   C41   41   5.995   5.577   4.468  0.2769  0.0280  0.2317
    1DPPC   C42   42   6.048   5.615   4.329 -0.5336 -0.2011 -0.1531
    1DPPC   C43   43   6.033   5.491   4.241  0.8241 -0.4450 -0.0701
    1DPPC   C44   44   6.088   5.520   4.101 -0.1292  0.3841 -0.2904
    1DPPC   C45   45   6.065   5.411   3.996  0.0567  0.0638 -0.0051
    1DPPC   C46   46   6.106   5.475   3.863 -0.0415 -0.5849 -0.3524
    1DPPC   C47   47   6.018   5.591   3.815 -0.0882 -0.3110  0.3858
    1DPPC   C48   48   6.082   5.658   3.693 -0.6902 -0.6671 -0.1253
    1DPPC   C49   49   5.991   5.758   3.621 -0.3460 -0.6401 -0.5227
    1DPPC   C50   50   5.966   5.868   3.725 -0.0821 -0.3884 -0.7218
    2DPPC    C1   51   3.473   0.842   1.761 -0.0823  0.2698  0.1232
    2DPPC    C2   52   3.629   0.950   1.632 -0.0024 -0.1006 -0.4910
    2DPPC    C3   53   3.424   1.056   1.688 -0.1753 -0.2173  0.3608
    2DPPC    N4   54   3.534   0.975   1.742  0.3160  0.0382 -0.2424
    2DPPC    C5   55   3.583   1.026   1.870 -0.2525 -0.4516  0.1744
    2DPPC    C6   56   3.647   1.165   1.870 -0.5303 -0.3232 -0.0653
    2DPPC    O7   57   3.668   1.213   2.003  0.5124 -0.1527 -0.2807
    2DPPC    P8   58   3.762   1.343   2.010  0.2119  0.0250  0.4794
    2DPPC    O9   59   3.698   1.433   1.912  0.1237 -0.5877 -0.0266
    2DPPC   O10   60   3.905   1.308   2.025  0.2232 -0.2243 -0.1921
    2DPPC   O11   61   3.711   1.383   2.158 -0.7540 -0.2465  0.2288
    2DPPC   C12   62   3.781   1.311   2.261 -0.4022 -0.4230 -0.1292
    2DPPC   C13   63   3.763   1.349   2.408 -0.0949  0.0775 -0.2183
    2DPPC   O14   64   3.868   1.285   2.483 -0.0631  0.4263  0.0415
    2DPPC   C15   65   3.992   1.333   2.457  0.2050 -0.4958 -0.4398
    2DPPC   O16   66   4.007   1.451   2.426 -0.6649 -0.2540  0.0260
    2DPPC   C17   67   4.106   1.251   2.517 -0.2557 -0.3662  0.6283
    2DPPC   C18   68   4.073   1.185   2.651 -0.1884  0.0762  0.8619
    2DPPC   C19   69   4.174   1.075   2.683  0.1814  0.2332  0.2526
    2DPPC   C20   70   4.152   1.014   2.822 -0.5684 -0.3038 -0.0989
    2DPPC   C21   71   4.274   0.924   2.840  0.0509  0.5915  0.1967
    2DPPC   C22   72   4.250   0.847   2.970 -0.0493  0.3627  0.0426
    2DPPC   C23   73   4.205   0.935   3.087  0.4366  0.3368  0.2502
    2DPPC   C24   74   4.181   0.834   3.200  0.1091  0.2295  0.0846
    2DPPC   C25   75   4.153   0.914   3.327  0.7161 -0.2167  0.5036
    2DPPC   C26   76   4.050   0.840   3.412 -0.3542  0.2038 -0.4046
    2DPPC   C27   77   3.995   0.943   3.512 -0.3634  0.0059 -0.2034
    2DPPC   C28   78   3.914   0.862   3.613 -0.3135 -0.0352 -0.1962
    2DPPC   C29   79   3.907   0.954   3.735 -0.8638 -0.1685 -0.1214
    2DPPC   C30   80   3.827   0.885   3.845 -0.0933  0.1885  0.6820
    2DPPC   C31   81   3.683   0.871   3.795  0.2846  0.7407 -0.5995
    2DPPC   C32   82   3.619   1.312   2.442  0.0267 -0.2831 -0.0942
    2DPPC   O33   83   3.594   1.352   2.577  0.2765 -0.3301 -0.0329
    2DPPC   C34   84   3.467   1.331   2.621  0.2567 -0.2631 -0.0594
    2DPPC   O35   85   3.373   1.312   2.544 -0.0101 -0.0900  0.2186
    2DPPC   C36   86   3.438   1.370   2.766  0.4970 -0.6213  0.0867
    2DPPC   C37   87   3.306   1.319   2.825  0.0663  0.1399 -0.2022
    2DPPC   C38   88   3.296   1.362   2.971  0.1438  0.1213 -0.1916
    2DPPC   C39   89   3.424   1.321   3.044  0.1978  0.3016 -0.1866
    2DPPC   C40   90   3.417   1.406   3.171 -0.1772 -0.2433  0.1591
    2DPPC   C41   91   3.415   1.555   3.136 -0.3667 -0.3736 -0.3920
    2DPPC   C42   92   3.451   1.654   3.247  0.1679 -0.3601 -0.5744
    2DPPC   C43   93   3.408   1.796   3.210  0.0336 -0.1104  0.5254
    2DPPC   C44   94   3.256   1.800   3.191 -0.0006  0.2584  0.8453
    2DPPC   C45   95   3.207   1.944   3.175  0.4626  0.2512 -0.8527
    2DPPC   C46   96   3.071   1.945   3.105  0.1112 -0.0315 -0.1813
    2DPPC   C47   97   3.036   2.087   3.061  0.0777 -0.1272 -0.4681
    2DPPC   C48   98   2.910   2.059   2.980 -0.2311  0.7428 -0.2999
    2DPPC   C49   99   2.785   2.002   3.047  0.2714 -0.0504 -0.0264
    2DPPC   C50  100   2.683   1.962   2.940 -0.3674  1.0307  0.1626
    3DPPC    C1  101   6.441   4.485   5.210  0.3480 -0.2290  0.0372
    3DPPC    C2  102   6.465   4.495   5.450  0.1899  0.4156 -0.0386
    3DPPC    C3  103   6.535   4.312   5.332 -0.2261 -0.0773  0.3972
    3DPPC    N4  104   6.530   4.459   5.324  0.2658 -0.0725  0.1388
    3DPPC    C5  105   6.651   4.538   5.297  0.2223 -0.2917 -0.7270
    3DPPC    C6  106   6.652   4.683   5.345  0.2099 -0.5421  0.0394
    3DPPC    O7  107   6.564   4.773   5.278  0.7377  0.2334  0.3728
    3DPPC    P8  108   6.577   4.922   5.339  0.0395  0.3075  0.3480
    3DPPC    O9  109   6.626   4.904   5.477 -0.0565  0.2262  0.3719
    3DPPC   O10  110   6.460   5.004   5.298  0.3012  0.6136  0.2115
    3DPPC   O11  111   6.711   4.965   5.260  0.0648  0.0029  0.2222
    3DPPC   C12  112   6.667   4.989   5.126  0.0145 -0.1441  0.2124
    3DPPC   C13  113   6.779   5.038   5.033 -0.3133 -0.1432 -0.1823
    3DPPC   O14  114   6.725   5.081   4.907 -0.1890  0.4263 -0.0421
    3DPPC   C15  115   6.790   5.163   4.820  0.4618 -0.0807 -0.0404
    3DPPC   O16  116   6.874   5.238   4.870  0.3689  0.1861 -0.2893
    3DPPC   C17  117   6.726   5.185   4.683 -0.0818 -0.0318  0.2219
    3DPPC   C18  118   6.812   5.170   4.558 -0.3274 -0.1723  0.0696
    3DPPC   C19  119   6.747   5.149   4.421  0.3666 -0.7657 -0.1781
    3DPPC   C20  120   6.827   5.222   4.313 -0.6396  0.5801 -0.0389
    3DPPC   C21  121   6.798   5.148   4.182  0.2346  0.2979 -0.0790
    3DPPC   C22  122   6.865   5.213   4.061  0.4774 -0.5707 -0.4181
    3DPPC   C23  123   6.830   5.130   3.938 -0.4505 -0.4506 -0.2402
    3DPPC   C24  124   6.877   4.985   3.955 -0.0327 -0.3324 -0.3638
    3DPPC   C25  125   6.824   4.900   3.840  0.0331 -0.0492 -0.6034
    3DPPC   C26  126   6.890   4.763   3.824 -0.0112 -0.2368  0.7398
    3DPPC   C27  127   6.833   4.673   3.714  0.3579  0.1007  0.2694
    3DPPC   C28  128   6.878   4.527   3.724  0.0613  0.0059  0.2428
    3DPPC   C29  129   6.838   4.470   3.860  0.2444 -0.0346  0.2805
    3DPPC   C30  130   6.887   4.327   3.881 -0.1410 -0.2060  0.0298
    3DPPC   C31  131   6.810   4.244   3.778 -0.1018  0.5572 -0.6193
    3DPPC   C32  132   6.874   4.918   5.036  0.2752  0.3213 -0.1131
    3DPPC   O33  133   6.817   4.815   4.954  0.0455  0.2490  0.1353
    3DPPC   C34  134   6.889   4.702   4.935  0.2018  0.3664  0.0270
    3DPPC   O35  135   7.003   4.699   4.982  0.1347 -0.2332  0.1555
    3DPPC   C36  136   6.852   4.595   4.832 -0.3428  0.2470  0.3439
    3DPPC   C37  137   6.751   4.502   4.898  0.4276 -0.3693  0.6647
    3DPPC   C38  138   6.712   4.383   4.809 -0.7533  0.2648  0.3119
    3DPPC   C39  139   6.666   4.443   4.676 -0.1351  0.0639  0.0039
    3DPPC   C40  140   6.651   4.332   4.571 -0.2849  0.1158 -0.0286
    3DPPC   C41  141   6.647   4.384   4.427 -0.3711  0.4456  0.0903
    3DPPC   C42  142   6.776   4.461   4.399 -0.4702  0.4941 -0.2349
    3DPPC   C43  143   6.798   4.509   4.255 -0.4082 -0.0201 -0.3990
    3DPPC   C44  144   6.853   4.650   4.233 -0.2739  0.0545  0.3718
    3DPPC   C45  145   7.004   4.656   4.258 -0.1906 -0.4129 -0.0272
    3DPPC   C46  146   7.058   4.798   4.271 -0.0525 -0.4230 -0.4522
    3DPPC   C47  147   7.199   4.805   4.329 -0.3636 -0.1986  0.2952
    3DPPC   C48  148   7.202   4.760   4.475  0.0137 -0.3056  0.2570
    3DPPC   C49  149   7.163   4.875   4.569 -0.3383 -0.0251 -0.2300
    3DPPC   C50  150   7.166   4.833   4.716  0.5643 -0.1127 -0.2699
    4DPPC    C1  151   8.532   4.077   1.747 -0.2439 -0.5312 -0.3103
    4DPPC    C2  152   8.440   4.205   1.603 -0.3404  0.1247  0.2500
    4DPPC    C3  153   8.347   3.979   1.607 -1.2824  0.0552 -0.2265
    4DPPC    N4  154   8.399   4.091   1.687 -0.2162 -0.3517 -0.3309
    4DPPC    C5  155   8.303   4.135   1.790  0.0015 -0.2555 -0.1683
    4DPPC    C6  156   8.165   4.170   1.734 -0.0742 -0.1391  0.0907
    4DPPC    O7  157   8.144   4.275   1.639 -0.5901  0.1179  0.4862
    4DPPC    P8  158   7.992   4.270   1.585 -0.3012 -0.1744 -0.3095
    4DPPC    O9  159   7.942   4.131   1.596  0.1680 -0.3032  0.2251
    4DPPC   O10  160   7.985   4.351   1.462  0.1771 -0.5089 -0.5624
    4DPPC   O11  161   7.906   4.346   1.697  0.2726 -0.2179  0.1660
    4DPPC   C12  162   7.969   4.474   1.714 -0.0677 -0.0645  0.2923
    4DPPC   C13  163   7.883   4.588   1.659  0.1545  0.0422  0.1661
    4DPPC   O14  164   7.940   4.717   1.689  0.2878  0.0833 -0.2670
    4DPPC   C15  165   7.871   4.827   1.650  0.0548  0.1358  0.2935
    4DPPC   O16  166   7.786   4.814   1.561 -0.6179 -0.7461  1.0403
    4DPPC   C17  167   7.927   4.960   1.698 -0.2409  0.4263 -0.1570
    4DPPC   C18  168   7.844   5.015   1.814  0.1757  0.2909  0.2098
    4DPPC   C19  169   7.819   4.917   1.929  0.2391  0.3736  0.2940
    4DPPC   C20  170   7.946   4.893   2.011  0.1400  0.3837  0.4506
    4DPPC   C21  171   7.901   4.818   2.137 -0.0579  0.2466  0.2993
    4DPPC   C22  172   7.822   4.928   2.209 -0.2969  0.2349  0.0558
    4DPPC   C23  173   7.765   4.869   2.338  0.1342 -0.2949  0.0069
    4DPPC   C24  174   7.699   4.980   2.420 -0.3516  0.0233 -0.8113
    4DPPC   C25  175   7.621   4.923   2.538 -0.1782  0.4893 -0.4698
    4DPPC   C26  176   7.498   4.851   2.481 -0.0996 -0.3099  0.3359
    4DPPC   C27  177   7.412   4.785   2.589 -0.1063 -0.2897  0.3433
    4DPPC   C28  178   7.342   4.887   2.679 -0.4282 -0.1785 -0.0315
    4DPPC   C29  179   7.275   4.799   2.785 -0.7261 -0.2131 -0.2470
    4DPPC   C30  180   7.176   4.896   2.849  0.1245 -0.0365  0.8418
    4DPPC   C31  181   7.057   4.810   2.891  0.0555 -0.0809  0.5627
    4DPPC   C32  182   7.744   4.556   1.716  0.0843 -0.0223 -0.0430
    4DPPC   O33  183   7.730   4.578   1.856  0.3499 -0.2029  0.0126
    4DPPC   C34  184   7.619   4.521   1.909  0.3642  0.0779  0.3540
    4DPPC   O35  185   7.567   4.421   1.859  0.3106  0.3012 -0.0424
    4DPPC   C36  186   7.578   4.568   2.048  0.4519 -0.1302  0.4510
    4DPPC   C37  187   7.525   4.447   2.126  0.2549  0.1533  0.7625
    4DPPC   C38  188   7.541   4.450   2.278 -0.2253  0.1671  0.8138
    4DPPC   C39  189   7.496   4.310   2.320 -0.8939  0.1750  0.1426
    4DPPC   C40  190   7.506   4.286   2.471 -0.6874  0.1885  0.1317
    4DPPC   C41  191   7.426   4.372   2.570 -0.2918  0.0414  0.5803
    4DPPC   C42  192   7.446   4.325   2.714  0.2582  0.1326  0.5349
    4DPPC   C43  193   7.348   4.407   2.798  0.0736  0.2658  0.1892
    4DPPC   C44  194   7.354   4.361   2.943  0.2686  0.0886  0.1250
    4DPPC   C45  195   7.322   4.212   2.958  0.2084  0.0521 -0.3563
    4DPPC   C46  196   7.305   4.174   3.105 -0.3246  0.4094 -0.3237
    4DPPC   C47  197   7.415   4.216   3.203 -0.1564 -0.4432 -0.1391
    4DPPC   C48  198   7.415   4.155   3.343  0.0155  0.2574  0.1713
    4DPPC   C49  199   7.274   4.162   3.402 -0.1834  0.1259 -0.2834
    4DPPC   C50  200   7.279   4.185   3.553  0.3646  0.0859 -0.2915
    5DPPC    C1  201   8.665   4.759   5.607  0.4209 -0.7637  0.0552
    5DPPC    C2  202   8.842   4.914   5.621 -0.4692  0.2672 -0.0264
    5DPPC    C3  203   8.823   4.745   5.779 -0.1006 -0.7224  0.3616
    5DPPC    N4  204   8.809   4.772   5.635  0.2670  0.1410  0.4777
    5DPPC    C5  205   8.894   4.687   5.550  0.1080  0.4880 -0.0289
    5DPPC    C6  206   8.841   4.547   5.520  0.0119  0.6153 -0.4613
    5DPPC    O7  207   8.825   4.459   5.631  0.0957  0.6384 -0.4316
    5DPPC    P8  208   8.751   4.324   5.585  0.5962  0.1151  0.2766
    5DPPC    O9  209   8.713   4.220   5.683  0.3100 -0.2086 -0.1764
    5DPPC   O10  210   8.778   4.290   5.443  0.0579 -0.9054  0.4142
    5DPPC   O11  211   8.615   4.410   5.581  0.6007  0.1216  0.2692
    5DPPC   C12  212   8.530   4.320   5.508  0.3604  0.4984  0.0812
    5DPPC   C13  213   8.399   4.377   5.456  0.1573 -0.2160 -0.1964
    5DPPC   O14  214   8.319   4.270   5.403  0.0790 -0.1690 -0.1752
    5DPPC   C15  215   8.190   4.287   5.363 -0.1193 -0.1456  0.4637
    5DPPC   O16  216   8.139   4.398   5.348 -0.4222 -0.3904 -0.3891
    5DPPC   C17  217   8.118   4.162   5.312  0.0083 -0.3283  0.7248
    5DPPC   C18  218   8.152   4.141   5.164 -0.2591 -0.5284  0.6908
    5DPPC   C19  219   8.079   4.017   5.111  0.5457 -0.6646 -0.1208
    5DPPC   C20  220   8.116   3.992   4.965  0.0117  0.1349 -0.4045
    5DPPC   C21  221   8.263   3.949   4.969 -0.0523 -0.0561 -0.0480
    5DPPC   C22  222   8.313   3.936   4.825 -0.0501  0.5017 -0.1023
    5DPPC   C23  223   8.304   4.074   4.760  0.0380  0.6004  0.0942
    5DPPC   C24  224   8.299   4.062   4.607 -0.0061  0.0965  0.1322
    5DPPC   C25  225   8.443   4.032   4.563 -0.1816 -0.6885  0.0939
    5DPPC   C26  226   8.429   4.039   4.411 -0.2075  0.7217  0.1520
    5DPPC   C27  227   8.556   3.994   4.339 -0.3447  0.4370  0.0870
    5DPPC   C28  228   8.524   3.992   4.189 -0.0629  0.2309  0.0289
    5DPPC   C29  229   8.638   3.923   4.114 -0.1363  0.0318  0.1018
    5DPPC   C30  230   8.599   3.900   3.968  0.1643  0.1230  0.0068
    5DPPC   C31  231   8.684   3.794   3.896  0.0390 -0.1734  0.2909
    5DPPC   C32  232   8.449   4.491   5.366 -0.0144  0.0335  0.0248
    5DPPC   O33  233   8.513   4.443   5.248 -0.6886  0.3161 -0.4636
    5DPPC   C34  234   8.596   4.529   5.184  0.1991 -0.0617  0.1642
    5DPPC   O35  235   8.644   4.619   5.253 -0.2375  0.2032  0.1254
    5DPPC   C36  236   8.657   4.488   5.050  0.2429  0.0417  0.1516
    5DPPC   C37  237   8.806   4.507   5.024  0.1424  0.4486 -0.1360
    5DPPC   C38  238   8.845   4.474   4.879 -0.0657  0.0756 -0.1097
    5DPPC   C39  239   8.997   4.469   4.862 -0.0595  0.6477 -0.2477
    5DPPC   C40  240   9.049   4.405   4.734 -0.2221 -0.3269  0.1639
    5DPPC   C41  241   9.020   4.255   4.727  0.3196 -0.4475  0.4135
    5DPPC   C42  242   9.123   4.190   4.636  0.1533 -0.2112  0.0556
    5DPPC   C43  243   9.127   4.253   4.496 -0.2334  0.0477  0.1611
    5DPPC   C44  244   9.021   4.193   4.403 -0.1645  0.1133  0.0415
    5DPPC   C45  245   9.021   4.287   4.282 -0.1687  0.1156  0.0434
    5DPPC   C46  246   8.898   4.252   4.199 -0.1768 -0.0507  0.1253
    5DPPC   C47  247   8.914   4.315   4.060 -0.5920  0.0491  0.1219
    5DPPC   C48  248   8.909   4.200   3.958 -0.2504 -0.2078  0.3927
    5DPPC   C49  249   8.892   4.261   3.819 -0.6970 -0.1984  0.4514
    5DPPC   C50  250   8.888   4.162   3.702  0.2124  0.3169 -0.0228
    6DPPC    C1  251   6.199   0.628   5.532 -0.7108 -0.0711 -0.0443
    6DPPC    C2  252   6.203   0.811   5.392 -0.1622 -0.2733 -0.4721
    6DPPC    C3  253   6.394   0.678   5.398 -0.1196  0.0616 -0.5270
    6DPPC    N4  254   6.247   0.672   5.400 -0.1012 -0.2207  0.1274
    6DPPC    C5  255   6.205   0.593   5.284  0.4998  0.0381 -0.2744
    6DPPC    C6  256   6.171   0.446   5.309  0.3951  0.0781 -0.1818
    6DPPC    O7  257   6.290   0.377   5.347  0.1703 -0.0858  0.2327
    6DPPC    P8  258   6.251   0.222   5.370  0.4091 -0.1307  0.3433
    6DPPC    O9  259   6.177   0.166   5.255  0.3717  0.6532 -0.0172
    6DPPC   O10  260   6.184   0.235   5.502  0.1443 -0.1265  0.2101
    6DPPC   O11  261   6.393   0.149   5.388  0.0377 -0.8357  0.4333
    6DPPC   C12  262   6.422   0.080   5.266  0.2073 -0.0839  0.0474
    6DPPC   C13  263   6.562   0.018   5.268  0.1317 -0.2679 -0.2358
    6DPPC   O14  264   6.655   0.082   5.180 -0.0130  0.2103 -0.0485
    6DPPC   C15  265   6.787   0.086   5.211  0.1367 -0.6932 -0.5155
    6DPPC   O16  266   6.833   0.048   5.319 -0.2848 -0.9341 -0.4199
    6DPPC   C17  267   6.864   0.184   5.121  0.0560 -0.1569 -0.0074
    6DPPC   C18  268   7.016   0.167   5.124  0.1310  0.4984  0.0517
    6DPPC   C19  269   7.080   0.253   5.016  0.0399  0.2825 -0.1743
    6DPPC   C20  270   7.231   0.262   5.039  0.0331  0.2996 -0.1355
    6DPPC   C21  271   7.309   0.337   4.931  0.3587  0.3043  0.1003
    6DPPC   C22  272   7.418   0.424   4.994  0.4682  0.1837  0.0766
    6DPPC   C23  273   7.467   0.525   4.890  0.9545  0.2365  0.3560
    6DPPC   C24  274   7.515   0.462   4.759 -0.8198  0.3759 -0.3883
    6DPPC   C25  275   7.550   0.582   4.671 -0.4827  0.6061  0.0522
    6DPPC   C26  276   7.596   0.545   4.529 -0.1669  0.6588  0.1410
    6DPPC   C27  277   7.652   0.664   4.450 -0.0845 -0.1365 -1.0117
    6DPPC   C28  278   7.787   0.706   4.507 -0.5395  0.5591 -0.4294
    6DPPC   C29  279   7.858   0.823   4.439  0.1206  0.4850  0.1131
    6DPPC   C30  280   7.986   0.845   4.520 -0.2335  1.2515  0.4681
    6DPPC   C31  281   7.956   0.911   4.655 -0.4373  0.0504  1.0204
    6DPPC   C32  282   6.536  -0.133   5.257  0.0828 -0.2442 -0.4577
    6DPPC   O33  283   6.461  -0.154   5.137 -0.3097 -0.3052 -0.2030
    6DPPC   C34  284   6.445  -0.284   5.099 -0.3853 -0.3852  0.0912
    6DPPC   O35  285   6.486  -0.371   5.175  0.4070 -0.2616 -0.1773
    6DPPC   C36  286   6.361  -0.318   4.976 -0.4209 -0.1207  0.0419
    6DPPC   C37  287   6.401  -0.265   4.838  0.1883 -0.3346  0.1365
    6DPPC   C38  288   6.301  -0.327   4.740  0.1489  0.0314 -0.0576
    6DPPC   C39  289   6.327  -0.297   4.593 -0.1893  0.4594 -0.0312
    6DPPC   C40  290   6.211  -0.330   4.499 -0.2693  0.3503  0.1075
    6DPPC   C41  291   6.255  -0.382   4.362 -0.3976 -0.2898  0.3021
    6DPPC   C42  292   6.343  -0.507   4.356  0.0402  0.0481 -0.5008
    6DPPC   C43  293   6.472  -0.484   4.278  0.5702  0.0695  0.3644
    6DPPC   C44  294   6.501  -0.596   4.178 -0.2536 -0.2371  0.4591
    6DPPC   C45  295   6.602  -0.561   4.069 -0.7566 -0.4586 -0.0791
    6DPPC   C46  296   6.632  -0.696   4.004 -0.3429 -0.3492 -0.1172
    6DPPC   C47  297   6.764  -0.691   3.926 -0.1430 -0.0123  0.2347
    6DPPC   C48  298   6.763  -0.596   3.806 -0.0699 -0.0858  0.1751
    6DPPC   C49  299   6.909  -0.576   3.764 -0.1534  0.8127  0.2800
    6DPPC   C50  300   6.904  -0.472   3.652 -0.0769  0.1655 -0.3341
    7DPPC    C1  301   2.931   1.575   5.560 -0.3115 -0.1783 -0.7175
    7DPPC    C2  302   2.739   1.533   5.690 -0.0997 -0.1850  0.3298
    7DPPC    C3  303   2.753   1.517   5.438  0.0958 -0.0202  0.0263
    7DPPC    N4  304   2.813   1.489   5.570 -0.2910 -0.1079  0.1838
    7DPPC    C5  305   2.858   1.350   5.579  0.3739  0.1129  0.2989
    7DPPC    C6  306   2.754   1.244   5.618  0.2705  0.1371  0.0888
    7DPPC    O7  307   2.674   1.224   5.501  0.0362 -0.0247  0.2755
    7DPPC    P8  308   2.551   1.130   5.544 -0.2166  0.0147 -0.3443
    7DPPC    O9  309   2.461   1.235   5.598 -0.2996 -0.1079 -0.2421
    7DPPC   O10  310   2.616   1.029   5.630 -0.3327 -0.0187 -0.2963
    7DPPC   O11  311   2.529   1.082   5.392  0.2229 -0.0215 -0.3972
    7DPPC   C12  312   2.479   1.183   5.305 -0.2579  0.0297 -0.0663
    7DPPC   C13  313   2.489   1.131   5.161 -0.0117 -0.6117  0.1818
    7DPPC   O14  314   2.380   1.052   5.114 -0.3945 -0.1510  0.2912
    7DPPC   C15  315   2.258   1.106   5.086  0.0335  0.2636 -0.8161
    7DPPC   O16  316   2.216   1.209   5.137  0.0793 -0.2755  0.3497
    7DPPC   C17  317   2.158   1.010   5.020 -0.0721 -0.0181 -0.2515
    7DPPC   C18  318   2.206   1.005   4.875  0.3769 -0.7913 -0.0828
    7DPPC   C19  319   2.147   0.890   4.793 -0.1073 -0.6086  0.0035
    7DPPC   C20  320   1.998   0.923   4.786  0.0643  0.1711 -0.0067
    7DPPC   C21  321   1.924   0.835   4.685 -0.1221 -0.0168  0.2929
    7DPPC   C22  322   1.992   0.836   4.548 -0.4599  0.5070  0.1261
    7DPPC   C23  323   2.002   0.969   4.473 -0.2479  0.2385 -0.3240
    7DPPC   C24  324   2.072   0.961   4.337 -0.1420  0.4123 -0.2794
    7DPPC   C25  325   2.089   1.100   4.274  0.2369  0.2968 -0.4377
    7DPPC   C26  326   1.951   1.151   4.231 -0.1121 -0.2139  0.0561
    7DPPC   C27  327   1.961   1.271   4.136  0.5816 -0.3167 -0.0074
    7DPPC   C28  328   2.040   1.241   4.009  0.0711 -0.0554 -0.3875
    7DPPC   C29  329   1.966   1.135   3.926  0.5901 -0.6331 -0.1184
    7DPPC   C30  330   2.047   1.129   3.797 -0.0020  0.0266 -0.5316
    7DPPC   C31  331   2.016   1.248   3.707 -0.6352  0.1814 -0.1159
    7DPPC   C32  332   2.626   1.062   5.154  0.1237 -0.2880 -0.3678
    7DPPC   O33  333   2.722   1.167   5.169  0.4661 -0.6884  0.2780
    7DPPC   C34  334   2.850   1.122   5.164  0.4555 -0.6546 -0.4710
    7DPPC   O35  335   2.888   1.005   5.175  0.1070 -0.7562 -0.3490
    7DPPC   C36  336   2.959   1.230   5.162  0.5155 -0.7067 -0.0689
    7DPPC   C37  337   2.943   1.322   5.041 -0.0102 -0.1532  0.4126
    7DPPC   C38  338   3.044   1.436   5.044  0.1172 -0.2499 -0.1503
    7DPPC   C39  339   3.027   1.521   4.917 -0.1437  0.1103  0.1243
    7DPPC   C40  340   2.885   1.576   4.923 -0.1626  0.0910 -0.1710
    7DPPC   C41  341   2.851   1.631   4.784  0.6593 -0.1873 -0.4879
    7DPPC   C42  342   2.864   1.523   4.677  0.7881 -0.0436 -0.6179
    7DPPC   C43  343   2.833   1.548   4.529 -0.9567 -0.2320 -0.3044
    7DPPC   C44  344   2.841   1.424   4.439  0.4610 -0.2994 -0.1063
    7DPPC   C45  345   2.802   1.467   4.297  0.3993  0.1509  0.0444
    7DPPC   C46  346   2.825   1.355   4.196  0.2875 -0.3747  0.5913
    7DPPC   C47  347   2.782   1.402   4.057  0.2824 -0.8531  0.4301
    7DPPC   C48  348   2.806   1.305   3.940  0.0575 -0.4452  0.0435
    7DPPC   C49  349   2.770   1.359   3.802 -0.1385  0.2500  0.3596
    7DPPC   C50  350   2.774   1.250   3.694 -0.1845  0.0398  0.5700
    8DPPC    C1  351   8.482   5.852   4.672 -0.4091 -0.0299 -0.0760
    8DPPC    C2  352   8.671   5.789   4.808 -0.3440  0.1328  0.1518
    8DPPC    C3  353   8.523   5.969   4.865  0.3391 -0.2629  0.8226
    8DPPC    N4  354   8.531   5.833   4.809 -0.3725  0.0521 -0.0783
    8DPPC    C5  355   8.440   5.747   4.886 -0.0105 -0.2685 -0.0084
    8DPPC    C6  356   8.449   5.701   5.031 -0.0675  0.3743  0.1998
    8DPPC    O7  357   8.568   5.628   5.065 -0.0222  0.3105 -0.1012
    8DPPC    P8  358   8.553   5.573   5.215  0.1802  0.1725 -0.1324
    8DPPC    O9  359   8.494   5.681   5.299 -0.5188 -0.1217 -0.2407
    8DPPC   O10  360   8.674   5.498   5.257  0.2711  0.2652 -0.2253
    8DPPC   O11  361   8.431   5.471   5.196  0.4449 -0.2541  0.4412
    8DPPC   C12  362   8.468   5.384   5.089 -0.0623 -0.2236  0.2376
    8DPPC   C13  363   8.376   5.269   5.048  0.2033 -0.2528 -0.2879
    8DPPC   O14  364   8.437   5.170   4.964 -0.2905 -0.3827 -0.4984
    8DPPC   C15  365   8.481   5.053   5.016 -0.3135 -0.1999 -0.0651
    8DPPC   O16  366   8.503   5.034   5.136 -0.6096 -0.0840  0.0079
    8DPPC   C17  367   8.512   4.952   4.906 -0.0938 -0.2419  0.0338
    8DPPC   C18  368   8.392   4.901   4.825 -0.3022  0.0091  0.1850
    8DPPC   C19  369   8.315   5.008   4.747 -0.1129  0.0095 -0.0027
    8DPPC   C20  370   8.240   4.940   4.632 -0.1095  0.5826 -0.3474
    8DPPC   C21  371   8.094   4.917   4.670  0.2203 -0.1861  0.5164
    8DPPC   C22  372   8.022   4.890   4.538 -0.0838  0.6778  0.4960
    8DPPC   C23  373   8.061   4.997   4.436 -0.4349  0.1231 -0.2401
    8DPPC   C24  374   7.989   4.981   4.303  0.2764  0.0192 -0.6190
    8DPPC   C25  375   8.025   5.104   4.219  0.0634  0.1508 -0.5181
    8DPPC   C26  376   7.973   5.099   4.076 -0.1050  0.3184 -0.4647
    8DPPC   C27  377   8.022   5.221   3.998  0.0304  0.5830  0.0363
    8DPPC   C28  378   8.173   5.214   3.977  0.0629  0.4567  0.3113
    8DPPC   C29  379   8.211   5.100   3.882 -0.2815  0.3664  0.2827
    8DPPC   C30  380   8.350   5.104   3.818 -0.1429  0.1087  0.5655
    8DPPC   C31  381   8.403   4.966   3.782 -0.6222 -0.1036  0.6687
    8DPPC   C32  382   8.250   5.328   4.984  0.1341 -0.3985 -0.2844
    8DPPC   O33  383   8.255   5.442   4.897  0.0843 -0.0317  0.1915
    8DPPC   C34  384   8.133   5.482   4.854  0.1961 -0.1533 -0.2460
    8DPPC   O35  385   8.025   5.452   4.904 -0.2319  1.0659 -0.3973
    8DPPC   C36  386   8.141   5.571   4.730  0.1694 -0.1583 -0.2513
    8DPPC   C37  387   8.211   5.512   4.607  1.1815  0.4001  0.0494
    8DPPC   C38  388   8.243   5.606   4.491 -0.1508 -0.1287 -0.7628
    8DPPC   C39  389   8.141   5.569   4.383 -0.9552 -0.1442 -0.0077
    8DPPC   C40  390   8.192   5.633   4.254  0.2161 -0.4185  0.3094
    8DPPC   C41  391   8.095   5.601   4.139  0.1614 -0.4910  0.3752
    8DPPC   C42  392   8.162   5.660   4.014 -0.5528 -0.5966 -0.0604
    8DPPC   C43  393   8.078   5.642   3.888 -0.0190 -0.1925 -0.4766
    8DPPC   C44  394   8.146   5.707   3.767 -0.8405  0.8331 -0.4082
    8DPPC   C45  395   8.065   5.658   3.648 -0.2199 -0.2092 -0.4163
    8DPPC   C46  396   8.015   5.514   3.661  0.1842 -0.3723 -0.6470
    8DPPC   C47  397   7.971   5.451   3.528 -0.4974  0.2250 -0.7129
    8DPPC   C48  398   7.898   5.321   3.561 -0.0219  0.0370 -0.3989
    8DPPC   C49  399   7.871   5.240   3.434  0.2516 -0.2171 -0.2965
    8DPPC   C50  400   7.843   5.093   3.464 -0.8989  0.2087  0.7889
    9DPPC    C1  401   3.150   2.978   6.099 -0.1635 -0.8534  0.0278
    9DPPC    C2  402   3.014   2.817   6.227 -0.5282  0.3220 -0.4511
    9DPPC    C3  403   2.943   3.040   6.190  0.2368  0.7107 -0.3222
    9DPPC    N4  404   3.015   2.927   6.130 -0.7179  0.2196 -0.5710
    9DPPC    C5  405   2.950   2.874   6.009 -0.3662 -0.4155 -0.4821
    9DPPC    C6  406   2.891   2.978   5.915  0.0604 -0.0362 -0.3312
    9DPPC    O7  407   2.981   3.035   5.820  0.0167  0.4189 -0.1064
    9DPPC    P8  408   2.895   3.082   5.692 -0.2189 -0.2301 -0.1886
    9DPPC    O9  409   2.966   3.202   5.646  0.1918 -0.5358 -0.3543
    9DPPC   O10  410   2.756   3.089   5.743 -0.3236 -0.0005 -0.5090
    9DPPC   O11  411   2.897   2.952   5.597  0.2446 -0.4788  0.1604
    9DPPC   C12  412   3.020   2.977   5.528  0.1581 -0.2623  0.0828
    9DPPC   C13  413   3.082   2.842   5.488  0.5452 -0.0840  0.0730
    9DPPC   O14  414   3.208   2.860   5.424  0.2918 -0.2246 -0.4698
    9DPPC   C15  415   3.293   2.754   5.419  0.0702 -0.4295  0.1367
    9DPPC   O16  416   3.304   2.683   5.519  0.3473 -0.6629 -0.0571
    9DPPC   C17  417   3.406   2.768   5.317  0.1732  1.0031  0.4234
    9DPPC   C18  418   3.370   2.728   5.174 -0.2814 -0.6429  0.9786
    9DPPC   C19  419   3.493   2.719   5.084 -0.6170 -0.8926  0.5371
    9DPPC   C20  420   3.456   2.716   4.936 -0.4953  0.3083  0.4669
    9DPPC   C21  421   3.578   2.690   4.847 -0.6078 -0.3660  0.5006
    9DPPC   C22  422   3.552   2.661   4.699  0.1879 -0.8928  0.4606
    9DPPC   C23  423   3.685   2.652   4.624 -0.1850 -0.1201 -0.3191
    9DPPC   C24  424   3.677   2.575   4.492  0.3829  0.2726 -0.5865
    9DPPC   C25  425   3.815   2.562   4.428  0.5699 -0.2311 -0.0809
    9DPPC   C26  426   3.795   2.444   4.333  0.1699 -0.4229  0.2405
    9DPPC   C27  427   3.912   2.435   4.235  0.0398 -0.2177  0.0654
    9DPPC   C28  428   3.898   2.319   4.136 -0.1437 -0.1100 -0.0358
    9DPPC   C29  429   4.027   2.322   4.053 -0.1303 -0.6607 -0.0404
    9DPPC   C30  430   4.154   2.284   4.129  0.2406  0.2836 -0.1668
    9DPPC   C31  431   4.258   2.265   4.018  0.6211  0.3319  0.1820
    9DPPC   C32  432   2.973   2.781   5.400 -0.1892  0.5433  0.5290
    9DPPC   O33  433   2.947   2.857   5.281  0.2840 -0.5045 -0.2621
    9DPPC   C34  434   2.851   2.813   5.196 -0.4312  0.3591  0.0862
    9DPPC   O35  435   2.765   2.726   5.215  0.1541 -0.2176  0.1110
    9DPPC   C36  436   2.862   2.891   5.065 -0.3525  0.7995  0.3533
    9DPPC   C37  437   2.845   2.795   4.947  0.3977  0.6610  0.3506
    9DPPC   C38  438   2.852   2.875   4.817  0.6476  0.2373  0.1009
    9DPPC   C39  439   2.747   2.986   4.825  0.1087 -0.2622 -0.0386
    9DPPC   C40  440   2.750   3.069   4.697  0.1477  0.0088  0.1372
    9DPPC   C41  441   2.630   3.163   4.698  0.4582  0.4067  0.6002
    9DPPC   C42  442   2.617   3.252   4.574 -0.0172  0.1153  0.4372
    9DPPC   C43  443   2.506   3.356   4.590 -0.2341 -0.0870  0.2600
    9DPPC   C44  444   2.487   3.449   4.470 -0.0805 -0.2914  0.0782
    9DPPC   C45  445   2.388   3.402   4.363 -0.1930  0.2452 -0.0561
    9DPPC   C46  446   2.245   3.381   4.414 -0.0281 -0.7848  0.0179
    9DPPC   C47  447   2.164   3.321   4.299 -0.1042 -0.2381 -0.2188
    9DPPC   C48  448   2.221   3.185   4.259  0.0700 -0.2740  0.1469
    9DPPC   C49  449   2.109   3.080   4.258 -0.4407  0.2738 -0.0766
    9DPPC   C50  450   2.158   2.942   4.216 -0.1992  0.4832 -0.4950
   10DPPC    C1  451   8.361   6.256   5.474 -0.0210  0.6533  0.2908
   10DPPC    C2  452   8.470   6.449   5.417 -0.1994  0.4933 -0.0721
   10DPPC    C3  453   8.468   6.278   5.260  0.1646  0.0925 -0.1307
   10DPPC    N4  454   8.383   6.346   5.359  0.2405  0.1201 -0.0837
   10DPPC    C5  455   8.263   6.414   5.308  0.1833  0.2154  0.1761
   10DPPC    C6  456   8.154   6.330   5.240  0.1637  0.0487  0.4101
   10DPPC    O7  457   8.043   6.409   5.196 -0.2507 -0.6055  0.2685
   10DPPC    P8  458   7.949   6.298   5.127 -0.1587 -0.3811 -0.2222
   10DPPC    O9  459   7.857   6.388   5.053  0.3261  0.3226  0.0230
   10DPPC   O10  460   7.909   6.185   5.214  0.5422 -0.6290 -0.2130
   10DPPC   O11  461   8.057   6.240   5.023  0.5446  0.0996  0.2284
   10DPPC   C12  462   8.052   6.324   4.907  0.1770 -0.2471 -0.0100
   10DPPC   C13  463   8.180   6.307   4.825  0.6068 -0.0628  0.6127
   10DPPC   O14  464   8.209   6.426   4.750 -0.7788  0.1754  0.4262
   10DPPC   C15  465   8.331   6.445   4.693 -0.5663 -0.4044  0.6775
   10DPPC   O16  466   8.427   6.386   4.741  0.0453 -0.3863 -0.4819
   10DPPC   C17  467   8.336   6.534   4.569  0.0275 -0.3977  0.7050
   10DPPC   C18  468   8.346   6.444   4.446 -0.2966 -0.1796  0.5189
   10DPPC   C19  469   8.472   6.359   4.432 -0.5328 -0.5185  0.4256
   10DPPC   C20  470   8.442   6.266   4.314 -0.0093 -0.1759  0.0147
   10DPPC   C21  471   8.390   6.132   4.367 -0.1058 -0.2276 -0.2127
   10DPPC   C22  472   8.388   6.043   4.242 -0.0596 -0.3739 -0.1100
   10DPPC   C23  473   8.529   6.039   4.182  0.0228 -0.4538  0.0875
   10DPPC   C24  474   8.522   5.985   4.039 -0.4723 -0.3426  0.0691
   10DPPC   C25  475   8.657   5.999   3.971 -0.7364  0.0043 -0.3838
   10DPPC   C26  476   8.659   5.918   3.841 -0.3040 -0.4686 -0.0867
   10DPPC   C27  477   8.796   5.919   3.772 -0.5979 -0.1544 -0.6722
   10DPPC   C28  478   8.901   5.862   3.867 -0.1181  0.3932 -0.8646
   10DPPC   C29  479   9.042   5.887   3.814  0.1895  0.4370 -0.0265
   10DPPC   C30  480   9.094   6.030   3.832  0.1409  0.4262  0.2071
   10DPPC   C31  481   9.240   6.040   3.787  0.0678  0.0375 -0.1172
   10DPPC   C32  482   8.181   6.170   4.757 -0.0896  0.1648  0.1359
   10DPPC   O33  483   8.062   6.149   4.679 -0.0517 -0.3972  0.2258
   10DPPC   C34  484   8.062   6.038   4.601 -0.4376 -0.2155 -0.0333
   10DPPC   O35  485   8.164   5.972   4.583 -0.4307 -0.2195  0.0213
   10DPPC   C36  486   7.957   6.045   4.490 -0.3260 -0.2092 -0.1392
   10DPPC   C37  487   7.949   5.935   4.384 -0.0230 -0.4289  0.0631
   10DPPC   C38  488   7.833   5.968   4.290  0.5342  0.1463 -0.4340
   10DPPC   C39  489   7.835   5.868   4.174 -0.5087 -0.5591  0.1362
   10DPPC   C40  490   7.755   5.939   4.063  0.0146 -0.0714  0.0632
   10DPPC   C41  491   7.760   5.853   3.937  0.0362 -0.1543  0.1200
   10DPPC   C42  492   7.662   5.933   3.852 -0.0865 -0.2431  0.1770
   10DPPC   C43  493   7.651   5.871   3.712  0.3476 -0.0221  0.0432
   10DPPC   C44  494   7.707   5.960   3.602 -0.0302  0.1051 -0.0475
   10DPPC   C45  495   7.687   5.888   3.469 -0.1342  0.1147 -0.0378
   10DPPC   C46  496   7.734   5.742   3.474  0.6075  0.3483 -0.0956
   10DPPC   C47  497   7.715   5.680   3.336  0.1584  0.1210  0.0680
   10DPPC   C48  498   7.811   5.729   3.228 -0.0760  0.5100  0.0353
   10DPPC   C49  499   7.770   5.674   3.091  0.1884 -0.1059  0.2010
   10DPPC   C50  500   7.881   5.685   2.986  0.1750  0.5971  0.2583
   11DPPC    C1  501   6.406   7.656   5.561 -0.4348  0.3318  0.3157
   11DPPC    C2  502   6.488   7.733   5.767 -0.3474  0.3427 -0.1850
   11DPPC    C3  503   6.526   7.500   5.705 -0.3960  0.1533 -0.4243
   11DPPC    N4  504   6.516   7.639   5.658 -0.0895  0.2957 -0.0803
   11DPPC    C5  505   6.632   7.665   5.572 -0.1544  0.4651 -0.1186
   11DPPC    C6  506   6.716   7.792   5.590  0.2276  0.1099  0.6694
   11DPPC    O7  507   6.645   7.895   5.521 -0.1848 -0.3355  0.4171
   11DPPC    P8  508   6.702   8.035   5.577 -0.1855 -0.0579 -0.2709
   11DPPC    O9  509   6.752   8.011   5.714 -0.6145  0.2434 -0.0573
   11DPPC   O10  510   6.597   8.139   5.563 -0.4333 -0.2514  0.1314
   11DPPC   O11  511   6.816   8.046   5.465  0.2967  0.6399  0.2783
   11DPPC   C12  512   6.757   8.098   5.345  0.0876 -0.6243 -0.1789
   11DPPC   C13  513   6.860   8.102   5.232  0.2586 -0.2594 -0.0105
   11DPPC   O14  514   6.837   8.201   5.132 -0.1739 -0.4482 -0.1006
   11DPPC   C15  515   6.949   8.240   5.065 -0.0265 -0.4372  0.1527
   11DPPC   O16  516   7.057   8.241   5.125  0.0897 -0.1529 -0.0623
   11DPPC   C17  517   6.919   8.339   4.953 -0.1707  0.0404  0.6102
   11DPPC   C18  518   6.792   8.304   4.875  0.0300  0.5540  0.0445
   11DPPC   C19  519   6.775   8.393   4.751 -0.0280  0.6516  0.1223
   11DPPC   C20  520   6.780   8.536   4.804 -0.3600  0.6562  0.1441
   11DPPC   C21  521   6.814   8.627   4.686 -0.0430  0.1211 -0.1826
   11DPPC   C22  522   6.778   8.775   4.706 -0.2242  0.1066 -0.3906
   11DPPC   C23  523   6.796   8.849   4.574  0.2405  0.1047 -0.3309
   11DPPC   C24  524   6.756   8.997   4.584 -0.1887 -0.0160 -0.2623
   11DPPC   C25  525   6.742   9.068   4.449  0.1619 -0.2827 -0.4400
   11DPPC   C26  526   6.646   9.187   4.447 -0.1119 -0.4956 -0.0090
   11DPPC   C27  527   6.509   9.120   4.433 -0.4299  0.1325  0.0634
   11DPPC   C28  528   6.473   9.036   4.310  0.1313 -0.1353  0.0805
   11DPPC   C29  529   6.329   8.984   4.315  0.1312 -0.1821 -0.3890
   11DPPC   C30  530   6.305   8.896   4.192 -0.0790 -0.7777  0.0742
   11DPPC   C31  531   6.159   8.851   4.186 -0.0575 -0.7777 -0.5018
   11DPPC   C32  532   6.886   7.953   5.209 -0.4038 -0.3586 -0.1370
   11DPPC   O33  533   6.763   7.897   5.163 -0.2560 -0.7196 -0.1015
   11DPPC   C34  534   6.775   7.769   5.120 -0.2703 -0.7197 -0.1050
   11DPPC   O35  535   6.867   7.697   5.158  0.1253 -0.1276  0.0697
   11DPPC   C36  536   6.664   7.724   5.024 -0.7502  0.4750 -0.1256
   11DPPC   C37  537   6.669   7.815   4.900  0.1715  0.6642  0.0447
   11DPPC   C38  538   6.551   7.797   4.806  0.1121  0.6090  0.1291
   11DPPC   C39  539   6.574   7.897   4.692  0.2757  0.1277 -0.2622
   11DPPC   C40  540   6.719   7.930   4.653  0.3883  0.0599  0.0958
   11DPPC   C41  541   6.711   8.033   4.541  0.2556  0.4544  0.4685
   11DPPC   C42  542   6.852   8.079   4.502  0.4798 -0.3972  0.2695
   11DPPC   C43  543   6.894   7.982   4.391  0.1729 -0.0915 -0.1168
   11DPPC   C44  544   7.038   8.028   4.364  0.3596 -0.6493 -0.0791
   11DPPC   C45  545   7.036   8.173   4.316 -0.5678 -0.4380  0.5724
   11DPPC   C46  546   6.961   8.177   4.183  0.0516  0.0920  0.2345
   11DPPC   C47  547   6.973   8.323   4.137 -0.2524 -0.1460 -0.6139
   11DPPC   C48  548   7.118   8.350   4.096 -0.1444 -0.0449 -0.1684
   11DPPC   C49  549   7.121   8.501   4.075 -0.0630 -0.0730 -0.3693
   11DPPC   C50  550   7.262   8.561   4.068 -0.0159 -0.1339  0.0250
   12DPPC    C1  551   9.289   1.831   5.066 -0.0462 -0.5128  0.2086
   12DPPC    C2  552   9.504   1.906   5.069 -0.1729  0.1177 -0.1388
   12DPPC    C3  553   9.398   1.861   5.275 -0.4142  0.8063  0.1031
   12DPPC    N4  554   9.416   1.811   5.138  0.0127  0.2907  0.3444
   12DPPC    C5  555   9.465   1.673   5.118 -0.0546  0.3050  0.0712
   12DPPC    C6  556   9.401   1.549   5.179 -0.0218  0.2411 -0.0263
   12DPPC    O7  557   9.424   1.442   5.086  0.5544  0.1193  0.2567
   12DPPC    P8  558   9.371   1.309   5.160 -0.0073  0.2356  0.0627
   12DPPC    O9  559   9.377   1.316   5.308 -0.2349  0.3511  0.0685
   12DPPC   O10  560   9.424   1.193   5.086  0.5072 -0.1244  0.9797
   12DPPC   O11  561   9.214   1.337   5.133 -0.0393  0.1108  0.1247
   12DPPC   C12  562   9.177   1.268   5.013  0.4049 -0.1393  0.1277
   12DPPC   C13  563   9.028   1.284   4.982  0.5423  0.1327 -0.4071
   12DPPC   O14  564   8.978   1.204   4.874 -0.0971 -0.2241  0.1450
   12DPPC   C15  565   8.949   1.073   4.897 -0.1145 -0.2098  0.2045
   12DPPC   O16  566   8.944   1.030   5.012 -0.2116 -0.6135  0.0507
   12DPPC   C17  567   8.885   1.004   4.776  0.3467 -0.1908 -0.0516
   12DPPC   C18  568   8.842   1.081   4.652 -0.6196 -1.0530 -0.2608
   12DPPC   C19  569   8.735   1.188   4.675  0.8700  0.3617  0.3112
   12DPPC   C20  570   8.714   1.255   4.539  0.0011  0.3243  0.4214
   12DPPC   C21  571   8.613   1.370   4.542 -0.3738  0.0106  0.0975
   12DPPC   C22  572   8.591   1.448   4.412 -0.2020 -0.0121  0.0545
   12DPPC   C23  573   8.528   1.359   4.304 -0.1513 -0.2215  0.1960
   12DPPC   C24  574   8.473   1.445   4.190  0.0248  0.1697  0.4051
   12DPPC   C25  575   8.363   1.540   4.240 -0.1492 -0.2226  0.7740
   12DPPC   C26  576   8.333   1.632   4.121  0.0793 -0.5403  0.4655
   12DPPC   C27  577   8.245   1.585   4.006  0.1930 -0.2249  0.2490
   12DPPC   C28  578   8.101   1.543   4.035 -0.0509  0.3899 -0.0452
   12DPPC   C29  579   8.022   1.479   3.921  0.1009  0.3596 -0.1335
   12DPPC   C30  580   7.881   1.444   3.969  0.1354  0.2032 -0.1460
   12DPPC   C31  581   7.892   1.342   4.083 -0.0065  0.1248 -0.2020
   12DPPC   C32  582   8.999   1.431   4.954  0.0130  0.0565 -0.2702
   12DPPC   O33  583   9.075   1.466   4.838  0.0412 -0.4073 -0.3927
   12DPPC   C34  584   9.057   1.592   4.789  0.2437 -0.1630  0.1566
   12DPPC   O35  585   9.005   1.683   4.853  0.4521  0.4494 -0.5340
   12DPPC   C36  586   9.148   1.631   4.672 -0.1573 -0.0592 -0.1204
   12DPPC   C37  587   9.095   1.580   4.537  0.0304 -0.1694 -0.1525
   12DPPC   C38  588   8.977   1.660   4.481 -0.2297 -0.3085  0.1937
   12DPPC   C39  589   8.972   1.629   4.332 -0.0631 -0.1904  0.1627
   12DPPC   C40  590   8.856   1.678   4.244  0.3765  0.8121  0.1245
   12DPPC   C41  591   8.867   1.660   4.092  0.1521 -0.2457  0.2227
   12DPPC   C42  592   8.771   1.748   4.012 -0.3103 -0.4606  0.5440
   12DPPC   C43  593   8.763   1.693   3.870  0.2765  0.5074  0.1326
   12DPPC   C44  594   8.652   1.768   3.795 -0.1612  0.0332  0.3044
   12DPPC   C45  595   8.688   1.911   3.756 -0.1050 -0.0560  0.0247
   12DPPC   C46  596   8.575   1.992   3.693  0.2553  0.7881  0.4417
   12DPPC   C47  597   8.448   2.005   3.778 -0.0563  0.2104  0.0777
   12DPPC   C48  598   8.368   2.130   3.742 -0.4226 -0.0737 -0.0954
   12DPPC   C49  599   8.234   2.114   3.814 -0.2204 -0.1856  0.2604
   12DPPC   C50  600   8.161   1.987   3.768 -0.6144  0.2932 -0.4691
   13DPPC    C1  601   1.596   1.646   5.113  0.0524  0.4689  0.1699
   13DPPC    C2  602   1.728   1.506   5.268 -0.4439 -0.2787  0.3911
   13DPPC    C3  603   1.565   1.625   5.359  0.2330  0.0555  0.1511
   13DPPC    N4  604   1.595   1.559   5.231 -0.1373  0.2120 -0.0208
   13DPPC    C5  605   1.516   1.436   5.218  0.3681 -0.0691 -0.4788
   13DPPC    C6  606   1.366   1.452   5.242  0.4103  0.0603 -0.3063
   13DPPC    O7  607   1.271   1.362   5.185  0.1669  0.3852 -0.4157
   13DPPC    P8  608   1.123   1.419   5.214  0.1207  0.0862 -0.0624
   13DPPC    O9  609   1.114   1.442   5.360 -0.2518  0.0799 -0.0841
   13DPPC   O10  610   1.033   1.321   5.149  0.0339  0.1965 -0.1087
   13DPPC   O11  611   1.126   1.566   5.149  0.3148  0.0205 -0.2030
   13DPPC   C12  612   1.032   1.573   5.042 -0.1393  0.1463  0.1981
   13DPPC   C13  613   1.031   1.712   4.979 -0.2063  0.0525 -0.0111
   13DPPC   O14  614   0.944   1.732   4.867 -0.4560 -0.1263  0.1499
   13DPPC   C15  615   0.810   1.731   4.889 -0.4867 -0.5956 -0.0575
   13DPPC   O16  616   0.766   1.717   5.003 -0.6964 -0.0106 -0.0659
   13DPPC   C17  617   0.719   1.731   4.765 -0.1694 -0.3389 -0.2899
   13DPPC   C18  618   0.701   1.591   4.708 -0.2086 -0.5484  0.2308
   13DPPC   C19  619   0.608   1.609   4.588  0.3314 -0.2839 -0.1531
   13DPPC   C20  620   0.558   1.476   4.532 -0.2353 -0.3263  0.4401
   13DPPC   C21  621   0.448   1.497   4.428 -0.2023  0.5408  0.5768
   13DPPC   C22  622   0.305   1.510   4.481 -0.3304  0.8795  0.1568
   13DPPC   C23  623   0.201   1.515   4.369 -0.3928  0.3194  0.1834
   13DPPC   C24  624   0.062   1.484   4.426 -0.0703 -0.5273  0.5090
   13DPPC   C25  625  -0.032   1.510   4.308  1.0410 -0.4250 -0.3682
   13DPPC   C26  626  -0.014   1.650   4.249 -0.7632 -0.0347 -0.0320
   13DPPC   C27  627  -0.106   1.648   4.126 -0.5622 -0.7337 -0.1776
   13DPPC   C28  628  -0.093   1.772   4.039 -0.4863 -0.3795  0.3318
   13DPPC   C29  629  -0.227   1.795   3.968 -0.2103  0.0620 -0.0557
   13DPPC   C30  630  -0.199   1.894   3.855  0.0484  0.1240  0.0626
   13DPPC   C31  631  -0.154   2.031   3.905 -0.3245  0.4138 -0.3874
   13DPPC   C32  632   1.179   1.730   4.943 -0.1622 -0.3861 -0.0512
   13DPPC   O33  633   1.237   1.622   4.870  0.2850 -0.2470  0.0991
   13DPPC   C34  634   1.349   1.657   4.801 -0.2553  0.7598 -0.2897
   13DPPC   O35  635   1.424   1.744   4.843  0.4125 -0.1930  0.5415
   13DPPC   C36  636   1.387   1.562   4.686 -0.3999  0.3663 -0.0161
   13DPPC   C37  637   1.313   1.602   4.558  0.3309 -0.2097 -0.6224
   13DPPC   C38  638   1.182   1.524   4.545  0.0565  0.1558 -0.0666
   13DPPC   C39  639   1.107   1.556   4.416 -0.1395  0.0433  0.0195
   13DPPC   C40  640   0.975   1.478   4.408  0.2945 -0.7013 -0.0601
   13DPPC   C41  641   0.896   1.516   4.283  0.7481 -0.6182 -0.3240
   13DPPC   C42  642   0.776   1.421   4.278  0.7470 -0.6520  0.3364
   13DPPC   C43  643   0.742   1.409   4.130  0.1522 -0.0701  0.4231
   13DPPC   C44  644   0.619   1.319   4.118  0.5267 -0.4888 -0.3453
   13DPPC   C45  645   0.646   1.180   4.176 -0.5495 -0.4779  0.2035
   13DPPC   C46  646   0.723   1.090   4.079 -0.0255 -0.1540  0.3146
   13DPPC   C47  647   0.741   0.955   4.150 -0.1228 -0.4871 -0.2810
   13DPPC   C48  648   0.796   0.850   4.054  1.0082 -0.0321 -0.1448
   13DPPC   C49  649   0.802   0.705   4.104 -0.0120  0.1671  0.5731
   13DPPC   C50  650   0.878   0.692   4.236 -0.3895 -0.3655  0.7393
   14DPPC    C1  651   8.468   3.425   5.618 -0.1806  0.1193 -0.3481
   14DPPC    C2  652   8.431   3.593   5.787  0.0901 -0.2133  0.0230
   14DPPC    C3  653   8.644   3.520   5.730 -0.0569  0.0594  0.3801
   14DPPC    N4  654   8.513   3.554   5.672  0.0779 -0.1063 -0.0212
   14DPPC    C5  655   8.514   3.669   5.580 -0.3153 -0.2096 -0.1533
   14DPPC    C6  656   8.585   3.656   5.446  0.1268 -0.1902  0.0798
   14DPPC    O7  657   8.723   3.620   5.460  0.2152  0.1572  0.1202
   14DPPC    P8  658   8.767   3.527   5.336 -0.2200  0.2109 -0.0752
   14DPPC    O9  659   8.663   3.421   5.336 -0.1243  0.1149  0.7034
   14DPPC   O10  660   8.911   3.494   5.337 -0.1410  0.5424 -0.3192
   14DPPC   O11  661   8.752   3.649   5.232 -0.1531  0.1858 -0.1145
   14DPPC   C12  662   8.680   3.601   5.117 -0.1974  0.1199 -0.0594
   14DPPC   C13  663   8.554   3.685   5.096 -0.1307  0.3191  0.3201
   14DPPC   O14  664   8.470   3.625   4.996 -0.1787  0.7215  0.1182
   14DPPC   C15  665   8.371   3.544   5.041  0.4844 -0.0419  0.2177
   14DPPC   O16  666   8.348   3.536   5.162 -0.4514 -0.1711  0.0377
   14DPPC   C17  667   8.296   3.467   4.933 -0.2158  0.1881  0.5369
   14DPPC   C18  668   8.387   3.361   4.871 -0.0097  0.5382  0.2425
   14DPPC   C19  669   8.336   3.294   4.743 -0.3316 -0.1062  0.7039
   14DPPC   C20  670   8.332   3.390   4.624 -0.3845 -0.4114  0.4594
   14DPPC   C21  671   8.280   3.336   4.491  0.4466  0.1693 -0.1176
   14DPPC   C22  672   8.256   3.447   4.389 -0.0912  0.6608  0.5359
   14DPPC   C23  673   8.384   3.527   4.363  0.4021 -0.1249  0.4902
   14DPPC   C24  674   8.359   3.636   4.258  0.9206 -0.1544  0.3356
   14DPPC   C25  675   8.305   3.569   4.132  0.3491  0.0965  0.4465
   14DPPC   C26  676   8.312   3.674   4.021  0.8159 -0.2783  0.1202
   14DPPC   C27  677   8.282   3.621   3.881  0.3630  0.2119  0.0323
   14DPPC   C28  678   8.268   3.726   3.769 -0.4348 -0.0645 -0.1328
   14DPPC   C29  679   8.167   3.833   3.809  0.2567  0.4737  0.1818
   14DPPC   C30  680   8.138   3.904   3.677 -0.0411  0.5056  0.2621
   14DPPC   C31  681   8.273   3.954   3.625 -0.0846  0.1136 -0.2397
   14DPPC   C32  682   8.608   3.817   5.042  0.0502 -0.0937 -0.5226
   14DPPC   O33  683   8.720   3.812   4.953  0.4933 -0.2993  0.0394
   14DPPC   C34  684   8.758   3.936   4.912  0.2237 -0.0911  0.4172
   14DPPC   O35  685   8.709   4.035   4.966  0.8204  0.4558 -0.0303
   14DPPC   C36  686   8.879   3.935   4.819 -0.2514 -0.2871 -0.2063
   14DPPC   C37  687   8.885   3.819   4.719  0.7261 -0.2757 -0.1681
   14DPPC   C38  688   8.789   3.855   4.606  0.2429 -0.0770  0.3028
   14DPPC   C39  689   8.829   3.774   4.483  0.1116  0.4130 -0.0686
   14DPPC   C40  690   8.807   3.623   4.496 -0.1255  0.4582  0.0701
   14DPPC   C41  691   8.876   3.553   4.378 -0.0211 -0.0322  0.4215
   14DPPC   C42  692   8.824   3.410   4.357 -0.0164  0.1066 -0.5524
   14DPPC   C43  693   8.873   3.347   4.227 -0.1778  0.0662 -0.5937
   14DPPC   C44  694   8.783   3.238   4.168 -0.2503 -0.1824 -0.0304
   14DPPC   C45  695   8.853   3.109   4.126 -0.2820 -0.2922  0.2527
   14DPPC   C46  696   8.757   3.032   4.035 -0.3035  0.5761 -0.4769
   14DPPC   C47  697   8.828   2.900   4.005 -0.1141  0.5651  0.0045
   14DPPC   C48  698   8.872   2.893   3.859 -0.0185  0.6721  0.0283
   14DPPC   C49  699   8.952   2.765   3.829 -0.2015  0.5479  0.0689
   14DPPC   C50  700   8.979   2.734   3.682 -0.3878 -0.1460  0.1785
   15DPPC    C1  701   5.264   8.182   5.050 -0.1801 -0.2093 -0.5163
   15DPPC    C2  702   5.437   8.295   4.924 -0.3949  0.3421  0.1137
   15DPPC    C3  703   5.208   8.375   4.968 -0.2974  0.2721  0.2847
   15DPPC    N4  704   5.328   8.311   5.022 -0.3746  0.0464  0.1849
   15DPPC    C5  705   5.356   8.371   5.153 -0.1821  0.2268  0.0615
   15DPPC    C6  706   5.435   8.286   5.251 -0.2809  0.2642  0.1744
   15DPPC    O7  707   5.574   8.276   5.221 -0.2102 -0.2051  0.6283
   15DPPC    P8  708   5.639   8.142   5.281  0.3975 -0.0193  0.3954
   15DPPC    O9  709   5.548   8.036   5.233  0.3053  0.3946 -0.3513
   15DPPC   O10  710   5.640   8.185   5.423  0.4603 -0.2650  0.4711
   15DPPC   O11  711   5.779   8.155   5.202  0.3570 -0.4321  0.2516
   15DPPC   C12  712   5.733   8.141   5.068  0.2808  0.0983  0.2196
   15DPPC   C13  713   5.843   8.197   4.977  0.4235  0.2719  0.4965
   15DPPC   O14  714   5.806   8.214   4.839  0.5529  0.1379  0.4442
   15DPPC   C15  715   5.890   8.278   4.753 -0.1310  0.4266 -0.0129
   15DPPC   O16  716   5.975   8.350   4.804  0.6108 -0.3306 -0.1669
   15DPPC   C17  717   5.829   8.306   4.615  0.0317  0.6576 -0.0382
   15DPPC   C18  718   5.831   8.455   4.581  0.0269  0.5399 -0.5603
   15DPPC   C19  719   5.758   8.536   4.689  0.0343 -0.0117 -0.1395
   15DPPC   C20  720   5.762   8.685   4.653 -0.0843  0.1630  0.5538
   15DPPC   C21  721   5.908   8.729   4.637 -0.0168 -0.0161  0.6696
   15DPPC   C22  722   5.924   8.876   4.597 -0.5452 -0.0943  0.1520
   15DPPC   C23  723   5.857   8.897   4.461  0.1270 -0.2250 -0.2028
   15DPPC   C24  724   5.890   9.041   4.422 -0.2129 -0.0767  0.0476
   15DPPC   C25  725   5.821   9.073   4.289 -0.2161 -0.8038 -0.1287
   15DPPC   C26  726   5.669   9.074   4.303 -0.2118 -0.5253 -0.1064
   15DPPC   C27  727   5.620   9.116   4.164  0.1103 -0.0323 -0.0719
   15DPPC   C28  728   5.471   9.149   4.169  0.1126  0.0313 -0.4306
   15DPPC   C29  729   5.437   9.228   4.042 -0.1488  0.4452 -0.1067
   15DPPC   C30  730   5.291   9.267   4.022 -0.3369 -0.3109 -0.2327
   15DPPC   C31  731   5.248   9.352   4.141 -0.2565 -0.2113 -0.2751
   15DPPC   C32  732   5.967   8.111   5.000 -0.0436 -0.3782  0.6161
   15DPPC   O33  733   5.974   7.991   4.923 -0.0249 -0.0582  0.1185
   15DPPC   C34  734   6.078   7.906   4.946  0.1741  0.0177 -0.4710
   15DPPC   O35  735   6.155   7.930   5.039  0.0791  0.1064 -0.4152
   15DPPC   C36  736   6.079   7.781   4.859  0.0283 -0.4981  0.2629
   15DPPC   C37  737   6.043   7.652   4.934  0.3497 -0.3884  0.6031
   15DPPC   C38  738   6.027   7.530   4.844 -0.3246 -0.0235  0.2236
   15DPPC   C39  739   5.943   7.567   4.721  0.3485 -0.2638 -0.3157
   15DPPC   C40  740   5.893   7.449   4.638 -0.3619 -0.1761 -0.0175
   15DPPC   C41  741   6.001   7.346   4.606 -0.2931 -0.2068  0.3130
   15DPPC   C42  742   5.922   7.235   4.537 -0.0455 -0.0860 -0.1738
   15DPPC   C43  743   6.003   7.153   4.437  0.4832 -0.0076  0.1887
   15DPPC   C44  744   5.907   7.056   4.368  0.5457 -0.0704  0.1910
   15DPPC   C45  745   5.991   6.960   4.283  0.6079 -0.0340  0.2109
   15DPPC   C46  746   6.032   7.037   4.158 -0.2618 -0.6819 -0.4774
   15DPPC   C47  747   5.921   7.098   4.072 -0.1939  0.0755 -0.0264
   15DPPC   C48  748   5.976   7.168   3.948 -0.0801 -0.0878 -0.0664
   15DPPC   C49  749   5.867   7.233   3.863  0.2952  0.2620 -0.2876
   15DPPC   C50  750   5.808   7.349   3.942 -0.0530 -0.1288  0.0355
   16DPPC    C1  751   9.219   0.907   5.119 -0.1571  0.0669  0.1619
   16DPPC    C2  752   9.165   0.910   5.359  0.5579  0.1615 -0.2373
   16DPPC    C3  753   9.044   0.767   5.196 -0.6151  0.7552 -0.5544
   16DPPC    N4  754   9.170   0.831   5.235 -0.2797 -0.1940 -0.0588
   16DPPC    C5  755   9.261   0.717   5.251 -0.2195 -0.1042  0.2462
   16DPPC    C6  756   9.242   0.625   5.373 -0.4161 -0.6833 -0.2166
   16DPPC    O7  757   9.303   0.496   5.371  0.0278 -0.4823  0.1423
   16DPPC    P8  758   9.202   0.389   5.436 -0.1709 -0.2304  0.2473
   16DPPC    O9  759   9.144   0.471   5.545  0.5785  0.1893  0.3400
   16DPPC   O10  760   9.263   0.258   5.466  0.3162 -0.1886 -0.5400
   16DPPC   O11  761   9.112   0.366   5.305  0.1065 -0.3457  0.0757
   16DPPC   C12  762   9.193   0.298   5.209  0.0027 -0.1748 -0.1327
   16DPPC   C13  763   9.159   0.338   5.065  0.0372 -0.4247 -0.2101
   16DPPC   O14  764   9.221   0.459   5.020  0.2665 -0.5004 -0.0976
   16DPPC   C15  765   9.345   0.447   4.964  0.3235  0.1816 -0.1285
   16DPPC   O16  766   9.420   0.360   5.006 -0.3495 -0.1106  0.5013
   16DPPC   C17  767   9.406   0.558   4.878  0.2150 -0.0470 -0.5028
   16DPPC   C18  768   9.327   0.688   4.863  0.0183 -0.0390  0.5181
   16DPPC   C19  769   9.363   0.760   4.732  0.1438 -0.1085  0.5135
   16DPPC   C20  770   9.280   0.700   4.619  0.0779  0.4419  0.2647
   16DPPC   C21  771   9.133   0.717   4.659 -0.1963 -0.4129 -0.3591
   16DPPC   C22  772   9.031   0.659   4.561 -0.4592 -0.0448 -0.3063
   16DPPC   C23  773   9.003   0.745   4.437  0.4268  0.2967 -0.2755
   16DPPC   C24  774   8.898   0.669   4.356  0.5234  0.1985 -0.3090
   16DPPC   C25  775   8.821   0.727   4.237  0.4212  0.5591 -0.0704
   16DPPC   C26  776   8.759   0.616   4.152  0.2710  0.5343  0.0714
   16DPPC   C27  777   8.699   0.683   4.027 -0.2752  0.4171  0.2653
   16DPPC   C28  778   8.570   0.605   4.002 -0.1445  0.2180  0.2148
   16DPPC   C29  779   8.488   0.634   3.876 -0.0392  0.1012  0.1186
   16DPPC   C30  780   8.574   0.582   3.760  0.3204  0.4321  0.2333
   16DPPC   C31  781   8.519   0.608   3.619 -0.3076  0.1458  0.4222
   16DPPC   C32  782   9.006   0.345   5.062  0.0536 -0.0603 -0.1619
   16DPPC   O33  783   8.947   0.215   5.065 -0.4438  0.1635 -0.1858
   16DPPC   C34  784   8.814   0.208   5.038 -0.3271  0.2470 -0.7834
   16DPPC   O35  785   8.741   0.283   5.103  0.5310  0.4064  0.0064
   16DPPC   C36  786   8.767   0.066   5.004 -0.4553  0.1522 -0.2171
   16DPPC   C37  787   8.716   0.082   4.861  0.5939 -0.3727 -0.6575
   16DPPC   C38  788   8.741  -0.050   4.788 -0.0621 -1.0896  0.3940
   16DPPC   C39  789   8.721  -0.043   4.636  0.0675 -0.1227  0.4154
   16DPPC   C40  790   8.786  -0.161   4.563  0.3906  0.2574  0.0785
   16DPPC   C41  791   8.767  -0.156   4.411 -0.0236 -0.6869  0.0871
   16DPPC   C42  792   8.623  -0.189   4.370  0.0749 -0.3470 -0.5458
   16DPPC   C43  793   8.626  -0.219   4.220 -0.2943 -0.4324 -0.5360
   16DPPC   C44  794   8.497  -0.300   4.205  0.1218 -1.3118  0.4440
   16DPPC   C45  795   8.457  -0.326   4.059 -0.5511  0.3241  0.3079
   16DPPC   C46  796   8.316  -0.381   4.081 -0.5136  0.1929  0.2190
   16DPPC   C47  797   8.238  -0.426   3.957 -0.4198  0.6718 -0.0138
   16DPPC   C48  798   8.108  -0.474   4.023 -0.1244 -0.0774  0.0312
   16DPPC   C49  799   8.013  -0.548   3.929  0.0675 -0.0622 -0.1758
   16DPPC   C50  800   7.894  -0.610   4.002 -0.0511  0.4448  0.0635
   17DPPC    C1  801   1.569   0.612   5.404 -0.2480  0.0833  0.1391
   17DPPC    C2  802   1.628   0.615   5.181  0.1900 -0.5781  0.3177
   17DPPC    C3  803   1.492   0.448   5.254  0.4549 -0.2354  0.2794
   17DPPC    N4  804   1.513   0.592   5.269 -0.0688 -0.1384  0.0961
   17DPPC    C5  805   1.394   0.671   5.235  0.0596 -0.0072 -0.0519
   17DPPC    C6  806   1.422   0.821   5.224  0.4445 -0.0909 -0.1981
   17DPPC    O7  807   1.304   0.901   5.221  0.3383 -0.2541 -0.3939
   17DPPC    P8  808   1.323   1.061   5.217  0.1703 -0.2206  0.1112
   17DPPC    O9  809   1.468   1.076   5.239  0.1856  0.2494 -0.2916
   17DPPC   O10  810   1.219   1.112   5.309  0.2267 -0.4971  0.3284
   17DPPC   O11  811   1.286   1.074   5.061  0.3804  0.3473  0.1076
   17DPPC   C12  812   1.407   1.131   5.010  0.5468  0.1661  0.2986
   17DPPC   C13  813   1.382   1.170   4.864 -0.0379  0.1497  0.3943
   17DPPC   O14  814   1.489   1.240   4.799  0.1063 -0.2970  0.1452
   17DPPC   C15  815   1.576   1.159   4.733 -0.2123  0.0031 -0.6589
   17DPPC   O16  816   1.540   1.045   4.705  0.1131 -0.2477 -0.0930
   17DPPC   C17  817   1.705   1.221   4.677  0.2710 -0.2961  0.1056
   17DPPC   C18  818   1.727   1.355   4.748  0.0380 -0.0054 -0.3716
   17DPPC   C19  819   1.813   1.448   4.662  0.1725 -0.2223 -0.4740
   17DPPC   C20  820   1.931   1.370   4.604  0.3101  0.1535 -0.7054
   17DPPC   C21  821   2.011   1.471   4.522  0.3211  0.6579 -0.0811
   17DPPC   C22  822   2.144   1.406   4.484  0.0365  0.1110 -0.1501
   17DPPC   C23  823   2.231   1.514   4.420  0.1159  0.0152 -0.2035
   17DPPC   C24  824   2.365   1.457   4.373  0.1107  0.0272 -0.2335
   17DPPC   C25  825   2.336   1.359   4.259  0.0704 -0.2720  0.0333
   17DPPC   C26  826   2.450   1.279   4.196 -0.2598 -0.6372 -0.1006
   17DPPC   C27  827   2.393   1.203   4.076 -0.2754 -0.6090 -0.1113
   17DPPC   C28  828   2.493   1.094   4.037  0.4369 -0.2363  0.6409
   17DPPC   C29  829   2.438   1.008   3.923  0.0564  0.5150  0.2457
   17DPPC   C30  830   2.435   1.079   3.787 -0.2256  0.5593  0.2746
   17DPPC   C31  831   2.403   0.978   3.677 -0.2498  0.3317  0.4879
   17DPPC   C32  832   1.254   1.254   4.862 -0.4256 -0.4477 -0.0369
   17DPPC   O33  833   1.169   1.251   4.746  0.0367  0.7372 -0.4113
   17DPPC   C34  834   1.100   1.142   4.704  0.5402  0.3171 -0.1561
   17DPPC   O35  835   1.125   1.031   4.751 -0.3368  0.4657  0.6864
   17DPPC   C36  836   1.040   1.148   4.564  0.5693  0.1223 -0.1777
   17DPPC   C37  837   1.130   1.080   4.461  0.0379 -0.4673 -0.2612
   17DPPC   C38  838   1.042   1.012   4.357 -0.1518 -0.3875 -0.1531
   17DPPC   C39  839   1.119   0.967   4.232 -0.2174 -0.1946 -0.2637
   17DPPC   C40  840   1.152   1.094   4.154 -0.1668  0.0207  0.1058
   17DPPC   C41  841   1.210   1.057   4.017 -0.6443 -0.1834 -0.0420
   17DPPC   C42  842   1.287   1.175   3.957 -0.1827 -0.5251 -0.1238
   17DPPC   C43  843   1.352   1.164   3.819 -0.0400  0.1236 -0.1119
   17DPPC   C44  844   1.421   1.293   3.774  0.5148 -0.0540  0.2189
   17DPPC   C45  845   1.472   1.279   3.630  0.3090 -0.4366  0.1803
   17DPPC   C46  846   1.519   1.415   3.576 -0.0440 -0.3792  0.0118
   17DPPC   C47  847   1.645   1.460   3.649  0.2769  0.0868 -0.8167
   17DPPC   C48  848   1.697   1.599   3.611  0.3088  0.2032 -0.3571
   17DPPC   C49  849   1.817   1.656   3.687  0.1236  0.0431  0.0589
   17DPPC   C50  850   1.830   1.806   3.658  0.6476  0.0088  0.1034
   18DPPC    C1  851   1.891   7.217   5.531  0.1874 -0.1422 -0.0728
   18DPPC    C2  852   1.961   7.016   5.606  0.5425  0.1161 -0.1879
   18DPPC    C3  853   1.748   7.029   5.490 -0.5805  0.3329  0.8179
   18DPPC    N4  854   1.888   7.075   5.493 -0.3795 -0.2138  0.2265
   18DPPC    C5  855   1.954   7.070   5.362 -0.0184 -0.1550  0.4042
   18DPPC    C6  856   1.983   6.927   5.316 -0.9431 -0.0891 -0.4434
   18DPPC    O7  857   2.053   6.924   5.192  0.0237 -0.1260  0.0870
   18DPPC    P8  858   2.052   6.775   5.130  0.0688  0.1706 -0.6364
   18DPPC    O9  859   1.914   6.732   5.161  0.1937  0.5676  0.4854
   18DPPC   O10  860   2.166   6.694   5.178  0.0662  0.2939 -0.4221
   18DPPC   O11  861   2.063   6.799   4.971 -0.4019  0.0450 -0.6891
   18DPPC   C12  862   2.106   6.681   4.904 -1.0871 -0.4771 -0.2184
   18DPPC   C13  863   2.129   6.692   4.753  0.0506 -0.4341 -0.0527
   18DPPC   O14  864   2.132   6.568   4.681 -0.0607 -0.0599 -0.7050
   18DPPC   C15  865   2.015   6.506   4.651 -0.2126 -0.4029  0.5553
   18DPPC   O16  866   1.912   6.508   4.718 -0.1274 -0.0316  0.6769
   18DPPC   C17  867   2.024   6.384   4.560  0.3141  0.1180 -0.0987
   18DPPC   C18  868   1.902   6.381   4.467 -0.3991  0.1762  0.8253
   18DPPC   C19  869   1.945   6.320   4.333 -0.4751 -0.1555  0.9516
   18DPPC   C20  870   1.822   6.302   4.244 -0.0414 -0.7328  0.4676
   18DPPC   C21  871   1.851   6.216   4.120 -0.0109 -0.1688  0.0798
   18DPPC   C22  872   1.720   6.205   4.043  0.0461 -0.9706  0.0947
   18DPPC   C23  873   1.741   6.112   3.923 -0.0304 -0.1065 -0.5965
   18DPPC   C24  874   1.612   6.112   3.841 -0.1364 -0.3742 -0.4301
   18DPPC   C25  875   1.480   6.082   3.914  0.3309  0.1847  0.6723
   18DPPC   C26  876   1.462   5.939   3.965  0.2592 -0.1028 -0.1322
   18DPPC   C27  877   1.339   5.948   4.056 -0.1090 -0.3028 -0.6118
   18DPPC   C28  878   1.213   5.985   3.978 -0.7536  0.1185  0.6205
   18DPPC   C29  879   1.165   5.881   3.877  0.1999  0.1740  0.0992
   18DPPC   C30  880   1.035   5.921   3.808 -0.3787 -0.7610  0.6190
   18DPPC   C31  881   1.004   5.801   3.717  0.4526 -0.3206 -0.2723
   18DPPC   C32  882   2.246   6.789   4.737 -0.2737  0.0075  0.2198
   18DPPC   O33  883   2.278   6.819   4.600 -0.0084 -0.3468  0.2030
   18DPPC   C34  884   2.408   6.853   4.579 -0.0519 -0.4226 -0.1788
   18DPPC   O35  885   2.485   6.857   4.674 -0.3043  0.5356 -0.0094
   18DPPC   C36  886   2.432   6.883   4.430  0.0047  0.2133 -0.0446
   18DPPC   C37  887   2.485   6.759   4.357 -0.3152 -0.0351  0.1381
   18DPPC   C38  888   2.507   6.800   4.211 -0.7460 -0.5233 -0.0650
   18DPPC   C39  889   2.587   6.702   4.124  0.2743 -0.3187  0.6238
   18DPPC   C40  890   2.731   6.679   4.168  0.3919 -0.0255  0.3978
   18DPPC   C41  891   2.797   6.585   4.067  0.1093  0.2017  0.0018
   18DPPC   C42  892   2.882   6.475   4.130 -0.2478 -0.0421  0.0581
   18DPPC   C43  893   2.949   6.395   4.018  0.3536  0.3294  0.1461
   18DPPC   C44  894   2.996   6.258   4.066  0.1910  0.0392 -0.5131
   18DPPC   C45  895   3.110   6.279   4.165 -0.4622  0.5456  0.1460
   18DPPC   C46  896   3.156   6.165   4.256 -0.3891  0.6250  0.2081
   18DPPC   C47  897   3.263   6.213   4.354 -0.2606  0.1923  0.2809
   18DPPC   C48  898   3.202   6.301   4.464 -0.5167  0.0321  0.2675
   18DPPC   C49  899   3.318   6.340   4.556 -0.5480 -0.0252  0.3310
   18DPPC   C50  900   3.278   6.420   4.680 -0.2627  0.4481  0.1225
   19DPPC    C1  901   2.618   5.762   5.666 -0.3756 -0.3710  0.3564
   19DPPC    C2  902   2.405   5.814   5.608 -0.2506  0.0756  0.0274
   19DPPC    C3  903   2.576   5.822   5.437 -0.3298  0.2729  0.1490
   19DPPC    N4  904   2.524   5.749   5.554 -0.1758  0.1290  0.1272
   19DPPC    C5  905   2.485   5.612   5.517  0.1856  0.0072  0.1855
   19DPPC    C6  906   2.590   5.508   5.479 -0.1206 -0.2126 -0.0713
   19DPPC    O7  907   2.663   5.530   5.358 -0.0922 -0.0845 -0.0314
   19DPPC    P8  908   2.793   5.435   5.356 -0.1313 -0.1362 -0.1306
   19DPPC    O9  909   2.832   5.431   5.499 -0.3122 -0.0623 -0.0782
   19DPPC   O10  910   2.874   5.496   5.248  0.3393 -0.2308  0.1665
   19DPPC   O11  911   2.726   5.308   5.284  0.5656 -0.4842 -0.1708
   19DPPC   C12  912   2.764   5.291   5.147 -0.0168 -0.1775 -0.3736
   19DPPC   C13  913   2.682   5.175   5.090 -0.1150 -0.1523 -0.2829
   19DPPC   O14  914   2.757   5.094   4.999  0.4540 -0.1658  0.1882
   19DPPC   C15  915   2.722   4.962   5.000 -0.4819  0.0736  0.1667
   19DPPC   O16  916   2.646   4.908   5.080 -0.6673 -0.2930 -0.2567
   19DPPC   C17  917   2.796   4.877   4.896 -0.3263 -0.1963  0.4966
   19DPPC   C18  918   2.929   4.815   4.940 -0.0268 -0.0481 -0.1838
   19DPPC   C19  919   2.990   4.747   4.818  0.1338  0.4812 -0.4018
   19DPPC   C20  920   2.909   4.621   4.789  0.2428  0.1760  0.5655
   19DPPC   C21  921   2.973   4.544   4.673 -0.1150  0.5419  0.1196
   19DPPC   C22  922   2.891   4.419   4.639  0.2225  0.3472  0.0159
   19DPPC   C23  923   2.958   4.362   4.514  0.4552 -0.1993  0.3854
   19DPPC   C24  924   3.101   4.310   4.528  0.3720 -0.4955  0.1684
   19DPPC   C25  925   3.160   4.270   4.393  0.1804  0.0225 -0.0731
   19DPPC   C26  926   3.129   4.379   4.290 -0.0960  0.1311  0.1227
   19DPPC   C27  927   3.192   4.335   4.157  0.0911  0.1512  0.2034
   19DPPC   C28  928   3.140   4.424   4.045 -0.0361 -0.1103  0.0536
   19DPPC   C29  929   3.208   4.390   3.912  0.0371 -0.2913  0.1386
   19DPPC   C30  930   3.130   4.439   3.791 -0.1115 -0.0259  0.3411
   19DPPC   C31  931   3.125   4.591   3.804  0.4698  0.0280 -0.0198
   19DPPC   C32  932   2.542   5.227   5.055  0.0026  0.4421  0.1189
   19DPPC   O33  933   2.548   5.326   4.953  0.2477  0.1125 -0.1901
   19DPPC   C34  934   2.438   5.356   4.878  0.2953 -0.4173 -0.4724
   19DPPC   O35  935   2.332   5.298   4.901 -0.1171  0.4550 -0.1517
   19DPPC   C36  936   2.448   5.460   4.766 -0.3657  0.4880  0.2960
   19DPPC   C37  937   2.340   5.427   4.663 -0.2607 -0.3488  0.4500
   19DPPC   C38  938   2.374   5.473   4.521 -0.6415 -0.0399  0.4597
   19DPPC   C39  939   2.267   5.469   4.412 -0.2992 -0.6613  0.1414
   19DPPC   C40  940   2.305   5.553   4.290 -0.4760  0.2452  0.6978
   19DPPC   C41  941   2.207   5.576   4.175  0.5767 -0.3637 -0.3487
   19DPPC   C42  942   2.262   5.678   4.075  0.6785  0.3428  0.4156
   19DPPC   C43  943   2.408   5.638   4.051  0.4443  0.0386 -0.5232
   19DPPC   C44  944   2.471   5.728   3.945  0.2738  0.3889 -0.3270
   19DPPC   C45  945   2.615   5.677   3.931  0.2579  0.0770  0.5568
   19DPPC   C46  946   2.675   5.737   3.804 -0.1347  0.1539  0.4051
   19DPPC   C47  947   2.826   5.711   3.793 -0.1750  0.1360 -0.1352
   19DPPC   C48  948   2.895   5.765   3.918 -0.1268  0.0251 -0.1146
   19DPPC   C49  949   3.048   5.770   3.902 -0.0907  0.5951  0.3881
   19DPPC   C50  950   3.123   5.814   4.028  0.1915  0.4734  0.2633
   20DPPC    C1  951   6.768   5.505   5.089 -0.2716  0.1319  0.1469
   20DPPC    C2  952   6.585   5.463   4.948 -0.1262 -0.2802  0.2274
   20DPPC    C3  953   6.570   5.374   5.157  0.0839 -0.0573  0.3785
   20DPPC    N4  954   6.622   5.492   5.087 -0.2596 -0.0092  0.2066
   20DPPC    C5  955   6.543   5.607   5.136 -0.0250  0.1195  0.2825
   20DPPC    C6  956   6.614   5.727   5.197 -0.0833 -0.1338  0.8557
   20DPPC    O7  957   6.690   5.811   5.109 -0.9174  0.1693  0.4189
   20DPPC    P8  958   6.774   5.920   5.190 -0.0500 -0.0700 -0.1442
   20DPPC    O9  959   6.852   5.823   5.270  0.1156  0.0882 -0.1104
   20DPPC   O10  960   6.681   6.019   5.249  0.0124 -0.1502  0.0903
   20DPPC   O11  961   6.872   5.999   5.089 -0.1284 -0.2462 -0.3587
   20DPPC   C12  962   6.969   5.902   5.050  0.0627 -0.1825 -0.0417
   20DPPC   C13  963   7.097   5.950   4.980  0.2544 -0.0455  0.3968
   20DPPC   O14  964   7.085   6.036   4.866 -0.6470 -0.1919  0.3744
   20DPPC   C15  965   7.086   6.172   4.854 -0.6217 -0.2437 -0.2188
   20DPPC   O16  966   7.126   6.236   4.950 -0.5281 -0.1019 -0.3528
   20DPPC   C17  967   7.062   6.237   4.717 -0.3152  0.4768  0.0677
   20DPPC   C18  968   7.137   6.366   4.681  0.4530  0.0383  0.0608
   20DPPC   C19  969   7.082   6.407   4.544  0.0286 -0.8461 -0.0462
   20DPPC   C20  970   6.931   6.430   4.557  0.2758  0.4638  0.6793
   20DPPC   C21  971   6.880   6.474   4.420  0.2397  0.0760  0.5670
   20DPPC   C22  972   6.955   6.597   4.368  0.3172 -0.2648 -0.1427
   20DPPC   C23  973   6.945   6.615   4.216  0.4217 -0.3642 -0.1617
   20DPPC   C24  974   7.031   6.725   4.154 -0.4535  0.2222 -0.3612
   20DPPC   C25  975   7.038   6.699   4.003 -0.3818 -0.0058 -0.3191
   20DPPC   C26  976   7.119   6.794   3.914 -0.2398  0.3017  0.1369
   20DPPC   C27  977   7.266   6.782   3.956 -0.0516  0.1983 -0.5434
   20DPPC   C28  978   7.355   6.874   3.874  0.6291  0.1624  0.1451
   20DPPC   C29  979   7.504   6.839   3.875  0.6122  0.0851  0.0628
   20DPPC   C30  980   7.593   6.924   3.784 -0.4815  0.0707 -1.0432
   20DPPC   C31  981   7.733   6.862   3.784 -0.5089  0.0003 -0.4361
   20DPPC   C32  982   7.183   5.826   4.958  0.6053  0.3812 -0.6743
   20DPPC   O33  983   7.108   5.715   4.910  0.3855  0.0646  0.3774
   20DPPC   C34  984   7.166   5.592   4.910  0.1015 -0.0731 -0.0521
   20DPPC   O35  985   7.266   5.561   4.975  0.1304 -0.3285 -0.2154
   20DPPC   C36  986   7.110   5.504   4.798 -0.0775 -0.2601  0.1821
   20DPPC   C37  987   7.225   5.434   4.726 -0.3046 -0.2929 -0.1513
   20DPPC   C38  988   7.170   5.374   4.596 -0.0463  0.0077 -0.4019
   20DPPC   C39  989   7.271   5.297   4.510  0.0720 -0.2483 -0.0366
   20DPPC   C40  990   7.227   5.278   4.365  0.2056  0.2301 -0.1417
   20DPPC   C41  991   7.331   5.216   4.271  0.0948 -0.5852  0.2643
   20DPPC   C42  992   7.251   5.206   4.141  0.1129  0.5194  0.1587
   20DPPC   C43  993   7.342   5.150   4.031 -0.3165  0.3893 -0.1321
   20DPPC   C44  994   7.260   5.093   3.915 -0.3021 -0.6468  0.3563
   20DPPC   C45  995   7.349   5.020   3.815 -0.5353 -0.1489 -0.2261
   20DPPC   C46  996   7.262   4.972   3.699 -0.7165 -0.4215  0.0191
   20DPPC   C47  997   7.192   5.084   3.622 -0.0824  0.2885  0.4587
   20DPPC   C48  998   7.096   5.023   3.520  0.2456  0.1054  0.2590
   20DPPC   C49  999   7.003   5.119   3.446 -0.1525 -0.6721 -0.2662
   20DPPC   C50 1000   7.084   5.207   3.350 -0.4501 -0.0465  0.0511
   21DPPC    C1 1001   3.223   2.262   6.232 -0.1786 -0.1154 -0.8992
   21DPPC    C2 1002   3.388   2.211   6.065 -0.1116 -0.2073 -0.4244
   21DPPC    C3 1003   3.433   2.156   6.285 -0.6485  0.4606  0.3479
   21DPPC    N4 1004   3.323   2.164   6.188 -0.0483 -0.2141 -0.3941
   21DPPC    C5 1005   3.273   2.026   6.178  0.0053 -0.3248  0.7183
   21DPPC    C6 1006   3.136   2.000   6.113  0.0411  0.1537  0.4437
   21DPPC    O7 1007   3.132   2.013   5.971  0.2314  0.0357  0.4263
   21DPPC    P8 1008   2.985   2.049   5.914  0.3912  0.0530  0.0246
   21DPPC    O9 1009   2.916   2.140   6.007  0.2487 -0.0024 -0.0266
   21DPPC   O10 1010   2.944   1.914   5.870  0.6452  0.0862 -0.3223
   21DPPC   O11 1011   3.032   2.122   5.778 -0.4654 -0.1344 -0.3805
   21DPPC   C12 1012   3.041   2.018   5.681 -0.7171 -0.2324 -0.2993
   21DPPC   C13 1013   3.039   2.076   5.539  0.1134 -0.0664 -0.2489
   21DPPC   O14 1014   3.027   1.982   5.431  0.0049  0.3099 -0.5671
   21DPPC   C15 1015   2.901   1.946   5.398 -0.0745  0.3297 -0.2846
   21DPPC   O16 1016   2.811   1.938   5.483  0.4184 -1.0910  0.1351
   21DPPC   C17 1017   2.896   1.880   5.260  0.5072 -0.5269  0.0975
   21DPPC   C18 1018   2.992   1.957   5.168  0.1097  0.1931  0.2764
   21DPPC   C19 1019   2.961   1.924   5.022  0.1462 -0.2733  0.3716
   21DPPC   C20 1020   3.033   2.025   4.933 -0.6479  0.0532  0.0824
   21DPPC   C21 1021   2.971   2.005   4.795 -0.3344  0.1774 -0.0766
   21DPPC   C22 1022   3.029   2.104   4.693 -0.1879  0.4842  0.3027
   21DPPC   C23 1023   2.975   2.078   4.552 -0.2375  0.1760  0.3773
   21DPPC   C24 1024   3.059   2.140   4.441 -0.2045 -0.1575  0.2150
   21DPPC   C25 1025   2.972   2.145   4.315  0.1773  0.2238 -0.0393
   21DPPC   C26 1026   3.047   2.186   4.188 -0.0036  0.7232  0.0116
   21DPPC   C27 1027   2.966   2.174   4.059 -0.2678  0.0340  0.2349
   21DPPC   C28 1028   3.055   2.208   3.940 -0.0328  0.9315  0.6592
   21DPPC   C29 1029   2.987   2.193   3.804  0.7177 -0.3668  0.4164
   21DPPC   C30 1030   3.098   2.156   3.706 -0.1630 -0.4165 -0.5807
   21DPPC   C31 1031   3.064   2.164   3.557 -0.0055  0.8941 -0.5591
   21DPPC   C32 1032   3.167   2.159   5.534 -0.2622  0.5614  0.2884
   21DPPC   O33 1033   3.196   2.242   5.421  0.0126  0.4315  0.2607
   21DPPC   C34 1034   3.128   2.358   5.399 -0.4835  0.0324 -0.3476
   21DPPC   O35 1035   3.032   2.393   5.468 -0.2595 -0.0829  0.0253
   21DPPC   C36 1036   3.168   2.434   5.272  0.7074 -0.1692 -0.1024
   21DPPC   C37 1037   3.086   2.399   5.148  0.4768 -0.9900  0.2789
   21DPPC   C38 1038   3.133   2.486   5.032 -0.6172  0.2753  0.7533
   21DPPC   C39 1039   3.050   2.449   4.908 -0.0075  0.5941  0.2418
   21DPPC   C40 1040   3.081   2.532   4.784  0.1820  0.1023 -0.0458
   21DPPC   C41 1041   2.995   2.491   4.664  0.3601 -0.1618 -0.0817
   21DPPC   C42 1042   3.048   2.549   4.533 -0.2328 -0.3743 -0.4192
   21DPPC   C43 1043   3.200   2.546   4.514 -0.1308  0.8979  0.0270
   21DPPC   C44 1044   3.254   2.631   4.399 -0.3481  0.4578 -0.4052
   21DPPC   C45 1045   3.207   2.578   4.263 -0.4604  0.0524 -0.2101
   21DPPC   C46 1046   3.237   2.670   4.144 -0.6792  0.4218  0.0184
   21DPPC   C47 1047   3.194   2.610   4.011  0.4668  0.1430 -0.2405
   21DPPC   C48 1048   3.248   2.697   3.897  0.7208 -0.2804 -0.4478
   21DPPC   C49 1049   3.177   2.646   3.772 -0.4847  0.2980 -0.0218
   21DPPC   C50 1050   3.185   2.744   3.655 -0.4699 -0.0264 -0.2935
   22DPPC    C1 1051   1.644   2.057   5.615  0.3590 -0.4692  0.3256
   22DPPC    C2 1052   1.828   2.151   5.495 -0.0429 -0.0504 -0.0206
   22DPPC    C3 1053   1.863   2.046   5.714 -0.1155  0.7673  0.4068
   22DPPC    N4 1054   1.787   2.044   5.587  0.3597 -0.0736  0.1296
   22DPPC    C5 1055   1.803   1.918   5.514 -0.2551 -0.3122  0.4002
   22DPPC    C6 1056   1.930   1.886   5.434 -0.8112  0.0845 -0.6731
   22DPPC    O7 1057   1.918   1.767   5.356 -0.0843 -0.6010  0.2337
   22DPPC    P8 1058   2.065   1.731   5.300  0.0419  0.2352  0.0258
   22DPPC    O9 1059   2.054   1.607   5.220  0.0239  0.2465  0.0103
   22DPPC   O10 1060   2.159   1.743   5.413  0.1052  0.3582 -0.0395
   22DPPC   O11 1061   2.069   1.862   5.206  0.0097  0.0659 -0.2127
   22DPPC   C12 1062   2.015   1.840   5.075  0.0756 -0.1946 -0.1963
   22DPPC   C13 1063   1.997   1.975   5.007 -0.0711 -0.0113  0.2021
   22DPPC   O14 1064   1.937   1.965   4.876  0.0203 -0.2659  0.1799
   22DPPC   C15 1065   1.803   1.948   4.869 -0.0375  0.3092 -0.1610
   22DPPC   O16 1066   1.735   1.934   4.971 -0.6659  0.2277 -0.5798
   22DPPC   C17 1067   1.743   1.952   4.728 -0.2524  0.2226 -0.0730
   22DPPC   C18 1068   1.804   1.847   4.636 -0.5256 -0.2660  0.2989
   22DPPC   C19 1069   1.739   1.851   4.498  0.5477 -0.1027 -0.2103
   22DPPC   C20 1070   1.781   1.738   4.404  0.3494 -0.4772  0.1489
   22DPPC   C21 1071   1.678   1.720   4.292  0.7430 -0.1020 -0.2815
   22DPPC   C22 1072   1.699   1.591   4.211  0.4777 -0.2372 -0.1345
   22DPPC   C23 1073   1.570   1.560   4.135  0.6166  0.4763 -0.6688
   22DPPC   C24 1074   1.525   1.669   4.037  0.4296  0.5532 -0.4979
   22DPPC   C25 1075   1.408   1.597   3.969  0.4197  0.2988 -0.2169
   22DPPC   C26 1076   1.358   1.697   3.865  0.2857  0.2934 -0.1576
   22DPPC   C27 1077   1.224   1.651   3.807  0.4489 -0.1605 -0.1748
   22DPPC   C28 1078   1.122   1.621   3.916 -0.0279  0.7970 -0.3524
   22DPPC   C29 1079   0.995   1.562   3.854  0.5253 -0.0186 -0.7109
   22DPPC   C30 1080   1.020   1.431   3.779 -0.2493 -0.5894  0.0014
   22DPPC   C31 1081   0.899   1.368   3.710 -0.4056 -0.5122  0.2071
   22DPPC   C32 1082   2.129   2.053   5.013 -0.0794  0.1076 -0.9021
   22DPPC   O33 1083   2.245   1.979   4.977 -0.1141 -0.0535 -0.6806
   22DPPC   C34 1084   2.356   2.056   4.967 -0.0450 -0.0049  0.3690
   22DPPC   O35 1085   2.339   2.178   4.972  0.0432  0.0086  0.3303
   22DPPC   C36 1086   2.477   2.002   4.891 -0.3239 -0.2415  0.0951
   22DPPC   C37 1087   2.447   1.887   4.795 -0.2136 -0.2423  0.0611
   22DPPC   C38 1088   2.550   1.900   4.683 -0.1240 -0.1060  0.1601
   22DPPC   C39 1089   2.526   1.804   4.566  0.1502 -0.0408  0.0488
   22DPPC   C40 1090   2.608   1.847   4.445  0.4099 -0.5786  0.0304
   22DPPC   C41 1091   2.580   1.767   4.317 -0.1090 -0.2479 -0.0650
   22DPPC   C42 1092   2.665   1.807   4.197 -0.7367  0.5019 -0.2644
   22DPPC   C43 1093   2.628   1.735   4.067  0.0585  0.3754 -0.4243
   22DPPC   C44 1094   2.727   1.791   3.965  0.2825  0.4421 -0.1710
   22DPPC   C45 1095   2.703   1.739   3.823  0.6055 -0.2024  0.0031
   22DPPC   C46 1096   2.762   1.823   3.709 -0.7071  0.7770  0.0189
   22DPPC   C47 1097   2.724   1.763   3.573 -0.0170  0.3158  0.0249
   22DPPC   C48 1098   2.797   1.634   3.534  0.7124  0.6861  0.1354
   22DPPC   C49 1099   2.772   1.579   3.393  0.2674  0.2155  0.3929
   22DPPC   C50 1100   2.808   1.682   3.285  0.6612 -0.2732  0.0523
   23DPPC    C1 1101   1.402   7.359   5.097 -0.5665 -0.2363  0.1793
   23DPPC    C2 1102   1.497   7.161   5.159  0.1398 -0.2947 -0.2536
   23DPPC    C3 1103   1.348   7.145   4.986 -0.4198 -0.0835 -0.2219
   23DPPC    N4 1104   1.452   7.233   5.039 -0.5029 -0.1564  0.0629
   23DPPC    C5 1105   1.564   7.245   4.945 -0.4002  0.7961  0.2949
   23DPPC    C6 1106   1.560   7.320   4.811 -0.2952 -0.2913 -0.3270
   23DPPC    O7 1107   1.483   7.273   4.700 -0.0883 -0.2461 -0.4894
   23DPPC    P8 1108   1.419   7.395   4.616 -0.3581 -0.1464 -0.1405
   23DPPC    O9 1109   1.464   7.523   4.677 -0.9981 -0.1564  0.3641
   23DPPC   O10 1110   1.279   7.361   4.587 -0.1721 -0.2852 -0.8898
   23DPPC   O11 1111   1.509   7.369   4.486 -0.2902  0.1872 -0.1623
   23DPPC   C12 1112   1.463   7.250   4.421 -0.6020  0.2425 -0.0430
   23DPPC   C13 1113   1.491   7.240   4.271 -0.0362 -0.2838  0.0905
   23DPPC   O14 1114   1.631   7.243   4.243 -0.0827  0.5718 -0.0776
   23DPPC   C15 1115   1.676   7.133   4.176 -0.1254  0.0723  0.7102
   23DPPC   O16 1116   1.611   7.029   4.180 -0.1262  0.0340 -0.2716
   23DPPC   C17 1117   1.821   7.157   4.131 -0.4070 -0.1770 -0.3486
   23DPPC   C18 1118   1.837   7.251   4.012  0.3835  0.2344  0.0724
   23DPPC   C19 1119   1.975   7.313   3.995  0.5008 -0.0490 -0.0204
   23DPPC   C20 1120   1.981   7.429   3.896  0.0589 -0.4310 -0.4964
   23DPPC   C21 1121   1.963   7.562   3.970  0.3899 -0.2709 -0.7025
   23DPPC   C22 1122   1.950   7.660   3.854  0.3682  0.4207 -0.1258
   23DPPC   C23 1123   1.924   7.804   3.899  0.3396  0.2632  0.3558
   23DPPC   C24 1124   1.901   7.902   3.784  0.6876 -0.0598  0.0085
   23DPPC   C25 1125   1.874   8.037   3.850 -0.1209 -0.1405 -0.1562
   23DPPC   C26 1126   1.881   8.152   3.748 -0.1331 -0.3376 -0.3813
   23DPPC   C27 1127   1.836   8.292   3.790 -0.0450 -0.5397  0.4102
   23DPPC   C28 1128   1.685   8.288   3.811 -0.1255 -0.2454 -0.0806
   23DPPC   C29 1129   1.632   8.272   3.669 -0.0091  0.1698 -0.1721
   23DPPC   C30 1130   1.481   8.248   3.680  0.0529  0.0818  0.5616
   23DPPC   C31 1131   1.420   8.240   3.539  0.5340  0.1684  0.3463
   23DPPC   C32 1132   1.419   7.365   4.219  1.2011  0.3339 -0.1788
   23DPPC   O33 1133   1.449   7.390   4.082  0.6181 -0.4630 -0.4620
   23DPPC   C34 1134   1.389   7.493   4.017  0.1512 -0.2688  0.2609
   23DPPC   O35 1135   1.310   7.562   4.080  0.3095  0.3245 -0.1744
   23DPPC   C36 1136   1.441   7.519   3.875  0.3265 -0.2534  0.3279
   23DPPC   C37 1137   1.555   7.621   3.872  0.2266 -0.1453  0.2296
   23DPPC   C38 1138   1.609   7.642   3.730  0.0986  0.0459  0.2074
   23DPPC   C39 1139   1.666   7.509   3.681 -0.9366 -0.3674  0.1242
   23DPPC   C40 1140   1.696   7.526   3.532 -0.1704  0.1381  0.3329
   23DPPC   C41 1141   1.749   7.400   3.463 -0.6879  0.1646 -0.1175
   23DPPC   C42 1142   1.633   7.303   3.438 -0.5738  0.0430 -0.1756
   23DPPC   C43 1143   1.670   7.155   3.447  0.0353  0.2099  0.0628
   23DPPC   C44 1144   1.558   7.071   3.386 -0.1987  0.4724  0.1315
   23DPPC   C45 1145   1.531   7.128   3.246 -0.3302 -0.0202 -0.0443
   23DPPC   C46 1146   1.429   7.035   3.181 -0.2472  0.0818 -0.3185
   23DPPC   C47 1147   1.399   7.073   3.035  0.7772  0.1305 -0.5212
   23DPPC   C48 1148   1.310   6.983   2.950 -0.6473  0.5460  0.4842
   23DPPC   C49 1149   1.177   6.943   3.014 -0.6609 -0.1509  0.0326
   23DPPC   C50 1150   1.061   6.990   2.927 -0.1128  0.1749 -0.5278
   24DPPC    C1 1151   3.207   5.411   5.219 -0.2184  0.0157 -0.2604
   24DPPC    C2 1152   3.367   5.448   5.388 -0.2719 -0.2976  0.6279
   24DPPC    C3 1153   3.210   5.614   5.341 -0.3832  0.1795 -0.1725
   24DPPC    N4 1154   3.225   5.469   5.353  0.0418  0.2065 -0.3770
   24DPPC    C5 1155   3.142   5.408   5.458  0.0194  0.3096 -0.3352
   24DPPC    C6 1156   3.157   5.258   5.483 -0.1304  0.3183 -0.1920
   24DPPC    O7 1157   3.059   5.181   5.412 -0.0844  0.2243 -0.1542
   24DPPC    P8 1158   3.095   5.027   5.441  0.1466  0.2986 -0.0419
   24DPPC    O9 1159   2.989   4.949   5.373  0.6436 -0.5535  0.1371
   24DPPC   O10 1160   3.129   5.023   5.585  0.0118 -0.0869 -0.0193
   24DPPC   O11 1161   3.234   5.012   5.362  0.1644 -0.2340  0.0816
   24DPPC   C12 1162   3.196   4.991   5.225 -0.0664 -0.1847  0.1376
   24DPPC   C13 1163   3.315   4.985   5.129  0.4226  0.9277  0.6606
   24DPPC   O14 1164   3.256   4.998   4.999  0.2384 -0.0701  0.6429
   24DPPC   C15 1165   3.228   5.119   4.944  0.4000 -0.4431 -0.2846
   24DPPC   O16 1166   3.286   5.221   4.981 -0.1821 -0.0621 -0.4139
   24DPPC   C17 1167   3.160   5.112   4.807 -0.0015  0.0127 -0.1118
   24DPPC   C18 1168   3.253   5.155   4.694  0.1111  0.2234  0.0614
   24DPPC   C19 1169   3.350   5.047   4.646 -0.4450 -0.2995  0.1027
   24DPPC   C20 1170   3.492   5.106   4.654 -0.4500 -0.3055  0.2508
   24DPPC   C21 1171   3.579   5.009   4.573  0.2174 -0.2588  0.9078
   24DPPC   C22 1172   3.721   5.057   4.543 -0.1353  0.0248 -0.3685
   24DPPC   C23 1173   3.784   4.971   4.434  0.2159 -0.5824  0.3015
   24DPPC   C24 1174   3.922   5.018   4.390  0.0176 -0.0495  0.2415
   24DPPC   C25 1175   3.979   4.957   4.261 -0.5943  0.5467 -0.3193
   24DPPC   C26 1176   4.106   5.035   4.228  0.1331 -0.5008 -0.0525
   24DPPC   C27 1177   4.169   4.989   4.096  0.3677 -0.7911  0.1575
   24DPPC   C28 1178   4.276   5.091   4.058 -0.4018 -0.0618 -0.1021
   24DPPC   C29 1179   4.372   5.032   3.954  0.2385  0.3641  0.2343
   24DPPC   C30 1180   4.485   5.129   3.921 -0.0160  0.5979  0.0396
   24DPPC   C31 1181   4.586   5.174   4.027 -0.3320  0.8945  0.2148
   24DPPC   C32 1182   3.368   4.844   5.150  0.0163  0.6336 -0.2317
   24DPPC   O33 1183   3.280   4.732   5.142  0.4752  0.2184  0.3967
   24DPPC   C34 1184   3.333   4.607   5.151  0.1349  0.0702  0.3874
   24DPPC   O35 1185   3.448   4.593   5.192  0.0851 -0.1113  0.4661
   24DPPC   C36 1186   3.257   4.487   5.095  0.2626  0.1209  0.1042
   24DPPC   C37 1187   3.313   4.439   4.961 -0.2523 -0.2035  0.0018
   24DPPC   C38 1188   3.307   4.548   4.854 -0.1471 -0.2347 -0.0361
   24DPPC   C39 1189   3.356   4.498   4.718  0.0036  0.2318 -0.1561
   24DPPC   C40 1190   3.394   4.610   4.620 -0.2016  0.5185  0.0905
   24DPPC   C41 1191   3.416   4.553   4.480 -0.6252  0.9299 -0.1457
   24DPPC   C42 1192   3.480   4.660   4.392 -0.0139  0.3791 -0.3768
   24DPPC   C43 1193   3.533   4.605   4.259  0.5087 -0.2462  0.0819
   24DPPC   C44 1194   3.618   4.713   4.193  0.5641  0.0340  0.6035
   24DPPC   C45 1195   3.692   4.681   4.062 -0.2016  0.4432  0.0591
   24DPPC   C46 1196   3.788   4.790   4.015  0.2288  0.2178  0.4052
   24DPPC   C47 1197   3.883   4.735   3.908 -0.0747 -0.1181  0.3058
   24DPPC   C48 1198   3.944   4.839   3.814 -1.1038  0.1416 -0.0873
   24DPPC   C49 1199   4.017   4.778   3.694  0.2820  0.4147  0.5973
   24DPPC   C50 1200   4.105   4.666   3.749  0.3018 -0.2541 -0.7528
   25DPPC    C1 1201   3.936   5.440   5.341 -0.2635 -0.6856 -0.3137
   25DPPC    C2 1202   3.889   5.602   5.174 -0.0527 -0.3745 -0.1428
   25DPPC    C3 1203   3.746   5.410   5.229 -0.0554  0.3909 -0.5510
   25DPPC    N4 1204   3.829   5.520   5.280 -0.0264  0.0306  0.1893
   25DPPC    C5 1205   3.774   5.597   5.393 -0.3287 -0.2875  0.2646
   25DPPC    C6 1206   3.708   5.732   5.362  0.1294 -0.1565 -0.1726
   25DPPC    O7 1207   3.595   5.711   5.276 -0.1187  0.3512  0.0223
   25DPPC    P8 1208   3.499   5.836   5.247 -0.1408  0.3693  0.1760
   25DPPC    O9 1209   3.600   5.923   5.182  0.4761 -0.2171  0.3384
   25DPPC   O10 1210   3.420   5.885   5.363 -0.4201 -0.1459  0.2095
   25DPPC   O11 1211   3.410   5.753   5.142  0.1657 -0.2903  0.4303
   25DPPC   C12 1212   3.504   5.719   5.040 -0.2794 -0.1595 -0.0292
   25DPPC   C13 1213   3.465   5.659   4.905  0.3677  0.3351 -0.4414
   25DPPC   O14 1214   3.570   5.595   4.831  0.4454  0.1653 -0.1835
   25DPPC   C15 1215   3.627   5.476   4.864 -0.3110 -0.1547 -0.0146
   25DPPC   O16 1216   3.603   5.427   4.974  0.1823 -0.4558 -0.0361
   25DPPC   C17 1217   3.717   5.412   4.758  0.0270 -0.4345  0.4366
   25DPPC   C18 1218   3.794   5.524   4.689 -0.6722 -0.1399  0.1247
   25DPPC   C19 1219   3.829   5.465   4.552 -0.3465 -0.3640  0.3040
   25DPPC   C20 1220   3.942   5.362   4.562 -0.1060 -0.1372 -0.0543
   25DPPC   C21 1221   4.087   5.411   4.571 -0.1790  0.0354  0.1890
   25DPPC   C22 1222   4.182   5.303   4.520 -0.2677  0.0386  0.0151
   25DPPC   C23 1223   4.316   5.325   4.591 -0.1989 -0.4731  0.0468
   25DPPC   C24 1224   4.433   5.254   4.524  0.2643 -0.1638  0.5197
   25DPPC   C25 1225   4.556   5.230   4.612  0.5603 -0.1260  0.1191
   25DPPC   C26 1226   4.674   5.205   4.518  0.3882 -0.1128 -0.1024
   25DPPC   C27 1227   4.771   5.323   4.512 -0.3920  0.5277 -0.3497
   25DPPC   C28 1228   4.888   5.277   4.425  0.1439  0.0329  0.6024
   25DPPC   C29 1229   4.971   5.403   4.398  0.1460 -0.0689  0.1140
   25DPPC   C30 1230   5.069   5.354   4.291  0.3278  0.3064  0.1083
   25DPPC   C31 1231   4.998   5.285   4.175  0.5569  0.1125  0.0822
   25DPPC   C32 1232   3.404   5.781   4.835 -0.1529  0.4637  0.2288
   25DPPC   O33 1233   3.496   5.889   4.818 -0.0170  0.4045  0.5705
   25DPPC   C34 1234   3.439   6.003   4.769 -0.0763  0.2450  0.2632
   25DPPC   O35 1235   3.325   6.039   4.799 -0.2455 -0.0370 -0.0413
   25DPPC   C36 1236   3.542   6.105   4.722 -0.5646  0.6487  0.0558
   25DPPC   C37 1237   3.557   6.090   4.571 -0.8974 -0.3124  0.1135
   25DPPC   C38 1238   3.655   5.976   4.538 -1.2923 -0.5711 -0.1680
   25DPPC   C39 1239   3.715   5.979   4.397 -0.5289 -0.0107  0.1665
   25DPPC   C40 1240   3.621   5.918   4.293  0.1489 -0.4356 -0.2033
   25DPPC   C41 1241   3.678   5.914   4.151 -0.1701 -0.5836 -0.3288
   25DPPC   C42 1242   3.808   5.835   4.143  0.0604 -0.2644  0.1658
   25DPPC   C43 1243   3.802   5.687   4.181  0.2126 -0.2112  0.3969
   25DPPC   C44 1244   3.921   5.596   4.150  0.0333 -0.2039 -0.3304
   25DPPC   C45 1245   3.940   5.569   4.001  0.1542 -0.7037 -0.2281
   25DPPC   C46 1246   4.059   5.483   3.958  0.2983 -0.7229  0.2112
   25DPPC   C47 1247   4.044   5.423   3.818  0.1031 -0.1159 -0.0299
   25DPPC   C48 1248   4.161   5.335   3.773  0.1104  0.0043 -0.2440
   25DPPC   C49 1249   4.130   5.251   3.649 -0.4695 -0.5238  0.2536
   25DPPC   C50 1250   4.261   5.184   3.606  0.0433  0.5592  0.1010
   26DPPC    C1 1251   3.625   2.707   5.878  0.1676 -0.1996  0.5804
   26DPPC    C2 1252   3.620   2.558   5.704  0.0397 -0.0357  0.1081
   26DPPC    C3 1253   3.619   2.775   5.643  0.2241 -0.4714 -0.4663
   26DPPC    N4 1254   3.680   2.686   5.742 -0.3117  0.0583  0.3461
   26DPPC    C5 1255   3.825   2.677   5.725 -0.3859 -0.1727 -0.1736
   26DPPC    C6 1256   3.901   2.806   5.759 -0.5767 -0.0771 -0.1127
   26DPPC    O7 1257   3.914   2.901   5.652 -0.8113  0.0397 -0.0377
   26DPPC    P8 1258   3.972   3.036   5.717 -0.0866 -0.2788 -0.0211
   26DPPC    O9 1259   3.942   3.032   5.862 -0.4727  0.0321 -0.0927
   26DPPC   O10 1260   3.973   3.162   5.639 -0.2427 -0.1297  0.2155
   26DPPC   O11 1261   4.123   2.979   5.718  0.0431  0.0343 -0.6683
   26DPPC   C12 1262   4.210   3.030   5.617  0.1833  0.0399 -0.5451
   26DPPC   C13 1263   4.347   2.963   5.619  0.0444 -0.2350  0.3591
   26DPPC   O14 1264   4.423   2.998   5.502 -0.5594  0.3311  0.1275
   26DPPC   C15 1265   4.490   3.114   5.480  0.3353 -0.1256  0.3577
   26DPPC   O16 1266   4.474   3.200   5.566 -0.0053 -0.2229  0.3948
   26DPPC   C17 1267   4.536   3.144   5.337 -0.3263  0.5537  0.2757
   26DPPC   C18 1268   4.686   3.174   5.341 -0.2837  0.3300  0.4072
   26DPPC   C19 1269   4.739   3.197   5.199  0.4780  0.2341  0.6714
   26DPPC   C20 1270   4.887   3.234   5.187  0.3334  0.6116  0.0058
   26DPPC   C21 1271   4.914   3.223   5.036  0.2094 -0.0486  0.0317
   26DPPC   C22 1272   4.912   3.076   4.994 -0.0124 -0.0057 -0.1108
   26DPPC   C23 1273   4.925   3.075   4.842 -0.1187 -0.5457 -0.1180
   26DPPC   C24 1274   4.895   2.945   4.766 -0.2750 -0.5145 -0.1093
   26DPPC   C25 1275   4.927   2.945   4.616  0.5778 -0.2766  0.0628
   26DPPC   C26 1276   4.890   2.813   4.548 -0.8288 -0.0362  0.3233
   26DPPC   C27 1277   4.904   2.823   4.396  0.3011 -0.4084  0.3905
   26DPPC   C28 1278   4.865   2.704   4.308  0.2574  0.1769 -0.3920
   26DPPC   C29 1279   4.852   2.750   4.163  0.6473  0.2187 -0.4146
   26DPPC   C30 1280   4.827   2.629   4.073  0.1240 -0.0259  0.0557
   26DPPC   C31 1281   4.848   2.655   3.924 -0.1592 -0.1421 -0.0050
   26DPPC   C32 1282   4.314   2.814   5.619  0.5340 -0.3465  0.2484
   26DPPC   O33 1283   4.227   2.770   5.515  0.2262  0.2478  0.2491
   26DPPC   C34 1284   4.171   2.646   5.527  0.2601  0.2403  0.3291
   26DPPC   O35 1285   4.174   2.603   5.642  0.4596  0.6120  0.4653
   26DPPC   C36 1286   4.095   2.601   5.402  0.7448  0.6825 -0.1316
   26DPPC   C37 1287   4.176   2.514   5.305 -0.0599  0.1323 -0.3253
   26DPPC   C38 1288   4.091   2.489   5.181 -0.6517 -0.0068  0.1015
   26DPPC   C39 1289   4.045   2.621   5.120 -0.0397  0.1661  0.0001
   26DPPC   C40 1290   4.026   2.590   4.971 -0.7613  0.1007  0.0997
   26DPPC   C41 1291   3.998   2.718   4.892 -0.5634 -0.0179 -0.1664
   26DPPC   C42 1292   4.001   2.685   4.743 -0.5425  0.6049 -0.3058
   26DPPC   C43 1293   4.003   2.817   4.667  0.5378  0.5490 -0.3990
   26DPPC   C44 1294   4.143   2.877   4.671  0.4947  0.6307 -0.1369
   26DPPC   C45 1295   4.141   3.000   4.581 -0.1723  0.4076 -0.4300
   26DPPC   C46 1296   4.088   2.962   4.442 -0.8591 -0.1073 -0.0320
   26DPPC   C47 1297   4.044   3.076   4.350 -0.0731  0.1102 -0.1474
   26DPPC   C48 1298   3.992   3.039   4.211  0.2229  0.4410 -0.3458
   26DPPC   C49 1299   3.962   3.156   4.116  0.5883 -0.0026 -1.0189
   26DPPC   C50 1300   3.873   3.265   4.177 -0.0022 -0.6601 -0.6808
   27DPPC    C1 1301   3.723   0.244   5.427  0.0325 -0.1017  0.1207
   27DPPC    C2 1302   3.611   0.430   5.356  0.0026  0.1065  0.6596
   27DPPC    C3 1303   3.793   0.360   5.221  0.4466 -1.0195 -0.0246
   27DPPC    N4 1304   3.682   0.311   5.303  0.1033  0.3146  0.3218
   27DPPC    C5 1305   3.585   0.221   5.240  0.1813  0.2907  0.2366
   27DPPC    C6 1306   3.629   0.082   5.194 -0.3930  0.2038 -0.0621
   27DPPC    O7 1307   3.741   0.075   5.105  0.3137  0.2449  0.8135
   27DPPC    P8 1308   3.790  -0.078   5.115  0.0220  0.0845 -0.1292
   27DPPC    O9 1309   3.680  -0.158   5.174 -0.5699  0.8930 -0.1277
   27DPPC   O10 1310   3.927  -0.074   5.171 -0.0226  0.4088 -0.0462
   27DPPC   O11 1311   3.797  -0.121   4.960 -0.2734  0.0965 -0.1463
   27DPPC   C12 1312   3.906  -0.048   4.903  0.0564  0.0443  0.4078
   27DPPC   C13 1313   3.901  -0.030   4.751  0.0225  0.2193  0.4299
   27DPPC   O14 1314   3.831   0.090   4.716 -0.1127 -0.0228 -0.1288
   27DPPC   C15 1315   3.907   0.182   4.651  0.2192  0.1610  0.5152
   27DPPC   O16 1316   4.021   0.206   4.692  0.3277 -0.3155  0.4976
   27DPPC   C17 1317   3.822   0.298   4.598 -0.0982 -0.4560 -0.3436
   27DPPC   C18 1318   3.883   0.366   4.475  0.0315  0.0474 -0.0029
   27DPPC   C19 1319   3.798   0.487   4.434 -0.0304 -0.1905 -0.5887
   27DPPC   C20 1320   3.865   0.546   4.310 -0.6413  0.9010 -0.4101
   27DPPC   C21 1321   3.844   0.453   4.190  0.1956 -0.6034  0.5737
   27DPPC   C22 1322   3.953   0.475   4.084 -0.1732 -0.6095  0.1901
   27DPPC   C23 1323   3.953   0.417   3.943  0.3061 -0.7161  0.2346
   27DPPC   C24 1324   4.054   0.487   3.852 -0.2116 -0.2929 -0.0182
   27DPPC   C25 1325   4.055   0.408   3.721 -0.2259 -0.1636 -0.0967
   27DPPC   C26 1326   4.136   0.283   3.754  0.6087  0.4863  0.3640
   27DPPC   C27 1327   4.122   0.179   3.643 -0.5385  0.2208  0.7393
   27DPPC   C28 1328   4.193   0.045   3.661  0.1714  0.3571 -0.8543
   27DPPC   C29 1329   4.173  -0.069   3.560  0.3692 -0.1159 -0.3641
   27DPPC   C30 1330   4.022  -0.070   3.536  0.2321  0.1272  0.4480
   27DPPC   C31 1331   3.965  -0.209   3.565  0.1416  0.0991  0.1398
   27DPPC   C32 1332   3.831  -0.155   4.698  0.7011  0.3337 -0.7738
   27DPPC   O33 1333   3.902  -0.278   4.706 -0.6547 -0.4183  0.0440
   27DPPC   C34 1334   3.832  -0.392   4.681 -0.4767 -0.5352  0.0714
   27DPPC   O35 1335   3.710  -0.408   4.673 -0.4846 -0.1422 -0.6942
   27DPPC   C36 1336   3.924  -0.514   4.672  0.5782  0.2517 -0.0060
   27DPPC   C37 1337   3.972  -0.562   4.535 -0.1619  0.6392 -0.4054
   27DPPC   C38 1338   4.055  -0.452   4.469  0.3516  0.2789 -0.3676
   27DPPC   C39 1339   4.094  -0.499   4.329 -0.1044 -0.0094 -0.4029
   27DPPC   C40 1340   4.203  -0.398   4.290 -0.1270 -0.0462 -0.5612
   27DPPC   C41 1341   4.260  -0.437   4.153 -0.5096 -0.0633 -0.7171
   27DPPC   C42 1342   4.345  -0.321   4.100 -0.1422 -0.0256 -0.0556
   27DPPC   C43 1343   4.417  -0.361   3.971 -0.0187  0.3252 -0.0945
   27DPPC   C44 1344   4.514  -0.253   3.922 -0.0058  0.1934 -0.3587
   27DPPC   C45 1345   4.573  -0.308   3.791 -0.0456  0.4228 -0.4725
   27DPPC   C46 1346   4.471  -0.295   3.678 -0.6824  0.0548  0.0494
   27DPPC   C47 1347   4.538  -0.350   3.552  0.1714  0.3566  0.3630
   27DPPC   C48 1348   4.453  -0.349   3.425  0.2363 -0.5048  0.3025
   27DPPC   C49 1349   4.561  -0.397   3.329  0.2087  0.0670 -0.0227
   27DPPC   C50 1350   4.580  -0.549   3.317  0.3322  0.1022 -0.3085
   28DPPC    C1 1351   8.696   2.528   5.507 -0.0385 -0.1551  0.1092
   28DPPC    C2 1352   8.754   2.530   5.736 -0.3552 -0.4607 -0.1716
   28DPPC    C3 1353   8.702   2.734   5.625 -0.2617 -0.1245 -0.4949
   28DPPC    N4 1354   8.666   2.592   5.636 -0.2976 -0.0785  0.0110
   28DPPC    C5 1355   8.536   2.538   5.679  0.0204 -0.6131  0.3176
   28DPPC    C6 1356   8.411   2.602   5.618  0.7804  0.4814 -0.1191
   28DPPC    O7 1357   8.364   2.695   5.716  0.2614  0.2297 -0.1254
   28DPPC    P8 1358   8.237   2.783   5.671 -0.0540 -0.0797  0.1528
   28DPPC    O9 1359   8.248   2.899   5.762 -0.0880 -0.4025  0.5694
   28DPPC   O10 1360   8.131   2.680   5.677 -0.2472  0.1639  1.2390
   28DPPC   O11 1361   8.309   2.811   5.530  0.0553  0.3355  0.2892
   28DPPC   C12 1362   8.213   2.836   5.427  0.4999 -0.4065 -0.3148
   28DPPC   C13 1363   8.287   2.900   5.309  0.4490  0.2691  0.0132
   28DPPC   O14 1364   8.202   2.959   5.209 -0.1157 -0.5050  0.0269
   28DPPC   C15 1365   8.240   3.075   5.149 -0.5479  0.0613  0.8359
   28DPPC   O16 1366   8.356   3.114   5.164 -0.4534  0.1439 -0.0890
   28DPPC   C17 1367   8.151   3.123   5.034  0.3788 -0.9668 -0.3400
   28DPPC   C18 1368   8.011   3.162   5.082  0.3150 -0.5635 -0.8490
   28DPPC   C19 1369   7.903   3.165   4.974 -0.4198  0.5417 -0.1055
   28DPPC   C20 1370   7.935   3.263   4.862  0.4573 -0.1672 -0.4889
   28DPPC   C21 1371   7.847   3.238   4.739  0.0708  0.2282 -0.2966
   28DPPC   C22 1372   7.881   3.345   4.636 -0.1878  0.5632 -0.0384
   28DPPC   C23 1373   7.796   3.306   4.515  0.3179 -0.8515  0.0399
   28DPPC   C24 1374   7.790   3.426   4.421  0.7144 -0.6528  0.2657
   28DPPC   C25 1375   7.737   3.389   4.282  0.0760 -0.0394  0.3386
   28DPPC   C26 1376   7.787   3.498   4.187  0.3918 -0.3672  0.1255
   28DPPC   C27 1377   7.720   3.488   4.050  0.0938  0.5299  0.2035
   28DPPC   C28 1378   7.739   3.618   3.971 -0.6376  0.4272 -0.1511
   28DPPC   C29 1379   7.627   3.631   3.868 -0.5373 -0.0449 -0.3192
   28DPPC   C30 1380   7.650   3.752   3.777 -0.5345  0.3989  0.2648
   28DPPC   C31 1381   7.542   3.747   3.668  0.1779 -0.2063 -0.4348
   28DPPC   C32 1382   8.386   2.795   5.258  0.0322 -0.2846  0.3268
   28DPPC   O33 1383   8.322   2.674   5.219  0.0736 -0.2033  0.0065
   28DPPC   C34 1384   8.395   2.567   5.175  0.2983 -0.0062 -0.1054
   28DPPC   O35 1385   8.510   2.552   5.216  0.3261  0.0533 -0.1636
   28DPPC   C36 1386   8.316   2.450   5.115  0.2733  0.0192 -0.1228
   28DPPC   C37 1387   8.290   2.471   4.966  0.1728  0.7360 -0.0118
   28DPPC   C38 1388   8.183   2.576   4.935 -0.1360  0.5685  0.4773
   28DPPC   C39 1389   8.166   2.586   4.784 -0.5083  0.6349  0.5236
   28DPPC   C40 1390   8.076   2.704   4.746 -0.9266  0.1151 -0.1355
   28DPPC   C41 1391   8.046   2.710   4.596  0.0607  0.3446 -0.3380
   28DPPC   C42 1392   7.976   2.844   4.572 -0.3299  0.2376  0.1777
   28DPPC   C43 1393   7.928   2.863   4.428 -0.3237 -0.3433  0.0969
   28DPPC   C44 1394   7.999   2.982   4.364  0.0692 -0.6837 -0.1085
   28DPPC   C45 1395   7.969   3.004   4.215 -0.0899  0.4597  0.0837
   28DPPC   C46 1396   8.022   3.138   4.162 -0.0255  0.2798 -0.3042
   28DPPC   C47 1397   7.986   3.127   4.013 -0.1081 -0.0853 -0.2582
   28DPPC   C48 1398   8.017   3.263   3.951  0.1272  0.0735  0.2017
   28DPPC   C49 1399   7.961   3.257   3.809 -0.2625  0.0367  0.3574
   28DPPC   C50 1400   7.999   3.374   3.718  0.1835 -0.6803 -0.3890
   29DPPC    C1 1401   0.497   4.854   5.210 -0.7099  0.0512 -0.1888
   29DPPC    C2 1402   0.434   4.765   5.010 -0.7956  0.4810 -0.7213
   29DPPC    C3 1403   0.269   4.858   5.109 -0.3515 -0.2644 -0.3178
   29DPPC    N4 1404   0.413   4.884   5.094 -0.4442  0.2668 -0.3259
   29DPPC    C5 1405   0.452   5.003   5.017  0.2733 -0.3935 -1.0037
   29DPPC    C6 1406   0.430   5.136   5.089 -0.1219 -0.5773 -0.7849
   29DPPC    O7 1407   0.497   5.241   5.019 -0.4679  0.0675 -0.1571
   29DPPC    P8 1408   0.445   5.385   5.070  0.1098  0.3035 -0.2324
   29DPPC    O9 1409   0.554   5.430   5.160  0.1982 -0.5581  0.1021
   29DPPC   O10 1410   0.315   5.354   5.133  0.4051  0.1626  0.3152
   29DPPC   O11 1411   0.462   5.456   4.927  0.8370 -0.1378 -0.3731
   29DPPC   C12 1412   0.373   5.404   4.828  0.6653 -0.5050 -0.0246
   29DPPC   C13 1413   0.396   5.468   4.692 -0.1925 -0.5428 -0.1932
   29DPPC   O14 1414   0.293   5.430   4.599  0.0124 -0.2597 -0.5414
   29DPPC   C15 1415   0.185   5.510   4.578  0.2416  0.1853 -0.0552
   29DPPC   O16 1416   0.163   5.610   4.646  0.0183  0.3923 -0.4321
   29DPPC   C17 1417   0.099   5.483   4.454 -0.0379 -0.4587  0.2742
   29DPPC   C18 1418   0.176   5.522   4.328 -0.0811  0.0978  0.4201
   29DPPC   C19 1419   0.105   5.461   4.207  0.1405  0.8718 -0.1097
   29DPPC   C20 1420   0.203   5.446   4.090 -0.0464  0.3043 -0.1959
   29DPPC   C21 1421   0.135   5.423   3.955 -0.2251 -0.1270 -0.0347
   29DPPC   C22 1422   0.019   5.518   3.924 -0.1378 -0.0681 -0.1813
   29DPPC   C23 1423  -0.069   5.492   3.802 -0.1620 -0.4148 -0.0889
   29DPPC   C24 1424  -0.150   5.612   3.753 -0.1739 -0.1568  0.5525
   29DPPC   C25 1425  -0.211   5.610   3.613  0.2728  0.1722  0.3501
   29DPPC   C26 1426  -0.333   5.519   3.597  0.0912  0.4829 -0.0618
   29DPPC   C27 1427  -0.414   5.530   3.468 -0.2029 -0.2959  0.0511
   29DPPC   C28 1428  -0.538   5.440   3.457 -0.1412 -0.4185  0.3503
   29DPPC   C29 1429  -0.606   5.460   3.322  0.2632 -0.9416  0.0658
   29DPPC   C30 1430  -0.665   5.601   3.332 -0.1381 -1.1060  0.0301
   29DPPC   C31 1431  -0.746   5.646   3.210  0.1326  0.4302  0.4031
   29DPPC   C32 1432   0.540   5.433   4.654  0.3227  0.5864  0.6407
   29DPPC   O33 1433   0.578   5.295   4.650 -0.1543  0.4680 -0.0216
   29DPPC   C34 1434   0.705   5.274   4.608 -0.0433  0.4348  0.3251
   29DPPC   O35 1435   0.769   5.369   4.561 -0.1194  0.2474 -0.1678
   29DPPC   C36 1436   0.758   5.132   4.628 -0.1096  0.3580 -0.0327
   29DPPC   C37 1437   0.842   5.095   4.506 -0.3357 -0.8861  0.1739
   29DPPC   C38 1438   0.927   4.969   4.517  0.3562 -0.4321  0.0867
   29DPPC   C39 1439   1.016   4.951   4.394  0.2875  0.3803 -0.0894
   29DPPC   C40 1440   0.943   4.941   4.260  0.1958  0.5742 -0.0532
   29DPPC   C41 1441   1.039   4.906   4.146 -0.1499 -0.0129 -0.1675
   29DPPC   C42 1442   0.970   4.930   4.011  0.0340  0.0162 -0.2558
   29DPPC   C43 1443   1.060   4.917   3.888  0.2584  0.3144 -0.1234
   29DPPC   C44 1444   0.987   4.954   3.759 -0.1738 -0.2571 -0.0452
   29DPPC   C45 1445   1.068   4.930   3.631  0.1962  0.2174  0.0969
   29DPPC   C46 1446   0.997   5.003   3.517 -0.0397  0.2740  0.2801
   29DPPC   C47 1447   1.067   4.977   3.384  0.3047  0.1687  0.4807
   29DPPC   C48 1448   1.020   5.067   3.270 -0.1413 -0.2718  0.3160
   29DPPC   C49 1449   1.114   5.056   3.150 -0.2939  0.0964  0.1573
   29DPPC   C50 1450   1.068   5.137   3.029 -0.1764  0.0349  0.0703
   30DPPC    C1 1451   6.783   1.967   6.091 -0.0478 -0.7876 -0.4918
   30DPPC    C2 1452   6.967   1.945   5.931 -0.1582 -0.8479  0.2051
   30DPPC    C3 1453   6.771   2.020   5.848  0.1772 -0.6521 -0.1717
   30DPPC    N4 1454   6.849   2.022   5.972  0.1196 -0.2282 -0.1427
   30DPPC    C5 1455   6.903   2.157   5.996 -0.0098 -0.1451 -0.3173
   30DPPC    C6 1456   6.806   2.258   6.057  0.1869 -0.0774 -0.1148
   30DPPC    O7 1457   6.862   2.390   6.065  0.3107 -0.0891 -0.7338
   30DPPC    P8 1458   6.764   2.489   5.984 -0.3563 -0.0470  0.1169
   30DPPC    O9 1459   6.811   2.627   6.007 -0.2762 -0.0415 -0.0780
   30DPPC   O10 1460   6.621   2.460   6.007 -0.3949 -0.0370 -0.1110
   30DPPC   O11 1461   6.793   2.454   5.830 -0.3531 -0.1115  0.1322
   30DPPC   C12 1462   6.748   2.569   5.758  0.3045  0.2138  0.2330
   30DPPC   C13 1463   6.824   2.574   5.626 -0.0749 -0.2637 -0.0037
   30DPPC   O14 1464   6.779   2.670   5.529 -0.4702 -0.1917  0.2489
   30DPPC   C15 1465   6.857   2.781   5.518 -0.3976 -0.2289  0.3743
   30DPPC   O16 1466   6.935   2.818   5.606  0.3594 -0.3686 -0.2286
   30DPPC   C17 1467   6.830   2.868   5.394  0.0820 -0.2915  0.2255
   30DPPC   C18 1468   6.772   3.008   5.417 -0.1780 -0.3292 -0.1937
   30DPPC   C19 1469   6.753   3.094   5.293  0.0436  0.0220  0.0155
   30DPPC   C20 1470   6.887   3.151   5.245  0.0370  0.1338  0.1288
   30DPPC   C21 1471   6.875   3.221   5.109  0.2518  0.0866  0.0847
   30DPPC   C22 1472   7.005   3.295   5.076  0.1524  0.2185 -0.0101
   30DPPC   C23 1473   6.978   3.386   4.956 -0.8290 -0.1038 -0.0447
   30DPPC   C24 1474   6.854   3.475   4.971 -0.5333  0.3035  0.0067
   30DPPC   C25 1475   6.860   3.561   4.845  0.2488 -0.3963 -0.4456
   30DPPC   C26 1476   6.928   3.693   4.882 -0.1993 -0.1809 -0.3890
   30DPPC   C27 1477   6.961   3.767   4.752 -0.4779  0.7489  0.0567
   30DPPC   C28 1478   6.839   3.799   4.666 -0.5815 -0.5609 -0.3075
   30DPPC   C29 1479   6.760   3.903   4.745  0.0647 -0.7189  0.5651
   30DPPC   C30 1480   6.609   3.880   4.731  0.0953 -0.3477 -0.4776
   30DPPC   C31 1481   6.573   3.896   4.584  0.2695 -0.2811 -0.5129
   30DPPC   C32 1482   6.818   2.436   5.559 -0.3526 -0.1697 -0.1739
   30DPPC   O33 1483   6.896   2.411   5.442  0.3613 -0.1405  0.2966
   30DPPC   C34 1484   6.920   2.283   5.402 -0.2330 -0.3672  0.6569
   30DPPC   O35 1485   6.829   2.212   5.444 -0.5390 -0.4495 -0.1293
   30DPPC   C36 1486   7.043   2.251   5.317 -0.0908 -0.1594  0.7848
   30DPPC   C37 1487   7.012   2.225   5.170 -0.4176  0.2578  0.7813
   30DPPC   C38 1488   6.988   2.349   5.082 -0.1197 -0.2695 -0.0499
   30DPPC   C39 1489   6.989   2.310   4.934 -0.4169 -0.3863 -0.0221
   30DPPC   C40 1490   6.967   2.437   4.852  0.3469 -0.2289  0.0037
   30DPPC   C41 1491   6.933   2.392   4.710  0.1270  0.3871 -0.1429
   30DPPC   C42 1492   6.824   2.488   4.661  0.1823  0.3296 -0.3793
   30DPPC   C43 1493   6.794   2.496   4.511 -0.2233  0.0844 -0.3132
   30DPPC   C44 1494   6.676   2.590   4.488 -0.0524  0.3415 -0.1520
   30DPPC   C45 1495   6.662   2.619   4.338 -0.1508 -0.0414 -0.2164
   30DPPC   C46 1496   6.535   2.697   4.307  0.0297  0.1904 -0.3682
   30DPPC   C47 1497   6.520   2.815   4.403 -0.2282 -0.2854  0.1790
   30DPPC   C48 1498   6.406   2.909   4.364  0.1119 -0.0162 -0.1765
   30DPPC   C49 1499   6.414   3.032   4.456 -0.1173  0.0497 -0.2442
   30DPPC   C50 1500   6.305   3.125   4.404  0.2964  0.9237  0.4249
   31DPPC    C1 1501   5.956   7.132   5.219  0.1330  0.0273  0.3024
   31DPPC    C2 1502   6.090   7.128   5.021  0.6882  0.3307 -0.1058
   31DPPC    C3 1503   6.175   7.154   5.249 -0.1336 -0.2223  0.0334
   31DPPC    N4 1504   6.082   7.082   5.161 -0.0987  0.0625 -0.2343
   31DPPC    C5 1505   6.094   6.939   5.193  0.2006 -0.0118 -0.6655
   31DPPC    C6 1506   6.030   6.834   5.103 -0.4951 -0.1880  0.0238
   31DPPC    O7 1507   5.888   6.846   5.109 -0.4716  0.0351  0.1548
   31DPPC    P8 1508   5.806   6.768   5.223 -0.1014 -0.4157  0.1118
   31DPPC    O9 1509   5.795   6.867   5.333  0.1117 -0.2020 -0.0584
   31DPPC   O10 1510   5.889   6.649   5.253  0.2073 -0.1648  0.2616
   31DPPC   O11 1511   5.665   6.739   5.152 -0.3538  0.0119  0.4322
   31DPPC   C12 1512   5.694   6.672   5.029 -0.3200  0.2586  0.3068
   31DPPC   C13 1513   5.601   6.555   4.996  0.1720 -0.2282  0.6438
   31DPPC   O14 1514   5.640   6.472   4.885  0.1657  0.0447  0.4378
   31DPPC   C15 1515   5.631   6.339   4.909 -0.4121 -0.0352 -0.1972
   31DPPC   O16 1516   5.660   6.305   5.024  0.1273 -0.1460 -0.3636
   31DPPC   C17 1517   5.647   6.250   4.785  0.1761 -0.1916 -0.0124
   31DPPC   C18 1518   5.511   6.222   4.722 -0.0420  0.0683  0.3377
   31DPPC   C19 1519   5.541   6.181   4.577 -0.0426  0.9824  0.0695
   31DPPC   C20 1520   5.421   6.174   4.483  0.2085 -0.0326 -0.1863
   31DPPC   C21 1521   5.464   6.121   4.346  0.5720  0.0668 -0.1121
   31DPPC   C22 1522   5.334   6.089   4.272  0.7088  0.3003 -0.4559
   31DPPC   C23 1523   5.243   6.212   4.270  0.1773 -0.0793 -0.0128
   31DPPC   C24 1524   5.132   6.187   4.169  0.5164 -0.3683 -0.3172
   31DPPC   C25 1525   5.052   6.317   4.155  0.9924 -0.0533 -0.1096
   31DPPC   C26 1526   4.979   6.308   4.021  0.2952  0.1950  0.2514
   31DPPC   C27 1527   4.934   6.452   3.994  0.0980  0.0649 -0.1306
   31DPPC   C28 1528   4.829   6.487   4.100 -0.0160 -0.5496 -0.0351
   31DPPC   C29 1529   4.757   6.616   4.058  0.1184 -0.4159  0.1423
   31DPPC   C30 1530   4.641   6.639   4.154  0.1335  0.2661 -0.0004
   31DPPC   C31 1531   4.702   6.678   4.289  0.5340  0.4560 -0.2344
   31DPPC   C32 1532   5.461   6.616   4.995  0.3477  0.1795 -0.3422
   31DPPC   O33 1533   5.443   6.718   4.897  0.3162  0.4605 -0.0416
   31DPPC   C34 1534   5.333   6.798   4.901 -0.0073  0.0126  0.0507
   31DPPC   O35 1535   5.238   6.767   4.973  0.3834 -0.1591  0.4974
   31DPPC   C36 1536   5.341   6.917   4.806  0.1122 -0.0573 -0.0262
   31DPPC   C37 1537   5.304   6.881   4.662 -0.1609 -0.0388  0.0397
   31DPPC   C38 1538   5.320   7.007   4.577  0.7241 -0.2298 -0.0804
   31DPPC   C39 1539   5.283   6.959   4.436 -0.2561  0.0052  0.0934
   31DPPC   C40 1540   5.304   7.062   4.325 -0.3287 -0.1514 -0.0650
   31DPPC   C41 1541   5.429   7.144   4.355 -0.3618 -0.0544 -0.1898
   31DPPC   C42 1542   5.451   7.248   4.245 -0.0344 -0.3752 -0.4324
   31DPPC   C43 1543   5.591   7.311   4.241 -0.3363  0.3144 -0.3417
   31DPPC   C44 1544   5.621   7.410   4.353  0.0361 -0.2195  0.0380
   31DPPC   C45 1545   5.523   7.526   4.330  0.2765  0.0459  0.3420
   31DPPC   C46 1546   5.544   7.626   4.444 -0.3545  0.1866  0.3351
   31DPPC   C47 1547   5.492   7.572   4.577  0.1535 -0.0479  0.4388
   31DPPC   C48 1548   5.347   7.525   4.566  0.1508  0.1240 -0.2530
   31DPPC   C49 1549   5.278   7.541   4.701 -0.2626  0.2799 -0.4798
   31DPPC   C50 1550   5.146   7.463   4.706 -0.0278 -0.0790  0.2195
   32DPPC    C1 1551   1.092   7.650   4.764 -0.4533  0.5506  0.8147
   32DPPC    C2 1552   0.975   7.855   4.746 -0.3188  0.5525 -0.4868
   32DPPC    C3 1553   0.960   7.676   4.579  0.0340  0.0475  0.0055
   32DPPC    N4 1554   0.965   7.710   4.722 -0.2017  0.4779 -0.0875
   32DPPC    C5 1555   0.861   7.640   4.799 -0.0437  0.1532 -0.1699
   32DPPC    C6 1556   0.729   7.711   4.827 -0.1369 -0.1213  0.0981
   32DPPC    O7 1557   0.655   7.736   4.707  0.7856  0.5807 -0.3369
   32DPPC    P8 1558   0.543   7.850   4.728  0.0455 -0.2336  0.2151
   32DPPC    O9 1559   0.613   7.980   4.736 -0.4853  0.0964 -0.4096
   32DPPC   O10 1560   0.441   7.810   4.827  0.2324 -0.2832  0.3869
   32DPPC   O11 1561   0.482   7.828   4.580 -0.0161  0.2448  0.1696
   32DPPC   C12 1562   0.578   7.867   4.483 -0.3270  0.0594 -0.2130
   32DPPC   C13 1563   0.544   7.809   4.345 -0.2430  0.0961 -0.2497
   32DPPC   O14 1564   0.641   7.827   4.240 -0.5401  0.3999 -0.4699
   32DPPC   C15 1565   0.618   7.744   4.136 -0.4053  0.0242 -0.2006
   32DPPC   O16 1566   0.563   7.637   4.161 -0.1734 -0.1587 -0.4699
   32DPPC   C17 1567   0.684   7.773   4.001  0.2738 -0.2292  0.0687
   32DPPC   C18 1568   0.797   7.675   3.972  0.1285 -0.4395  0.2178
   32DPPC   C19 1569   0.878   7.705   3.846 -0.2303 -0.2959  0.0213
   32DPPC   C20 1570   1.028   7.712   3.874 -0.2203 -0.5788  0.0405
   32DPPC   C21 1571   1.116   7.726   3.750 -0.3043 -0.0676  0.0357
   32DPPC   C22 1572   1.094   7.608   3.655  0.6454 -0.7004  0.5878
   32DPPC   C23 1573   1.188   7.607   3.535 -0.3319 -0.2400 -0.2000
   32DPPC   C24 1574   1.160   7.500   3.429  0.8332 -0.3930 -0.3647
   32DPPC   C25 1575   1.165   7.367   3.505 -0.1656  0.0432  0.4858
   32DPPC   C26 1576   1.140   7.258   3.401  0.3767  0.5805 -0.2193
   32DPPC   C27 1577   0.999   7.277   3.344  0.2868 -0.0711 -0.2277
   32DPPC   C28 1578   0.961   7.162   3.250  0.4091 -0.3623  0.0772
   32DPPC   C29 1579   0.951   7.031   3.329 -0.7187 -0.3301  0.0010
   32DPPC   C30 1580   0.819   7.026   3.406 -0.4169  0.0986  0.5587
   32DPPC   C31 1581   0.810   6.880   3.453 -0.0613 -0.0429  0.1924
   32DPPC   C32 1582   0.403   7.857   4.310 -0.1758  0.0325 -0.6154
   32DPPC   O33 1583   0.395   7.995   4.274 -0.6276  0.1837  0.0483
   32DPPC   C34 1584   0.268   8.037   4.249 -0.5212  0.4355 -0.0687
   32DPPC   O35 1585   0.174   7.958   4.238 -0.6035  0.4177  0.7255
   32DPPC   C36 1586   0.248   8.188   4.232  0.2946  0.4958 -0.5165
   32DPPC   C37 1587   0.144   8.232   4.129  0.2288  0.3500 -0.5128
   32DPPC   C38 1588   0.157   8.381   4.099  0.2134  0.4199 -0.1843
   32DPPC   C39 1589   0.034   8.414   4.014  0.3506  0.4142 -0.3868
   32DPPC   C40 1590   0.041   8.558   3.961  0.0423  0.3998 -0.4662
   32DPPC   C41 1591  -0.015   8.572   3.819 -0.1228  0.0432 -0.4373
   32DPPC   C42 1592  -0.020   8.716   3.770 -0.1397  0.2679  0.2113
   32DPPC   C43 1593  -0.039   8.727   3.618 -0.3142 -0.1190  0.2034
   32DPPC   C44 1594  -0.174   8.678   3.567 -0.1120 -0.4954  0.0266
   32DPPC   C45 1595  -0.164   8.695   3.416 -0.3290  0.0581  0.0750
   32DPPC   C46 1596  -0.294   8.668   3.339 -0.2890 -0.1279  0.0748
   32DPPC   C47 1597  -0.272   8.683   3.188 -0.2675  0.3598  0.1235
   32DPPC   C48 1598  -0.397   8.643   3.108 -0.2804  0.8208 -0.0874
   32DPPC   C49 1599  -0.379   8.624   2.958 -0.2315  0.1882 -0.0019
   32DPPC   C50 1600  -0.269   8.518   2.946  0.2674  0.6898  0.1192
   33DPPC    C1 1601   2.305   2.398   5.279 -0.8963 -0.0126  0.5737
   33DPPC    C2 1602   2.186   2.586   5.236 -0.5507  0.1214  0.4091
   33DPPC    C3 1603   2.302   2.493   5.053 -0.1208  0.3168  0.3505
   33DPPC    N4 1604   2.224   2.459   5.173 -0.2612  0.2845  0.2500
   33DPPC    C5 1605   2.114   2.377   5.119  0.0663  0.1482 -0.2166
   33DPPC    C6 1606   2.001   2.329   5.210 -0.3539  0.9372 -0.3165
   33DPPC    O7 1607   1.886   2.269   5.150 -0.3312 -0.2113  0.7619
   33DPPC    P8 1608   1.762   2.368   5.122  0.2470  0.2994 -0.0270
   33DPPC    O9 1609   1.786   2.473   5.223 -0.2836  0.4692 -0.0764
   33DPPC   O10 1610   1.644   2.279   5.119  0.3327  0.1842  0.0063
   33DPPC   O11 1611   1.804   2.423   4.977  0.2010 -0.5490 -0.3691
   33DPPC   C12 1612   1.760   2.335   4.873  0.2667 -0.2984 -0.6101
   33DPPC   C13 1613   1.772   2.400   4.735 -0.2759 -0.0177 -0.5267
   33DPPC   O14 1614   1.697   2.329   4.634 -0.7242 -0.4767  0.1218
   33DPPC   C15 1615   1.574   2.384   4.614 -0.4927  0.2153  0.5325
   33DPPC   O16 1616   1.551   2.490   4.671 -0.0799  0.1262  0.8695
   33DPPC   C17 1617   1.497   2.338   4.490  0.8799 -0.0603 -0.2447
   33DPPC   C18 1618   1.419   2.449   4.418 -0.1628 -0.6657 -0.0726
   33DPPC   C19 1619   1.361   2.420   4.280 -0.5888 -0.8456  0.1425
   33DPPC   C20 1620   1.280   2.539   4.229 -0.0764 -0.4575  0.2227
   33DPPC   C21 1621   1.196   2.505   4.105 -0.2755  0.2999  0.1414
   33DPPC   C22 1622   1.095   2.392   4.125  0.0070 -0.0477 -0.3469
   33DPPC   C23 1623   1.022   2.382   3.991 -0.1864  0.1329 -0.2565
   33DPPC   C24 1624   1.117   2.337   3.880  0.3244  0.3976  0.0690
   33DPPC   C25 1625   1.032   2.337   3.753  0.4017  0.4591  0.0175
   33DPPC   C26 1626   1.105   2.251   3.650 -0.1828  0.6714 -0.5832
   33DPPC   C27 1627   1.249   2.300   3.670  0.0505 -0.2011 -0.0560
   33DPPC   C28 1628   1.341   2.228   3.571 -0.1775  0.4530 -0.7541
   33DPPC   C29 1629   1.492   2.237   3.591 -0.2285  0.9096 -0.5554
   33DPPC   C30 1630   1.564   2.153   3.484  0.0345  0.4443 -0.0194
   33DPPC   C31 1631   1.649   2.230   3.382  0.9269 -0.2994  0.1485
   33DPPC   C32 1632   1.923   2.409   4.713 -0.2153 -0.1190 -0.1578
   33DPPC   O33 1633   2.002   2.290   4.725  0.0500  0.1012  0.2941
   33DPPC   C34 1634   2.137   2.304   4.716  0.0167  0.1237 -0.1657
   33DPPC   O35 1635   2.185   2.416   4.734  0.2764 -0.0488  0.2015
   33DPPC   C36 1636   2.234   2.197   4.666  0.0759  0.2298 -0.2806
   33DPPC   C37 1637   2.162   2.072   4.614  0.3343 -0.1605  0.2822
   33DPPC   C38 1638   2.143   2.080   4.462  0.0718 -0.2579  0.3110
   33DPPC   C39 1639   2.093   1.946   4.407 -0.3427  0.0503 -0.0728
   33DPPC   C40 1640   2.088   1.949   4.255  0.0467 -0.4646 -0.1001
   33DPPC   C41 1641   2.072   1.809   4.195  0.5462 -0.2012 -0.8622
   33DPPC   C42 1642   2.065   1.826   4.043  0.5142 -0.0059 -0.8397
   33DPPC   C43 1643   2.192   1.901   4.001  0.8090  0.2347  0.4310
   33DPPC   C44 1644   2.208   1.900   3.848 -0.4792 -0.1389  0.2860
   33DPPC   C45 1645   2.127   2.022   3.804 -0.0542  0.1691  0.3533
   33DPPC   C46 1646   2.161   2.059   3.659 -0.4316  0.2770  0.2918
   33DPPC   C47 1647   2.086   2.180   3.602  0.3017  0.4856 -0.2400
   33DPPC   C48 1648   2.137   2.218   3.463 -0.3143  0.0876 -0.5786
   33DPPC   C49 1649   2.039   2.326   3.416 -0.3614  0.4557  0.3327
   33DPPC   C50 1650   2.055   2.350   3.265  0.7575  0.1462  0.3925
   34DPPC    C1 1651   2.936   4.433   5.461  0.4636 -0.1351  0.4790
   34DPPC    C2 1652   2.858   4.566   5.299  0.4010 -0.4209 -0.1382
   34DPPC    C3 1653   2.870   4.675   5.511  0.3357  0.3824  0.0394
   34DPPC    N4 1654   2.935   4.575   5.424 -0.2589 -0.1973  0.2570
   34DPPC    C5 1655   3.068   4.628   5.392 -0.5237  0.4337  0.1780
   34DPPC    C6 1656   3.170   4.613   5.505 -0.7138  0.3143  0.3347
   34DPPC    O7 1657   3.276   4.705   5.480 -0.2081 -0.2868  0.2341
   34DPPC    P8 1658   3.379   4.696   5.603 -0.0373  0.0885  0.1227
   34DPPC    O9 1659   3.302   4.693   5.730 -0.1834 -0.3734  0.0248
   34DPPC   O10 1660   3.511   4.762   5.594  0.1611 -0.2875  0.2409
   34DPPC   O11 1661   3.403   4.538   5.583 -0.5398  0.0786 -0.4256
   34DPPC   C12 1662   3.505   4.512   5.485  0.0940  0.0110  0.2426
   34DPPC   C13 1663   3.569   4.374   5.488  0.2534  0.0791 -0.0214
   34DPPC   O14 1664   3.664   4.336   5.387  0.1496  0.1377 -0.1413
   34DPPC   C15 1665   3.788   4.390   5.393  0.2566 -0.1174 -0.0553
   34DPPC   O16 1666   3.816   4.485   5.466  0.5990 -0.3091  0.0654
   34DPPC   C17 1667   3.899   4.338   5.301  0.5081  0.0011  0.1793
   34DPPC   C18 1668   3.936   4.413   5.172 -0.4224 -0.2854 -0.2615
   34DPPC   C19 1669   3.818   4.430   5.077 -0.3763  0.1210 -0.2490
   34DPPC   C20 1670   3.844   4.518   4.955  0.3658 -0.4700 -0.5240
   34DPPC   C21 1671   3.715   4.559   4.884 -0.0605  0.3286  0.6844
   34DPPC   C22 1672   3.743   4.625   4.750 -0.2266 -0.4606  0.2536
   34DPPC   C23 1673   3.795   4.528   4.644 -0.7699  0.0749 -0.5257
   34DPPC   C24 1674   3.838   4.611   4.523 -0.0601  0.4831 -0.0014
   34DPPC   C25 1675   3.886   4.521   4.408  0.1851  0.0759  0.4126
   34DPPC   C26 1676   4.022   4.564   4.354 -0.1222  0.2870 -0.2107
   34DPPC   C27 1677   4.092   4.451   4.278 -0.0555 -0.0498  0.3453
   34DPPC   C28 1678   4.225   4.506   4.226 -0.3666  0.0696 -0.3333
   34DPPC   C29 1679   4.298   4.415   4.127  0.4158  0.3406 -0.0104
   34DPPC   C30 1680   4.446   4.447   4.100  0.4932  0.3767  0.4521
   34DPPC   C31 1681   4.457   4.586   4.036  0.1201  0.2088  0.0108
   34DPPC   C32 1682   3.451   4.279   5.514  0.6244 -0.4232 -0.1397
   34DPPC   O33 1683   3.346   4.278   5.416  0.1832  0.0002  0.3193
   34DPPC   C34 1684   3.255   4.178   5.420 -0.3908  0.5041 -0.0284
   34DPPC   O35 1685   3.221   4.149   5.535 -0.1835 -0.7152 -0.2609
   34DPPC   C36 1686   3.176   4.160   5.290  0.3374  0.1613 -0.4291
   34DPPC   C37 1687   3.177   4.013   5.247  0.4567  0.1621 -0.4286
   34DPPC   C38 1688   3.117   4.017   5.106 -0.1095 -0.2656 -0.2025
   34DPPC   C39 1689   3.222   4.067   5.007  0.0823 -0.7730 -0.2609
   34DPPC   C40 1690   3.166   4.057   4.865 -0.3721 -0.4068 -0.1116
   34DPPC   C41 1691   3.250   3.969   4.773  0.1993 -0.0148  0.0368
   34DPPC   C42 1692   3.161   3.930   4.655  0.0440 -0.6055  0.3454
   34DPPC   C43 1693   3.258   3.879   4.548  0.5754  0.5699  0.2505
   34DPPC   C44 1694   3.200   3.863   4.407  0.1122 -0.5581  0.5561
   34DPPC   C45 1695   3.311   3.797   4.326  0.1954  0.0966  0.1275
   34DPPC   C46 1696   3.266   3.790   4.179 -0.0188  0.0333  0.1952
   34DPPC   C47 1697   3.283   3.927   4.114 -0.3338 -0.1640 -0.3093
   34DPPC   C48 1698   3.250   3.920   3.965 -0.2330 -0.5261 -0.3168
   34DPPC   C49 1699   3.297   4.052   3.903  0.2102 -0.6156 -0.1704
   34DPPC   C50 1700   3.287   4.045   3.750  0.2872 -0.6162 -0.1757
   35DPPC    C1 1701   1.456   2.749   1.414  0.5200  0.0222 -0.2664
   35DPPC    C2 1702   1.357   2.952   1.500 -0.0911 -0.4609  0.3210
   35DPPC    C3 1703   1.420   2.770   1.646  0.5748  0.0492  0.1202
   35DPPC    N4 1704   1.455   2.845   1.525  0.3273 -0.1787 -0.0942
   35DPPC    C5 1705   1.590   2.902   1.537  0.2127  0.2343 -0.6952
   35DPPC    C6 1706   1.648   2.979   1.418  0.4867  0.2288 -0.5670
   35DPPC    O7 1707   1.765   3.053   1.453  0.4508 -0.0107  0.0850
   35DPPC    P8 1708   1.765   3.187   1.365  0.0310 -0.1670 -0.1564
   35DPPC    O9 1709   1.685   3.171   1.242  0.2624  0.7530 -0.4384
   35DPPC   O10 1710   1.880   3.280   1.375 -0.0227 -0.0591 -0.5273
   35DPPC   O11 1711   1.643   3.249   1.450 -0.1831  0.0829 -0.6380
   35DPPC   C12 1712   1.698   3.312   1.567  0.0927 -0.7594 -0.3050
   35DPPC   C13 1713   1.573   3.374   1.629  0.2561 -0.2267 -0.5001
   35DPPC   O14 1714   1.604   3.490   1.708  0.0644 -0.3524 -0.2381
   35DPPC   C15 1715   1.671   3.595   1.654 -0.7255  0.3490  0.1290
   35DPPC   O16 1716   1.653   3.614   1.534  0.0613  0.3668  0.0083
   35DPPC   C17 1717   1.724   3.699   1.754  0.3640 -0.1747  0.1099
   35DPPC   C18 1718   1.612   3.739   1.850  0.1777 -0.1116 -0.1324
   35DPPC   C19 1719   1.675   3.767   1.987 -0.1192  0.6147 -0.1379
   35DPPC   C20 1720   1.576   3.816   2.093 -0.0365  0.0574  0.1968
   35DPPC   C21 1721   1.655   3.829   2.223  0.3245 -0.0867 -0.0052
   35DPPC   C22 1722   1.560   3.854   2.341  0.0531 -0.7370 -0.0786
   35DPPC   C23 1723   1.643   3.882   2.467  0.1100 -0.8426 -0.0930
   35DPPC   C24 1724   1.546   3.947   2.566  0.3854  0.3791 -0.6070
   35DPPC   C25 1725   1.623   4.045   2.655  0.0454  0.3223 -0.2477
   35DPPC   C26 1726   1.525   4.134   2.732  0.5946  0.0283  0.7985
   35DPPC   C27 1727   1.465   4.047   2.843 -0.0759 -0.1079  0.3327
   35DPPC   C28 1728   1.371   4.128   2.933 -0.2776 -0.1812  0.1879
   35DPPC   C29 1729   1.333   4.040   3.052 -0.4850 -0.2416  0.0784
   35DPPC   C30 1730   1.262   4.127   3.156  0.3489  0.0267  0.4362
   35DPPC   C31 1731   1.350   4.248   3.187  0.5795  0.3180 -1.2695
   35DPPC   C32 1732   1.490   3.273   1.709 -0.1502  0.2050 -0.3668
   35DPPC   O33 1733   1.570   3.173   1.773 -0.1611 -0.1661 -0.9259
   35DPPC   C34 1734   1.498   3.076   1.834 -0.2503  0.3301 -0.2286
   35DPPC   O35 1735   1.386   3.046   1.791 -0.2011 -0.1294 -0.0429
   35DPPC   C36 1736   1.571   2.983   1.931 -0.9858  0.2925  0.2944
   35DPPC   C37 1737   1.675   3.054   2.018 -0.3697  0.5005 -0.5985
   35DPPC   C38 1738   1.604   3.159   2.103 -0.0016  0.9105 -0.7943
   35DPPC   C39 1739   1.707   3.212   2.203  0.2919 -0.0399 -0.5831
   35DPPC   C40 1740   1.640   3.321   2.288  0.2435 -0.6048  0.1140
   35DPPC   C41 1741   1.677   3.327   2.436 -0.2426  0.1207  0.2084
   35DPPC   C42 1742   1.586   3.438   2.490 -0.1143  0.2664  0.1236
   35DPPC   C43 1743   1.580   3.435   2.642  0.3816 -0.5557  0.1294
   35DPPC   C44 1744   1.486   3.535   2.709  0.8391 -0.1532  0.1798
   35DPPC   C45 1745   1.487   3.527   2.862  0.2461 -0.3361  0.1771
   35DPPC   C46 1746   1.401   3.650   2.894 -0.3451 -0.8020  0.4042
   35DPPC   C47 1747   1.256   3.607   2.871 -0.5411 -0.1150  0.3354
   35DPPC   C48 1748   1.162   3.727   2.856 -0.2584  0.0162 -0.4118
   35DPPC   C49 1749   1.020   3.670   2.851 -0.3525  0.1740  0.3310
   35DPPC   C50 1750   0.965   3.621   2.985 -1.0251  0.1266  0.0449
   36DPPC    C1 1751   6.132   6.432   1.769  0.3350  0.4198  0.0180
   36DPPC    C2 1752   6.293   6.433   1.929  0.0210 -0.3839  0.0031
   36DPPC    C3 1753   6.309   6.595   1.745  0.7664 -0.2083  0.4595
   36DPPC    N4 1754   6.221   6.525   1.840  0.3222  0.1879  0.3399
   36DPPC    C5 1755   6.144   6.617   1.926  0.0245 -0.0815  0.3655
   36DPPC    C6 1756   6.062   6.733   1.868  0.1400 -0.0031  0.3566
   36DPPC    O7 1757   6.135   6.840   1.808 -0.2776 -0.0838 -0.3056
   36DPPC    P8 1758   6.023   6.953   1.783 -0.0084  0.2563  0.0093
   36DPPC    O9 1759   5.897   6.881   1.753  0.0633  0.2038 -0.1648
   36DPPC   O10 1760   6.080   7.050   1.687  0.9545 -0.1894  0.1192
   36DPPC   O11 1761   6.013   7.011   1.933 -0.3878  0.3364 -0.0457
   36DPPC   C12 1762   6.144   7.032   1.987 -0.4950 -0.0091  0.3546
   36DPPC   C13 1763   6.159   7.105   2.121 -0.2559  0.1133  0.2616
   36DPPC   O14 1764   6.289   7.078   2.175 -0.1389  0.0287 -0.0602
   36DPPC   C15 1765   6.382   7.175   2.153  0.1984 -0.1307  0.6236
   36DPPC   O16 1766   6.379   7.255   2.059 -0.2113 -0.0989  0.6626
   36DPPC   C17 1767   6.516   7.171   2.226  0.6144 -1.2380 -0.1624
   36DPPC   C18 1768   6.476   7.165   2.374 -0.1501 -0.0611 -0.3083
   36DPPC   C19 1769   6.601   7.157   2.461 -0.1115 -0.2017 -0.3774
   36DPPC   C20 1770   6.574   7.170   2.611 -0.3789  0.0430 -0.4467
   36DPPC   C21 1771   6.690   7.167   2.711 -0.4202 -0.1659 -0.4034
   36DPPC   C22 1772   6.638   7.183   2.854  0.3623  0.0913 -0.1403
   36DPPC   C23 1773   6.757   7.171   2.948  0.4483 -0.1214 -0.2753
   36DPPC   C24 1774   6.730   7.228   3.087  0.3644 -0.6619 -0.0671
   36DPPC   C25 1775   6.854   7.292   3.150 -0.0203  0.3941 -0.3571
   36DPPC   C26 1776   6.815   7.355   3.284 -0.0087 -0.6762  0.1550
   36DPPC   C27 1777   6.741   7.252   3.371 -0.4619 -0.3980  0.1027
   36DPPC   C28 1778   6.673   7.303   3.498 -0.3276 -0.5611  0.2398
   36DPPC   C29 1779   6.765   7.367   3.602 -0.4494 -0.0705  0.0437
   36DPPC   C30 1780   6.693   7.412   3.729 -0.1002 -0.1360  0.2664
   36DPPC   C31 1781   6.805   7.464   3.819  0.3592 -0.1981 -0.2684
   36DPPC   C32 1782   6.040   7.050   2.199 -0.4337  0.1000 -0.0171
   36DPPC   O33 1783   5.996   7.131   2.308 -0.1282  0.0603  0.1343
   36DPPC   C34 1784   5.917   7.080   2.406 -0.2783 -0.1790 -0.1102
   36DPPC   O35 1785   5.851   6.980   2.378 -0.7886  0.2368 -0.4074
   36DPPC   C36 1786   5.896   7.158   2.536 -0.2449  0.1499 -0.3020
   36DPPC   C37 1787   6.017   7.138   2.628 -0.4068 -0.1634 -0.1550
   36DPPC   C38 1788   6.000   7.186   2.772  0.9406 -0.0531 -0.0194
   36DPPC   C39 1789   5.886   7.108   2.836  0.7008  0.3631  0.0690
   36DPPC   C40 1790   5.937   7.087   2.979  0.1758  1.0134  0.3615
   36DPPC   C41 1791   5.821   7.036   3.064  0.0040 -0.0383 -0.4739
   36DPPC   C42 1792   5.841   7.034   3.216 -0.1301 -0.4199 -0.4610
   36DPPC   C43 1793   5.753   6.928   3.284  0.1337 -0.1654  0.2832
   36DPPC   C44 1794   5.788   6.920   3.433 -0.2861 -0.3108  0.3739
   36DPPC   C45 1795   5.677   6.858   3.518 -0.3558 -0.1436  0.4043
   36DPPC   C46 1796   5.735   6.821   3.654  0.3614  0.0855  0.1662
   36DPPC   C47 1797   5.635   6.874   3.758  0.3859  0.4039  0.0293
   36DPPC   C48 1798   5.647   6.792   3.887  0.4910 -0.2380 -0.3836
   36DPPC   C49 1799   5.564   6.863   3.994  0.3630 -0.3216 -0.4264
   36DPPC   C50 1800   5.604   6.793   4.123 -0.1237  0.6934  0.2911
   37DPPC    C1 1801   8.450   3.090   1.645  0.7503  0.5339  0.1192
   37DPPC    C2 1802   8.529   3.078   1.426 -0.7003 -1.0004 -0.2191
   37DPPC    C3 1803   8.338   3.208   1.455 -0.0304 -0.1546  0.2461
   37DPPC    N4 1804   8.463   3.168   1.521  0.3001 -0.1145 -0.3439
   37DPPC    C5 1805   8.557   3.279   1.539  0.1761 -0.0170 -0.2859
   37DPPC    C6 1806   8.506   3.388   1.633 -0.2238 -0.2402 -0.2455
   37DPPC    O7 1807   8.600   3.496   1.639 -0.0048 -0.4625  0.3906
   37DPPC    P8 1808   8.527   3.622   1.707 -0.1267 -0.4602  0.2557
   37DPPC    O9 1809   8.422   3.561   1.791 -0.4444  0.1187  0.2870
   37DPPC   O10 1810   8.494   3.688   1.578  0.2245 -0.3542  0.2178
   37DPPC   O11 1811   8.655   3.689   1.778 -0.1144  0.1288 -0.3107
   37DPPC   C12 1812   8.677   3.612   1.896 -0.4834  0.0323 -0.3037
   37DPPC   C13 1813   8.741   3.687   2.013 -0.8969 -0.1906  0.0682
   37DPPC   O14 1814   8.798   3.605   2.116 -0.3119  0.3683  0.1925
   37DPPC   C15 1815   8.906   3.525   2.093 -0.6929 -0.1292  0.1299
   37DPPC   O16 1816   8.962   3.529   1.983 -0.4443 -0.4593  0.2452
   37DPPC   C17 1817   8.957   3.436   2.206 -0.6027 -0.3333 -0.0712
   37DPPC   C18 1818   9.058   3.328   2.167 -0.1487  0.2574 -0.5649
   37DPPC   C19 1819   9.091   3.251   2.296  0.4337  0.3985 -0.6261
   37DPPC   C20 1820   9.169   3.128   2.251  0.1857 -0.0365  0.1216
   37DPPC   C21 1821   9.193   3.022   2.359 -0.3608 -0.2903 -0.0082
   37DPPC   C22 1822   9.298   2.925   2.306 -0.0563 -0.0207  0.1043
   37DPPC   C23 1823   9.326   2.832   2.424 -0.0695 -0.6567 -0.3832
   37DPPC   C24 1824   9.393   2.892   2.548 -0.1059  0.0210 -0.6868
   37DPPC   C25 1825   9.537   2.935   2.523 -0.1418  0.7177  0.2296
   37DPPC   C26 1826   9.609   2.969   2.653  0.2423  0.4680  0.0868
   37DPPC   C27 1827   9.654   2.852   2.740 -0.3757  0.1421 -0.0285
   37DPPC   C28 1828   9.685   2.902   2.881 -0.1385 -0.4939  0.1518
   37DPPC   C29 1829   9.702   2.785   2.978 -0.4198 -0.8774 -0.2536
   37DPPC   C30 1830   9.765   2.804   3.117 -0.2705 -0.1795 -0.4113
   37DPPC   C31 1831   9.673   2.889   3.204  0.2400 -0.5627  0.5099
   37DPPC   C32 1832   8.634   3.789   2.053 -0.0555  0.7497 -0.0465
   37DPPC   O33 1833   8.512   3.723   2.087  0.3773 -0.1030 -0.1369
   37DPPC   C34 1834   8.405   3.777   2.024  0.0169 -0.6870 -0.0377
   37DPPC   O35 1835   8.412   3.848   1.923  0.0015 -0.1677  0.3233
   37DPPC   C36 1836   8.264   3.735   2.066 -0.0405 -0.1681  0.2979
   37DPPC   C37 1837   8.255   3.732   2.218 -0.2621  0.0885  0.2904
   37DPPC   C38 1838   8.306   3.859   2.288  0.0326  0.3111 -0.3257
   37DPPC   C39 1839   8.248   3.888   2.426  0.4011  0.1669 -0.1390
   37DPPC   C40 1840   8.292   3.778   2.522 -0.4815 -0.1995 -0.1443
   37DPPC   C41 1841   8.204   3.781   2.647 -0.4199 -0.4164 -0.0947
   37DPPC   C42 1842   8.293   3.710   2.751 -0.2379  0.0146  0.0462
   37DPPC   C43 1843   8.246   3.727   2.896 -0.3808 -0.4064  0.0495
   37DPPC   C44 1844   8.364   3.673   2.977  0.2567  0.2994 -0.3978
   37DPPC   C45 1845   8.344   3.711   3.124 -0.2907  0.0960 -0.4159
   37DPPC   C46 1846   8.461   3.654   3.204 -0.4163  0.1057 -0.2260
   37DPPC   C47 1847   8.462   3.692   3.352  0.6775  0.2893 -0.2737
   37DPPC   C48 1848   8.572   3.619   3.429  0.5737 -0.2470 -0.6338
   37DPPC   C49 1849   8.680   3.723   3.458  0.2996  0.0024 -0.5025
   37DPPC   C50 1850   8.804   3.647   3.506  0.2981  0.4989  0.3090
   38DPPC    C1 1851   3.409   4.326   1.467  0.2134  0.5281 -0.3767
   38DPPC    C2 1852   3.405   4.560   1.407  0.0285 -0.1083  0.1282
   38DPPC    C3 1853   3.225   4.427   1.341 -0.6601 -0.2897  0.2809
   38DPPC    N4 1854   3.324   4.444   1.448 -0.4148  0.1475 -0.0140
   38DPPC    C5 1855   3.246   4.487   1.565 -0.2964  0.4249 -0.0353
   38DPPC    C6 1856   3.153   4.391   1.640  0.2972 -0.3741 -0.3082
   38DPPC    O7 1857   3.225   4.287   1.707  0.2458 -0.2229 -0.0180
   38DPPC    P8 1858   3.122   4.173   1.754 -0.2012  0.1566 -0.0690
   38DPPC    O9 1859   3.191   4.072   1.837  0.2105  0.3797 -0.1374
   38DPPC   O10 1860   3.055   4.136   1.627 -0.0615  0.7760 -0.3255
   38DPPC   O11 1861   3.024   4.267   1.841  0.2804  0.7822 -0.1951
   38DPPC   C12 1862   3.063   4.275   1.979 -0.0407 -0.0589 -0.0494
   38DPPC   C13 1863   3.161   4.389   2.003 -0.0988  0.0039 -0.1103
   38DPPC   O14 1864   3.238   4.362   2.121  0.2189 -0.4359 -0.4151
   38DPPC   C15 1865   3.329   4.445   2.177 -0.1526 -0.0422 -0.3913
   38DPPC   O16 1866   3.388   4.532   2.112  0.1049 -0.0037 -0.1099
   38DPPC   C17 1867   3.373   4.395   2.315 -0.0864  0.2319 -0.3109
   38DPPC   C18 1868   3.370   4.511   2.415  0.4285 -0.0665  0.0577
   38DPPC   C19 1869   3.432   4.467   2.547 -0.6517 -0.5453  0.4196
   38DPPC   C20 1870   3.427   4.588   2.641 -0.1853 -0.1228 -0.0954
   38DPPC   C21 1871   3.490   4.545   2.773 -0.9463 -0.3318  0.2030
   38DPPC   C22 1872   3.412   4.441   2.854 -0.6694 -0.4753  0.2891
   38DPPC   C23 1873   3.471   4.387   2.984  0.1147 -0.2671  0.0216
   38DPPC   C24 1874   3.516   4.505   3.071  0.0740 -0.4626  0.3096
   38DPPC   C25 1875   3.399   4.597   3.106  0.1688  0.0762 -0.7466
   38DPPC   C26 1876   3.462   4.703   3.198 -0.2218 -0.0787 -0.2979
   38DPPC   C27 1877   3.357   4.810   3.227 -0.2083  0.0643 -0.7690
   38DPPC   C28 1878   3.412   4.923   3.315 -0.1212 -0.2583 -0.4089
   38DPPC   C29 1879   3.314   5.040   3.318  0.3391  0.1183  0.4138
   38DPPC   C30 1880   3.363   5.141   3.422  0.1390  0.1802  0.4491
   38DPPC   C31 1881   3.248   5.237   3.453 -0.4102 -0.1732 -0.4531
   38DPPC   C32 1882   3.087   4.523   1.993 -0.3568 -0.1701 -0.5832
   38DPPC   O33 1883   2.976   4.532   2.082 -0.1699 -0.3218 -0.3317
   38DPPC   C34 1884   2.916   4.654   2.091  0.3558 -0.0756 -0.1295
   38DPPC   O35 1885   2.963   4.763   2.058  0.1399  0.0424 -0.0525
   38DPPC   C36 1886   2.792   4.645   2.181  0.4016  0.5745  0.0051
   38DPPC   C37 1887   2.807   4.618   2.331  0.5525  0.5482 -0.0147
   38DPPC   C38 1888   2.711   4.508   2.375  0.2688  0.8161  0.0405
   38DPPC   C39 1889   2.763   4.445   2.504 -0.3440  0.4574  0.1129
   38DPPC   C40 1890   2.656   4.347   2.555 -0.0665  0.1134  0.0355
   38DPPC   C41 1891   2.705   4.254   2.666  0.1215  0.0924 -0.0652
   38DPPC   C42 1892   2.768   4.323   2.787  0.4532  0.1801 -0.2837
   38DPPC   C43 1893   2.784   4.231   2.908 -0.1666  0.6275  0.1453
   38DPPC   C44 1894   2.848   4.321   3.014  0.1825  0.1776  0.3190
   38DPPC   C45 1895   3.001   4.329   3.005  0.2215 -0.6992  0.0099
   38DPPC   C46 1896   3.052   4.423   3.114 -0.3806  0.2357 -0.4969
   38DPPC   C47 1897   3.018   4.370   3.254 -0.0654  0.2341 -0.4205
   38DPPC   C48 1898   3.084   4.460   3.359 -0.3946 -0.0361  0.0180
   38DPPC   C49 1899   3.018   4.598   3.349 -0.1889  0.0341 -0.3875
   38DPPC   C50 1900   3.050   4.691   3.466 -0.8222 -0.1971 -0.0232
   39DPPC    C1 1901   4.209   8.061   1.980  0.0105  0.1490  0.3707
   39DPPC    C2 1902   4.290   8.079   1.748 -0.3767  0.3872  0.3207
   39DPPC    C3 1903   4.246   7.867   1.864 -0.5525 -0.1069  0.0848
   39DPPC    N4 1904   4.204   8.006   1.843 -0.0446  0.0934  0.3948
   39DPPC    C5 1905   4.071   8.008   1.783  0.0377  0.1380  0.2135
   39DPPC    C6 1906   3.979   8.129   1.800  0.2270  0.4130 -0.6382
   39DPPC    O7 1907   3.850   8.109   1.741 -0.1140 -0.3222  0.3116
   39DPPC    P8 1908   3.731   8.187   1.816  0.2085 -0.0174  0.5061
   39DPPC    O9 1909   3.618   8.202   1.722  0.5935 -0.3641 -0.0116
   39DPPC   O10 1910   3.778   8.316   1.873  0.2420  0.2866 -0.2076
   39DPPC   O11 1911   3.691   8.074   1.924  0.3466  0.2757  0.8702
   39DPPC   C12 1912   3.549   8.069   1.937  0.3062 -0.0003  0.3553
   39DPPC   C13 1913   3.494   8.013   2.069  0.1150 -0.2400  0.1763
   39DPPC   O14 1914   3.352   8.022   2.085  0.1188 -0.5115  0.3683
   39DPPC   C15 1915   3.289   7.903   2.098 -0.7534 -0.1814 -0.6567
   39DPPC   O16 1916   3.332   7.811   2.028 -0.6328 -0.4932 -0.1826
   39DPPC   C17 1917   3.146   7.915   2.150 -0.2261  0.2926  0.7252
   39DPPC   C18 1918   3.101   7.780   2.207 -0.2779  0.0236  0.0575
   39DPPC   C19 1919   2.950   7.780   2.234 -0.2419  0.0423  0.2659
   39DPPC   C20 1920   2.889   7.650   2.287  0.0647 -0.3313 -0.2845
   39DPPC   C21 1921   2.756   7.677   2.358  0.0700 -0.2909 -0.2901
   39DPPC   C22 1922   2.715   7.547   2.427 -0.2882  0.0228  0.0900
   39DPPC   C23 1923   2.572   7.567   2.479 -0.3166  0.0353  0.0072
   39DPPC   C24 1924   2.479   7.607   2.364 -0.1513 -0.0071 -0.1420
   39DPPC   C25 1925   2.343   7.647   2.421 -0.3715 -0.3677 -0.4092
   39DPPC   C26 1926   2.280   7.536   2.505  0.0186 -0.0145  0.3569
   39DPPC   C27 1927   2.134   7.519   2.462  0.3229 -0.9138 -0.3416
   39DPPC   C28 1928   2.053   7.398   2.510  0.0871 -0.6524 -0.0786
   39DPPC   C29 1929   1.907   7.413   2.465  0.1321 -0.4595 -0.1633
   39DPPC   C30 1930   1.887   7.424   2.314  0.6736  0.5887 -0.1626
   39DPPC   C31 1931   1.740   7.412   2.273  0.7437 -0.3838 -0.1360
   39DPPC   C32 1932   3.589   8.079   2.170  0.8312 -0.1387 -0.5507
   39DPPC   O33 1933   3.580   8.221   2.182  0.6591 -0.1789 -0.2085
   39DPPC   C34 1934   3.641   8.267   2.294 -0.0833  0.0961  0.0919
   39DPPC   O35 1935   3.729   8.204   2.352 -0.1622 -0.3744 -0.2886
   39DPPC   C36 1936   3.609   8.405   2.352 -0.2298  0.0191  0.1954
   39DPPC   C37 1937   3.482   8.411   2.437 -0.2230 -0.3752  0.2355
   39DPPC   C38 1938   3.508   8.335   2.568 -0.4581  0.2721  0.6643
   39DPPC   C39 1939   3.381   8.328   2.653 -0.5900  0.3456  0.4754
   39DPPC   C40 1940   3.386   8.285   2.800 -0.0744 -0.5356  0.2054
   39DPPC   C41 1941   3.259   8.315   2.880 -0.1180 -0.0813 -0.0260
   39DPPC   C42 1942   3.240   8.239   3.012 -0.1266 -0.0225  0.0065
   39DPPC   C43 1943   3.104   8.279   3.070  0.2230  0.5911  0.4181
   39DPPC   C44 1944   3.109   8.247   3.219 -0.1372  0.4158  0.3935
   39DPPC   C45 1945   2.986   8.311   3.284 -0.1163  0.8018  0.0564
   39DPPC   C46 1946   2.940   8.237   3.410 -0.2206  0.2386 -0.3075
   39DPPC   C47 1947   2.815   8.304   3.468 -0.1285  0.3507 -0.2368
   39DPPC   C48 1948   2.757   8.222   3.584 -0.1749  0.2975 -0.2967
   39DPPC   C49 1949   2.832   8.247   3.715  0.0123 -0.1481 -0.3161
   39DPPC   C50 1950   2.789   8.155   3.830  0.1509  0.2146  0.0291
   40DPPC    C1 1951   3.140   7.222   2.165  0.1724  0.1303  0.0499
   40DPPC    C2 1952   3.259   7.128   1.997 -0.6473  0.2333  0.0972
   40DPPC    C3 1953   3.231   7.008   2.208 -0.5242 -0.4901  0.0020
   40DPPC    N4 1954   3.166   7.091   2.106 -0.3616 -0.0666  0.2392
   40DPPC    C5 1955   3.043   7.030   2.055 -0.1725 -0.6941  0.5240
   40DPPC    C6 1956   3.034   6.932   1.937 -0.1031 -0.2696  0.1665
   40DPPC    O7 1957   3.118   6.818   1.957  0.3220 -0.0374 -0.2584
   40DPPC    P8 1958   3.092   6.700   1.851 -0.2377  0.1631 -0.3494
   40DPPC    O9 1959   3.206   6.607   1.865 -0.1299  0.4087  0.4858
   40DPPC   O10 1960   3.033   6.729   1.719 -0.2198  0.4924 -0.2856
   40DPPC   O11 1961   2.974   6.649   1.949  0.1979 -0.2191 -0.0203
   40DPPC   C12 1962   3.039   6.560   2.041  0.1607 -0.4812 -0.2435
   40DPPC   C13 1963   2.954   6.528   2.164  0.5056 -0.1084  0.0989
   40DPPC   O14 1964   2.848   6.440   2.124  0.3509 -0.2453  0.8028
   40DPPC   C15 1965   2.873   6.307   2.106  0.1438 -0.1259 -0.4460
   40DPPC   O16 1966   2.982   6.250   2.096  0.0883 -0.2535 -0.3264
   40DPPC   C17 1967   2.741   6.231   2.101  0.1467 -0.1380 -0.3451
   40DPPC   C18 1968   2.677   6.230   2.240 -0.3920  0.1820 -0.5873
   40DPPC   C19 1969   2.542   6.159   2.237 -0.4442  0.1974  0.7332
   40DPPC   C20 1970   2.495   6.140   2.381 -0.7745 -0.7223  0.5160
   40DPPC   C21 1971   2.484   6.265   2.469 -0.1532 -0.1957 -0.1438
   40DPPC   C22 1972   2.437   6.224   2.609  1.0804 -0.4579  0.2063
   40DPPC   C23 1973   2.436   6.338   2.711  0.5970 -0.3005  0.0325
   40DPPC   C24 1974   2.377   6.289   2.843  0.2103  0.0086 -0.0247
   40DPPC   C25 1975   2.369   6.409   2.938  0.6630  0.3552 -0.4240
   40DPPC   C26 1976   2.262   6.503   2.882 -0.1433 -0.3262 -0.0360
   40DPPC   C27 1977   2.219   6.582   3.006  0.3790 -0.4461  0.2232
   40DPPC   C28 1978   2.146   6.496   3.108 -0.2604 -0.1308  0.0352
   40DPPC   C29 1979   2.198   6.490   3.252  0.1875 -0.3855 -0.1371
   40DPPC   C30 1980   2.141   6.391   3.353 -0.0494 -0.3999 -0.2860
   40DPPC   C31 1981   2.165   6.430   3.499 -0.2233 -0.7233 -0.1688
   40DPPC   C32 1982   2.906   6.659   2.226  0.0920  0.0489 -0.5385
   40DPPC   O33 1983   2.979   6.688   2.346 -0.3222 -0.0433 -0.2631
   40DPPC   C34 1984   2.965   6.818   2.384 -0.4128 -0.2024  0.2529
   40DPPC   O35 1985   2.933   6.912   2.312 -0.2732 -0.6220 -0.3580
   40DPPC   C36 1986   3.010   6.849   2.527 -0.0822  0.4867  0.0077
   40DPPC   C37 1987   2.970   6.989   2.575 -0.7233  0.2403  0.2069
   40DPPC   C38 1988   3.004   7.001   2.724  0.4952  0.3396 -0.0683
   40DPPC   C39 1989   2.873   7.027   2.799  0.5888  0.1490  0.1608
   40DPPC   C40 1990   2.896   7.042   2.950  0.0016 -0.0836  0.2730
   40DPPC   C41 1991   2.750   7.072   2.985 -0.0474  0.0753 -0.0632
   40DPPC   C42 1992   2.737   7.129   3.127  0.4918  0.1578 -0.0459
   40DPPC   C43 1993   2.809   7.033   3.222  0.0177  0.0074  0.1642
   40DPPC   C44 1994   2.803   7.096   3.361  0.2841  0.1639  0.1053
   40DPPC   C45 1995   2.659   7.137   3.395  0.0522 -0.2016 -0.4160
   40DPPC   C46 1996   2.643   7.187   3.539 -0.0932 -0.1090 -0.4647
   40DPPC   C47 1997   2.507   7.254   3.556 -0.0419 -0.1380  0.0749
   40DPPC   C48 1998   2.499   7.327   3.691 -0.5930 -0.3779  0.1753
   40DPPC   C49 1999   2.363   7.391   3.719 -0.6887 -0.6531  0.3356
   40DPPC   C50 2000   2.323   7.507   3.628 -0.7619 -0.2536  0.8775
   41DPPC    C1 2001   3.096   5.787   1.838  0.6667 -0.4694 -0.8326
   41DPPC    C2 2002   2.987   5.980   1.867  0.4453 -0.3230 -0.1225
   41DPPC    C3 2003   3.215   5.980   1.791 -0.3915  0.1352  0.0168
   41DPPC    N4 2004   3.083   5.919   1.774 -0.0608 -0.4173 -0.5868
   41DPPC    C5 2005   3.052   5.907   1.630 -0.0874  0.1062 -0.6276
   41DPPC    C6 2006   2.950   5.812   1.568 -0.3436 -0.1723  0.2090
   41DPPC    O7 2007   2.812   5.835   1.599 -0.4378 -0.2503 -0.1493
   41DPPC    P8 2008   2.717   5.762   1.491 -0.2337 -0.3266 -0.2772
   41DPPC    O9 2009   2.799   5.740   1.370  1.1203  0.1608  0.5231
   41DPPC   O10 2010   2.594   5.843   1.488 -0.0531 -0.0245  0.2098
   41DPPC   O11 2011   2.691   5.619   1.561 -0.0584 -0.1987  0.0536
   41DPPC   C12 2012   2.598   5.618   1.670  0.0241  0.5331  0.1350
   41DPPC   C13 2013   2.528   5.485   1.697  0.1949  0.5601  0.7241
   41DPPC   O14 2014   2.402   5.484   1.766 -0.0582 -0.2201  0.2649
   41DPPC   C15 2015   2.283   5.537   1.726  0.1570 -0.4838 -0.7555
   41DPPC   O16 2016   2.289   5.607   1.625  0.6063  0.6543  0.0432
   41DPPC   C17 2017   2.178   5.547   1.837  0.3780 -0.6497 -0.5301
   41DPPC   C18 2018   2.171   5.407   1.898  0.9787 -0.3617  0.2104
   41DPPC   C19 2019   2.061   5.398   2.003  0.0966  0.3255 -0.6372
   41DPPC   C20 2020   2.048   5.269   2.084 -0.0791  0.6602 -0.1258
   41DPPC   C21 2021   1.913   5.283   2.154 -0.0124  0.0036  0.1438
   41DPPC   C22 2022   1.867   5.149   2.212 -0.0217 -0.0399  0.0345
   41DPPC   C23 2023   1.742   5.181   2.295 -0.0202  0.0969 -0.0154
   41DPPC   C24 2024   1.672   5.060   2.357 -0.6220 -0.0798 -1.0234
   41DPPC   C25 2025   1.560   5.096   2.455  0.5823  0.3470  0.2299
   41DPPC   C26 2026   1.509   4.963   2.512  0.9932  0.0226 -0.1497
   41DPPC   C27 2027   1.418   5.005   2.627  0.6214 -0.7506 -0.1589
   41DPPC   C28 2028   1.513   5.078   2.722 -0.2449  0.1816  0.0084
   41DPPC   C29 2029   1.441   5.113   2.852 -0.1507  0.0047  0.1092
   41DPPC   C30 2030   1.540   5.138   2.965 -0.2023  0.2169  0.1088
   41DPPC   C31 2031   1.470   5.141   3.101 -0.3412  0.3942  0.0343
   41DPPC   C32 2032   2.635   5.402   1.769  0.0510 -0.2531  0.0164
   41DPPC   O33 2033   2.713   5.483   1.858  0.3506  0.3419 -0.7697
   41DPPC   C34 2034   2.818   5.417   1.912 -0.7789 -0.3187  0.7097
   41DPPC   O35 2035   2.861   5.305   1.885  0.0523  0.1418  0.0388
   41DPPC   C36 2036   2.889   5.490   2.026  0.6969  0.1279 -0.4522
   41DPPC   C37 2037   2.871   5.394   2.144 -0.1047  0.3471 -0.3880
   41DPPC   C38 2038   2.939   5.447   2.271 -0.1390 -0.2615 -0.1116
   41DPPC   C39 2039   2.918   5.362   2.397  0.3336 -0.6077 -0.2622
   41DPPC   C40 2040   3.021   5.393   2.506 -0.0581  0.4007 -0.1622
   41DPPC   C41 2041   2.973   5.297   2.616 -0.1446  0.5256 -0.0908
   41DPPC   C42 2042   3.061   5.301   2.741 -0.2196 -0.6643  0.0115
   41DPPC   C43 2043   3.185   5.213   2.729  0.3350  0.1519 -0.3261
   41DPPC   C44 2044   3.268   5.237   2.856 -0.0410 -0.3257  0.0116
   41DPPC   C45 2045   3.380   5.133   2.854  0.0641 -0.2125  0.0523
   41DPPC   C46 2046   3.467   5.143   2.728 -0.2269  0.4798 -0.0972
   41DPPC   C47 2047   3.568   5.028   2.733 -0.2894  0.3995 -0.6169
   41DPPC   C48 2048   3.690   5.071   2.652 -0.0870  0.1956 -0.4235
   41DPPC   C49 2049   3.771   5.185   2.715 -0.5507  0.1497  0.2719
   41DPPC   C50 2050   3.892   5.207   2.623 -0.7328  0.1842  0.0393
   42DPPC    C1 2051   1.939   4.526   1.861 -0.6860  0.3159 -0.4319
   42DPPC    C2 2052   2.080   4.555   1.659  0.3214  0.0198  0.2466
   42DPPC    C3 2053   2.081   4.358   1.779 -0.4149 -0.2238  0.6940
   42DPPC    N4 2054   1.992   4.467   1.737  0.1676  0.0153  0.0663
   42DPPC    C5 2055   1.887   4.411   1.650  0.0465  0.3760 -0.0230
   42DPPC    C6 2056   1.772   4.505   1.614 -0.3144  0.0206  0.1915
   42DPPC    O7 2057   1.800   4.606   1.516  0.0482  0.4172  0.6982
   42DPPC    P8 2058   1.665   4.691   1.498  0.0047  0.2929  0.4302
   42DPPC    O9 2059   1.548   4.602   1.482  0.3912 -0.1280 -0.0527
   42DPPC   O10 2060   1.699   4.790   1.394 -0.1770  0.3279  0.4032
   42DPPC   O11 2061   1.678   4.757   1.645  0.1495  0.4949  0.3258
   42DPPC   C12 2062   1.749   4.881   1.637  0.1557  0.4421 -0.5153
   42DPPC   C13 2063   1.788   4.932   1.775  0.0688 -0.2225 -0.2408
   42DPPC   O14 2064   1.899   4.872   1.844 -0.1022 -0.4776 -0.1879
   42DPPC   C15 2065   2.026   4.903   1.809 -0.2237  0.4906  0.1871
   42DPPC   O16 2066   2.055   4.951   1.699 -0.1126 -0.4632 -0.2085
   42DPPC   C17 2067   2.130   4.866   1.915 -0.3551 -0.1116  0.1060
   42DPPC   C18 2068   2.091   4.896   2.060 -0.0121  0.0774  0.1597
   42DPPC   C19 2069   2.004   4.782   2.112  0.4876 -0.2162  0.3529
   42DPPC   C20 2070   2.004   4.767   2.265  0.5265  0.1815  0.3917
   42DPPC   C21 2071   1.932   4.635   2.293  0.3574  0.2312  0.1933
   42DPPC   C22 2072   1.934   4.632   2.445  0.1817  0.3080  0.1973
   42DPPC   C23 2073   1.883   4.504   2.510 -0.2420  0.3019 -0.1443
   42DPPC   C24 2074   1.863   4.539   2.658  0.0997 -0.0610 -0.0091
   42DPPC   C25 2075   1.819   4.415   2.735 -0.1287 -0.0725 -0.1542
   42DPPC   C26 2076   1.816   4.446   2.885  0.1187 -0.2467 -0.1107
   42DPPC   C27 2077   1.774   4.333   2.980  0.6262  0.0963  0.5286
   42DPPC   C28 2078   1.765   4.379   3.125 -0.2885 -0.1759  0.5658
   42DPPC   C29 2079   1.902   4.429   3.172  0.0340 -0.1854 -0.3590
   42DPPC   C30 2080   1.901   4.474   3.318 -0.4604  0.3600 -0.5252
   42DPPC   C31 2081   1.845   4.616   3.318 -0.0437  0.5300  0.1043
   42DPPC   C32 2082   1.661   4.949   1.859  0.1964  0.3584 -0.1606
   42DPPC   O33 2083   1.594   5.073   1.834 -0.1476  0.1989 -0.0331
   42DPPC   C34 2084   1.494   5.085   1.925 -0.1446  0.0439 -0.0098
   42DPPC   O35 2085   1.445   4.986   1.979  0.0216 -0.1485 -0.2083
   42DPPC   C36 2086   1.434   5.223   1.952 -0.3266 -0.0253 -0.0592
   42DPPC   C37 2087   1.374   5.237   2.092 -0.9305 -0.1480 -0.3014
   42DPPC   C38 2088   1.349   5.382   2.134 -0.5404 -0.3040  0.4864
   42DPPC   C39 2089   1.222   5.435   2.066  0.1552  0.6149 -0.1258
   42DPPC   C40 2090   1.174   5.553   2.150 -0.6990  0.6349 -0.6385
   42DPPC   C41 2091   1.038   5.518   2.212 -0.2835 -0.2622 -0.2283
   42DPPC   C42 2092   1.024   5.609   2.334  0.2956 -0.5471  0.0594
   42DPPC   C43 2093   0.912   5.569   2.431 -0.3722 -0.0941 -0.5121
   42DPPC   C44 2094   0.922   5.656   2.557 -0.5521 -0.0764 -0.5097
   42DPPC   C45 2095   0.839   5.588   2.667 -0.6962  0.5301 -0.2425
   42DPPC   C46 2096   0.829   5.663   2.800  0.2476 -0.1593  0.2319
   42DPPC   C47 2097   0.719   5.604   2.888 -0.5459  0.6805 -0.1630
   42DPPC   C48 2098   0.722   5.685   3.018  0.3627  0.0457  0.2302
   42DPPC   C49 2099   0.606   5.669   3.116  0.1904  0.5058  0.1047
   42DPPC   C50 2100   0.629   5.749   3.244  0.5360  0.0238  0.3471
   43DPPC    C1 2101   1.676   6.537   1.660 -0.6948  0.2412 -0.0422
   43DPPC    C2 2102   1.453   6.614   1.651 -0.1336 -0.5443 -0.0333
   43DPPC    C3 2103   1.636   6.738   1.753 -0.1854  0.8114 -0.3224
   43DPPC    N4 2104   1.593   6.656   1.639 -0.4213  0.4430  0.0242
   43DPPC    C5 2105   1.647   6.714   1.515 -0.2712 -1.1547 -0.6892
   43DPPC    C6 2106   1.560   6.822   1.450  0.6602  0.1355  0.1441
   43DPPC    O7 2107   1.530   6.926   1.543 -0.2645  0.1093 -0.1099
   43DPPC    P8 2108   1.397   7.002   1.495 -0.3839  0.0547  0.1351
   43DPPC    O9 2109   1.336   6.944   1.373 -0.4810 -0.3266  0.3646
   43DPPC   O10 2110   1.421   7.148   1.500  0.3069 -0.0322 -0.4525
   43DPPC   O11 2111   1.316   6.951   1.624  0.3157  0.0288  0.5693
   43DPPC   C12 2112   1.212   7.038   1.670  0.0956  0.1359 -0.1150
   43DPPC   C13 2113   1.141   6.980   1.792  0.5882  0.3235  0.2674
   43DPPC   O14 2114   1.085   7.079   1.882 -0.3211 -0.7252  0.8847
   43DPPC   C15 2115   0.951   7.076   1.901 -0.3790  0.2793  0.6779
   43DPPC   O16 2116   0.879   7.039   1.809 -0.1075 -0.1064  0.6183
   43DPPC   C17 2117   0.908   7.162   2.020 -0.3106  0.4533  0.5768
   43DPPC   C18 2118   0.959   7.306   2.010 -0.1490  0.3556 -0.0268
   43DPPC   C19 2119   0.903   7.385   2.128 -0.4285  0.5402 -0.2819
   43DPPC   C20 2120   0.983   7.514   2.140  0.2390  0.0984  0.0846
   43DPPC   C21 2121   0.911   7.604   2.240 -0.0541 -0.3369  0.2677
   43DPPC   C22 2122   0.892   7.527   2.371 -0.7020 -0.6868 -0.0316
   43DPPC   C23 2123   0.811   7.605   2.474  0.2991  0.2559  0.0538
   43DPPC   C24 2124   0.828   7.529   2.605  0.2803  0.1226 -0.0215
   43DPPC   C25 2125   0.974   7.523   2.650  0.0527  0.4311  0.7730
   43DPPC   C26 2126   0.962   7.471   2.794 -0.4495 -0.4565  0.4189
   43DPPC   C27 2127   1.090   7.412   2.853 -0.0910 -0.3138 -0.2039
   43DPPC   C28 2128   1.196   7.509   2.907 -0.3929 -0.4697  0.6849
   43DPPC   C29 2129   1.307   7.439   2.986  0.3264  0.4847  0.5321
   43DPPC   C30 2130   1.415   7.538   3.030  1.1219  0.1034 -0.5041
   43DPPC   C31 2131   1.517   7.475   3.125 -0.0251  0.4645  1.0129
   43DPPC   C32 2132   1.244   6.892   1.862 -0.2598 -0.6945  0.2703
   43DPPC   O33 2133   1.215   6.799   1.967 -0.6662  0.1162  0.8888
   43DPPC   C34 2134   1.309   6.731   2.037  0.2314  0.2389 -0.1714
   43DPPC   O35 2135   1.412   6.688   1.984 -0.0437 -0.3509 -0.2394
   43DPPC   C36 2136   1.261   6.651   2.158 -0.4424  0.2160 -0.4493
   43DPPC   C37 2137   1.263   6.732   2.288 -0.2710 -0.0590 -0.2800
   43DPPC   C38 2138   1.180   6.645   2.383 -0.1198  0.1008  0.0017
   43DPPC   C39 2139   1.129   6.732   2.498  0.2025  0.2620  0.0231
   43DPPC   C40 2140   1.046   6.846   2.438  0.3227  0.1775 -0.3015
   43DPPC   C41 2141   0.975   6.933   2.541  0.2675 -0.0256 -0.1685
   43DPPC   C42 2142   0.858   7.007   2.476  0.0658  0.3041  0.5563
   43DPPC   C43 2143   0.762   7.070   2.577 -0.3412  0.4130  0.1063
   43DPPC   C44 2144   0.716   6.985   2.695 -0.3883  0.1357 -0.1110
   43DPPC   C45 2145   0.631   7.083   2.776  0.0606  0.3479  0.1061
   43DPPC   C46 2146   0.699   7.156   2.892 -0.1901 -0.0121  0.4819
   43DPPC   C47 2147   0.596   7.227   2.980 -0.1602 -0.1071  0.5946
   43DPPC   C48 2148   0.681   7.311   3.076 -0.0671 -0.1742  0.5710
   43DPPC   C49 2149   0.598   7.429   3.124 -0.0696  0.0451  0.0268
   43DPPC   C50 2150   0.568   7.524   3.007 -0.2330  0.3309  0.2965
   44DPPC    C1 2151   4.884   1.727   1.471 -0.1511  0.0033  0.3314
   44DPPC    C2 2152   4.671   1.810   1.438  0.1547  0.1567  0.2074
   44DPPC    C3 2153   4.758   1.812   1.652  0.3018 -0.3565  0.5952
   44DPPC    N4 2154   4.795   1.836   1.512 -0.0307  0.0137  0.5685
   44DPPC    C5 2155   4.864   1.965   1.496  0.1477 -0.1943 -0.4094
   44DPPC    C6 2156   4.784   2.095   1.515 -0.2304 -0.4766 -0.0474
   44DPPC    O7 2157   4.733   2.121   1.646 -0.4316  0.0862 -0.2380
   44DPPC    P8 2158   4.713   2.281   1.650 -0.2332  0.1080 -0.1206
   44DPPC    O9 2159   4.604   2.301   1.749 -0.1786  0.4482 -0.1287
   44DPPC   O10 2160   4.686   2.333   1.514 -0.1170 -0.2921 -0.2987
   44DPPC   O11 2161   4.860   2.319   1.704 -0.2871  0.2959 -0.1035
   44DPPC   C12 2162   4.872   2.289   1.843  0.1994 -0.0750 -0.2211
   44DPPC   C13 2163   5.020   2.260   1.866  0.2947  0.0769 -0.6434
   44DPPC   O14 2164   5.049   2.179   1.981 -0.4024  0.0142 -0.5124
   44DPPC   C15 2165   5.170   2.117   1.984 -0.4490 -0.0663 -0.2372
   44DPPC   O16 2166   5.224   2.110   1.874  0.0068  0.0723 -0.0216
   44DPPC   C17 2167   5.210   2.033   2.106  0.4998 -0.7974 -1.0370
   44DPPC   C18 2168   5.362   2.039   2.123  0.3414 -0.3890  0.3901
   44DPPC   C19 2169   5.389   2.002   2.269 -0.3614 -0.3104  0.5468
   44DPPC   C20 2170   5.541   2.003   2.292 -0.1878 -0.6417 -0.5179
   44DPPC   C21 2171   5.583   1.985   2.438 -0.9127  0.7970 -0.1162
   44DPPC   C22 2172   5.734   1.982   2.466 -0.9570 -0.3405  0.0482
   44DPPC   C23 2173   5.764   1.963   2.615  0.2687  0.1731 -0.1267
   44DPPC   C24 2174   5.705   1.838   2.680  0.2855  0.3535  0.2388
   44DPPC   C25 2175   5.720   1.838   2.832 -0.0015  0.2641  0.2660
   44DPPC   C26 2176   5.845   1.768   2.885 -0.1099  0.2810  0.5460
   44DPPC   C27 2177   5.829   1.735   3.033  0.0056 -0.1513  0.4628
   44DPPC   C28 2178   5.929   1.624   3.069  0.3747  0.0828  0.1605
   44DPPC   C29 2179   5.930   1.583   3.216  0.2319  0.4583  0.2669
   44DPPC   C30 2180   6.047   1.486   3.233 -0.0770  0.0899  0.2944
   44DPPC   C31 2181   6.060   1.437   3.377 -0.1137 -0.3825  0.1405
   44DPPC   C32 2182   5.080   2.401   1.869  0.1548  0.1220  0.9591
   44DPPC   O33 2183   5.015   2.492   1.958 -0.0132  0.1844  0.7722
   44DPPC   C34 2184   5.065   2.618   1.965  0.1729  0.1734 -0.2522
   44DPPC   O35 2185   5.156   2.659   1.893  0.5812  0.2768  0.3218
   44DPPC   C36 2186   4.995   2.706   2.069  0.1428 -0.3593  0.1815
   44DPPC   C37 2187   5.074   2.831   2.107 -0.0283 -0.1192 -0.2453
   44DPPC   C38 2188   5.174   2.783   2.212 -0.6234 -0.7563  0.0397
   44DPPC   C39 2189   5.102   2.765   2.346 -0.3252 -0.6089  0.2223
   44DPPC   C40 2190   5.212   2.718   2.441 -0.3087 -0.9005  0.0637
   44DPPC   C41 2191   5.146   2.684   2.575 -0.4073 -0.5110  0.1163
   44DPPC   C42 2192   5.260   2.654   2.673 -0.1711  0.4805  0.1562
   44DPPC   C43 2193   5.202   2.582   2.795  0.2973  0.0675  0.1389
   44DPPC   C44 2194   5.315   2.556   2.894  0.3692  0.6897  0.2266
   44DPPC   C45 2195   5.262   2.500   3.026  0.5143 -0.2978 -0.1267
   44DPPC   C46 2196   5.371   2.512   3.133  0.0608  0.5819  0.2515
   44DPPC   C47 2197   5.326   2.426   3.252  0.5453 -0.1928 -0.1111
   44DPPC   C48 2198   5.437   2.456   3.353 -0.0160  0.3935  0.3365
   44DPPC   C49 2199   5.566   2.421   3.279 -0.2775  0.5037 -0.1802
   44DPPC   C50 2200   5.682   2.407   3.378 -0.2029 -0.1477 -0.3504
   45DPPC    C1 2201   0.215   4.354   1.355 -0.6010 -1.1139  0.1781
   45DPPC    C2 2202   0.255   4.415   1.130  0.6638  0.2976  0.2283
   45DPPC    C3 2203   0.434   4.389   1.284  0.4913 -0.0677  0.4060
   45DPPC    N4 2204   0.305   4.332   1.241  0.2328  0.4278  0.5226
   45DPPC    C5 2205   0.322   4.189   1.210 -0.5733  0.3430  0.4462
   45DPPC    C6 2206   0.346   4.096   1.329 -0.2078 -0.5340 -0.3054
   45DPPC    O7 2207   0.483   4.060   1.352 -0.2440 -0.8045 -0.5117
   45DPPC    P8 2208   0.491   3.958   1.476 -0.1261  0.0490  0.1993
   45DPPC    O9 2209   0.637   3.935   1.474 -0.0592  0.4794 -0.0931
   45DPPC   O10 2210   0.389   3.858   1.435 -0.2384  0.1408  0.2559
   45DPPC   O11 2211   0.440   4.031   1.609 -0.0051  0.0544  0.2429
   45DPPC   C12 2212   0.552   4.051   1.695  0.0275 -0.0432  0.2230
   45DPPC   C13 2213   0.529   4.151   1.809 -0.2816  0.5908 -0.3936
   45DPPC   O14 2214   0.624   4.146   1.916 -0.2884 -0.1657 -0.4193
   45DPPC   C15 2215   0.721   4.242   1.913 -0.1273 -0.3062  0.1216
   45DPPC   O16 2216   0.785   4.260   1.810  0.0052  0.1943  0.2920
   45DPPC   C17 2217   0.773   4.264   2.055  0.1426  0.1491 -0.0493
   45DPPC   C18 2218   0.674   4.357   2.126 -0.0188 -0.2820  0.2892
   45DPPC   C19 2219   0.703   4.378   2.275  0.4386  0.6352  0.0735
   45DPPC   C20 2220   0.597   4.475   2.327 -0.6143 -0.2810 -0.3335
   45DPPC   C21 2221   0.633   4.570   2.441 -0.4108 -0.2023 -0.4624
   45DPPC   C22 2222   0.518   4.671   2.451 -0.2278 -0.0613  0.2954
   45DPPC   C23 2223   0.383   4.607   2.481 -0.3285 -0.0201 -0.0599
   45DPPC   C24 2224   0.270   4.710   2.475 -0.4716 -0.1344  0.5582
   45DPPC   C25 2225   0.164   4.635   2.556 -0.2696 -0.9107  0.1106
   45DPPC   C26 2226   0.046   4.732   2.563  0.2809 -0.2635  0.5270
   45DPPC   C27 2227  -0.051   4.679   2.669 -0.3649 -0.5279 -0.1896
   45DPPC   C28 2228   0.025   4.634   2.794 -0.4581 -0.1109  0.0172
   45DPPC   C29 2229  -0.061   4.590   2.913 -0.2960 -0.0133  0.1701
   45DPPC   C30 2230   0.021   4.555   3.037  0.0375  0.3813  0.0613
   45DPPC   C31 2231  -0.053   4.463   3.134 -0.1368  0.2313 -0.2106
   45DPPC   C32 2232   0.385   4.130   1.855 -0.0291  0.0843  0.1668
   45DPPC   O33 2233   0.347   4.239   1.940 -0.0881  0.7293 -0.6751
   45DPPC   C34 2234   0.219   4.234   1.986  0.3254  0.0094  0.4332
   45DPPC   O35 2235   0.138   4.157   1.935  0.0803  0.3988  0.2362
   45DPPC   C36 2236   0.189   4.333   2.099  0.2924  0.1611  0.2918
   45DPPC   C37 2237   0.092   4.270   2.199 -0.0770  0.3968  0.0826
   45DPPC   C38 2238   0.107   4.348   2.329  0.2145  0.2482  0.1389
   45DPPC   C39 2239   0.013   4.289   2.435 -0.5404  0.4380 -0.4192
   45DPPC   C40 2240   0.048   4.148   2.483 -0.4441  0.3990 -0.6053
   45DPPC   C41 2241  -0.054   4.102   2.587  0.0628  0.6949  0.0305
   45DPPC   C42 2242  -0.079   4.176   2.719 -0.0305  0.3932  0.1817
   45DPPC   C43 2243  -0.178   4.086   2.793  0.0873 -0.0204 -0.1605
   45DPPC   C44 2244  -0.115   3.946   2.792 -0.1720 -0.1389  0.1312
   45DPPC   C45 2245  -0.224   3.848   2.838  0.1141 -0.5563 -0.0772
   45DPPC   C46 2246  -0.272   3.887   2.978  0.7064 -0.4051  0.0876
   45DPPC   C47 2247  -0.369   3.789   3.045 -0.2159  0.6728  0.3524
   45DPPC   C48 2248  -0.510   3.790   2.985  0.0939  0.2742 -0.3959
   45DPPC   C49 2249  -0.583   3.659   3.013  0.1684  0.1963 -0.5629
   45DPPC   C50 2250  -0.714   3.642   2.935  0.1051 -0.3422 -0.3482
   46DPPC    C1 2251   9.333   1.777   1.251 -0.5864  0.5745  0.3044
   46DPPC    C2 2252   9.338   1.833   1.467 -0.2595 -0.7293 -0.1128
   46DPPC    C3 2253   9.545   1.823   1.329 -0.1379  0.0610 -0.1463
   46DPPC    N4 2254   9.406   1.867   1.341 -0.0570  0.2112  0.2439
   46DPPC    C5 2255   9.392   2.007   1.299  0.6841  0.1403 -0.2534
   46DPPC    C6 2256   9.374   2.129   1.390 -0.4073  0.0239 -0.2991
   46DPPC    O7 2257   9.257   2.137   1.472 -0.2488 -0.3611 -0.0326
   46DPPC    P8 2258   9.250   2.282   1.542  0.0270 -0.0920 -0.5503
   46DPPC    O9 2259   9.114   2.310   1.595  0.1608 -0.3233 -0.0693
   46DPPC   O10 2260   9.331   2.378   1.465  0.6816  0.0382  0.2817
   46DPPC   O11 2261   9.345   2.254   1.669 -0.2512 -0.2071 -0.3658
   46DPPC   C12 2262   9.279   2.183   1.774 -0.0446  0.3510  0.1518
   46DPPC   C13 2263   9.384   2.165   1.883  0.3849  0.1294 -0.2984
   46DPPC   O14 2264   9.370   2.045   1.961  0.5075 -0.1324 -0.6719
   46DPPC   C15 2265   9.423   1.932   1.907  0.3739 -0.3143 -0.4239
   46DPPC   O16 2266   9.459   1.923   1.790  0.2169  0.0963 -0.5047
   46DPPC   C17 2267   9.423   1.812   2.002  0.5282 -0.3742 -0.4988
   46DPPC   C18 2268   9.356   1.829   2.139  0.6530 -0.0561 -0.4755
   46DPPC   C19 2269   9.305   1.698   2.199  0.3791  0.1341 -0.2888
   46DPPC   C20 2270   9.253   1.726   2.340  0.1269 -0.1357 -0.3275
   46DPPC   C21 2271   9.208   1.595   2.406  0.4891 -0.0530  0.0877
   46DPPC   C22 2272   9.127   1.611   2.535 -0.1135  0.5626 -0.3597
   46DPPC   C23 2273   9.087   1.471   2.581 -0.0475  0.6278 -0.1051
   46DPPC   C24 2274   8.989   1.448   2.696 -0.2333  0.4471 -0.2997
   46DPPC   C25 2275   9.036   1.506   2.830 -0.0550  0.0815 -0.2035
   46DPPC   C26 2276   8.946   1.449   2.940  0.0360 -0.1552 -0.2508
   46DPPC   C27 2277   8.925   1.558   3.044  0.0446 -0.0398 -0.3701
   46DPPC   C28 2278   9.063   1.578   3.106 -0.2217  0.2295  0.1416
   46DPPC   C29 2279   9.047   1.656   3.237  0.3794  0.1788  0.2501
   46DPPC   C30 2280   8.944   1.592   3.330  0.2570  0.0677  0.0404
   46DPPC   C31 2281   8.939   1.664   3.466 -0.4892  0.1228 -0.0107
   46DPPC   C32 2282   9.391   2.298   1.956  0.0500 -0.3272  0.5762
   46DPPC   O33 2283   9.273   2.336   2.027 -0.3569  0.2507 -0.3981
   46DPPC   C34 2284   9.273   2.460   2.082 -0.2021 -0.1682  0.5620
   46DPPC   O35 2285   9.372   2.529   2.055  0.2472 -0.9525  0.1659
   46DPPC   C36 2286   9.144   2.512   2.146 -0.4368 -0.0960  0.0327
   46DPPC   C37 2287   9.131   2.456   2.287  0.5385 -0.1085  0.1305
   46DPPC   C38 2288   9.055   2.573   2.351  0.1860 -0.1313 -0.2421
   46DPPC   C39 2289   9.032   2.541   2.498  0.3005 -0.0266 -0.2012
   46DPPC   C40 2290   8.895   2.477   2.525  0.2869 -0.0032 -0.2134
   46DPPC   C41 2291   8.874   2.427   2.668  0.1538 -0.5909 -0.4369
   46DPPC   C42 2292   8.748   2.341   2.680  0.0219 -0.3682 -0.1928
   46DPPC   C43 2293   8.715   2.296   2.822 -0.1361  0.9432  0.2004
   46DPPC   C44 2294   8.588   2.212   2.843  0.0074  0.6569 -0.0629
   46DPPC   C45 2295   8.557   2.196   2.992 -0.2145  0.3389 -0.1442
   46DPPC   C46 2296   8.415   2.204   3.049 -0.2658 -0.6414 -0.1035
   46DPPC   C47 2297   8.402   2.188   3.201 -0.2176  0.1445 -0.0118
   46DPPC   C48 2298   8.490   2.300   3.258  0.0016 -0.0561  0.0464
   46DPPC   C49 2299   8.477   2.293   3.410 -0.0758  0.3226  0.0592
   46DPPC   C50 2300   8.591   2.373   3.473 -0.2838  0.5201  0.1849
   47DPPC    C1 2301   7.658   2.077   1.284 -0.4157 -0.3348  0.4656
   47DPPC    C2 2302   7.673   1.908   1.120 -0.1880  0.1551  0.2654
   47DPPC    C3 2303   7.724   1.861   1.348  0.5452 -0.1287  0.0204
   47DPPC    N4 2304   7.633   1.935   1.259 -0.0540 -0.3915  0.4109
   47DPPC    C5 2305   7.491   1.897   1.259 -0.1394 -0.0730  0.1302
   47DPPC    C6 2306   7.432   1.836   1.387 -0.1973  0.1688  0.2200
   47DPPC    O7 2307   7.423   1.912   1.508 -0.5321  0.2584  0.1398
   47DPPC    P8 2308   7.405   1.828   1.644 -0.4120  0.1699  0.1017
   47DPPC    O9 2309   7.357   1.698   1.592 -0.1029  0.1770 -0.2037
   47DPPC   O10 2310   7.324   1.908   1.738  0.1346  0.7780  0.0576
   47DPPC   O11 2311   7.562   1.825   1.675 -0.5170  0.3958  0.6591
   47DPPC   C12 2312   7.602   1.769   1.801 -0.1135 -0.3315  0.2116
   47DPPC   C13 2313   7.733   1.823   1.859 -0.0204 -0.1196 -0.1904
   47DPPC   O14 2314   7.800   1.734   1.949  0.0676  0.1703  0.0331
   47DPPC   C15 2315   7.861   1.624   1.897 -0.2385 -0.0654  0.1683
   47DPPC   O16 2316   7.885   1.609   1.778 -0.4186 -0.8323  0.2267
   47DPPC   C17 2317   7.887   1.511   1.997  0.0650 -0.2395 -0.1082
   47DPPC   C18 2318   7.793   1.393   1.972 -0.7649  0.3596  0.1561
   47DPPC   C19 2319   7.790   1.312   2.102 -0.6760  0.3827  0.1728
   47DPPC   C20 2320   7.740   1.393   2.222 -0.1848  0.2406  0.4749
   47DPPC   C21 2321   7.602   1.452   2.192  0.0467  0.4211 -0.2368
   47DPPC   C22 2322   7.555   1.523   2.318  0.0774 -0.2968  0.1808
   47DPPC   C23 2323   7.627   1.655   2.344  0.1164 -0.3230  0.2048
   47DPPC   C24 2324   7.537   1.730   2.442  0.3685  0.0416  0.1606
   47DPPC   C25 2325   7.399   1.767   2.386  0.5877  0.2959 -0.2114
   47DPPC   C26 2326   7.324   1.841   2.497  0.9791  0.2639  0.0758
   47DPPC   C27 2327   7.328   1.778   2.637 -0.2962 -0.1702 -0.0753
   47DPPC   C28 2328   7.263   1.876   2.735  0.3564  0.0369  0.1535
   47DPPC   C29 2329   7.246   1.802   2.868  0.0677  0.0583  0.1290
   47DPPC   C30 2330   7.155   1.873   2.968 -0.4210 -0.1165 -0.1889
   47DPPC   C31 2331   7.139   1.806   3.105 -0.0992 -0.3032 -0.2435
   47DPPC   C32 2332   7.694   1.960   1.917  0.4094 -0.2186  0.3354
   47DPPC   O33 2333   7.565   1.965   1.979  0.1982 -0.0926 -0.1126
   47DPPC   C34 2334   7.509   2.081   2.021  0.1135 -0.2310  0.1597
   47DPPC   O35 2335   7.561   2.193   2.013  0.0109 -0.1662  0.4004
   47DPPC   C36 2336   7.383   2.052   2.103 -0.0424  0.0928  0.0369
   47DPPC   C37 2337   7.366   2.119   2.239  0.3912 -0.0083  0.1416
   47DPPC   C38 2338   7.218   2.130   2.273  0.5181  0.6322  0.5075
   47DPPC   C39 2339   7.190   2.204   2.404 -0.3574  0.4779  0.4203
   47DPPC   C40 2340   7.051   2.170   2.457 -0.2638  0.0364  0.3889
   47DPPC   C41 2341   7.020   2.023   2.485 -0.3977 -0.1324 -0.6178
   47DPPC   C42 2342   6.888   2.006   2.560 -0.1610  0.4066 -0.0725
   47DPPC   C43 2343   6.899   1.865   2.620  0.0619  0.7120  0.6224
   47DPPC   C44 2344   6.775   1.861   2.709 -0.2662  0.2010  0.1506
   47DPPC   C45 2345   6.767   1.750   2.814  0.1333  0.4505  0.4492
   47DPPC   C46 2346   6.704   1.807   2.940  0.0040  0.4378  0.3904
   47DPPC   C47 2347   6.740   1.716   3.058  0.2534  0.3140  0.2190
   47DPPC   C48 2348   6.697   1.763   3.197 -0.3215  0.2949  0.0530
   47DPPC   C49 2349   6.779   1.887   3.231  0.1307 -0.0830  0.3643
   47DPPC   C50 2350   6.767   1.909   3.382  0.3625  0.8929  0.2503
   48DPPC    C1 2351   8.579   0.552   0.854 -0.3884  0.1980 -0.1141
   48DPPC    C2 2352   8.403   0.584   0.704  0.6241  0.1709  0.9003
   48DPPC    C3 2353   8.488   0.362   0.733 -0.1671 -0.5998 -0.3919
   48DPPC    N4 2354   8.457   0.488   0.801  0.0199 -0.8827  0.2251
   48DPPC    C5 2355   8.373   0.473   0.920  0.6454  0.1740  0.8147
   48DPPC    C6 2356   8.299   0.346   0.962 -0.2136  0.2252 -0.4792
   48DPPC    O7 2357   8.265   0.365   1.100  0.2009 -0.1389 -0.3217
   48DPPC    P8 2358   8.185   0.231   1.140  0.2321 -0.0710 -0.0337
   48DPPC    O9 2359   8.247   0.114   1.073  0.3118 -0.1259  0.1368
   48DPPC   O10 2360   8.043   0.262   1.111  0.3190  0.6218  0.2559
   48DPPC   O11 2361   8.215   0.242   1.298  0.0881  0.3773 -0.0365
   48DPPC   C12 2362   8.353   0.240   1.337  0.1782  0.3539 -0.3467
   48DPPC   C13 2363   8.355   0.284   1.484 -0.0076 -0.1950 -0.1750
   48DPPC   O14 2364   8.478   0.287   1.558  0.0288  0.3495 -0.2500
   48DPPC   C15 2365   8.564   0.392   1.547  0.1308  0.2782 -0.1374
   48DPPC   O16 2366   8.541   0.469   1.455 -0.6955  0.1972 -0.0094
   48DPPC   C17 2367   8.699   0.400   1.619  0.1422  0.1648 -0.1468
   48DPPC   C18 2368   8.690   0.321   1.750 -0.1174  0.0414 -0.2370
   48DPPC   C19 2369   8.829   0.328   1.813 -0.4893  0.0444  0.6037
   48DPPC   C20 2370   8.843   0.269   1.953  0.2537 -0.2417  0.4129
   48DPPC   C21 2371   8.756   0.342   2.056 -0.0252  0.3802 -0.2582
   48DPPC   C22 2372   8.781   0.268   2.188 -0.2406  0.0720 -0.3890
   48DPPC   C23 2373   8.681   0.153   2.172 -0.3239  0.0495  0.2733
   48DPPC   C24 2374   8.672   0.059   2.291 -0.3128 -0.5836 -0.2206
   48DPPC   C25 2375   8.655   0.139   2.420  1.0555  0.3176 -0.5835
   48DPPC   C26 2376   8.639   0.048   2.542  0.0577  0.2162 -0.7854
   48DPPC   C27 2377   8.493   0.003   2.552  0.1241  0.1798  0.1122
   48DPPC   C28 2378   8.445  -0.065   2.680 -0.4382 -0.0227 -0.2046
   48DPPC   C29 2379   8.318  -0.149   2.662 -0.6573  0.1575  0.4828
   48DPPC   C30 2380   8.257  -0.205   2.791 -0.1768 -0.7220  0.3333
   48DPPC   C31 2381   8.156  -0.311   2.745  0.0271 -0.7671 -0.0155
   48DPPC   C32 2382   8.245   0.203   1.551  0.0628  0.0434  0.2384
   48DPPC   O33 2383   8.221   0.209   1.692  0.0327 -0.5647  0.2622
   48DPPC   C34 2384   8.154   0.317   1.737  0.4280 -0.2470  0.0986
   48DPPC   O35 2385   8.138   0.410   1.658 -0.0691 -0.5284 -0.1363
   48DPPC   C36 2386   8.109   0.323   1.883 -0.0932 -0.5594 -0.0480
   48DPPC   C37 2387   8.218   0.347   1.988 -0.2750  0.0999 -0.0040
   48DPPC   C38 2388   8.150   0.360   2.124 -0.0461 -0.1687  0.1362
   48DPPC   C39 2389   8.263   0.381   2.224 -0.1150 -0.2481  0.2318
   48DPPC   C40 2390   8.213   0.374   2.369 -0.3069  0.5214  0.2069
   48DPPC   C41 2391   8.148   0.504   2.414 -0.5612  0.5305 -0.1824
   48DPPC   C42 2392   8.114   0.489   2.562  0.3574 -0.0585 -0.0279
   48DPPC   C43 2393   8.091   0.627   2.624 -0.6755 -0.2548  0.0308
   48DPPC   C44 2394   8.039   0.630   2.768  0.1162  0.2335  0.3112
   48DPPC   C45 2395   8.034   0.777   2.810 -0.3970  0.4703 -0.5369
   48DPPC   C46 2396   8.011   0.804   2.959 -0.0546  0.4635 -0.4819
   48DPPC   C47 2397   8.119   0.732   3.040 -0.2650  0.0884 -0.5310
   48DPPC   C48 2398   8.125   0.761   3.191 -0.0740 -0.4633 -0.4325
   48DPPC   C49 2399   8.163   0.906   3.218  0.5268 -0.7397  0.2206
   48DPPC   C50 2400   8.171   0.923   3.370 -0.1639 -0.1171  0.1941
   49DPPC    C1 2401   4.268   7.384   2.249  0.3102  0.0212  0.1108
   49DPPC    C2 2402   4.201   7.395   2.487  0.4704 -0.2029  0.1392
   49DPPC    C3 2403   4.228   7.584   2.355  0.3340  0.4311 -0.4995
   49DPPC    N4 2404   4.181   7.445   2.350  0.6838  0.2772  0.2814
   49DPPC    C5 2405   4.043   7.449   2.298  0.6445 -0.5229  0.3094
   49DPPC    C6 2406   3.973   7.316   2.268 -0.4402  0.1612 -0.2417
   49DPPC    O7 2407   3.844   7.339   2.212 -0.6519 -0.0170  0.1749
   49DPPC    P8 2408   3.797   7.245   2.090 -0.0027 -0.2150  0.0785
   49DPPC    O9 2409   3.916   7.251   2.002 -0.1175 -0.0637 -0.0688
   49DPPC   O10 2410   3.672   7.315   2.052 -0.0431 -0.0772  0.4586
   49DPPC   O11 2411   3.798   7.118   2.188 -0.0802 -0.1521  0.1610
   49DPPC   C12 2412   3.672   7.050   2.185  0.0515 -0.3854 -0.2367
   49DPPC   C13 2413   3.668   6.922   2.270  0.4264 -0.5671 -0.4928
   49DPPC   O14 2414   3.552   6.839   2.259  0.1645 -0.2986  0.2082
   49DPPC   C15 2415   3.535   6.764   2.147 -0.1084  0.4459 -0.2581
   49DPPC   O16 2416   3.613   6.765   2.052  0.6697  0.1832  0.3635
   49DPPC   C17 2417   3.422   6.661   2.158  0.0663  0.2977  0.1713
   49DPPC   C18 2418   3.481   6.539   2.229 -0.1612  0.2537  0.2851
   49DPPC   C19 2419   3.375   6.432   2.257 -0.1487  0.1366 -0.1123
   49DPPC   C20 2420   3.273   6.474   2.363 -0.2648  0.0095 -0.1738
   49DPPC   C21 2421   3.163   6.368   2.373 -0.2805  0.0521  0.1066
   49DPPC   C22 2422   3.068   6.395   2.490  0.3278 -0.1089  0.6455
   49DPPC   C23 2423   2.942   6.308   2.481  0.0916  0.3364 -0.7147
   49DPPC   C24 2424   2.962   6.156   2.483 -0.5485  0.2536  0.1378
   49DPPC   C25 2425   2.833   6.087   2.529 -0.5168 -0.0737 -0.2583
   49DPPC   C26 2426   2.845   5.936   2.509 -0.5454 -0.0339 -0.5695
   49DPPC   C27 2427   2.747   5.848   2.587 -0.5928  0.3054 -0.2434
   49DPPC   C28 2428   2.777   5.699   2.567  0.7711  0.4871  0.3341
   49DPPC   C29 2429   2.679   5.616   2.651 -0.2520  0.7840 -0.5506
   49DPPC   C30 2430   2.692   5.615   2.803  0.2518  0.3554 -0.5921
   49DPPC   C31 2431   2.702   5.471   2.853 -0.0779  0.7080  0.5237
   49DPPC   C32 2432   3.711   6.974   2.407 -0.8199 -0.3641 -0.1716
   49DPPC   O33 2433   3.611   7.060   2.463 -0.1260  0.3218  0.0306
   49DPPC   C34 2434   3.638   7.109   2.587 -0.3809  0.6152 -0.0291
   49DPPC   O35 2435   3.738   7.081   2.653 -0.6214  0.4209  0.2548
   49DPPC   C36 2436   3.512   7.168   2.651 -0.6849 -0.0905  0.0293
   49DPPC   C37 2437   3.509   7.318   2.623  0.3763 -0.1360 -0.3874
   49DPPC   C38 2438   3.397   7.382   2.706  0.1869 -0.3902 -0.4478
   49DPPC   C39 2439   3.353   7.515   2.645  0.4951 -0.1128 -0.0727
   49DPPC   C40 2440   3.245   7.581   2.732  0.1538 -0.5226 -0.1820
   49DPPC   C41 2441   3.114   7.503   2.725 -0.3437  0.3061 -0.1153
   49DPPC   C42 2442   3.000   7.554   2.814 -0.4490  0.1508 -0.1619
   49DPPC   C43 2443   2.879   7.462   2.794  0.1769 -0.5417 -0.8111
   49DPPC   C44 2444   2.751   7.535   2.835  0.3672 -0.6920  0.0530
   49DPPC   C45 2445   2.755   7.575   2.983 -0.2409  0.0320 -0.1207
   49DPPC   C46 2446   2.619   7.632   3.024 -0.1510  0.1135  0.0663
   49DPPC   C47 2447   2.508   7.530   2.999 -0.1252 -0.0227  0.4980
   49DPPC   C48 2448   2.372   7.586   3.043 -0.1436  0.2908  0.0594
   49DPPC   C49 2449   2.246   7.513   2.997  0.0810 -0.0906  0.0414
   49DPPC   C50 2450   2.249   7.495   2.846 -0.1428 -0.5539  0.0894
   50DPPC    C1 2451   5.546   1.971   1.441 -0.0709 -0.1548 -0.5550
   50DPPC    C2 2452   5.595   1.785   1.280 -0.5462 -0.1974  0.0637
   50DPPC    C3 2453   5.756   1.925   1.363 -0.2695 -0.0345 -0.4757
   50DPPC    N4 2454   5.631   1.858   1.403 -0.0030 -0.2813 -0.0443
   50DPPC    C5 2455   5.663   1.752   1.498 -0.1472 -0.1594  0.1406
   50DPPC    C6 2456   5.556   1.694   1.591 -0.1140 -0.1692  0.1732
   50DPPC    O7 2457   5.609   1.588   1.670  0.2316  0.1983  0.4352
   50DPPC    P8 2458   5.486   1.487   1.693  0.2170  0.1457  0.1240
   50DPPC    O9 2459   5.572   1.377   1.740  0.3003  0.1651  0.0168
   50DPPC   O10 2460   5.418   1.476   1.561 -0.0664 -0.1027  0.2891
   50DPPC   O11 2461   5.415   1.576   1.807 -0.0979 -0.0122  0.0532
   50DPPC   C12 2462   5.472   1.540   1.933 -0.2958 -0.1513  0.1041
   50DPPC   C13 2463   5.396   1.599   2.052  0.1427  0.1517  0.2376
   50DPPC   O14 2464   5.445   1.557   2.180  0.4087  0.4106  0.2232
   50DPPC   C15 2465   5.542   1.625   2.247 -0.1634  0.9599  0.5002
   50DPPC   O16 2466   5.617   1.703   2.188  0.5962  0.1114  0.3202
   50DPPC   C17 2467   5.600   1.553   2.369 -0.1267 -0.0363 -0.0908
   50DPPC   C18 2468   5.507   1.575   2.488  0.1462  0.4604  0.0309
   50DPPC   C19 2469   5.561   1.489   2.602  0.5462  0.9335  0.2006
   50DPPC   C20 2470   5.477   1.497   2.729  0.1470 -0.1749  0.0203
   50DPPC   C21 2471   5.556   1.448   2.850 -0.2976  0.2344  0.4831
   50DPPC   C22 2472   5.497   1.477   2.988 -0.1367  0.0791  0.5855
   50DPPC   C23 2473   5.583   1.417   3.099 -0.5590 -0.4222  0.6520
   50DPPC   C24 2474   5.517   1.455   3.232 -0.0851  0.7021  0.5867
   50DPPC   C25 2475   5.378   1.390   3.240  0.0851  0.2901  0.2291
   50DPPC   C26 2476   5.294   1.457   3.348  0.1015  0.2122  0.2897
   50DPPC   C27 2477   5.236   1.592   3.307 -0.5229  0.0179  0.5128
   50DPPC   C28 2478   5.146   1.669   3.404 -0.0290  0.5281  0.5723
   50DPPC   C29 2479   5.146   1.816   3.364  0.0973  0.3573 -0.0659
   50DPPC   C30 2480   5.073   1.893   3.474 -0.5470 -0.1504 -0.1331
   50DPPC   C31 2481   5.093   2.043   3.457  0.1548 -0.2404 -0.1279
   50DPPC   C32 2482   5.246   1.586   2.026  0.1490  0.5895 -0.0499
   50DPPC   O33 2483   5.161   1.666   2.110  0.2512  0.2338  0.4006
   50DPPC   C34 2484   5.134   1.624   2.236  0.2823  0.0083  0.3323
   50DPPC   O35 2485   5.105   1.504   2.246 -0.4194  0.0900 -0.5854
   50DPPC   C36 2486   5.052   1.732   2.307 -0.1372 -0.3656  0.4243
   50DPPC   C37 2487   5.116   1.782   2.436  0.1627  0.1369  0.0841
   50DPPC   C38 2488   5.049   1.904   2.499  0.2048  0.2119 -0.0173
   50DPPC   C39 2489   4.906   1.869   2.541  0.3982  0.0307  0.4955
   50DPPC   C40 2490   4.856   2.008   2.582  0.0830  0.1780 -0.3655
   50DPPC   C41 2491   4.707   2.017   2.618  0.2421 -0.1689  0.3919
   50DPPC   C42 2492   4.675   1.911   2.724  0.3702 -0.2509  0.3494
   50DPPC   C43 2493   4.582   1.947   2.840  0.3625  0.3628  0.1543
   50DPPC   C44 2494   4.565   1.824   2.928 -0.1167  0.1865 -0.1803
   50DPPC   C45 2495   4.492   1.844   3.061  0.2833 -0.4718  0.1429
   50DPPC   C46 2496   4.473   1.707   3.127 -0.1496 -0.5969 -0.2415
   50DPPC   C47 2497   4.371   1.709   3.241  0.0326  0.8557 -0.0846
   50DPPC   C48 2498   4.438   1.783   3.357  0.1700  0.8270 -0.1460
   50DPPC   C49 2499   4.339   1.807   3.471  0.1807  0.7813 -0.1268
   50DPPC   C50 2500   4.393   1.878   3.595  0.0662 -0.5460  0.7015
   51DPPC    C1 2501   4.057   5.679   1.896  0.3078 -0.5892  0.3722
   51DPPC    C2 2502   4.256   5.795   1.890 -0.2614 -0.6442 -0.2037
   51DPPC    C3 2503   4.092   5.849   1.731 -0.4020  0.2621 -0.0106
   51DPPC    N4 2504   4.111   5.813   1.873 -0.2387 -0.4693 -0.2126
   51DPPC    C5 2505   4.066   5.910   1.974 -0.2592 -0.2840 -0.3976
   51DPPC    C6 2506   3.920   5.953   1.959 -0.2284  0.0203  0.1434
   51DPPC    O7 2507   3.824   5.857   2.004  0.1602 -0.4299  0.0231
   51DPPC    P8 2508   3.678   5.905   1.955  0.3474  0.1889  0.0650
   51DPPC    O9 2509   3.591   5.789   1.926  0.5875  0.0005  0.0929
   51DPPC   O10 2510   3.680   6.004   1.845 -0.3737 -0.0518 -0.1680
   51DPPC   O11 2511   3.626   5.982   2.087  0.3009  0.0316  0.1384
   51DPPC   C12 2512   3.636   5.893   2.198 -0.1214  0.1310  0.2576
   51DPPC   C13 2513   3.747   5.933   2.296  0.1368 -0.4239  0.2009
   51DPPC   O14 2514   3.781   5.826   2.385 -0.4010 -0.2790  0.5908
   51DPPC   C15 2515   3.902   5.764   2.390 -0.2915 -0.0820  0.4459
   51DPPC   O16 2516   3.991   5.772   2.306 -0.5287  0.3172  0.2296
   51DPPC   C17 2517   3.902   5.649   2.491 -0.3556 -0.5693 -0.1045
   51DPPC   C18 2518   3.943   5.704   2.628  0.6162 -0.2398 -0.5226
   51DPPC   C19 2519   3.981   5.580   2.709  0.5124  0.0712  0.0022
   51DPPC   C20 2520   4.015   5.644   2.844  0.2448 -0.2644  0.2325
   51DPPC   C21 2521   3.994   5.557   2.968 -0.6190 -0.3939  0.0029
   51DPPC   C22 2522   4.073   5.427   2.948 -0.0558 -0.0944  0.2383
   51DPPC   C23 2523   4.070   5.338   3.072  0.0495  0.0818  0.3677
   51DPPC   C24 2524   4.131   5.199   3.048  0.0121  0.1204  0.0467
   51DPPC   C25 2525   4.196   5.144   3.175 -0.1636  0.1319  0.1426
   51DPPC   C26 2526   4.254   5.003   3.167  0.2134  0.2864  0.1568
   51DPPC   C27 2527   4.352   4.987   3.284  0.5767 -0.0954 -0.1941
   51DPPC   C28 2528   4.431   4.858   3.260  0.1463 -0.4323  0.1837
   51DPPC   C29 2529   4.338   4.737   3.266 -0.1178 -0.2216  0.3949
   51DPPC   C30 2530   4.419   4.609   3.247 -0.1197 -0.1829  0.1295
   51DPPC   C31 2531   4.478   4.598   3.106  0.2505  0.3377  0.2417
   51DPPC   C32 2532   3.720   6.072   2.354  0.3880 -0.3003  0.0260
   51DPPC   O33 2533   3.592   6.077   2.420  0.2469 -0.0753 -0.2620
   51DPPC   C34 2534   3.555   6.190   2.485  0.1266 -0.3234  0.1005
   51DPPC   O35 2535   3.631   6.285   2.502  0.0326 -0.1189 -0.6089
   51DPPC   C36 2536   3.416   6.195   2.550 -0.0174 -0.1850 -0.2148
   51DPPC   C37 2537   3.449   6.171   2.698  0.0492 -0.5582 -0.2910
   51DPPC   C38 2538   3.327   6.148   2.787  0.5370  0.5879  0.6983
   51DPPC   C39 2539   3.223   6.260   2.791 -0.2387 -0.0715 -0.4571
   51DPPC   C40 2540   3.113   6.248   2.897  0.1312  0.4144 -0.0136
   51DPPC   C41 2541   3.181   6.218   3.031  0.1953 -0.6160 -0.2672
   51DPPC   C42 2542   3.083   6.232   3.147  0.4879  0.6534 -0.1590
   51DPPC   C43 2543   3.138   6.155   3.267 -0.6314 -0.2083 -0.1792
   51DPPC   C44 2544   3.096   6.214   3.402 -0.4508 -0.1973 -0.1273
   51DPPC   C45 2545   3.150   6.123   3.512  0.2976  0.1838 -0.1710
   51DPPC   C46 2546   3.087   6.173   3.642  0.0159 -0.1689 -0.1703
   51DPPC   C47 2547   2.943   6.126   3.622  0.0188 -0.4077  0.3399
   51DPPC   C48 2548   2.857   6.184   3.735 -0.2032  0.2484 -0.1579
   51DPPC   C49 2549   2.716   6.125   3.733 -0.3298  0.5584 -0.3245
   51DPPC   C50 2550   2.653   6.184   3.859 -0.5436  0.1072 -0.2182
   52DPPC    C1 2551   0.792   6.103   1.428 -0.2773  0.5373  0.7434
   52DPPC    C2 2552   0.846   6.177   1.638  0.1401 -0.7860  0.3700
   52DPPC    C3 2553   1.022   6.135   1.490  0.2425  0.0687 -0.0276
   52DPPC    N4 2554   0.887   6.192   1.498  0.2933  0.1204  0.5068
   52DPPC    C5 2555   0.850   6.329   1.458 -0.6066 -0.1770  0.3058
   52DPPC    C6 2556   0.938   6.441   1.512 -0.0047 -0.6380  0.2859
   52DPPC    O7 2557   0.908   6.479   1.647 -0.5472  0.1613 -0.0555
   52DPPC    P8 2558   1.016   6.567   1.727 -0.0729  0.0362 -0.5484
   52DPPC    O9 2559   0.943   6.600   1.852  0.3789 -0.3936 -0.1713
   52DPPC   O10 2560   1.066   6.672   1.635  0.1616  0.6941  0.3151
   52DPPC   O11 2561   1.121   6.446   1.730 -0.1834 -0.0488 -0.0572
   52DPPC   C12 2562   1.096   6.368   1.848  0.2163  0.4604  0.3707
   52DPPC   C13 2563   1.169   6.236   1.822 -0.2816  0.2948 -0.1989
   52DPPC   O14 2564   1.112   6.137   1.908 -0.3339  0.1921 -0.3510
   52DPPC   C15 2565   1.107   6.003   1.882  0.2847  0.1891 -0.4725
   52DPPC   O16 2566   1.158   5.956   1.780  0.2338 -0.0530 -0.3855
   52DPPC   C17 2567   1.033   5.929   1.993  0.2984  0.1592 -0.4834
   52DPPC   C18 2568   0.888   5.891   1.960  0.1503  0.3283 -0.0360
   52DPPC   C19 2569   0.834   5.803   2.072  0.2999  0.0680 -0.1676
   52DPPC   C20 2570   0.685   5.783   2.048  0.2368  0.5227 -0.1715
   52DPPC   C21 2571   0.637   5.646   2.098  0.0017  0.7832  0.3204
   52DPPC   C22 2572   0.629   5.640   2.251 -0.0483  0.1159  0.2954
   52DPPC   C23 2573   0.590   5.499   2.294 -0.7531  0.2076 -0.0382
   52DPPC   C24 2574   0.561   5.483   2.443  0.0183 -0.5290  0.0396
   52DPPC   C25 2575   0.446   5.568   2.498 -0.1248 -0.4423 -0.3940
   52DPPC   C26 2576   0.416   5.550   2.646  0.7021 -0.2630 -0.1975
   52DPPC   C27 2577   0.291   5.634   2.674  0.3078 -0.8201 -0.2686
   52DPPC   C28 2578   0.245   5.621   2.819  0.2413  0.0660 -0.2077
   52DPPC   C29 2579   0.136   5.726   2.844  0.5442  0.2546  0.3599
   52DPPC   C30 2580   0.109   5.718   2.994  0.0132 -0.3729  0.2361
   52DPPC   C31 2581  -0.006   5.814   3.026  0.0124 -0.2504 -0.1308
   52DPPC   C32 2582   1.319   6.260   1.837 -0.1716 -0.1334 -0.5870
   52DPPC   O33 2583   1.363   6.304   1.966 -0.0171 -0.0632 -0.6628
   52DPPC   C34 2584   1.493   6.321   2.000 -0.0723 -0.1962 -0.3786
   52DPPC   O35 2585   1.581   6.316   1.914  0.6000  0.0570  0.2868
   52DPPC   C36 2586   1.514   6.384   2.138 -0.0306  0.0528 -0.4979
   52DPPC   C37 2587   1.631   6.326   2.218 -0.5098  0.1738  0.3082
   52DPPC   C38 2588   1.624   6.174   2.202  0.1783  0.0979  0.7220
   52DPPC   C39 2589   1.756   6.109   2.243  0.4031  0.3024  0.3293
   52DPPC   C40 2590   1.775   6.137   2.392 -0.4572  0.1216  0.4760
   52DPPC   C41 2591   1.896   6.065   2.451  0.0897  0.5724 -0.0905
   52DPPC   C42 2592   1.966   6.154   2.554  0.4454  0.0403  0.1370
   52DPPC   C43 2593   1.888   6.178   2.683  0.0521 -0.2164 -0.0499
   52DPPC   C44 2594   1.847   6.043   2.742 -0.1478 -0.3670 -0.5275
   52DPPC   C45 2595   1.754   6.061   2.862  0.3640  0.2318 -0.2103
   52DPPC   C46 2596   1.717   5.922   2.913  0.2560  0.2528 -0.2306
   52DPPC   C47 2597   1.719   5.921   3.066 -0.0719  0.2924 -0.2248
   52DPPC   C48 2598   1.851   5.980   3.115 -0.0903  0.0939  0.0662
   52DPPC   C49 2599   1.870   6.019   3.262  0.3614 -0.0777  0.0551
   52DPPC   C50 2600   2.018   6.057   3.266  0.2442  0.3575  0.2291
   53DPPC    C1 2601   4.682   3.320   1.322  0.0477 -0.0675 -0.0041
   53DPPC    C2 2602   4.465   3.230   1.393 -0.3121  0.9247  0.2250
   53DPPC    C3 2603   4.549   3.189   1.178  0.3019  0.1552 -0.2130
   53DPPC    N4 2604   4.589   3.206   1.318 -0.5413  0.4018  0.0047
   53DPPC    C5 2605   4.655   3.083   1.366 -0.1876  0.5400 -0.1211
   53DPPC    C6 2606   4.704   3.081   1.511 -0.4492 -0.7371 -0.0376
   53DPPC    O7 2607   4.779   2.961   1.532  0.4604 -0.1239  0.2885
   53DPPC    P8 2608   4.736   2.917   1.681 -0.0960  0.0903  0.1961
   53DPPC    O9 2609   4.803   2.787   1.706 -0.3679 -0.0717  0.0898
   53DPPC   O10 2610   4.591   2.940   1.697 -0.1581 -0.1298 -0.0459
   53DPPC   O11 2611   4.809   3.051   1.733  0.2145  0.0227 -0.0592
   53DPPC   C12 2612   4.907   3.035   1.836  0.2140 -0.2994 -0.1067
   53DPPC   C13 2613   4.989   3.159   1.870 -0.0428 -0.2359  0.2964
   53DPPC   O14 2614   5.106   3.133   1.948  0.0478 -0.3504  0.1231
   53DPPC   C15 2615   5.207   3.224   1.951 -0.1335 -0.1402 -0.0806
   53DPPC   O16 2616   5.203   3.326   1.882  0.3384 -0.5058 -0.6598
   53DPPC   C17 2617   5.301   3.221   2.072  0.1939  0.4803 -0.3153
   53DPPC   C18 2618   5.220   3.197   2.199  0.2982  0.2116 -0.2991
   53DPPC   C19 2619   5.121   3.310   2.227  0.3593  0.1301  0.2741
   53DPPC   C20 2620   5.029   3.282   2.346  0.3491 -0.0807  0.2155
   53DPPC   C21 2621   4.963   3.144   2.334  0.3698 -0.0869  0.1729
   53DPPC   C22 2622   4.911   3.095   2.469  0.2605 -0.1755  0.0987
   53DPPC   C23 2623   4.831   3.204   2.542 -0.0731 -0.2529 -0.1480
   53DPPC   C24 2624   4.817   3.171   2.691 -0.2316 -0.3287 -0.1794
   53DPPC   C25 2625   4.726   3.270   2.763 -0.0819 -0.3465  0.0332
   53DPPC   C26 2626   4.731   3.232   2.912 -0.3953 -0.4844  0.0078
   53DPPC   C27 2627   4.626   3.313   2.988 -0.6080 -1.0542  0.3257
   53DPPC   C28 2628   4.634   3.274   3.136  0.3145  0.1218  0.6048
   53DPPC   C29 2629   4.624   3.129   3.186  0.3372 -0.1704 -0.2252
   53DPPC   C30 2630   4.620   3.127   3.339  0.0729 -0.3100 -0.2340
   53DPPC   C31 2631   4.583   2.989   3.395 -0.4076  0.1453  0.5747
   53DPPC   C32 2632   4.894   3.272   1.911 -0.1425 -0.1571 -0.1419
   53DPPC   O33 2633   4.791   3.251   2.008 -0.1989 -0.3023 -0.2334
   53DPPC   C34 2634   4.709   3.358   2.027  0.4495  0.0976  0.3351
   53DPPC   O35 2635   4.741   3.469   1.985  0.4564  0.0553  0.2268
   53DPPC   C36 2636   4.580   3.323   2.101  0.1591  0.4832  0.0162
   53DPPC   C37 2637   4.601   3.299   2.251 -0.1702  0.6035  0.0823
   53DPPC   C38 2638   4.461   3.274   2.307 -0.1616 -0.1198 -0.2135
   53DPPC   C39 2639   4.471   3.283   2.459 -0.4813 -0.2262 -0.1846
   53DPPC   C40 2640   4.348   3.235   2.536 -0.5034  0.2949  0.1076
   53DPPC   C41 2641   4.370   3.237   2.687 -0.3113  0.0581  0.0827
   53DPPC   C42 2642   4.236   3.212   2.755 -0.3212  0.3046  0.1578
   53DPPC   C43 2643   4.261   3.235   2.904 -0.2707  0.2266  0.1619
   53DPPC   C44 2644   4.138   3.181   2.977  0.1589 -0.5206  0.3442
   53DPPC   C45 2645   4.187   3.203   3.121  0.6091 -0.3417  0.1624
   53DPPC   C46 2646   4.081   3.170   3.226  0.1261 -0.4244 -0.3466
   53DPPC   C47 2647   4.158   3.204   3.353 -0.3162 -0.5225 -0.0526
   53DPPC   C48 2648   4.097   3.150   3.483 -0.3304 -0.1211  0.1080
   53DPPC   C49 2649   4.200   3.164   3.595  0.2415 -0.3624 -0.3826
   53DPPC   C50 2650   4.148   3.092   3.720  0.3721  0.1479 -0.0293
   54DPPC    C1 2651   6.227   0.313   1.800 -0.0717 -0.4360 -0.2070
   54DPPC    C2 2652   6.162   0.243   1.582  0.2044 -0.4417  0.1614
   54DPPC    C3 2653   6.332   0.417   1.604  0.3127  0.2439  0.2046
   54DPPC    N4 2654   6.275   0.294   1.662  0.2042  0.1086 -0.1872
   54DPPC    C5 2655   6.368   0.181   1.663 -0.3622 -0.3553  0.2087
   54DPPC    C6 2656   6.507   0.199   1.724 -0.3473  0.0523  0.0538
   54DPPC    O7 2657   6.514   0.214   1.866 -0.4048  0.5876  0.0024
   54DPPC    P8 2658   6.644   0.295   1.916 -0.1470  0.1150  0.1043
   54DPPC    O9 2659   6.613   0.427   1.856  0.0612 -0.0838 -0.4550
   54DPPC   O10 2660   6.753   0.204   1.876 -0.1932  0.1827 -0.1851
   54DPPC   O11 2661   6.608   0.284   2.072  0.4496  0.5838  0.2798
   54DPPC   C12 2662   6.485   0.355   2.091  0.4581  0.5216  0.5740
   54DPPC   C13 2663   6.463   0.392   2.238 -0.1956  0.1495  0.5742
   54DPPC   O14 2664   6.539   0.511   2.268  0.4219 -0.2272  0.5260
   54DPPC   C15 2665   6.496   0.634   2.228  0.1770 -0.5763 -0.3129
   54DPPC   O16 2666   6.391   0.648   2.166  0.1671  0.0667 -0.1554
   54DPPC   C17 2667   6.596   0.743   2.267 -0.2374 -0.3459  0.1107
   54DPPC   C18 2668   6.657   0.723   2.405  0.1682  1.1294  0.1612
   54DPPC   C19 2669   6.558   0.718   2.522 -0.1317 -0.1163 -0.1378
   54DPPC   C20 2670   6.608   0.691   2.664  0.0130 -0.0595 -0.1773
   54DPPC   C21 2671   6.500   0.674   2.771  0.3310 -0.4687  0.0832
   54DPPC   C22 2672   6.554   0.649   2.911 -0.3284 -0.2612  0.3811
   54DPPC   C23 2673   6.439   0.647   3.012 -0.6421 -0.6101  0.0167
   54DPPC   C24 2674   6.473   0.625   3.159 -0.2133  0.7300  0.1299
   54DPPC   C25 2675   6.344   0.599   3.236 -0.0041 -0.1141  0.2128
   54DPPC   C26 2676   6.248   0.718   3.224 -0.0169 -0.1796 -0.3245
   54DPPC   C27 2677   6.301   0.838   3.303 -0.1110 -0.2785 -0.1112
   54DPPC   C28 2678   6.182   0.926   3.342  0.0021  0.0334 -0.4636
   54DPPC   C29 2679   6.217   1.029   3.450  0.1300 -0.6032  0.1040
   54DPPC   C30 2680   6.116   1.034   3.565  0.2175  0.0488  0.1543
   54DPPC   C31 2681   6.171   1.111   3.685 -0.1797  0.2132  0.2346
   54DPPC   C32 2682   6.497   0.262   2.311 -0.8488 -0.4073 -0.0964
   54DPPC   O33 2683   6.481   0.261   2.453 -0.5286 -0.1272 -0.0548
   54DPPC   C34 2684   6.505   0.139   2.508  0.0481  0.1343  0.2810
   54DPPC   O35 2685   6.580   0.068   2.442 -0.1106  0.1685  0.0639
   54DPPC   C36 2686   6.464   0.097   2.650 -0.4850  0.0346  0.1000
   54DPPC   C37 2687   6.481   0.205   2.757 -0.4119  0.0692  0.0544
   54DPPC   C38 2688   6.526   0.134   2.885  0.6026  0.2511 -0.1978
   54DPPC   C39 2689   6.531   0.244   2.992  0.4160  0.0395  0.0313
   54DPPC   C40 2690   6.592   0.190   3.121  0.2617 -0.3334 -0.0515
   54DPPC   C41 2691   6.603   0.298   3.228 -0.1782 -0.3305 -0.0074
   54DPPC   C42 2692   6.645   0.232   3.360  0.0545  0.5654  0.3729
   54DPPC   C43 2693   6.654   0.333   3.475  0.2670  0.7472  0.1999
   54DPPC   C44 2694   6.676   0.261   3.608  0.3745 -0.0143 -0.2220
   54DPPC   C45 2695   6.688   0.356   3.728  0.1784 -0.1352 -0.1067
   54DPPC   C46 2696   6.718   0.278   3.856  0.1747  0.2347  0.1201
   54DPPC   C47 2697   6.701   0.366   3.980 -0.8615  0.2880 -0.0532
   54DPPC   C48 2698   6.747   0.308   4.113 -0.1732  0.6416 -0.1325
   54DPPC   C49 2699   6.896   0.274   4.121 -0.2959  0.2055  0.4344
   54DPPC   C50 2700   6.958   0.281   4.261 -0.4200  0.1821  0.4897
   55DPPC    C1 2701   0.254   7.192   1.747  0.5699 -0.1512  0.1591
   55DPPC    C2 2702   0.366   7.388   1.822  0.2020 -0.0217 -0.0252
   55DPPC    C3 2703   0.399   7.296   1.597  0.0753  0.0937 -0.0594
   55DPPC    N4 2704   0.304   7.323   1.706  0.1275 -0.0257  0.0170
   55DPPC    C5 2705   0.190   7.409   1.668  0.0934 -0.1234 -0.1022
   55DPPC    C6 2706   0.110   7.400   1.538 -0.1888  0.0790  0.0571
   55DPPC    O7 2707   0.013   7.504   1.526 -0.6869 -0.4055 -0.1661
   55DPPC    P8 2708  -0.064   7.497   1.385 -0.0947 -0.1984 -0.5035
   55DPPC    O9 2709   0.019   7.407   1.302  0.3003  0.2840 -0.6334
   55DPPC   O10 2710  -0.115   7.630   1.344  0.1896  0.1318  0.1982
   55DPPC   O11 2711  -0.186   7.416   1.452  0.5567 -0.4881  0.3532
   55DPPC   C12 2712  -0.245   7.499   1.553 -0.3694 -0.1026 -0.4887
   55DPPC   C13 2713  -0.328   7.407   1.643  0.0488  0.5467  0.5687
   55DPPC   O14 2714  -0.411   7.469   1.742  0.3173  0.8012  0.6382
   55DPPC   C15 2715  -0.543   7.437   1.733  0.5645 -0.0712 -0.0209
   55DPPC   O16 2716  -0.596   7.387   1.634 -0.2298  0.2603  0.2230
   55DPPC   C17 2717  -0.636   7.473   1.849  1.0891 -0.3297  0.4838
   55DPPC   C18 2718  -0.650   7.371   1.962 -0.1906  0.0240  0.6680
   55DPPC   C19 2719  -0.680   7.228   1.917 -0.0200  0.1888  0.0192
   55DPPC   C20 2720  -0.661   7.141   2.042 -0.1317 -0.0770 -0.1472
   55DPPC   C21 2721  -0.667   6.992   2.008 -0.8962  0.0294 -0.4971
   55DPPC   C22 2722  -0.642   6.910   2.135 -0.0747  0.4081 -0.4071
   55DPPC   C23 2723  -0.755   6.943   2.233 -0.0614 -0.6636 -0.0194
   55DPPC   C24 2724  -0.709   6.902   2.373  0.3292  0.1523  0.0965
   55DPPC   C25 2725  -0.592   6.977   2.438  0.4229  0.4420 -0.4012
   55DPPC   C26 2726  -0.564   6.927   2.580 -0.0121 -0.0025 -0.4674
   55DPPC   C27 2727  -0.438   6.984   2.645  0.1249 -0.5843 -0.2113
   55DPPC   C28 2728  -0.449   6.938   2.791 -0.5800  0.9884  0.2463
   55DPPC   C29 2729  -0.324   6.949   2.878 -0.5826 -0.2852  0.4196
   55DPPC   C30 2730  -0.346   6.897   3.021 -0.0368 -0.6883  0.3615
   55DPPC   C31 2731  -0.446   6.997   3.079  0.1590 -0.0854 -0.3250
   55DPPC   C32 2732  -0.218   7.319   1.704 -0.1162 -0.1168 -0.0879
   55DPPC   O33 2733  -0.247   7.225   1.808  0.4832  0.2774  0.4408
   55DPPC   C34 2734  -0.139   7.160   1.859  0.2155 -0.0407  0.6046
   55DPPC   O35 2735  -0.029   7.159   1.805 -0.0073  0.1721  0.1435
   55DPPC   C36 2736  -0.168   7.053   1.965  0.0063 -0.3189  0.2671
   55DPPC   C37 2737  -0.221   7.115   2.094 -0.0464  0.3225 -0.0603
   55DPPC   C38 2738  -0.134   7.223   2.159 -0.1242  0.5315 -0.2992
   55DPPC   C39 2739  -0.195   7.246   2.298 -0.3465  0.3556 -0.3664
   55DPPC   C40 2740  -0.342   7.289   2.291 -0.4117  0.2409  0.2691
   55DPPC   C41 2741  -0.383   7.301   2.438 -0.0218 -0.3855  0.4331
   55DPPC   C42 2742  -0.278   7.372   2.523  0.1181 -0.4139  0.2852
   55DPPC   C43 2743  -0.314   7.390   2.671 -0.0564 -0.0809  0.2031
   55DPPC   C44 2744  -0.202   7.467   2.740 -0.5399  0.6910  0.1363
   55DPPC   C45 2745  -0.208   7.454   2.892 -0.6583  0.1030  0.0824
   55DPPC   C46 2746  -0.191   7.307   2.932  0.4269  0.3438  0.5267
   55DPPC   C47 2747  -0.176   7.292   3.083  0.3075  0.2188  0.5257
   55DPPC   C48 2748  -0.305   7.350   3.142  0.0395 -0.0878  0.2470
   55DPPC   C49 2749  -0.308   7.308   3.289 -0.2475 -0.2588  0.1924
   55DPPC   C50 2750  -0.207   7.383   3.376 -0.0894  0.2559 -0.4231
   56DPPC    C1 2751   4.208   1.925   2.339 -0.1668  0.3257  0.0506
   56DPPC    C2 2752   4.259   1.871   2.562  0.0243  0.2810 -0.2853
   56DPPC    C3 2753   4.289   1.710   2.384  0.2690 -0.0498  0.9027
   56DPPC    N4 2754   4.303   1.851   2.423  0.0997  0.3050 -0.2650
   56DPPC    C5 2755   4.439   1.904   2.404  0.0027  0.6603  0.0249
   56DPPC    C6 2756   4.516   1.871   2.276  0.0967  0.6403  0.0866
   56DPPC    O7 2757   4.630   1.957   2.270  0.2563  0.4518  0.3827
   56DPPC    P8 2758   4.684   1.968   2.119  0.0509  0.0411  0.2765
   56DPPC    O9 2759   4.562   1.978   2.036  0.3628  0.2596 -0.1606
   56DPPC   O10 2760   4.790   1.868   2.095 -0.0855 -0.0720  0.1416
   56DPPC   O11 2761   4.756   2.112   2.125  0.1626  0.0161 -0.3982
   56DPPC   C12 2762   4.826   2.128   2.248  0.5055  0.2884 -0.6250
   56DPPC   C13 2763   4.916   2.251   2.255  0.3022  0.4066  0.0077
   56DPPC   O14 2764   5.011   2.242   2.362 -0.0046 -0.0652  0.2433
   56DPPC   C15 2765   5.105   2.338   2.384 -0.3945  0.2594  0.4990
   56DPPC   O16 2766   5.120   2.430   2.304  0.4018 -0.2697  0.0200
   56DPPC   C17 2767   5.169   2.331   2.523 -0.0237 -0.1355  0.3097
   56DPPC   C18 2768   5.319   2.307   2.501  0.0442  0.1908  0.4146
   56DPPC   C19 2769   5.388   2.298   2.637  0.8285  0.6086  0.0466
   56DPPC   C20 2770   5.366   2.174   2.723  0.3177  0.2274 -0.6278
   56DPPC   C21 2771   5.442   2.194   2.854  0.0392 -0.2839 -0.3829
   56DPPC   C22 2772   5.432   2.081   2.956 -0.0937  0.2021  0.1519
   56DPPC   C23 2773   5.515   2.104   3.083 -0.1765  0.3316  0.1815
   56DPPC   C24 2774   5.541   1.977   3.163 -0.4194  0.0383 -0.2043
   56DPPC   C25 2775   5.640   2.019   3.272 -0.4574 -0.1625 -0.0921
   56DPPC   C26 2776   5.657   1.889   3.351 -0.2648  0.0718  0.2529
   56DPPC   C27 2777   5.736   1.907   3.481  0.5097  0.2841 -0.2408
   56DPPC   C28 2778   5.652   1.992   3.576  0.0733  0.1751 -0.5295
   56DPPC   C29 2779   5.716   2.025   3.710 -0.0965 -0.6616 -0.2335
   56DPPC   C30 2780   5.606   2.053   3.813  0.1651 -0.2773 -0.0551
   56DPPC   C31 2781   5.515   2.149   3.736  1.1043  0.0679 -0.7587
   56DPPC   C32 2782   4.826   2.375   2.243  0.0225  0.1944 -0.1078
   56DPPC   O33 2783   4.711   2.361   2.326 -0.0238 -0.1871 -0.2355
   56DPPC   C34 2784   4.610   2.450   2.305  0.0452 -0.0499  0.0142
   56DPPC   O35 2785   4.628   2.546   2.230  0.0888 -0.4378 -0.4753
   56DPPC   C36 2786   4.467   2.412   2.345 -0.0136  0.6206  0.4530
   56DPPC   C37 2787   4.475   2.339   2.480  0.0532  0.5407  0.4060
   56DPPC   C38 2788   4.342   2.285   2.531  0.2941 -0.7900 -0.3356
   56DPPC   C39 2789   4.354   2.287   2.683  0.0744 -0.1036 -0.3262
   56DPPC   C40 2790   4.395   2.429   2.724  0.0488 -0.2095  0.0683
   56DPPC   C41 2791   4.376   2.427   2.876  0.0290 -0.0379  0.0676
   56DPPC   C42 2792   4.483   2.339   2.940  0.1399  0.1894  0.1955
   56DPPC   C43 2793   4.454   2.339   3.090  1.1418  0.7279  0.4014
   56DPPC   C44 2794   4.535   2.241   3.175  0.3484 -0.4175 -0.1326
   56DPPC   C45 2795   4.488   2.236   3.320 -0.4087  0.3621 -0.3432
   56DPPC   C46 2796   4.492   2.378   3.378  0.1454  0.1841  0.0605
   56DPPC   C47 2797   4.468   2.389   3.529 -0.3238 -0.0295  0.0024
   56DPPC   C48 2798   4.451   2.533   3.577 -0.4795  0.1569 -0.5997
   56DPPC   C49 2799   4.444   2.511   3.728  0.4120 -0.2543 -0.6068
   56DPPC   C50 2800   4.566   2.442   3.789  0.3428  0.2773  0.1474
   57DPPC    C1 2801   5.715   7.076   2.028 -0.7935  0.5677  0.5348
   57DPPC    C2 2802   5.524   6.958   2.083  0.3820 -0.2113  0.5495
   57DPPC    C3 2803   5.609   6.940   1.853 -0.2656  0.2134  0.1871
   57DPPC    N4 2804   5.642   6.952   1.996  0.0822  0.1562  0.1111
   57DPPC    C5 2805   5.735   6.844   2.034  0.2987 -0.1281 -1.1849
   57DPPC    C6 2806   5.686   6.699   2.022  0.5997 -0.2989 -0.3623
   57DPPC    O7 2807   5.793   6.604   2.011  0.7714 -0.2301  0.6109
   57DPPC    P8 2808   5.734   6.463   1.962  0.2447  0.2736 -0.2428
   57DPPC    O9 2809   5.850   6.393   1.903  0.2147  0.4110 -0.4631
   57DPPC   O10 2810   5.613   6.491   1.883 -0.1957  0.0143  0.3279
   57DPPC   O11 2811   5.691   6.404   2.106  0.2049  0.0606 -0.3407
   57DPPC   C12 2812   5.815   6.376   2.172  0.0243 -0.2853 -0.1474
   57DPPC   C13 2813   5.822   6.425   2.316  0.1801 -0.3895 -0.1202
   57DPPC   O14 2814   5.949   6.379   2.367  0.0917 -0.1149  0.3560
   57DPPC   C15 2815   6.028   6.477   2.418  0.2520 -0.2370  0.3435
   57DPPC   O16 2816   5.971   6.586   2.413 -0.0796 -0.4391 -0.4412
   57DPPC   C17 2817   6.169   6.441   2.465  0.3082 -0.1588  0.2313
   57DPPC   C18 2818   6.174   6.394   2.610 -0.3310 -0.1677  0.2549
   57DPPC   C19 2819   6.133   6.511   2.699  0.1584  0.4103 -0.2662
   57DPPC   C20 2820   6.112   6.473   2.846 -0.0175 -0.0737 -0.4166
   57DPPC   C21 2821   6.029   6.577   2.921  0.2615 -0.0454 -0.1474
   57DPPC   C22 2822   6.015   6.530   3.066 -0.9704 -0.3045 -0.3417
   57DPPC   C23 2823   5.939   6.620   3.163  0.2318  0.1882  0.1630
   57DPPC   C24 2824   5.968   6.583   3.309 -0.0171 -0.5383  0.0353
   57DPPC   C25 2825   5.902   6.446   3.323 -0.1329 -0.5372 -0.4800
   57DPPC   C26 2826   5.919   6.379   3.460 -0.0435  0.1681 -0.1418
   57DPPC   C27 2827   5.844   6.446   3.575  0.2306  0.3420 -0.0643
   57DPPC   C28 2828   5.856   6.366   3.704 -0.2601  0.0892 -0.1738
   57DPPC   C29 2829   5.744   6.386   3.807 -0.0489  0.5914 -0.0374
   57DPPC   C30 2830   5.764   6.335   3.950  0.5370  0.4080 -0.1818
   57DPPC   C31 2831   5.627   6.320   4.016  0.3505 -0.0179 -0.6532
   57DPPC   C32 2832   5.704   6.368   2.395  0.0406 -0.2500 -0.2295
   57DPPC   O33 2833   5.715   6.233   2.442  0.6106 -0.0254  0.2892
   57DPPC   C34 2834   5.597   6.171   2.467  0.2946  0.3389 -0.2635
   57DPPC   O35 2835   5.496   6.219   2.415 -0.2988 -0.7563 -0.1530
   57DPPC   C36 2836   5.603   6.034   2.534  0.1482  0.4538 -0.0139
   57DPPC   C37 2837   5.479   6.039   2.624  0.3214  0.1739  0.2448
   57DPPC   C38 2838   5.493   5.943   2.742 -0.1006 -0.3530 -0.1255
   57DPPC   C39 2839   5.367   5.942   2.828 -0.0833  0.0281 -0.0949
   57DPPC   C40 2840   5.387   5.864   2.957  0.0989  0.1434 -0.0532
   57DPPC   C41 2841   5.254   5.873   3.033 -0.2062 -0.4280 -0.5104
   57DPPC   C42 2842   5.265   5.817   3.175 -0.0383  0.1816 -0.2810
   57DPPC   C43 2843   5.132   5.802   3.250  0.1848 -0.9632 -0.0966
   57DPPC   C44 2844   5.151   5.719   3.377 -0.1049 -0.7508  0.0851
   57DPPC   C45 2845   5.014   5.696   3.440 -0.1529  0.3149  0.4004
   57DPPC   C46 2846   5.038   5.614   3.567  0.4800 -0.0376  0.0612
   57DPPC   C47 2847   5.072   5.468   3.535  0.1072 -0.2193  0.4772
   57DPPC   C48 2848   5.175   5.419   3.637  0.9947  0.2242 -0.1956
   57DPPC   C49 2849   5.124   5.398   3.779  0.0106  0.0547 -0.5643
   57DPPC   C50 2850   5.238   5.397   3.882 -0.2727  0.2893 -0.2439
   58DPPC    C1 2851   8.469   6.932   1.363  0.0599 -0.3790 -0.2347
   58DPPC    C2 2852   8.492   7.145   1.257 -0.0006  0.1275  0.4954
   58DPPC    C3 2853   8.287   7.096   1.364  0.2894  0.8204  0.6862
   58DPPC    N4 2854   8.432   7.075   1.371  0.1421 -0.3841  0.2560
   58DPPC    C5 2855   8.480   7.128   1.500 -0.1318 -0.2259  0.2935
   58DPPC    C6 2856   8.418   7.256   1.555  0.1155  0.0870 -0.1535
   58DPPC    O7 2857   8.461   7.377   1.490 -0.0522  0.3721  0.2606
   58DPPC    P8 2858   8.338   7.480   1.491 -0.3457  0.0231  0.3492
   58DPPC    O9 2859   8.220   7.402   1.447 -0.0311  0.2509 -0.9255
   58DPPC   O10 2860   8.375   7.605   1.422 -0.0476  0.2345  0.8827
   58DPPC   O11 2861   8.336   7.495   1.652 -0.0119  0.1058  0.3448
   58DPPC   C12 2862   8.422   7.602   1.692  0.2479  0.1479 -0.3082
   58DPPC   C13 2863   8.439   7.632   1.841  0.5594 -0.2941 -0.2543
   58DPPC   O14 2864   8.541   7.732   1.848  0.1539  0.0857  0.3515
   58DPPC   C15 2865   8.496   7.860   1.842 -0.2598 -0.0441  0.6917
   58DPPC   O16 2866   8.380   7.895   1.820 -0.1899 -0.0219  0.3665
   58DPPC   C17 2867   8.607   7.964   1.856  0.2580 -0.5218  0.1384
   58DPPC   C18 2868   8.571   8.050   1.977 -0.0161 -0.5480  0.0748
   58DPPC   C19 2869   8.671   8.155   2.026 -0.6456  0.2052 -0.2186
   58DPPC   C20 2870   8.636   8.214   2.162  0.6420  0.1167  0.1624
   58DPPC   C21 2871   8.638   8.108   2.273 -0.3954 -0.0592  0.0190
   58DPPC   C22 2872   8.615   8.167   2.412  0.3195  0.5747 -0.1224
   58DPPC   C23 2873   8.580   8.051   2.505 -0.0330  0.8345  0.0709
   58DPPC   C24 2874   8.596   8.083   2.654  0.1314 -0.2564  0.3016
   58DPPC   C25 2875   8.520   7.983   2.740  0.5595 -0.4728  0.4283
   58DPPC   C26 2876   8.507   8.030   2.885  0.6197  0.7922  0.0334
   58DPPC   C27 2877   8.441   7.925   2.975  0.7035  0.5779 -0.1547
   58DPPC   C28 2878   8.463   7.943   3.125 -0.5884  0.0061  0.1148
   58DPPC   C29 2879   8.609   7.910   3.157 -0.5933  0.3678  0.5279
   58DPPC   C30 2880   8.631   7.903   3.308  0.1983  0.2723  0.4124
   58DPPC   C31 2881   8.781   7.912   3.335  0.2260  0.1702  0.2889
   58DPPC   C32 2882   8.474   7.497   1.903  0.2362 -0.3594 -0.2132
   58DPPC   O33 2883   8.444   7.488   2.043  0.4361 -0.7465 -0.1915
   58DPPC   C34 2884   8.443   7.360   2.086 -0.0717 -0.6617  0.0527
   58DPPC   O35 2885   8.453   7.270   2.003 -0.3889 -0.4887 -0.1755
   58DPPC   C36 2886   8.446   7.342   2.238 -0.1838  1.0191  0.2735
   58DPPC   C37 2887   8.592   7.318   2.280 -0.4263 -0.6292  0.2417
   58DPPC   C38 2888   8.589   7.310   2.433  0.1674 -0.0791  0.2842
   58DPPC   C39 2889   8.727   7.272   2.489  0.3523 -0.0587 -0.1490
   58DPPC   C40 2890   8.751   7.329   2.629 -0.1444  0.5308 -0.2959
   58DPPC   C41 2891   8.648   7.280   2.730 -0.0716  0.3845 -0.2905
   58DPPC   C42 2892   8.722   7.292   2.863 -0.0285  0.2118 -0.2990
   58DPPC   C43 2893   8.664   7.178   2.946  0.0593  0.2069 -0.2442
   58DPPC   C44 2894   8.708   7.041   2.894 -0.5776  0.0153 -0.2880
   58DPPC   C45 2895   8.643   6.933   2.980 -0.6606  0.1490 -0.1837
   58DPPC   C46 2896   8.656   6.942   3.132  0.1826  0.0398 -0.2470
   58DPPC   C47 2897   8.586   6.831   3.211 -0.0250  0.3638  0.0275
   58DPPC   C48 2898   8.642   6.809   3.352  0.5459  0.1883 -0.2221
   58DPPC   C49 2899   8.588   6.682   3.418  0.3049  0.3269 -0.1489
   58DPPC   C50 2900   8.647   6.661   3.558 -0.0304  0.3877  0.0029
   59DPPC    C1 2901   0.920   5.345   1.871  0.7388  0.2145 -0.0205
   59DPPC    C2 2902   0.746   5.177   1.884  0.0949  0.6108 -0.3566
   59DPPC    C3 2903   0.721   5.377   1.758 -0.0566 -0.3896  0.3019
   59DPPC    N4 2904   0.817   5.272   1.796  0.8400  0.2311 -0.1787
   59DPPC    C5 2905   0.881   5.206   1.682  0.6346 -0.1489 -0.0777
   59DPPC    C6 2906   0.804   5.097   1.608  0.0217 -0.1262  0.5161
   59DPPC    O7 2907   0.664   5.115   1.585  0.0857 -0.2911 -0.0317
   59DPPC    P8 2908   0.604   4.977   1.528  0.0784 -0.2010 -0.2408
   59DPPC    O9 2909   0.712   4.878   1.506 -0.0479 -0.5541  0.6910
   59DPPC   O10 2910   0.495   5.002   1.430 -0.0838 -0.0049 -0.0142
   59DPPC   O11 2911   0.527   4.924   1.659  0.0127  0.0710 -0.1685
   59DPPC   C12 2912   0.408   5.002   1.670  0.0973  0.1661  0.0776
   59DPPC   C13 2913   0.346   5.020   1.809  0.8443  0.3635  0.3913
   59DPPC   O14 2914   0.410   5.096   1.912  0.3990  0.3216  0.7017
   59DPPC   C15 2915   0.330   5.197   1.954  0.1221  0.2950  0.2477
   59DPPC   O16 2916   0.289   5.288   1.883  0.5255  0.3721  0.1102
   59DPPC   C17 2917   0.371   5.236   2.097  0.7749 -0.1631  0.1901
   59DPPC   C18 2918   0.264   5.260   2.203  0.4375 -0.0323 -0.1762
   59DPPC   C19 2919   0.191   5.128   2.229  0.0168  0.2057 -0.1382
   59DPPC   C20 2920   0.120   5.111   2.364  0.0402  0.1094 -0.1383
   59DPPC   C21 2921   0.234   5.128   2.464 -0.1661  0.7425 -0.0066
   59DPPC   C22 2922   0.191   5.119   2.611 -0.1758  0.9358  0.0016
   59DPPC   C23 2923   0.311   5.176   2.686  0.3822  0.1476 -0.2789
   59DPPC   C24 2924   0.444   5.101   2.677 -0.0825 -0.7878  0.4960
   59DPPC   C25 2925   0.555   5.197   2.721 -0.2973 -0.3150  0.0159
   59DPPC   C26 2926   0.691   5.127   2.718 -0.1869 -0.0908 -0.3102
   59DPPC   C27 2927   0.683   4.998   2.801 -0.2084  0.2555  0.2336
   59DPPC   C28 2928   0.813   4.921   2.827 -0.2282 -0.0396 -0.5089
   59DPPC   C29 2929   0.865   4.879   2.690  0.2201 -0.9200 -0.0756
   59DPPC   C30 2930   0.999   4.806   2.693  0.2899 -0.7750  0.3512
   59DPPC   C31 2931   1.026   4.734   2.560  0.0379 -0.2740  0.0273
   59DPPC   C32 2932   0.339   4.873   1.851  0.2266  0.2734 -0.0000
   59DPPC   O33 2933   0.231   4.847   1.941  0.2057 -0.5005 -0.2499
   59DPPC   C34 2934   0.200   4.715   1.954  0.4256 -0.5331 -0.0292
   59DPPC   O35 2935   0.244   4.638   1.868 -0.1467 -0.7960 -0.0933
   59DPPC   C36 2936   0.093   4.672   2.054  0.4950 -0.4480  0.0805
   59DPPC   C37 2937   0.033   4.797   2.118  0.3693 -0.3724 -0.1852
   59DPPC   C38 2938  -0.105   4.763   2.175  0.4680 -0.0305  0.2562
   59DPPC   C39 2939  -0.179   4.892   2.210 -0.0336 -0.1973 -0.1907
   59DPPC   C40 2940  -0.305   4.878   2.296  0.0755 -0.0779 -0.0114
   59DPPC   C41 2941  -0.362   5.017   2.321 -0.2712 -0.1641 -0.3111
   59DPPC   C42 2942  -0.483   5.014   2.414 -0.4901  0.0130 -0.5887
   59DPPC   C43 2943  -0.436   4.956   2.547 -0.5659  0.3965 -0.3912
   59DPPC   C44 2944  -0.550   4.938   2.647 -0.4105  0.3523 -0.2214
   59DPPC   C45 2945  -0.495   4.848   2.758  0.6386 -0.0155 -1.0287
   59DPPC   C46 2946  -0.386   4.918   2.839 -0.2002  0.0021  0.0994
   59DPPC   C47 2947  -0.304   4.817   2.921 -0.1424 -0.1590 -0.1556
   59DPPC   C48 2948  -0.405   4.784   3.031 -0.3792  0.4892 -0.1740
   59DPPC   C49 2949  -0.453   4.904   3.114  0.4170  0.6736  0.0302
   59DPPC   C50 2950  -0.542   4.843   3.222  0.1790  0.1746 -0.4434
   60DPPC    C1 2951   6.874   4.844   1.278  0.3970  0.5998  0.2958
   60DPPC    C2 2952   6.664   4.751   1.365 -0.5564 -0.1156 -0.1644
   60DPPC    C3 2953   6.792   4.889   1.493 -0.0262  0.2051  0.0196
   60DPPC    N4 2954   6.751   4.869   1.353  0.0445 -0.5247  0.1004
   60DPPC    C5 2955   6.696   4.988   1.286  0.5642 -0.2988  0.0698
   60DPPC    C6 2956   6.573   5.052   1.351  0.4429 -0.1121 -0.3372
   60DPPC    O7 2957   6.554   5.188   1.310  0.1548 -0.0106  0.1235
   60DPPC    P8 2958   6.498   5.280   1.430 -0.0824 -0.3702  0.2926
   60DPPC    O9 2959   6.412   5.185   1.503 -0.6766 -0.6116 -0.6994
   60DPPC   O10 2960   6.458   5.401   1.355  0.1119  0.1832  1.0682
   60DPPC   O11 2961   6.638   5.308   1.505  0.0264  0.1099 -0.0828
   60DPPC   C12 2962   6.652   5.244   1.632  0.0014  0.3304  0.0318
   60DPPC   C13 2963   6.773   5.279   1.720 -0.2454  0.1820  0.4319
   60DPPC   O14 2964   6.785   5.188   1.830  0.2646 -0.2958 -0.0186
   60DPPC   C15 2965   6.877   5.088   1.817  0.7749  0.1687 -0.0152
   60DPPC   O16 2966   6.941   5.076   1.713  0.0980 -0.8898 -0.3158
   60DPPC   C17 2967   6.887   5.002   1.942 -0.4123  0.4346  0.2786
   60DPPC   C18 2968   6.800   4.878   1.921 -0.0986  0.3237 -0.3916
   60DPPC   C19 2969   6.807   4.780   2.038 -0.1342 -0.0139 -0.6700
   60DPPC   C20 2970   6.701   4.672   2.017  0.0638 -0.4719  0.5677
   60DPPC   C21 2971   6.681   4.573   2.132  0.3565 -0.7358  0.3950
   60DPPC   C22 2972   6.620   4.648   2.250 -0.2272 -0.1245 -0.2851
   60DPPC   C23 2973   6.615   4.546   2.364  0.6374  0.4058  0.2437
   60DPPC   C24 2974   6.574   4.611   2.496 -0.1746 -0.2660  0.3275
   60DPPC   C25 2975   6.526   4.507   2.598  0.2685 -0.3033  0.4971
   60DPPC   C26 2976   6.513   4.562   2.741  0.1438  0.1172  0.3257
   60DPPC   C27 2977   6.443   4.463   2.835  0.0734 -0.1225  0.0225
   60DPPC   C28 2978   6.512   4.327   2.818 -0.0452 -0.1270 -0.4411
   60DPPC   C29 2979   6.465   4.233   2.929  0.2924  0.3507  0.1110
   60DPPC   C30 2980   6.494   4.084   2.911 -0.1772  0.2019  0.5618
   60DPPC   C31 2981   6.490   4.009   3.045  0.2207 -0.0957  0.4089
   60DPPC   C32 2982   6.763   5.427   1.761  0.0327  0.0970  0.8071
   60DPPC   O33 2983   6.631   5.460   1.806  0.1072  0.0656  1.0488
   60DPPC   C34 2984   6.618   5.591   1.839 -0.6576  0.3435 -0.2929
   60DPPC   O35 2985   6.698   5.676   1.800 -0.8296  0.6113 -0.0693
   60DPPC   C36 2986   6.496   5.630   1.923 -0.1353  0.1307  0.5766
   60DPPC   C37 2987   6.505   5.613   2.075  0.2549 -0.0311  0.5353
   60DPPC   C38 2988   6.372   5.667   2.128  0.0053 -0.3330  0.2251
   60DPPC   C39 2989   6.397   5.751   2.254  0.0609 -0.0510  0.0253
   60DPPC   C40 2990   6.261   5.800   2.302  0.3714  0.5526  0.3064
   60DPPC   C41 2991   6.264   5.891   2.425 -0.4557  0.6929  0.2316
   60DPPC   C42 2992   6.119   5.908   2.468 -0.4647 -0.8201  0.8405
   60DPPC   C43 2993   6.109   6.000   2.590  0.3808 -0.1553  0.4137
   60DPPC   C44 2994   5.964   6.007   2.639  0.0196  0.2666 -0.6769
   60DPPC   C45 2995   5.971   6.104   2.758  0.0059 -0.6731  0.1081
   60DPPC   C46 2996   6.062   6.054   2.870 -0.0495 -0.7268  0.1291
   60DPPC   C47 2997   6.063   6.131   3.003  0.2208 -0.4617 -0.0253
   60DPPC   C48 2998   6.145   6.052   3.105  0.6055  0.0435  0.0625
   60DPPC   C49 2999   6.146   6.157   3.215  0.1787  0.1195 -0.0066
   60DPPC   C50 3000   6.207   6.104   3.345 -0.3559 -0.7188 -0.0905
   61DPPC    C1 3001   3.996   0.331   2.197  0.1206  0.5267  0.2597
   61DPPC    C2 3002   4.029   0.224   2.005 -0.3967 -0.1499 -0.1187
   61DPPC    C3 3003   3.801   0.254   2.062 -0.4790  0.3639  0.8411
   61DPPC    N4 3004   3.933   0.319   2.065 -0.1547 -0.2715  0.4598
   61DPPC    C5 3005   3.929   0.446   1.992 -0.0225 -0.6582 -0.2315
   61DPPC    C6 3006   3.838   0.558   2.042  0.4828 -0.3360 -0.0286
   61DPPC    O7 3007   3.900   0.655   2.128  0.0707  0.2528 -0.3837
   61DPPC    P8 3008   3.788   0.766   2.156 -0.1570 -0.0943  0.0928
   61DPPC    O9 3009   3.662   0.711   2.210 -0.4030  0.3825  0.0100
   61DPPC   O10 3010   3.803   0.877   2.060  0.0551 -0.7672 -0.6614
   61DPPC   O11 3011   3.867   0.826   2.283  0.1719 -0.2282 -0.0481
   61DPPC   C12 3012   3.887   0.717   2.374 -0.0648  0.0462  0.3389
   61DPPC   C13 3013   3.925   0.763   2.514 -0.5613  0.1179  0.4524
   61DPPC   O14 3014   3.963   0.654   2.600  0.1934  0.3013  0.3612
   61DPPC   C15 3015   4.096   0.644   2.624  0.2692  0.3095 -0.0498
   61DPPC   O16 3016   4.167   0.684   2.532  0.4609  0.7914  0.3056
   61DPPC   C17 3017   4.142   0.535   2.721 -0.0378 -0.0670 -0.3226
   61DPPC   C18 3018   4.058   0.407   2.732 -0.4465  0.2592  0.5293
   61DPPC   C19 3019   4.127   0.303   2.820  0.4469  0.2479 -0.1577
   61DPPC   C20 3020   4.263   0.246   2.779  0.5054 -0.3178  0.7758
   61DPPC   C21 3021   4.272   0.109   2.846 -1.0982 -1.0052 -0.3288
   61DPPC   C22 3022   4.398   0.032   2.805 -0.2679  0.2224 -0.1550
   61DPPC   C23 3023   4.525   0.112   2.834 -0.2481  0.2230 -0.2413
   61DPPC   C24 3024   4.651   0.039   2.786 -0.1577  0.4841 -0.4006
   61DPPC   C25 3025   4.773   0.129   2.765  0.2270  0.1391  0.3329
   61DPPC   C26 3026   4.912   0.074   2.797  0.1239 -0.6371 -0.4991
   61DPPC   C27 3027   5.018   0.108   2.692  0.1871 -0.1658 -0.2868
   61DPPC   C28 3028   5.149   0.034   2.717  0.1461 -0.1622 -0.0605
   61DPPC   C29 3029   5.135  -0.116   2.744  0.0883 -0.2524 -0.5852
   61DPPC   C30 3030   5.050  -0.199   2.648 -0.2011 -0.0116 -0.5377
   61DPPC   C31 3031   5.061  -0.344   2.697 -0.0895  0.4172  0.7393
   61DPPC   C32 3032   3.811   0.857   2.554 -0.6487  0.4456 -0.5326
   61DPPC   O33 3033   3.841   0.941   2.666 -0.4038 -0.1180 -0.1679
   61DPPC   C34 3034   3.743   1.024   2.711 -0.2307  0.2747 -0.5062
   61DPPC   O35 3035   3.643   1.039   2.640 -0.1301  0.1097 -0.6864
   61DPPC   C36 3036   3.778   1.121   2.824 -0.4004  0.0255 -0.2380
   61DPPC   C37 3037   3.742   1.062   2.960  0.4357 -0.0844 -0.0606
   61DPPC   C38 3038   3.769   1.169   3.065  0.2627 -0.0933 -0.0069
   61DPPC   C39 3039   3.741   1.118   3.207 -0.0942  0.1227  0.0008
   61DPPC   C40 3040   3.596   1.071   3.218 -0.1772  0.4004  0.1062
   61DPPC   C41 3041   3.590   0.946   3.307  0.5455  0.1469 -0.1940
   61DPPC   C42 3042   3.442   0.907   3.312  0.5730  0.0373 -0.2283
   61DPPC   C43 3043   3.439   0.793   3.414  0.0104 -0.1509 -0.4541
   61DPPC   C44 3044   3.306   0.717   3.420  0.2205 -0.5417 -0.7171
   61DPPC   C45 3045   3.325   0.610   3.527 -0.1384  0.1990  0.0976
   61DPPC   C46 3046   3.363   0.664   3.665  0.0548  0.1608  0.0598
   61DPPC   C47 3047   3.264   0.760   3.732 -0.1849 -0.2571  0.3031
   61DPPC   C48 3048   3.321   0.779   3.873  0.6384  0.5265 -0.1330
   61DPPC   C49 3049   3.213   0.847   3.957  0.1483 -0.7827  0.3163
   61DPPC   C50 3050   3.243   0.839   4.106 -0.0925  0.4343  0.4449
   62DPPC    C1 3051   7.796   4.457   1.085  0.3710 -0.4341 -0.2952
   62DPPC    C2 3052   7.609   4.303   1.149 -0.1049  0.2092 -0.1840
   62DPPC    C3 3053   7.735   4.422   1.306  0.1596  0.6401 -0.2904
   62DPPC    N4 3054   7.680   4.430   1.170  0.2116  0.0618 -0.3497
   62DPPC    C5 3055   7.598   4.550   1.146  0.1405  0.0871  0.0047
   62DPPC    C6 3056   7.452   4.551   1.191  0.1082  0.3753 -0.1004
   62DPPC    O7 3057   7.446   4.573   1.332 -0.0134 -0.4306  0.0282
   62DPPC    P8 3058   7.299   4.556   1.395 -0.3182 -0.3022 -0.6431
   62DPPC    O9 3059   7.310   4.450   1.498 -0.2897  0.0634 -0.2670
   62DPPC   O10 3060   7.213   4.556   1.274 -1.0975  0.1100 -0.0949
   62DPPC   O11 3061   7.293   4.705   1.456 -0.2956 -0.6365  0.1909
   62DPPC   C12 3062   7.385   4.714   1.564  0.2706 -0.5669 -0.2907
   62DPPC   C13 3063   7.345   4.830   1.657 -0.0634 -0.8607 -0.0648
   62DPPC   O14 3064   7.430   4.853   1.770 -0.0576  0.0890 -0.2605
   62DPPC   C15 3065   7.422   4.978   1.823 -0.3069 -0.2311  0.4638
   62DPPC   O16 3066   7.409   5.074   1.747 -0.3369  0.0182  0.7793
   62DPPC   C17 3067   7.476   4.989   1.966 -0.0105  0.4418  0.3046
   62DPPC   C18 3068   7.379   5.027   2.078  0.1139  0.4555  0.4089
   62DPPC   C19 3069   7.262   4.928   2.084  0.4943 -0.0501 -0.2794
   62DPPC   C20 3070   7.210   4.953   2.226  0.1209 -0.0126 -0.4226
   62DPPC   C21 3071   7.064   4.913   2.250  0.2019 -0.2036 -0.2473
   62DPPC   C22 3072   7.023   4.951   2.393  1.0198 -0.3691  0.0362
   62DPPC   C23 3073   6.886   4.899   2.435  0.4564  0.7880 -0.3382
   62DPPC   C24 3074   6.843   4.941   2.575 -0.1956 -0.5004 -0.1321
   62DPPC   C25 3075   6.699   4.913   2.616 -0.1862  0.5316  0.6713
   62DPPC   C26 3076   6.593   4.964   2.518 -0.3699 -0.4317  0.3500
   62DPPC   C27 3077   6.449   4.937   2.564 -0.2460 -0.9497  0.4327
   62DPPC   C28 3078   6.331   4.952   2.467  0.2415 -0.3536 -0.0792
   62DPPC   C29 3079   6.198   4.929   2.538  0.3785 -0.0234  0.2875
   62DPPC   C30 3080   6.211   4.797   2.616  0.0880 -0.1012  0.2067
   62DPPC   C31 3081   6.074   4.765   2.676 -0.1619 -0.0708 -0.3396
   62DPPC   C32 3082   7.195   4.821   1.685 -0.0980  0.2867  0.1360
   62DPPC   O33 3083   7.173   4.695   1.750  0.1841  0.1823  0.0310
   62DPPC   C34 3084   7.045   4.650   1.756  0.1399  0.3247  0.1538
   62DPPC   O35 3085   6.964   4.685   1.670  0.1740 -0.3446 -0.1577
   62DPPC   C36 3086   7.030   4.528   1.847 -0.3273  0.3889  0.1688
   62DPPC   C37 3087   7.125   4.531   1.967 -0.4557 -0.2537  0.2904
   62DPPC   C38 3088   7.094   4.423   2.071  0.3711 -0.5450  0.2393
   62DPPC   C39 3089   7.180   4.442   2.196 -0.2247  0.1966  0.5384
   62DPPC   C40 3090   7.126   4.383   2.327 -0.4492 -0.2357  0.2540
   62DPPC   C41 3091   6.986   4.437   2.356 -0.5680 -0.1721 -0.4098
   62DPPC   C42 3092   6.934   4.399   2.495  0.2357  0.0698 -0.0383
   62DPPC   C43 3093   7.034   4.437   2.605 -0.1696  0.4460  0.2030
   62DPPC   C44 3094   6.973   4.411   2.742 -0.0095  0.1028  0.2089
   62DPPC   C45 3095   6.937   4.262   2.739  0.5965 -0.0380 -0.3629
   62DPPC   C46 3096   6.901   4.214   2.880  0.1513  0.4973 -0.2886
   62DPPC   C47 3097   6.873   4.066   2.907  0.2562  0.5048 -0.1376
   62DPPC   C48 3098   6.834   4.051   3.054 -0.2352 -0.9998 -0.4022
   62DPPC   C49 3099   6.918   4.125   3.158 -0.5656 -0.8749 -0.2214
   62DPPC   C50 3100   6.846   4.128   3.293 -0.0306 -0.5619  0.0622
   63DPPC    C1 3101   7.812   8.498   1.004 -0.1975  0.0454  0.0242
   63DPPC    C2 3102   7.787   8.275   0.988  0.2431  0.0988 -0.2389
   63DPPC    C3 3103   7.981   8.349   1.097 -0.2778 -0.2536  0.2259
   63DPPC    N4 3104   7.837   8.376   1.083 -0.2037  0.0571  0.0442
   63DPPC    C5 3105   7.753   8.364   1.203  0.1408 -0.3868  0.2454
   63DPPC    C6 3106   7.813   8.416   1.334 -0.4788  0.0690  0.3535
   63DPPC    O7 3107   7.823   8.556   1.362  0.1537  0.1289 -0.1287
   63DPPC    P8 3108   7.892   8.551   1.508 -0.3310 -0.1682  0.0911
   63DPPC    O9 3109   7.927   8.692   1.531 -0.3229 -0.1735  0.1100
   63DPPC   O10 3110   7.996   8.446   1.496 -0.2689 -0.0900 -0.0511
   63DPPC   O11 3111   7.769   8.494   1.595  0.0834 -0.4140  0.5245
   63DPPC   C12 3112   7.707   8.605   1.659 -0.4544 -0.2063 -0.3328
   63DPPC   C13 3113   7.583   8.571   1.742 -0.3104 -0.0633 -0.0558
   63DPPC   O14 3114   7.511   8.686   1.787  0.0952  0.2346 -0.1658
   63DPPC   C15 3115   7.399   8.714   1.715 -0.3894 -0.5066  0.3006
   63DPPC   O16 3116   7.372   8.660   1.608  0.1913 -0.1053 -0.0475
   63DPPC   C17 3117   7.310   8.824   1.773 -0.3949 -0.3898  0.0682
   63DPPC   C18 3118   7.381   8.898   1.887  0.0786 -1.1663  0.2808
   63DPPC   C19 3119   7.277   8.970   1.972  0.3208 -0.1363 -0.2821
   63DPPC   C20 3120   7.332   9.043   2.095 -0.3694  0.3038 -0.2289
   63DPPC   C21 3121   7.237   9.085   2.207 -0.4094  0.1433 -0.2020
   63DPPC   C22 3122   7.300   9.061   2.345 -0.6442  0.2399 -0.0764
   63DPPC   C23 3123   7.203   9.125   2.444 -0.7592  0.1550 -0.1334
   63DPPC   C24 3124   7.194   9.075   2.588 -0.6579 -0.6469 -0.4016
   63DPPC   C25 3125   7.088   9.159   2.660 -0.7539 -0.5360 -0.6737
   63DPPC   C26 3126   7.040   9.104   2.794 -0.2134 -0.0569 -0.2778
   63DPPC   C27 3127   7.147   9.109   2.903  0.0160 -1.0577 -0.4481
   63DPPC   C28 3128   7.101   9.070   3.044  0.0124 -0.1544 -0.1928
   63DPPC   C29 3129   7.062   8.924   3.066 -0.7523  0.0543 -0.1288
   63DPPC   C30 3130   7.025   8.898   3.213  0.1427 -0.7278 -0.0330
   63DPPC   C31 3131   7.140   8.812   3.266  0.0959 -0.4803  0.4779
   63DPPC   C32 3132   7.636   8.494   1.863  0.4872  0.0610 -0.3232
   63DPPC   O33 3133   7.752   8.552   1.924  0.3015 -0.0158  0.1063
   63DPPC   C34 3134   7.801   8.482   2.030 -0.1693 -0.2177  0.1917
   63DPPC   O35 3135   7.732   8.398   2.088 -0.4219 -0.0573  0.1268
   63DPPC   C36 3136   7.924   8.551   2.089 -0.4631  0.7234 -0.2812
   63DPPC   C37 3137   7.906   8.601   2.233 -0.4614  0.3027 -0.1345
   63DPPC   C38 3138   7.836   8.737   2.238 -0.0688  0.5184 -0.4672
   63DPPC   C39 3139   7.812   8.776   2.384 -0.4631  0.2445 -0.4591
   63DPPC   C40 3140   7.743   8.912   2.399  0.3637  0.6099  0.0678
   63DPPC   C41 3141   7.728   8.954   2.545 -0.4439 -0.2364  0.2387
   63DPPC   C42 3142   7.658   9.090   2.546  0.1648  0.0807  0.2398
   63DPPC   C43 3143   7.620   9.138   2.686  0.1853 -0.4870  0.4416
   63DPPC   C44 3144   7.548   9.272   2.697 -0.2363 -0.7350  0.7262
   63DPPC   C45 3145   7.570   9.344   2.830  0.1755 -0.1975  0.3726
   63DPPC   C46 3146   7.498   9.260   2.935 -0.5613  0.0756  0.0944
   63DPPC   C47 3147   7.506   9.329   3.072  0.0672 -0.2187  0.2085
   63DPPC   C48 3148   7.424   9.263   3.183 -0.0022  0.0831  0.3382
   63DPPC   C49 3149   7.435   9.342   3.313 -1.1044  1.0437 -0.1329
   63DPPC   C50 3150   7.355   9.279   3.427 -0.5353  0.6131  0.0342
   64DPPC    C1 3151   3.421   0.059   1.939 -0.1795  0.3762  0.5505
   64DPPC    C2 3152   3.342  -0.008   1.726 -0.1877  0.2023 -0.0899
   64DPPC    C3 3153   3.218   0.162   1.847  0.3836  0.3196 -0.1967
   64DPPC    N4 3154   3.351   0.106   1.819  0.3130 -0.0039  0.1121
   64DPPC    C5 3155   3.446   0.194   1.749  0.1359  0.1113  0.0178
   64DPPC    C6 3156   3.513   0.313   1.817  0.0698  0.3927 -0.4015
   64DPPC    O7 3157   3.421   0.408   1.870 -0.2690 -0.1425 -0.0119
   64DPPC    P8 3158   3.486   0.527   1.956  0.2096 -0.3104 -0.1430
   64DPPC    O9 3159   3.377   0.615   2.002  1.0376  0.4724  0.3603
   64DPPC   O10 3160   3.598   0.573   1.870 -0.2156 -0.2451 -0.6681
   64DPPC   O11 3161   3.542   0.442   2.080  0.1144 -0.3576 -0.1330
   64DPPC   C12 3162   3.424   0.428   2.160 -0.0247 -0.0586 -0.2867
   64DPPC   C13 3163   3.447   0.377   2.302  0.2889 -0.1852 -0.3828
   64DPPC   O14 3164   3.318   0.360   2.362  0.0829 -0.4113 -0.8867
   64DPPC   C15 3165   3.236   0.257   2.327  0.1013 -0.7635  0.0642
   64DPPC   O16 3166   3.268   0.182   2.235  0.0447 -0.5622 -0.1208
   64DPPC   C17 3167   3.102   0.250   2.399 -0.0432 -0.1877 -0.1449
   64DPPC   C18 3168   3.126   0.232   2.549  0.1181  0.5995 -0.0721
   64DPPC   C19 3169   3.164   0.366   2.612  0.3374  0.3317  0.3666
   64DPPC   C20 3170   3.172   0.352   2.764  0.2087 -0.1710  0.3299
   64DPPC   C21 3171   3.043   0.296   2.825 -0.0576 -0.0311 -0.0990
   64DPPC   C22 3172   3.057   0.283   2.977 -0.1388  0.2876 -0.0629
   64DPPC   C23 3173   3.185   0.213   3.024 -0.0166  0.5084 -0.0682
   64DPPC   C24 3174   3.235   0.278   3.153 -0.2611  0.7584 -0.0972
   64DPPC   C25 3175   3.361   0.221   3.217 -0.4885  0.5528  0.1671
   64DPPC   C26 3176   3.320   0.102   3.304  0.3826  0.2228  0.1437
   64DPPC   C27 3177   3.447   0.022   3.335  0.2784 -0.0891 -0.2273
   64DPPC   C28 3178   3.398  -0.104   3.407  0.1319  0.1868  0.1614
   64DPPC   C29 3179   3.515  -0.203   3.408  0.0430  0.0777 -0.1097
   64DPPC   C30 3180   3.544  -0.256   3.267  0.0926 -0.4546  0.0983
   64DPPC   C31 3181   3.626  -0.384   3.283  0.0192 -0.5603 -0.3625
   64DPPC   C32 3182   3.537   0.484   2.365 -0.1860  0.1937 -0.3429
   64DPPC   O33 3183   3.577   0.442   2.495 -0.5738 -0.1196 -0.3244
   64DPPC   C34 3184   3.670   0.342   2.495 -0.2021  0.2231 -0.2758
   64DPPC   O35 3185   3.738   0.319   2.396  0.4035 -0.2725  0.2471
   64DPPC   C36 3186   3.704   0.278   2.630 -0.4701 -0.0172 -0.3212
   64DPPC   C37 3187   3.593   0.189   2.687  0.4374 -0.8223  0.2216
   64DPPC   C38 3188   3.603   0.204   2.839 -0.1239 -0.7581  0.2549
   64DPPC   C39 3189   3.736   0.161   2.900 -0.0096 -0.1578  0.4409
   64DPPC   C40 3190   3.741   0.008   2.887  0.4084 -0.1194  0.0996
   64DPPC   C41 3191   3.883  -0.039   2.917  0.3589 -0.1100  0.3533
   64DPPC   C42 3192   3.924   0.016   3.053 -0.1328  0.3291  0.3280
   64DPPC   C43 3193   4.043  -0.059   3.114 -0.0744  0.3536  0.2454
   64DPPC   C44 3194   3.993  -0.203   3.133 -0.4045  0.3061 -0.8789
   64DPPC   C45 3195   4.104  -0.293   3.188 -0.8946  0.8277  1.0451
   64DPPC   C46 3196   4.045  -0.419   3.253 -0.3685 -0.0672 -0.1690
   64DPPC   C47 3197   4.160  -0.514   3.288 -0.0603  0.3656  0.0039
   64DPPC   C48 3198   4.098  -0.646   3.335 -0.2878  0.5111  0.1143
   64DPPC   C49 3199   4.212  -0.746   3.355 -0.1054  0.7051  0.0456
   64DPPC   C50 3200   4.283  -0.771   3.221 -0.6351 -0.6054 -0.0039
   65DPPC    C1 3201   2.384   5.119   5.656  0.0185  0.5668 -0.0910
   65DPPC    C2 3202   2.563   5.090   5.504  0.1100 -0.1875  0.3035
   65DPPC    C3 3203   2.548   4.951   5.700  0.5114 -0.3503  0.1512
   65DPPC    N4 3204   2.471   5.018   5.594  0.2053  0.2190  0.7286
   65DPPC    C5 3205   2.389   4.911   5.536 -0.1147  0.7627  0.1717
   65DPPC    C6 3206   2.441   4.791   5.458 -0.4375  0.5787  0.2386
   65DPPC    O7 3207   2.348   4.682   5.448  0.0866  0.0928  0.6068
   65DPPC    P8 3208   2.428   4.549   5.406 -0.0094  0.2275 -0.0071
   65DPPC    O9 3209   2.312   4.458   5.400 -0.0765  0.2213  1.2875
   65DPPC   O10 3210   2.542   4.537   5.500 -0.0169 -0.0705 -0.0351
   65DPPC   O11 3211   2.488   4.594   5.263 -0.3163  1.0760  0.1307
   65DPPC   C12 3212   2.411   4.546   5.153  0.5255 -0.1467  0.0577
   65DPPC   C13 3213   2.471   4.593   5.021  0.1298 -0.6304 -0.2993
   65DPPC   O14 3214   2.381   4.589   4.909 -0.1044 -0.6955 -0.1103
   65DPPC   C15 3215   2.287   4.685   4.886  0.1872 -0.3685  0.0443
   65DPPC   O16 3216   2.277   4.776   4.968  0.0684  0.2922 -0.7031
   65DPPC   C17 3217   2.233   4.697   4.744  0.1344 -0.2724  0.0731
   65DPPC   C18 3218   2.271   4.827   4.672 -0.0757 -0.2309  0.0362
   65DPPC   C19 3219   2.422   4.850   4.659 -0.1192 -0.1133 -0.2726
   65DPPC   C20 3220   2.444   4.971   4.567  0.5017  0.1070  0.1630
   65DPPC   C21 3221   2.591   4.982   4.525  0.4953 -0.3362  0.0185
   65DPPC   C22 3222   2.611   5.108   4.441  0.5942 -0.2537  0.1651
   65DPPC   C23 3223   2.500   5.101   4.335  0.8244  0.1712 -0.1061
   65DPPC   C24 3224   2.540   5.215   4.241  0.5553  0.3201 -0.0396
   65DPPC   C25 3225   2.677   5.182   4.181  0.4475 -0.1645 -0.0218
   65DPPC   C26 3226   2.741   5.297   4.104  0.1771  0.0569  0.0819
   65DPPC   C27 3227   2.885   5.256   4.069  0.0944  0.0080 -0.2005
   65DPPC   C28 3228   2.954   5.361   3.982  0.5381 -0.2242 -0.1287
   65DPPC   C29 3229   3.097   5.311   3.959  0.3358 -0.7082 -0.3460
   65DPPC   C30 3230   3.181   5.409   3.878 -0.1608  0.0896  0.0928
   65DPPC   C31 3231   3.320   5.346   3.867  0.1524  0.6875  0.5343
   65DPPC   C32 3232   2.600   4.511   5.015  0.3976 -0.2638  0.3252
   65DPPC   O33 3233   2.597   4.369   5.028 -0.1831 -0.3141 -0.2885
   65DPPC   C34 3234   2.723   4.317   5.020 -0.0550  0.0401 -0.5939
   65DPPC   O35 3235   2.824   4.385   5.034 -0.0323 -0.1960  0.4943
   65DPPC   C36 3236   2.718   4.165   5.039 -0.3507  0.1104 -0.0988
   65DPPC   C37 3237   2.655   4.068   4.939 -0.2528  0.2476 -0.2946
   65DPPC   C38 3238   2.725   4.092   4.805  0.0673 -0.6944 -0.3008
   65DPPC   C39 3239   2.670   4.005   4.692 -0.4193  0.0451 -0.6428
   65DPPC   C40 3240   2.764   4.008   4.571  0.0895  0.3392 -0.2480
   65DPPC   C41 3241   2.725   3.940   4.439 -0.0256  0.0121 -0.0494
   65DPPC   C42 3242   2.821   3.951   4.320  0.2969  0.0485  0.2136
   65DPPC   C43 3243   2.809   4.090   4.256 -0.1682 -0.2883 -0.4376
   65DPPC   C44 3244   2.869   4.076   4.116  0.4412 -0.3419 -0.1749
   65DPPC   C45 3245   2.825   4.197   4.034 -0.8405 -1.1213 -0.6677
   65DPPC   C46 3246   2.900   4.183   3.901  0.4510  0.5568 -0.1526
   65DPPC   C47 3247   2.824   4.113   3.788  0.6962  0.0738 -0.0195
   65DPPC   C48 3248   2.907   4.094   3.662  0.0812  0.2436 -0.4577
   65DPPC   C49 3249   2.828   4.008   3.564 -0.1661  0.0546 -0.0938
   65DPPC   C50 3250   2.701   4.086   3.527 -0.1974 -0.2682 -0.6871
   66DPPC    C1 3251   8.109   1.346   1.435  0.3324  0.3537 -0.0199
   66DPPC    C2 3252   8.074   1.578   1.441 -0.1792  0.6339  0.0669
   66DPPC    C3 3253   8.163   1.476   1.630 -0.9410  0.5799 -0.3261
   66DPPC    N4 3254   8.167   1.472   1.483 -0.0141  0.6273 -0.3101
   66DPPC    C5 3255   8.290   1.503   1.409  0.1140  0.5575 -0.1306
   66DPPC    C6 3256   8.400   1.397   1.414 -0.2207  0.1425 -1.1223
   66DPPC    O7 3257   8.514   1.450   1.346  0.4292  0.5193  0.2266
   66DPPC    P8 3258   8.641   1.352   1.330 -0.1516 -0.2609  0.3414
   66DPPC    O9 3259   8.765   1.404   1.269 -0.4894  0.5906  0.3721
   66DPPC   O10 3260   8.585   1.225   1.277 -0.5415  0.1328 -0.2114
   66DPPC   O11 3261   8.661   1.333   1.488  1.1475 -0.0518  0.2119
   66DPPC   C12 3262   8.698   1.447   1.566  0.6131  0.2144  0.0820
   66DPPC   C13 3263   8.653   1.421   1.710  0.6247 -0.0957  0.0312
   66DPPC   O14 3264   8.640   1.538   1.793 -0.5890 -0.0158 -0.2527
   66DPPC   C15 3265   8.524   1.608   1.775 -0.4611  0.2870  0.0901
   66DPPC   O16 3266   8.461   1.599   1.670 -0.2722 -0.1271  0.0110
   66DPPC   C17 3267   8.480   1.704   1.886 -1.2439  0.4449 -0.3524
   66DPPC   C18 3268   8.395   1.636   1.994  0.4881 -0.3764  0.5327
   66DPPC   C19 3269   8.344   1.716   2.113 -0.6014  0.2335 -0.3219
   66DPPC   C20 3270   8.243   1.825   2.077 -0.5424  0.3156 -0.2406
   66DPPC   C21 3271   8.145   1.856   2.190  0.3780 -0.0983  0.6821
   66DPPC   C22 3272   8.055   1.976   2.159  0.0149 -0.3767  0.6676
   66DPPC   C23 3273   7.935   1.972   2.255 -0.0756 -0.0857  0.5682
   66DPPC   C24 3274   7.862   2.105   2.238  0.3254  0.1798  0.9049
   66DPPC   C25 3275   7.733   2.119   2.318  0.0561  0.3482  0.4421
   66DPPC   C26 3276   7.751   2.098   2.468  0.4581  0.3696  0.3958
   66DPPC   C27 3277   7.634   2.117   2.564 -0.4377  0.6391 -0.7365
   66DPPC   C28 3278   7.672   2.071   2.704 -0.1764  0.4098 -0.8825
   66DPPC   C29 3279   7.551   2.090   2.797  0.2347 -0.6167 -0.1092
   66DPPC   C30 3280   7.595   2.081   2.943  0.6409  0.0654 -0.1834
   66DPPC   C31 3281   7.484   2.104   3.046  0.2132 -0.3281 -0.5509
   66DPPC   C32 3282   8.741   1.304   1.755  0.1103 -0.5814 -0.2150
   66DPPC   O33 3283   8.715   1.250   1.884 -0.6716  0.3086  0.0188
   66DPPC   C34 3284   8.596   1.192   1.915 -0.3025 -0.5010 -0.0455
   66DPPC   O35 3285   8.495   1.217   1.850 -0.2908 -0.1456  0.0738
   66DPPC   C36 3286   8.594   1.107   2.043 -0.5485 -0.0483  0.2522
   66DPPC   C37 3287   8.628   1.187   2.169  0.3610 -0.0220 -0.0062
   66DPPC   C38 3288   8.668   1.090   2.280  0.1445 -0.1445 -0.0353
   66DPPC   C39 3289   8.694   1.154   2.416 -1.2123  0.1521  0.1055
   66DPPC   C40 3290   8.714   1.061   2.536 -0.0066  0.5354  0.2169
   66DPPC   C41 3291   8.841   0.975   2.528 -0.0709  0.4385  0.2425
   66DPPC   C42 3292   8.864   0.905   2.662 -0.4009 -0.1669 -0.0132
   66DPPC   C43 3293   8.881   0.992   2.787 -0.1724 -0.0590 -0.1203
   66DPPC   C44 3294   8.917   0.901   2.905  0.5546 -0.1592 -0.4123
   66DPPC   C45 3295   8.906   0.985   3.032 -1.0448 -0.1567 -0.5357
   66DPPC   C46 3296   8.882   0.898   3.156  0.1597 -0.1259 -0.2734
   66DPPC   C47 3297   9.003   0.805   3.167  0.6908  0.5581 -0.1819
   66DPPC   C48 3298   8.991   0.723   3.296  0.1689  0.5144 -0.2555
   66DPPC   C49 3299   9.102   0.622   3.326 -0.4720 -0.2803 -0.5167
   66DPPC   C50 3300   9.086   0.538   3.453  0.2946  0.6792  0.2261
   67DPPC    C1 3301   4.869   3.025   5.976 -0.2041  0.2708  0.0121
   67DPPC    C2 3302   4.674   2.912   5.981  0.1249  0.1487  0.1629
   67DPPC    C3 3303   4.687   3.084   5.826 -0.0020 -0.0697 -0.4087
   67DPPC    N4 3304   4.766   2.974   5.885 -0.0557  0.0818 -0.0521
   67DPPC    C5 3305   4.822   2.875   5.792 -0.2649 -0.0538 -0.0331
   67DPPC    C6 3306   4.906   2.761   5.852 -0.0932 -0.0113 -0.1933
   67DPPC    O7 3307   4.997   2.699   5.762  0.0831  0.1307 -0.1130
   67DPPC    P8 3308   5.061   2.574   5.841 -0.3763  0.0670  0.1589
   67DPPC    O9 3309   5.008   2.551   5.978 -0.1054 -0.3149  0.1997
   67DPPC   O10 3310   5.206   2.575   5.810 -0.1815 -0.0338  1.0299
   67DPPC   O11 3311   4.993   2.457   5.754  0.2520 -0.1804 -0.0091
   67DPPC   C12 3312   5.032   2.475   5.618  0.2103  0.0434  0.0080
   67DPPC   C13 3313   4.978   2.367   5.524  0.2857 -0.0286  0.0474
   67DPPC   O14 3314   5.050   2.356   5.401 -0.3621  0.1938 -0.3555
   67DPPC   C15 3315   5.157   2.272   5.402 -0.0817  0.5494  0.2336
   67DPPC   O16 3316   5.192   2.218   5.507  0.1703 -0.2704 -0.2575
   67DPPC   C17 3317   5.241   2.256   5.275  0.2838 -0.0718  0.5439
   67DPPC   C18 3318   5.240   2.107   5.240 -0.4058  0.1445 -0.3933
   67DPPC   C19 3319   5.310   2.104   5.104  0.5681 -0.7540  0.1190
   67DPPC   C20 3320   5.441   2.179   5.126 -0.1685  0.5841  0.0132
   67DPPC   C21 3321   5.525   2.179   4.999  0.0669  0.1672  0.1685
   67DPPC   C22 3322   5.670   2.225   5.013  0.0377  0.3156 -0.0161
   67DPPC   C23 3323   5.749   2.216   4.882  0.5781  0.6471  0.2806
   67DPPC   C24 3324   5.683   2.293   4.767 -0.2434 -0.1923  0.1785
   67DPPC   C25 3325   5.770   2.296   4.642 -0.2976 -0.2800  0.1379
   67DPPC   C26 3326   5.701   2.375   4.530  0.5610  0.3368  0.0278
   67DPPC   C27 3327   5.779   2.354   4.400  0.0508 -0.1133 -0.2077
   67DPPC   C28 3328   5.696   2.391   4.276 -0.4484 -0.1434  0.1146
   67DPPC   C29 3329   5.762   2.361   4.142 -0.6685 -0.0999 -0.0040
   67DPPC   C30 3330   5.696   2.437   4.027  0.3134  0.1944 -0.3905
   67DPPC   C31 3331   5.772   2.399   3.900  0.5521  0.0917 -0.2171
   67DPPC   C32 3332   4.828   2.387   5.504  0.2997 -0.4476 -0.4948
   67DPPC   O33 3333   4.780   2.502   5.434  0.2156 -0.2121 -0.0550
   67DPPC   C34 3334   4.645   2.515   5.439  0.2607  0.2785 -0.0623
   67DPPC   O35 3335   4.582   2.488   5.541 -0.0827 -0.4632 -0.4631
   67DPPC   C36 3336   4.589   2.580   5.313 -0.4867  0.2270  0.2402
   67DPPC   C37 3337   4.591   2.733   5.324 -0.3077  0.2341  0.1130
   67DPPC   C38 3338   4.524   2.782   5.195  0.2817  0.0636 -0.2600
   67DPPC   C39 3339   4.567   2.736   5.056 -0.1300 -0.4773 -0.2117
   67DPPC   C40 3340   4.491   2.804   4.941 -0.0268  0.5711  0.3296
   67DPPC   C41 3341   4.552   2.768   4.806 -0.4736  0.0554  0.2606
   67DPPC   C42 3342   4.511   2.865   4.695  0.6769 -0.3048 -0.5028
   67DPPC   C43 3343   4.545   3.010   4.728 -0.7060 -0.2020  0.5544
   67DPPC   C44 3344   4.487   3.087   4.608  0.3793 -0.4436 -0.1337
   67DPPC   C45 3345   4.542   3.033   4.476  0.1296 -0.1295 -0.3646
   67DPPC   C46 3346   4.501   3.117   4.354  0.1757  0.3820 -0.0317
   67DPPC   C47 3347   4.566   3.068   4.224  0.0609  0.2168 -0.0259
   67DPPC   C48 3348   4.533   3.154   4.102  0.5336 -0.0418 -0.3380
   67DPPC   C49 3349   4.592   3.074   3.986  0.0404 -0.4360 -0.3214
   67DPPC   C50 3350   4.615   3.168   3.868  0.6353  0.0349  0.1641
   68DPPC    C1 3351   0.674   4.041   1.092  0.3188  0.0265  0.0384
   68DPPC    C2 3352   0.871   3.943   0.998 -0.6380  0.1046 -0.1836
   68DPPC    C3 3353   0.913   4.101   1.144  0.4319 -0.2805  0.2984
   68DPPC    N4 3354   0.811   3.997   1.121  0.2249 -0.0839  0.3239
   68DPPC    C5 3355   0.814   3.899   1.230  0.1310  0.2195  0.6011
   68DPPC    C6 3356   0.753   3.761   1.200 -0.0818  0.2879  0.7167
   68DPPC    O7 3357   0.771   3.664   1.303  0.3616 -0.3477  0.0481
   68DPPC    P8 3358   0.703   3.521   1.275  0.3913 -0.4497  0.4835
   68DPPC    O9 3359   0.797   3.409   1.297  0.2867 -0.5123  0.6125
   68DPPC   O10 3360   0.631   3.527   1.145  0.6309  0.6631  0.3910
   68DPPC   O11 3361   0.614   3.548   1.406 -0.1983 -0.1273  0.0257
   68DPPC   C12 3362   0.702   3.528   1.517  0.1991 -0.2014 -0.2996
   68DPPC   C13 3363   0.667   3.624   1.631  0.1163 -0.6738  0.0766
   68DPPC   O14 3364   0.741   3.584   1.747  0.0778 -0.2719  0.2436
   68DPPC   C15 3365   0.851   3.653   1.788 -0.3883  0.5929  0.0565
   68DPPC   O16 3366   0.906   3.736   1.716 -0.2562  0.2989 -0.1818
   68DPPC   C17 3367   0.893   3.617   1.931  0.2725  0.6693 -0.1177
   68DPPC   C18 3368   0.813   3.680   2.045 -0.2129  0.3939 -0.3001
   68DPPC   C19 3369   0.795   3.827   2.009 -0.1667  0.4376 -0.1439
   68DPPC   C20 3370   0.702   3.887   2.115 -0.3993 -0.4346  0.1490
   68DPPC   C21 3371   0.768   3.867   2.251  0.2841 -0.1636 -0.1408
   68DPPC   C22 3372   0.666   3.939   2.339 -0.0040 -0.2513 -0.4051
   68DPPC   C23 3373   0.696   3.933   2.489  0.1505  0.0665 -0.4243
   68DPPC   C24 3374   0.587   4.012   2.561  0.4883  0.1209  0.0362
   68DPPC   C25 3375   0.578   4.162   2.530  0.4053  0.0804 -0.1386
   68DPPC   C26 3376   0.451   4.225   2.587  0.4247 -0.4024  0.4450
   68DPPC   C27 3377   0.448   4.196   2.738 -0.0365 -0.5073  0.4179
   68DPPC   C28 3378   0.322   4.240   2.813  0.1291  0.4108  0.1688
   68DPPC   C29 3379   0.317   4.219   2.964  0.6566  0.0623  0.1415
   68DPPC   C30 3380   0.316   4.070   2.997  0.1421  0.1513  0.5343
   68DPPC   C31 3381   0.298   4.040   3.146  0.2690 -0.7754  0.3676
   68DPPC   C32 3382   0.516   3.610   1.655  0.0265 -0.0832 -0.1146
   68DPPC   O33 3383   0.460   3.716   1.733  0.3175 -0.2345  0.3036
   68DPPC   C34 3384   0.350   3.676   1.802 -0.3496  0.3180 -0.4235
   68DPPC   O35 3385   0.282   3.585   1.757 -0.0803  0.0463 -0.2849
   68DPPC   C36 3386   0.279   3.784   1.885 -0.2147  0.0923 -0.0108
   68DPPC   C37 3387   0.278   3.751   2.035  0.0922  0.2294  0.0212
   68DPPC   C38 3388   0.251   3.862   2.136  0.4926  0.8813 -0.5725
   68DPPC   C39 3389   0.103   3.901   2.137 -0.1471 -1.3919  0.3961
   68DPPC   C40 3390   0.005   3.810   2.211 -0.3185 -0.4985  1.2979
   68DPPC   C41 3391  -0.138   3.858   2.186  0.0903  0.3021  0.4485
   68DPPC   C42 3392  -0.235   3.760   2.252 -0.3771  0.2204 -0.3414
   68DPPC   C43 3393  -0.206   3.769   2.402 -0.3004  0.0479 -0.3456
   68DPPC   C44 3394  -0.309   3.668   2.454 -0.0473  0.0712  0.2116
   68DPPC   C45 3395  -0.444   3.736   2.471 -0.2010 -0.2966  0.4624
   68DPPC   C46 3396  -0.438   3.857   2.565 -0.3334  0.2983 -0.2899
   68DPPC   C47 3397  -0.579   3.916   2.559 -0.4480  0.0404 -0.1323
   68DPPC   C48 3398  -0.611   4.042   2.640 -0.1632 -0.0615  0.1417
   68DPPC   C49 3399  -0.755   4.090   2.619 -0.1882 -0.0360  0.3724
   68DPPC   C50 3400  -0.841   3.981   2.682  0.1928 -0.2812  0.4754
   69DPPC    C1 3401   5.480   2.612   6.339 -0.6710  0.4410  0.2669
   69DPPC    C2 3402   5.543   2.617   6.112 -0.6041  0.0611 -0.0568
   69DPPC    C3 3403   5.486   2.408   6.217 -0.2413  0.0316  0.1273
   69DPPC    N4 3404   5.453   2.551   6.208 -0.1856  0.0597  0.3414
   69DPPC    C5 3405   5.314   2.584   6.173 -0.2567 -0.3869  0.1908
   69DPPC    C6 3406   5.259   2.719   6.220 -0.0917 -0.0908 -0.4659
   69DPPC    O7 3407   5.308   2.839   6.158 -0.3517 -0.0016 -0.4989
   69DPPC    P8 3408   5.217   2.971   6.143 -0.2557  0.0950 -0.2273
   69DPPC    O9 3409   5.302   3.078   6.201 -0.3195 -0.4426  0.8740
   69DPPC   O10 3410   5.086   2.930   6.197  0.0771 -0.0115  0.5143
   69DPPC   O11 3411   5.224   2.952   5.984 -0.3307 -0.7054 -0.1369
   69DPPC   C12 3412   5.351   2.980   5.925 -0.1337 -0.2424  0.5008
   69DPPC   C13 3413   5.331   2.947   5.777 -0.2111  0.0803  0.4370
   69DPPC   O14 3414   5.441   2.991   5.696 -0.1925 -0.2763  0.2653
   69DPPC   C15 3415   5.469   3.116   5.649 -0.3941 -0.5152 -0.5132
   69DPPC   O16 3416   5.426   3.212   5.712 -0.2096 -0.4506 -0.4867
   69DPPC   C17 3417   5.587   3.131   5.554 -0.0485 -0.1810 -0.0372
   69DPPC   C18 3418   5.519   3.116   5.417  0.2727  0.2179 -0.2425
   69DPPC   C19 3419   5.626   3.120   5.307  0.2198  0.2812 -0.2921
   69DPPC   C20 3420   5.581   3.071   5.169  0.2559  0.0155 -0.2102
   69DPPC   C21 3421   5.697   3.086   5.070  0.2705  0.2981 -0.1490
   69DPPC   C22 3422   5.656   3.068   4.924  0.0628 -0.2058 -0.0275
   69DPPC   C23 3423   5.778   3.116   4.846  0.0219 -0.3301 -0.1703
   69DPPC   C24 3424   5.736   3.168   4.708  0.6675 -0.3377 -0.3747
   69DPPC   C25 3425   5.865   3.229   4.655  0.5335 -0.1213 -0.4501
   69DPPC   C26 3426   5.861   3.299   4.519  0.2177 -0.1329 -0.4486
   69DPPC   C27 3427   5.816   3.203   4.409 -0.0566 -0.4033 -0.1012
   69DPPC   C28 3428   5.777   3.270   4.277 -0.2216  0.3350  0.3238
   69DPPC   C29 3429   5.742   3.160   4.178  0.2683  0.3144  0.1757
   69DPPC   C30 3430   5.723   3.223   4.040  0.2298 -0.2063 -0.0628
   69DPPC   C31 3431   5.688   3.120   3.932  0.4054  0.2182 -0.5310
   69DPPC   C32 3432   5.195   3.003   5.738 -0.4474 -0.6775  0.1562
   69DPPC   O33 3433   5.164   2.962   5.604  0.0935 -0.3366 -0.0744
   69DPPC   C34 3434   5.054   3.013   5.542  0.2605  0.0462 -0.0565
   69DPPC   O35 3435   4.976   3.089   5.598  0.1683 -0.1622  0.0980
   69DPPC   C36 3436   5.055   3.001   5.390 -0.7945  0.6727 -0.1233
   69DPPC   C37 3437   4.995   2.867   5.347  0.0199  0.1495  0.3473
   69DPPC   C38 3438   5.049   2.823   5.211 -0.0672 -0.1060  0.3944
   69DPPC   C39 3439   4.992   2.688   5.166  0.1469 -0.0294 -0.1117
   69DPPC   C40 3440   5.005   2.669   5.014 -0.4252  0.4026 -0.2210
   69DPPC   C41 3441   5.017   2.521   4.978  0.1320  0.4016 -0.0393
   69DPPC   C42 3442   5.072   2.494   4.838 -0.0108 -0.0575 -0.0084
   69DPPC   C43 3443   5.125   2.352   4.815 -0.2056 -0.0884 -0.2722
   69DPPC   C44 3444   5.189   2.331   4.678  0.2189  0.2347 -0.1279
   69DPPC   C45 3445   5.248   2.190   4.682  0.8707  0.5220  0.5466
   69DPPC   C46 3446   5.346   2.163   4.568 -0.0196  0.6547 -0.2623
   69DPPC   C47 3447   5.275   2.191   4.435 -0.4965 -0.2549 -0.2080
   69DPPC   C48 3448   5.374   2.155   4.324  0.0534  0.3491  0.0732
   69DPPC   C49 3449   5.310   2.178   4.187  0.0141 -0.4101 -0.0418
   69DPPC   C50 3450   5.282   2.328   4.181 -0.6585 -0.5281  0.1266
   70DPPC    C1 3451   2.692   0.100   5.246 -0.5615  0.3357 -0.0824
   70DPPC    C2 3452   2.787  -0.011   5.052  0.1134 -0.4779  0.1745
   70DPPC    C3 3453   2.917   0.089   5.235  0.5812 -0.9986 -0.0842
   70DPPC    N4 3454   2.799   0.011   5.197 -0.4224  0.4038  0.0953
   70DPPC    C5 3455   2.777  -0.103   5.288 -0.4872 -0.2644 -0.7478
   70DPPC    C6 3456   2.885  -0.212   5.294  0.0389  0.3001  0.3023
   70DPPC    O7 3457   2.931  -0.266   5.170 -0.4096 -0.2377  0.3662
   70DPPC    P8 3458   2.986  -0.414   5.199 -0.1073 -0.2436 -0.2197
   70DPPC    O9 3459   2.871  -0.470   5.273 -0.1985  0.6805  0.3441
   70DPPC   O10 3460   3.110  -0.372   5.268 -0.1549 -0.4226 -0.0208
   70DPPC   O11 3461   2.991  -0.465   5.046  0.0320  0.4229 -0.4392
   70DPPC   C12 3462   2.862  -0.459   4.986 -0.4666 -0.6902  0.4812
   70DPPC   C13 3463   2.881  -0.484   4.836  0.1226  0.3246  0.3834
   70DPPC   O14 3464   2.902  -0.619   4.795 -0.2076  0.2449  0.4744
   70DPPC   C15 3465   2.809  -0.718   4.807 -0.1703  0.1400 -0.0726
   70DPPC   O16 3466   2.696  -0.691   4.845 -0.0550 -0.1458  0.4792
   70DPPC   C17 3467   2.845  -0.857   4.755 -0.6386 -0.1523  0.3798
   70DPPC   C18 3468   2.870  -0.837   4.605  0.2180 -0.6712  0.4449
   70DPPC   C19 3469   2.872  -0.967   4.524 -0.1509 -0.2884 -0.1841
   70DPPC   C20 3470   2.928  -0.928   4.387 -0.5234  0.7422 -0.0508
   70DPPC   C21 3471   3.070  -0.872   4.403 -0.2132 -0.1843  0.5277
   70DPPC   C22 3472   3.117  -0.828   4.264 -0.1283 -1.2330  0.2176
   70DPPC   C23 3473   3.268  -0.819   4.238 -0.1587 -0.0332  0.4128
   70DPPC   C24 3474   3.303  -0.746   4.108  0.0187 -0.5599  0.1632
   70DPPC   C25 3475   3.446  -0.690   4.108 -0.2002  0.0114  0.5794
   70DPPC   C26 3476   3.459  -0.623   3.971 -0.0380 -0.6195  0.2815
   70DPPC   C27 3477   3.606  -0.589   3.949 -0.2277  0.0466  0.0306
   70DPPC   C28 3478   3.639  -0.510   3.821 -0.4476  0.1901  0.0619
   70DPPC   C29 3479   3.787  -0.540   3.797 -0.5529 -0.3791  0.0910
   70DPPC   C30 3480   3.872  -0.492   3.915 -0.1581 -0.7320 -0.0497
   70DPPC   C31 3481   4.019  -0.520   3.883 -0.1015 -0.1675 -0.2799
   70DPPC   C32 3482   2.993  -0.392   4.786  0.0291 -0.0010 -0.4385
   70DPPC   O33 3483   2.949  -0.256   4.780  0.3911  0.1534  0.2856
   70DPPC   C34 3484   3.044  -0.168   4.740  0.5906  0.2149  0.8767
   70DPPC   O35 3485   3.156  -0.209   4.710  0.0017 -0.7948 -0.0406
   70DPPC   C36 3486   2.999  -0.025   4.710  0.6994  0.2322  0.7971
   70DPPC   C37 3487   3.070   0.038   4.590 -0.2146 -0.1796  0.0221
   70DPPC   C38 3488   2.997   0.166   4.548 -0.5437 -0.1593  0.6381
   70DPPC   C39 3489   3.041   0.208   4.407 -0.1763 -0.0464  0.7840
   70DPPC   C40 3490   2.964   0.111   4.316  0.1215  0.0263  0.4565
   70DPPC   C41 3491   3.007   0.114   4.169 -0.2051  0.2777  0.3656
   70DPPC   C42 3492   2.957  -0.012   4.097 -0.0699  0.6143 -0.3241
   70DPPC   C43 3493   2.805  -0.022   4.106 -0.0104 -0.0955 -0.0786
   70DPPC   C44 3494   2.747   0.092   4.023 -0.0670  0.1022  0.2305
   70DPPC   C45 3495   2.692   0.049   3.887  0.3269 -0.4722  0.2512
   70DPPC   C46 3496   2.540   0.030   3.876  0.2369  0.1141  0.4471
   70DPPC   C47 3497   2.497  -0.032   3.743 -0.2980  0.4199  0.4755
   70DPPC   C48 3498   2.348  -0.063   3.725 -0.1211 -0.2585  0.1769
   70DPPC   C49 3499   2.318  -0.150   3.603 -0.3684 -0.3014  0.2680
   70DPPC   C50 3500   2.167  -0.167   3.586 -0.2934 -0.6649 -0.0579
   71DPPC    C1 3501   3.984   3.741   5.502  0.2464 -0.4062 -0.3207
   71DPPC    C2 3502   4.019   3.830   5.727 -0.5762  0.1756 -0.0324
   71DPPC    C3 3503   4.035   3.596   5.666  0.4218  0.0914 -0.3653
   71DPPC    N4 3504   4.064   3.734   5.625 -0.1735  0.3282  0.0028
   71DPPC    C5 3505   4.207   3.765   5.608 -0.1306  0.2107  0.1438
   71DPPC    C6 3506   4.294   3.772   5.733 -0.0395  0.2110  0.0808
   71DPPC    O7 3507   4.309   3.645   5.796 -0.7496  0.2583  0.3528
   71DPPC    P8 3508   4.409   3.646   5.922  0.0909 -0.0608 -0.3033
   71DPPC    O9 3509   4.390   3.527   6.008  0.3240  0.1526  0.0487
   71DPPC   O10 3510   4.407   3.780   5.985 -0.7024 -0.0831 -0.2673
   71DPPC   O11 3511   4.539   3.643   5.827  0.3345  0.0653  0.0223
   71DPPC   C12 3512   4.569   3.510   5.783 -0.4922 -0.1655  0.1390
   71DPPC   C13 3513   4.645   3.510   5.650  0.3575 -0.3227  0.6183
   71DPPC   O14 3514   4.786   3.534   5.650  0.3582 -0.3218 -0.1222
   71DPPC   C15 3515   4.856   3.422   5.682  0.4363 -0.1190  0.4178
   71DPPC   O16 3516   4.819   3.355   5.778  0.2748 -0.3595  0.1871
   71DPPC   C17 3517   5.005   3.424   5.646  0.3010  0.2517 -0.1371
   71DPPC   C18 3518   5.021   3.402   5.496 -0.0730  0.0207 -0.1444
   71DPPC   C19 3519   5.161   3.439   5.448 -0.0100 -0.0151  0.0115
   71DPPC   C20 3520   5.183   3.391   5.304 -0.3510 -0.6077  0.1561
   71DPPC   C21 3521   5.306   3.451   5.236 -0.2872  0.0492  0.8381
   71DPPC   C22 3522   5.282   3.416   5.089  0.3215 -0.2476  0.8064
   71DPPC   C23 3523   5.311   3.268   5.060  0.0809 -0.2228  0.4347
   71DPPC   C24 3524   5.304   3.246   4.909 -0.7238  0.1185  0.4184
   71DPPC   C25 3525   5.378   3.337   4.810 -0.1765 -0.4140  0.3331
   71DPPC   C26 3526   5.370   3.275   4.671 -0.3823  0.9515 -0.2700
   71DPPC   C27 3527   5.417   3.366   4.557  0.3202  0.4944 -0.3464
   71DPPC   C28 3528   5.377   3.301   4.424  0.0497 -0.0680  0.0079
   71DPPC   C29 3529   5.422   3.390   4.308  0.5567  0.1272  0.3475
   71DPPC   C30 3530   5.377   3.335   4.173  0.0498  0.4707  0.3729
   71DPPC   C31 3531   5.416   3.427   4.057 -0.1750 -0.2091 -0.2536
   71DPPC   C32 3532   4.563   3.597   5.554  0.1865 -0.8980  0.2396
   71DPPC   O33 3533   4.586   3.569   5.416  0.2675 -0.4582  0.1624
   71DPPC   C34 3534   4.507   3.638   5.329  0.1255 -0.3449  0.3813
   71DPPC   O35 3535   4.435   3.730   5.366  0.5102  0.1324 -0.0575
   71DPPC   C36 3536   4.508   3.602   5.181  0.5054 -0.3484  0.3837
   71DPPC   C37 3537   4.415   3.486   5.145 -0.1433  0.2860 -0.0215
   71DPPC   C38 3538   4.392   3.445   5.000 -0.3667  0.0573  0.0784
   71DPPC   C39 3539   4.284   3.336   5.005 -0.0921 -0.1978  0.4345
   71DPPC   C40 3540   4.227   3.310   4.866  0.6642 -0.2417  0.1248
   71DPPC   C41 3541   4.174   3.440   4.805  0.2237 -0.5248 -0.1069
   71DPPC   C42 3542   4.156   3.419   4.655  0.0191 -0.0995 -0.1448
   71DPPC   C43 3543   4.105   3.541   4.579 -0.0556 -0.0663 -0.0400
   71DPPC   C44 3544   4.101   3.503   4.431 -0.0733 -0.4293  0.0545
   71DPPC   C45 3545   4.248   3.479   4.399 -0.0911 -0.4637 -0.0023
   71DPPC   C46 3546   4.275   3.417   4.262 -0.4275 -0.0656 -0.2489
   71DPPC   C47 3547   4.221   3.504   4.147  0.3249  0.1361 -0.4541
   71DPPC   C48 3548   4.284   3.466   4.013  0.1133 -0.2116 -0.4567
   71DPPC   C49 3549   4.272   3.577   3.909  0.0906  0.3476  0.1346
   71DPPC   C50 3550   4.128   3.603   3.864  0.0342  0.6659  0.4945
   72DPPC    C1 3551   0.937   8.473   4.742 -0.7452  0.0902 -0.6354
   72DPPC    C2 3552   1.095   8.617   4.833 -1.0020  0.0892  0.1270
   72DPPC    C3 3553   0.865   8.630   4.898 -0.5543 -0.5739 -0.0793
   72DPPC    N4 3554   0.976   8.538   4.868 -0.6552 -0.6303 -0.2868
   72DPPC    C5 3555   0.994   8.441   4.978  0.4895 -0.4533 -0.3012
   72DPPC    C6 3556   1.084   8.319   4.962  0.5526 -0.4825  0.2700
   72DPPC    O7 3557   1.214   8.354   4.914  0.2814  0.3274  0.1011
   72DPPC    P8 3558   1.321   8.233   4.905 -0.2674 -0.1212 -0.4118
   72DPPC    O9 3559   1.261   8.139   5.002 -0.6300  0.2652 -0.2598
   72DPPC   O10 3560   1.456   8.292   4.919  0.0291 -0.8149 -0.3264
   72DPPC   O11 3561   1.295   8.157   4.765  0.4808 -0.4900 -0.3523
   72DPPC   C12 3562   1.276   8.265   4.673 -0.4036 -0.1454  0.2271
   72DPPC   C13 3563   1.258   8.234   4.524  0.1431  0.0255  0.1222
   72DPPC   O14 3564   1.274   8.353   4.446 -0.4042  0.1545  0.1999
   72DPPC   C15 3565   1.359   8.366   4.341 -0.5102  0.0732  0.1048
   72DPPC   O16 3566   1.455   8.292   4.317 -0.1799  0.3528  0.5484
   72DPPC   C17 3567   1.325   8.493   4.262 -0.6020  0.0302  0.0758
   72DPPC   C18 3568   1.348   8.468   4.113  0.4634 -0.6055  0.3326
   72DPPC   C19 3569   1.341   8.586   4.016  0.0684 -0.7759  0.1525
   72DPPC   C20 3570   1.337   8.532   3.872  0.1250  0.3475 -0.2801
   72DPPC   C21 3571   1.270   8.641   3.787  0.0426  0.2184 -0.3797
   72DPPC   C22 3572   1.305   8.630   3.639  0.4094 -0.6717 -0.2329
   72DPPC   C23 3573   1.260   8.749   3.555 -0.3681 -0.3707  0.6016
   72DPPC   C24 3574   1.287   8.723   3.407  0.6698  0.6716  0.5887
   72DPPC   C25 3575   1.267   8.845   3.317 -0.4188  0.1913  0.1561
   72DPPC   C26 3576   1.273   8.813   3.168 -0.0433 -0.4858  0.3134
   72DPPC   C27 3577   1.158   8.722   3.124 -0.1500 -0.3187  0.2444
   72DPPC   C28 3578   1.028   8.797   3.153 -0.2634 -0.0139 -1.0214
   72DPPC   C29 3579   0.907   8.703   3.157  0.0912 -0.4417  0.0936
   72DPPC   C30 3580   0.789   8.794   3.191  0.4519  0.0680  0.0113
   72DPPC   C31 3581   0.806   8.829   3.339 -0.1406  0.0507  0.0880
   72DPPC   C32 3582   1.129   8.153   4.512  0.0144  0.2505 -0.0107
   72DPPC   O33 3583   1.006   8.225   4.515  0.1088  0.4177 -0.1643
   72DPPC   C34 3584   0.904   8.147   4.471  0.4349 -0.0426 -0.1006
   72DPPC   O35 3585   0.884   8.027   4.494  0.2814 -0.1098 -0.5802
   72DPPC   C36 3586   0.778   8.222   4.428 -0.1250 -0.7991  0.1959
   72DPPC   C37 3587   0.740   8.196   4.282  0.6898  0.6443 -0.2888
   72DPPC   C38 3588   0.620   8.276   4.233  0.3944  0.1653 -0.3548
   72DPPC   C39 3589   0.609   8.272   4.081 -0.5447  0.2021 -0.2949
   72DPPC   C40 3590   0.592   8.124   4.044 -0.5754  0.2285 -0.3896
   72DPPC   C41 3591   0.566   8.098   3.895 -0.1736 -0.6179 -0.3127
   72DPPC   C42 3592   0.424   8.141   3.859  0.0516  0.3912 -0.0333
   72DPPC   C43 3593   0.426   8.123   3.707  0.1765  0.3497 -0.0272
   72DPPC   C44 3594   0.308   8.196   3.644  0.0334 -0.3079 -0.5302
   72DPPC   C45 3595   0.180   8.156   3.717  0.1173 -0.3309 -0.3960
   72DPPC   C46 3596   0.065   8.225   3.644  0.0106 -0.1907 -0.0985
   72DPPC   C47 3597  -0.069   8.170   3.693 -0.0165 -0.2041 -0.1856
   72DPPC   C48 3598  -0.167   8.238   3.596 -0.0632 -0.1368 -0.0915
   72DPPC   C49 3599  -0.311   8.201   3.633  0.0394 -0.0582  0.3993
   72DPPC   C50 3600  -0.325   8.050   3.617 -0.2586  0.0146 -0.0464
   73DPPC    C1 3601   8.466   8.281   4.928 -0.3347 -0.1130  0.9614
   73DPPC    C2 3602   8.377   8.166   4.731 -0.6117  0.0963  0.6107
   73DPPC    C3 3603   8.578   8.095   4.831 -0.3123 -0.4100  0.2662
   73DPPC    N4 3604   8.446   8.152   4.860 -0.0544  0.1724  0.3251
   73DPPC    C5 3605   8.381   8.055   4.950 -0.2930  0.2683  0.2552
   73DPPC    C6 3606   8.257   8.091   5.033  0.2046  0.7624  0.8002
   73DPPC    O7 3607   8.210   7.969   5.092 -0.1728  0.4238 -0.1710
   73DPPC    P8 3608   8.059   7.959   5.146 -0.1529 -0.2213 -0.2256
   73DPPC    O9 3609   8.036   8.088   5.215  0.2364 -0.2730  0.0012
   73DPPC   O10 3610   8.045   7.826   5.210  0.1392 -0.1476 -0.0062
   73DPPC   O11 3611   7.993   7.956   4.999 -0.2326  0.0763 -0.1963
   73DPPC   C12 3612   8.021   7.827   4.945  0.0637  0.0580 -0.0008
   73DPPC   C13 3613   7.951   7.787   4.815 -0.2178  0.6541 -0.0375
   73DPPC   O14 3614   7.996   7.860   4.700  0.3506 -0.1142 -0.3184
   73DPPC   C15 3615   8.117   7.837   4.644  0.2100 -0.4223 -0.4950
   73DPPC   O16 3616   8.207   7.790   4.714  0.2240  0.2360 -0.0729
   73DPPC   C17 3617   8.155   7.912   4.516  0.3478  0.4437  0.0474
   73DPPC   C18 3618   8.190   7.813   4.405 -0.2114 -0.3295  0.5472
   73DPPC   C19 3619   8.077   7.728   4.346 -0.0067 -0.0661 -0.2432
   73DPPC   C20 3620   8.146   7.629   4.252  0.4080 -0.3308  0.3328
   73DPPC   C21 3621   8.153   7.491   4.317 -0.4625 -0.4812  0.1135
   73DPPC   C22 3622   8.211   7.388   4.220  0.1922 -0.0989  0.0925
   73DPPC   C23 3623   8.344   7.441   4.167  0.1403 -0.0009  0.0591
   73DPPC   C24 3624   8.393   7.353   4.052  0.2534  0.0896  0.0372
   73DPPC   C25 3625   8.308   7.362   3.924  0.5735  0.0184 -0.1826
   73DPPC   C26 3626   8.381   7.313   3.799  0.0751  0.1647 -0.5334
   73DPPC   C27 3627   8.446   7.178   3.833  0.1833  0.2385 -0.4434
   73DPPC   C28 3628   8.515   7.141   3.701  0.4492 -0.1940 -0.1842
   73DPPC   C29 3629   8.630   7.232   3.658  0.6549 -0.2167  0.3123
   73DPPC   C30 3630   8.688   7.199   3.520  0.2861 -0.0589  0.1183
   73DPPC   C31 3631   8.819   7.270   3.483  0.2135 -0.1963 -0.4112
   73DPPC   C32 3632   7.801   7.796   4.840 -0.3288 -1.3172  0.1743
   73DPPC   O33 3633   7.720   7.768   4.726  0.0589  0.6061 -0.5980
   73DPPC   C34 3634   7.729   7.641   4.679  0.0470  0.4126 -0.0824
   73DPPC   O35 3635   7.788   7.556   4.744  0.2562  0.3365 -0.3673
   73DPPC   C36 3636   7.667   7.609   4.543  0.4180 -0.1689 -0.1166
   73DPPC   C37 3637   7.713   7.474   4.485  0.3613 -0.2897  0.1208
   73DPPC   C38 3638   7.640   7.435   4.357 -0.3177 -0.0389  0.4298
   73DPPC   C39 3639   7.660   7.538   4.246 -0.0060 -0.3457  0.1981
   73DPPC   C40 3640   7.605   7.488   4.112  0.2705 -0.3791  0.0973
   73DPPC   C41 3641   7.646   7.593   4.008 -0.4866 -0.1205  0.0557
   73DPPC   C42 3642   7.637   7.535   3.866 -0.0737  0.0730 -0.0494
   73DPPC   C43 3643   7.714   7.636   3.780 -0.3922  0.3850  0.0286
   73DPPC   C44 3644   7.773   7.576   3.652 -0.0315  0.2334  0.2646
   73DPPC   C45 3645   7.845   7.676   3.562  0.0273 -0.3301 -0.3247
   73DPPC   C46 3646   7.753   7.794   3.531  0.2483 -0.2631 -0.7268
   73DPPC   C47 3647   7.818   7.897   3.438  0.3523  0.1326 -0.2156
   73DPPC   C48 3648   7.931   7.971   3.509  0.5615  0.2438 -0.6610
   73DPPC   C49 3649   7.889   8.114   3.542  0.0592 -0.1707  0.5518
   73DPPC   C50 3650   8.020   8.182   3.582  0.3465  0.2000 -0.9636
   74DPPC    C1 3651   5.864   4.834   5.767  0.1821  0.4276  0.3690
   74DPPC    C2 3652   5.659   4.943   5.676 -0.3411 -0.1014  0.1726
   74DPPC    C3 3653   5.868   5.034   5.642  0.1372 -0.2036 -0.0480
   74DPPC    N4 3654   5.800   4.905   5.656 -0.2686  0.0540  0.3865
   74DPPC    C5 3655   5.794   4.820   5.536  0.2231 -0.1280  0.4907
   74DPPC    C6 3656   5.916   4.808   5.444 -0.2717  0.0567 -0.1955
   74DPPC    O7 3657   5.915   4.689   5.364 -0.1063  0.1880 -0.3937
   74DPPC    P8 3658   6.073   4.672   5.342 -0.1194 -0.1792 -0.2116
   74DPPC    O9 3659   6.103   4.557   5.254  0.6818  0.0246 -0.2187
   74DPPC   O10 3660   6.147   4.689   5.470  0.0560 -0.2398 -0.3043
   74DPPC   O11 3661   6.107   4.804   5.256  0.3358  0.0993  0.3791
   74DPPC   C12 3662   6.215   4.770   5.169 -0.0317  0.2091 -0.1271
   74DPPC   C13 3663   6.237   4.862   5.049 -0.3331 -0.1778 -0.4823
   74DPPC   O14 3664   6.368   4.862   4.991 -0.2769  0.0607 -0.3600
   74DPPC   C15 3665   6.401   4.760   4.907 -0.2978 -0.1657 -0.0921
   74DPPC   O16 3666   6.336   4.656   4.916 -0.6735  0.0443 -0.3451
   74DPPC   C17 3667   6.524   4.790   4.822 -0.2248 -0.2001  0.0017
   74DPPC   C18 3668   6.486   4.794   4.674  0.2483 -0.0874 -0.1185
   74DPPC   C19 3669   6.606   4.848   4.596  0.2520 -0.0848 -0.1111
   74DPPC   C20 3670   6.562   4.854   4.449  0.0517 -0.5605 -0.0707
   74DPPC   C21 3671   6.445   4.951   4.428  0.2680 -0.1649  0.5042
   74DPPC   C22 3672   6.368   4.916   4.300  0.5156  0.4127  0.1917
   74DPPC   C23 3673   6.461   4.925   4.179  0.3796  0.0887  0.0607
   74DPPC   C24 3674   6.379   4.915   4.051  0.1808  0.1921  0.1794
   74DPPC   C25 3675   6.470   4.941   3.930  0.0908  0.7583  0.2284
   74DPPC   C26 3676   6.392   4.907   3.803  0.6706  0.2659 -0.0009
   74DPPC   C27 3677   6.493   4.853   3.702  0.2689 -0.4462 -0.0349
   74DPPC   C28 3678   6.432   4.785   3.579 -0.2041 -0.3432  0.1412
   74DPPC   C29 3679   6.367   4.656   3.629 -0.0223 -0.3486  0.3652
   74DPPC   C30 3680   6.454   4.561   3.712  0.7043 -0.0817 -0.0820
   74DPPC   C31 3681   6.368   4.444   3.759  0.3412  0.1305 -0.2110
   74DPPC   C32 3682   6.209   5.001   5.107  0.2955 -0.3464  0.2366
   74DPPC   O33 3683   6.169   5.085   4.998 -0.2744 -0.2372  0.5247
   74DPPC   C34 3684   6.180   5.219   5.016 -0.3853 -0.1547 -0.0141
   74DPPC   O35 3685   6.191   5.265   5.129 -0.1990  0.6804 -0.3663
   74DPPC   C36 3686   6.175   5.317   4.899 -0.1123 -0.0242  0.0836
   74DPPC   C37 3687   6.154   5.237   4.770  0.3493  0.2112 -0.1425
   74DPPC   C38 3688   6.193   5.328   4.653  0.0006  0.4708 -0.0617
   74DPPC   C39 3689   6.340   5.368   4.670  0.1054 -0.0764  0.3787
   74DPPC   C40 3690   6.392   5.446   4.549 -0.1066 -0.0858  0.2805
   74DPPC   C41 3691   6.409   5.351   4.430 -0.2514  0.2497 -0.0103
   74DPPC   C42 3692   6.484   5.424   4.319  0.1804 -0.1520  0.0115
   74DPPC   C43 3693   6.470   5.347   4.188  0.8388 -0.1940 -0.0383
   74DPPC   C44 3694   6.551   5.406   4.073  0.4828 -0.0370 -0.2106
   74DPPC   C45 3695   6.504   5.343   3.942  0.4533 -0.0611 -0.1883
   74DPPC   C46 3696   6.605   5.372   3.830  0.1151  0.3864 -0.3832
   74DPPC   C47 3697   6.558   5.302   3.703  0.0656  0.1956 -0.2599
   74DPPC   C48 3698   6.674   5.303   3.603  0.2757  0.0686 -0.0192
   74DPPC   C49 3699   6.622   5.256   3.467 -0.1372  0.0624  0.1416
   74DPPC   C50 3700   6.503   5.328   3.403  0.0114  0.1392 -0.0473
   75DPPC    C1 3701   3.748   1.475   5.725 -0.0650  0.4410  0.2041
   75DPPC    C2 3702   3.722   1.536   5.487 -0.1312  0.6018 -0.0026
   75DPPC    C3 3703   3.639   1.341   5.581  0.6953  0.0691  0.1863
   75DPPC    N4 3704   3.659   1.484   5.609  0.1901  0.1830 -0.0118
   75DPPC    C5 3705   3.545   1.566   5.651  0.0637 -0.2714  0.5347
   75DPPC    C6 3706   3.450   1.640   5.557  0.3592 -0.1763  0.3120
   75DPPC    O7 3707   3.514   1.760   5.511  0.3057 -0.2417  0.0645
   75DPPC    P8 3708   3.378   1.844   5.493  0.4816  0.0580  0.1354
   75DPPC    O9 3709   3.344   1.876   5.633 -0.1912 -0.4779  0.0963
   75DPPC   O10 3710   3.298   1.765   5.397  0.4514  0.3096 -0.0473
   75DPPC   O11 3711   3.432   1.976   5.418 -0.3099  0.3586  0.0748
   75DPPC   C12 3712   3.386   1.985   5.284  0.3317  0.5712 -0.1376
   75DPPC   C13 3713   3.444   2.110   5.217  0.2525  0.6363 -0.0852
   75DPPC   O14 3714   3.411   2.123   5.078 -0.5369  0.0247  0.0414
   75DPPC   C15 3715   3.432   2.241   5.015  0.8009 -0.2476 -0.0462
   75DPPC   O16 3716   3.465   2.344   5.073 -0.7032  0.2202  0.0041
   75DPPC   C17 3717   3.411   2.251   4.864 -0.0569 -0.4223  0.0562
   75DPPC   C18 3718   3.530   2.305   4.784 -0.2817 -0.0261 -0.0151
   75DPPC   C19 3719   3.649   2.209   4.791 -0.1242  0.1546 -0.1688
   75DPPC   C20 3720   3.781   2.281   4.767  0.1500 -0.1274  0.4606
   75DPPC   C21 3721   3.901   2.187   4.759 -0.1465 -0.4706 -0.0005
   75DPPC   C22 3722   4.020   2.282   4.742 -0.2549 -0.2922  0.2375
   75DPPC   C23 3723   4.150   2.206   4.716  0.0419  0.0986  0.5696
   75DPPC   C24 3724   4.261   2.306   4.683 -0.5276  0.5118 -0.1471
   75DPPC   C25 3725   4.226   2.400   4.568 -0.1346  0.9443  0.0782
   75DPPC   C26 3726   4.339   2.457   4.483 -0.1600  0.3682 -0.3526
   75DPPC   C27 3727   4.288   2.552   4.374 -0.3662  0.1543 -0.4437
   75DPPC   C28 3728   4.391   2.603   4.273  0.1480 -0.3557 -0.1828
   75DPPC   C29 3729   4.320   2.659   4.149  0.0047  0.2519  0.1681
   75DPPC   C30 3730   4.420   2.730   4.058  0.2456  0.1651  0.3627
   75DPPC   C31 3731   4.341   2.802   3.948  0.3201  0.0343  0.2243
   75DPPC   C32 3732   3.594   2.098   5.248  0.1346  0.1490  0.3005
   75DPPC   O33 3733   3.648   1.969   5.218  0.1304  0.2273 -0.0392
   75DPPC   C34 3734   3.783   1.954   5.215  0.0993 -0.0849  0.1163
   75DPPC   O35 3735   3.849   2.036   5.278  0.0819  0.0112  0.0077
   75DPPC   C36 3736   3.822   1.815   5.164 -0.4526 -0.0641 -0.3654
   75DPPC   C37 3737   3.853   1.831   5.015  0.4205 -0.0825 -0.1888
   75DPPC   C38 3738   3.902   1.703   4.947 -0.2273 -0.4216 -0.0264
   75DPPC   C39 3739   3.941   1.719   4.799 -0.4693 -0.6603 -0.1178
   75DPPC   C40 3740   3.833   1.751   4.696 -0.2052  0.3499 -0.0926
   75DPPC   C41 3741   3.885   1.779   4.555  0.6219 -0.0208  0.1337
   75DPPC   C42 3742   3.763   1.814   4.469  0.1991 -0.5679  0.5043
   75DPPC   C43 3743   3.829   1.869   4.343 -0.0705  0.0957  0.6485
   75DPPC   C44 3744   3.733   1.895   4.226  0.1308 -0.5909  0.3210
   75DPPC   C45 3745   3.666   1.763   4.189  0.4108 -0.4088 -0.8594
   75DPPC   C46 3746   3.578   1.774   4.064 -0.5137 -0.8068 -0.2492
   75DPPC   C47 3747   3.673   1.810   3.950 -0.4841  0.0205  0.0298
   75DPPC   C48 3748   3.593   1.841   3.824 -0.2107  0.6407  0.0072
   75DPPC   C49 3749   3.697   1.861   3.713 -0.2118 -0.4034 -0.1911
   75DPPC   C50 3750   3.626   1.927   3.595 -0.0340 -0.4265 -0.3105
   76DPPC    C1 3751   5.886   0.024   5.272 -0.5486  0.1307 -0.3745
   76DPPC    C2 3752   5.683   0.087   5.352 -0.6243  0.2586 -0.0075
   76DPPC    C3 3753   5.817   0.256   5.248  0.2454  0.2030  0.6073
   76DPPC    N4 3754   5.775   0.115   5.241 -0.4586  0.4304  0.1728
   76DPPC    C5 3755   5.720   0.070   5.112  0.0129  0.2516  0.0331
   76DPPC    C6 3756   5.592   0.145   5.077 -0.0729 -0.0727 -0.3399
   76DPPC    O7 3757   5.512   0.106   4.965 -0.3009 -0.4592 -0.0483
   76DPPC    P8 3758   5.404   0.225   4.947  0.2524  0.0859  0.1951
   76DPPC    O9 3759   5.483   0.345   4.911  0.2915 -0.0161 -0.0630
   76DPPC   O10 3760   5.325   0.220   5.071 -0.7084  0.5702 -0.3893
   76DPPC   O11 3761   5.335   0.140   4.829  0.1570  0.2394  0.1405
   76DPPC   C12 3762   5.381   0.184   4.701  0.0419  0.3410  0.1340
   76DPPC   C13 3763   5.272   0.194   4.593  0.0502  0.0111  0.0954
   76DPPC   O14 3764   5.199   0.316   4.577  0.0344  0.0015  0.0948
   76DPPC   C15 3765   5.268   0.422   4.526  0.0639 -0.2255 -0.3411
   76DPPC   O16 3766   5.391   0.419   4.535  0.0181  0.1182  0.4838
   76DPPC   C17 3767   5.191   0.553   4.512 -0.7569 -0.5939  0.6253
   76DPPC   C18 3768   5.172   0.630   4.643  0.6143  0.4111  0.2517
   76DPPC   C19 3769   5.094   0.761   4.625  0.2303  0.1812  0.2351
   76DPPC   C20 3770   4.966   0.738   4.544  0.2164  0.2758  0.2295
   76DPPC   C21 3771   4.880   0.860   4.509  0.2093  0.1727 -0.1113
   76DPPC   C22 3772   4.775   0.826   4.404  0.1436  0.2257 -0.0636
   76DPPC   C23 3773   4.862   0.780   4.287 -0.0813  0.3185 -0.2690
   76DPPC   C24 3774   4.785   0.770   4.155 -0.3221  0.2209 -0.1218
   76DPPC   C25 3775   4.840   0.665   4.059 -0.8167 -0.2628  0.1220
   76DPPC   C26 3776   4.793   0.672   3.913 -0.3194  0.5188 -0.0054
   76DPPC   C27 3777   4.861   0.562   3.832  0.2244  0.3026  0.7334
   76DPPC   C28 3778   5.013   0.584   3.829  0.1947  0.4244 -0.0091
   76DPPC   C29 3779   5.097   0.457   3.838 -0.2944  0.0551 -0.5403
   76DPPC   C30 3780   5.077   0.371   3.713 -0.7409 -0.3234 -0.2111
   76DPPC   C31 3781   5.175   0.253   3.714 -0.4140 -0.0520  0.0451
   76DPPC   C32 3782   5.210   0.054   4.584  0.0069  0.0316  0.0804
   76DPPC   O33 3783   5.311  -0.040   4.548  0.0901  0.0523  0.2577
   76DPPC   C34 3784   5.274  -0.169   4.571 -0.1923  0.1896  0.5782
   76DPPC   O35 3785   5.191  -0.193   4.658 -0.4048  0.1579  0.3677
   76DPPC   C36 3786   5.366  -0.280   4.521 -0.2315  0.4918 -0.1770
   76DPPC   C37 3787   5.386  -0.253   4.371 -0.4305 -0.2260 -0.3358
   76DPPC   C38 3788   5.530  -0.293   4.341 -0.4912 -0.4157 -0.3761
   76DPPC   C39 3789   5.564  -0.268   4.194  0.2019 -0.1375 -0.1737
   76DPPC   C40 3790   5.658  -0.370   4.129  0.0694 -0.2413 -0.2049
   76DPPC   C41 3791   5.579  -0.496   4.095 -0.3721  0.1850 -0.7766
   76DPPC   C42 3792   5.657  -0.601   4.015 -0.2756 -0.3070 -0.0454
   76DPPC   C43 3793   5.573  -0.729   4.017 -0.4408 -0.2068 -0.4435
   76DPPC   C44 3794   5.449  -0.703   3.933 -0.2318  0.1173 -0.6558
   76DPPC   C45 3795   5.394  -0.837   3.882 -0.0982 -0.3393  0.3852
   76DPPC   C46 3796   5.278  -0.800   3.790  0.1761  0.1754  0.2451
   76DPPC   C47 3797   5.323  -0.794   3.643 -0.0399 -0.6594  0.1419
   76DPPC   C48 3798   5.372  -0.929   3.592  0.0200 -0.5533 -0.0835
   76DPPC   C49 3799   5.459  -0.905   3.469  0.1497 -0.1793  0.0787
   76DPPC   C50 3800   5.476  -1.034   3.389  0.5560  0.0402 -0.1929
   77DPPC    C1 3801   9.300   6.067   4.755  0.0379  0.2577 -0.1943
   77DPPC    C2 3802   9.427   5.885   4.656 -0.2860  0.7982 -0.5081
   77DPPC    C3 3803   9.393   5.893   4.889 -0.1296  0.1510 -0.0012
   77DPPC    N4 3804   9.329   5.923   4.759 -0.0032  0.2541 -0.0398
   77DPPC    C5 3805   9.214   5.835   4.732 -0.2983  0.6397 -0.0339
   77DPPC    C6 3806   9.079   5.818   4.802 -0.1975 -0.7204 -0.1546
   77DPPC    O7 3807   9.099   5.749   4.925  0.4295  0.0757  0.1956
   77DPPC    P8 3808   8.979   5.770   5.030  0.1583 -0.1361 -0.0709
   77DPPC    O9 3809   8.897   5.888   4.996  0.4926  0.1525  0.1257
   77DPPC   O10 3810   9.034   5.762   5.167  0.4539 -0.1022 -0.1873
   77DPPC   O11 3811   8.897   5.633   5.003 -0.3509  0.1794 -0.1335
   77DPPC   C12 3812   8.961   5.510   5.038 -0.1811  0.4371  0.4889
   77DPPC   C13 3813   8.876   5.388   5.000  0.0852  0.4215 -0.0693
   77DPPC   O14 3814   8.957   5.277   4.959  0.0587  0.1123  0.7067
   77DPPC   C15 3815   8.974   5.168   5.039 -0.0037 -0.2036  0.2892
   77DPPC   O16 3816   8.974   5.184   5.161 -0.1577 -0.1348  0.2806
   77DPPC   C17 3817   9.012   5.031   4.983 -0.5336 -0.3855  0.3675
   77DPPC   C18 3818   8.960   5.011   4.840 -0.0607 -0.0323  0.1433
   77DPPC   C19 3819   9.048   4.907   4.772 -0.1008 -0.0847  0.1712
   77DPPC   C20 3820   9.194   4.954   4.767 -0.1639  0.0942 -0.0680
   77DPPC   C21 3821   9.284   4.832   4.745 -0.0156  0.1188  0.3904
   77DPPC   C22 3822   9.287   4.798   4.596 -0.6486  0.5920  0.2697
   77DPPC   C23 3823   9.349   4.916   4.521 -0.5620  0.3860  0.0176
   77DPPC   C24 3824   9.349   4.878   4.372  0.0528  0.0045  0.1130
   77DPPC   C25 3825   9.396   4.994   4.285  0.1134 -0.0587  0.0625
   77DPPC   C26 3826   9.397   4.957   4.136 -0.0715  0.0910  0.0235
   77DPPC   C27 3827   9.466   5.069   4.058  0.0946  0.0800  0.1541
   77DPPC   C28 3828   9.455   5.015   3.915 -0.0094  0.1506  0.1354
   77DPPC   C29 3829   9.508   5.112   3.810 -0.2512  0.0535 -0.0755
   77DPPC   C30 3830   9.545   5.032   3.685 -0.1190 -0.3648  0.2324
   77DPPC   C31 3831   9.422   5.003   3.598  0.0951 -0.7103  0.0406
   77DPPC   C32 3832   8.793   5.435   4.880  0.4617 -0.0184 -0.5042
   77DPPC   O33 3833   8.725   5.330   4.810  0.0788  0.1022 -0.3139
   77DPPC   C34 3834   8.654   5.375   4.704 -0.8384  0.2054  0.3336
   77DPPC   O35 3835   8.677   5.486   4.657 -0.6151  0.0141 -0.0104
   77DPPC   C36 3836   8.583   5.259   4.632 -0.3201  0.3426 -0.4098
   77DPPC   C37 3837   8.507   5.294   4.504  0.0712 -0.3518 -0.8423
   77DPPC   C38 3838   8.488   5.162   4.430  0.1148 -0.5386 -0.5252
   77DPPC   C39 3839   8.505   5.201   4.283 -0.7029  0.3518 -0.3971
   77DPPC   C40 3840   8.466   5.075   4.206  0.1883  0.0306 -0.3391
   77DPPC   C41 3841   8.534   4.940   4.232 -0.2047 -0.0235  0.4451
   77DPPC   C42 3842   8.457   4.822   4.173 -0.2385  0.3159 -0.2044
   77DPPC   C43 3843   8.522   4.687   4.204 -0.4108  0.2397 -0.1756
   77DPPC   C44 3844   8.450   4.566   4.144  0.0730 -0.2072  0.1281
   77DPPC   C45 3845   8.497   4.422   4.164  0.3453 -0.1806 -0.2901
   77DPPC   C46 3846   8.453   4.339   4.043  0.1347 -0.0001 -0.3376
   77DPPC   C47 3847   8.505   4.401   3.913  0.2099  0.0453 -0.2860
   77DPPC   C48 3848   8.484   4.323   3.784 -0.3288  0.0834 -0.2243
   77DPPC   C49 3849   8.552   4.389   3.664 -0.1262  0.6319  0.1925
   77DPPC   C50 3850   8.546   4.303   3.538  0.3336  0.0780  0.5446
   78DPPC    C1 3851   1.043   5.327   5.246 -0.0037 -0.2785 -0.3816
   78DPPC    C2 3852   1.138   5.147   5.158 -0.7448  0.2914 -0.0275
   78DPPC    C3 3853   1.193   5.378   5.083  0.4098 -0.0766 -0.0526
   78DPPC    N4 3854   1.175   5.285   5.195  0.2452  0.0260  0.0067
   78DPPC    C5 3855   1.266   5.309   5.308  0.4687 -0.1388 -0.1379
   78DPPC    C6 3856   1.408   5.252   5.295  0.5144 -0.0032 -0.2423
   78DPPC    O7 3857   1.421   5.110   5.297  0.6008  0.0100  0.1904
   78DPPC    P8 3858   1.572   5.067   5.260  0.3879 -0.3075 -0.3205
   78DPPC    O9 3859   1.604   4.940   5.329 -0.3171  0.1126  0.8081
   78DPPC   O10 3860   1.645   5.193   5.286  0.1435 -0.1266 -0.5069
   78DPPC   O11 3861   1.541   5.062   5.102  0.6732 -0.2699 -0.3790
   78DPPC   C12 3862   1.486   4.934   5.069  0.2890 -0.0692 -0.5270
   78DPPC   C13 3863   1.402   4.921   4.942 -0.3132 -0.0954 -0.1319
   78DPPC   O14 3864   1.336   4.797   4.914 -0.4581 -0.0287 -0.0903
   78DPPC   C15 3865   1.224   4.760   4.981 -0.4091 -0.0999 -0.0471
   78DPPC   O16 3866   1.143   4.837   5.033 -0.7236 -0.5092  0.0719
   78DPPC   C17 3867   1.173   4.626   4.928 -0.3325 -0.0964 -0.1283
   78DPPC   C18 3868   1.109   4.632   4.790 -0.2742 -0.3462 -0.1664
   78DPPC   C19 3869   1.057   4.492   4.759 -0.1619 -0.3925 -0.1449
   78DPPC   C20 3870   1.005   4.495   4.615 -0.3230 -0.1574 -0.0826
   78DPPC   C21 3871   1.128   4.528   4.529 -0.1794 -0.4011  0.0270
   78DPPC   C22 3872   1.111   4.575   4.384 -0.2184 -0.3852  0.0363
   78DPPC   C23 3873   1.248   4.575   4.316 -0.2086  0.4991  0.0438
   78DPPC   C24 3874   1.237   4.602   4.166 -0.2231  0.6390  0.0697
   78DPPC   C25 3875   1.156   4.496   4.091  0.2991 -0.0425  0.4619
   78DPPC   C26 3876   1.143   4.541   3.946 -0.1908 -0.3596  0.4036
   78DPPC   C27 3877   1.292   4.552   3.912 -0.2996  0.2604  0.1031
   78DPPC   C28 3878   1.301   4.628   3.780  0.0123 -0.2447 -0.1733
   78DPPC   C29 3879   1.432   4.603   3.704 -0.0121 -0.2438 -0.2159
   78DPPC   C30 3880   1.425   4.462   3.644  0.7566 -0.3949  0.0411
   78DPPC   C31 3881   1.554   4.425   3.569  0.7635  0.1983 -0.2504
   78DPPC   C32 3882   1.501   4.958   4.831 -0.1609 -0.1268 -0.0061
   78DPPC   O33 3883   1.444   4.975   4.701 -0.1624  0.3746  0.0604
   78DPPC   C34 3884   1.539   5.016   4.613 -0.1713 -0.2894 -0.2586
   78DPPC   O35 3885   1.655   4.982   4.632  0.0762  0.2049 -0.8702
   78DPPC   C36 3886   1.494   5.106   4.497 -0.5107  0.2656  0.2967
   78DPPC   C37 3887   1.385   5.036   4.416 -0.5280  0.0890  0.4696
   78DPPC   C38 3888   1.447   4.933   4.321 -0.7414  0.6869 -0.3344
   78DPPC   C39 3889   1.526   5.024   4.226  0.2107  0.1425 -0.0756
   78DPPC   C40 3890   1.620   4.942   4.138  0.3244 -0.3408  0.4830
   78DPPC   C41 3891   1.553   4.859   4.028  0.1665  0.0908  0.2488
   78DPPC   C42 3892   1.659   4.787   3.944 -0.0714 -0.0624  0.0791
   78DPPC   C43 3893   1.742   4.896   3.876  0.1307 -0.2069  0.0952
   78DPPC   C44 3894   1.845   4.839   3.778 -0.0352 -0.5413  0.1161
   78DPPC   C45 3895   1.885   4.944   3.675  0.0651 -0.2559  0.4457
   78DPPC   C46 3896   1.939   5.067   3.748 -0.5903  0.5362 -0.3847
   78DPPC   C47 3897   1.986   5.181   3.658 -0.2200  0.3500 -0.4274
   78DPPC   C48 3898   2.055   5.292   3.738  0.4655 -0.7999  0.6043
   78DPPC   C49 3899   2.201   5.255   3.768  0.8872  0.0867 -0.2746
   78DPPC   C50 3900   2.281   5.377   3.813  0.2079  0.4594 -0.0649
   79DPPC    C1 3901   0.057   3.600   6.067  0.1690 -0.2316 -0.3738
   79DPPC    C2 3902   0.078   3.602   5.832 -0.4690  0.2649 -0.7554
   79DPPC    C3 3903  -0.145   3.574   5.930  0.2081 -0.1721  0.8041
   79DPPC    N4 3904  -0.012   3.636   5.943  0.1427  0.2083 -0.2330
   79DPPC    C5 3905  -0.009   3.783   5.938  0.8897  0.1892 -0.4190
   79DPPC    C6 3906  -0.109   3.864   5.855 -0.0404 -0.7386 -0.2188
   79DPPC    O7 3907  -0.069   3.862   5.718  0.1028  0.9861 -0.2196
   79DPPC    P8 3908  -0.195   3.937   5.652 -0.0409  0.5447 -0.4482
   79DPPC    O9 3909  -0.207   4.070   5.716  0.0767  0.3929 -0.1112
   79DPPC   O10 3910  -0.301   3.834   5.646  0.3549  0.1223 -0.1602
   79DPPC   O11 3911  -0.122   3.944   5.508 -0.0164  0.0034 -0.4657
   79DPPC   C12 3912  -0.067   3.818   5.469 -0.2074 -0.3182  0.2944
   79DPPC   C13 3913  -0.019   3.820   5.324 -0.4065 -0.0526  0.2306
   79DPPC   O14 3914   0.018   3.686   5.288 -0.3080 -0.0104  0.1777
   79DPPC   C15 3915  -0.064   3.583   5.255 -0.1029 -0.2230  0.3299
   79DPPC   O16 3916  -0.174   3.580   5.310 -0.4408 -0.6512 -0.3614
   79DPPC   C17 3917  -0.010   3.468   5.171  0.2516  0.4933 -0.4268
   79DPPC   C18 3918   0.009   3.512   5.025  0.2238  0.4046 -0.4575
   79DPPC   C19 3919   0.019   3.387   4.937  0.0179  0.1796 -0.1639
   79DPPC   C20 3920  -0.002   3.425   4.790 -0.6107 -0.0487 -0.1333
   79DPPC   C21 3921   0.011   3.301   4.702  0.5444  0.2144 -0.3391
   79DPPC   C22 3922  -0.025   3.348   4.561  0.8206  0.1818 -0.4217
   79DPPC   C23 3923  -0.043   3.232   4.462  0.0185 -0.2472  0.2177
   79DPPC   C24 3924  -0.093   3.282   4.327 -0.2911 -0.5027  0.2370
   79DPPC   C25 3925  -0.112   3.169   4.226  0.8187  0.1089 -0.6749
   79DPPC   C26 3926  -0.112   3.235   4.088  0.0574  0.8034 -0.3447
   79DPPC   C27 3927  -0.137   3.138   3.973  0.0098  0.0314  0.3095
   79DPPC   C28 3928  -0.130   3.224   3.847 -0.8376 -0.0490  0.1987
   79DPPC   C29 3929  -0.170   3.139   3.726 -0.4161 -0.1682  0.1381
   79DPPC   C30 3930  -0.081   3.017   3.707 -0.3719 -0.1362  0.1388
   79DPPC   C31 3931  -0.113   2.947   3.574  0.0269  0.1075 -0.0894
   79DPPC   C32 3932   0.098   3.918   5.336 -0.1346 -0.3364 -0.0779
   79DPPC   O33 3933   0.141   3.975   5.212 -0.1345  0.2413  0.1831
   79DPPC   C34 3934   0.236   4.071   5.218 -0.2401  0.3684 -0.1778
   79DPPC   O35 3935   0.265   4.112   5.330 -0.0126 -0.2216 -0.0159
   79DPPC   C36 3936   0.303   4.122   5.090  0.0800  0.4536  0.0214
   79DPPC   C37 3937   0.214   4.128   4.965  0.2734 -0.2790 -0.1530
   79DPPC   C38 3938   0.303   4.143   4.842  0.4412  0.7033  0.0825
   79DPPC   C39 3939   0.212   4.125   4.721  0.0301  0.3149  0.4468
   79DPPC   C40 3940   0.106   4.233   4.692  0.0230  0.0445 -0.5802
   79DPPC   C41 3941   0.012   4.189   4.580 -0.5980 -0.1215  0.0037
   79DPPC   C42 3942   0.075   4.189   4.441 -0.3566  0.1504  0.1110
   79DPPC   C43 3943  -0.030   4.131   4.345 -0.2503  0.2554 -0.0675
   79DPPC   C44 3944   0.026   4.149   4.203  0.3492 -0.4567  0.0710
   79DPPC   C45 3945  -0.098   4.121   4.118  0.2670  0.1439 -0.0139
   79DPPC   C46 3946  -0.062   4.193   3.988  0.1433 -0.4487 -0.3798
   79DPPC   C47 3947  -0.171   4.206   3.881 -0.0761  0.3403 -0.0679
   79DPPC   C48 3948  -0.103   4.257   3.754  0.4830  0.2284  0.1820
   79DPPC   C49 3949  -0.199   4.239   3.636 -0.0111  0.5893  0.5222
   79DPPC   C50 3950  -0.132   4.267   3.501 -0.1831 -0.4705  0.2061
   80DPPC    C1 3951   0.560   4.392   5.663 -0.2677 -0.5733  0.1910
   80DPPC    C2 3952   0.714   4.471   5.844  0.0367  0.7102 -0.6921
   80DPPC    C3 3953   0.586   4.277   5.870 -0.5459 -0.1615  0.1419
   80DPPC    N4 3954   0.655   4.359   5.769 -0.3566  0.1137  0.4922
   80DPPC    C5 3955   0.760   4.280   5.703 -0.4878  0.7023 -0.4371
   80DPPC    C6 3956   0.855   4.347   5.604  0.7524  0.3774  0.5086
   80DPPC    O7 3957   0.973   4.268   5.585  0.2290 -0.3619  0.3022
   80DPPC    P8 3958   1.072   4.371   5.510 -0.1700 -0.0119  0.2530
   80DPPC    O9 3959   1.207   4.321   5.543  0.0685  0.2995 -0.2459
   80DPPC   O10 3960   1.028   4.511   5.531  0.0544  0.2093 -0.6967
   80DPPC   O11 3961   1.011   4.311   5.373 -0.1156  0.3632  0.0618
   80DPPC   C12 3962   1.039   4.414   5.278  0.7659 -0.1119 -0.2037
   80DPPC   C13 3963   0.979   4.373   5.143 -0.1382 -0.4713  0.2937
   80DPPC   O14 3964   0.838   4.352   5.141 -0.2382  0.1818  0.0599
   80DPPC   C15 3965   0.750   4.454   5.122  0.1109  0.3598 -0.5952
   80DPPC   O16 3966   0.772   4.565   5.171 -0.0151  0.1667 -0.0953
   80DPPC   C17 3967   0.614   4.404   5.076 -0.1318 -0.0345  0.5228
   80DPPC   C18 3968   0.612   4.400   4.923 -0.0611  0.3561  0.5113
   80DPPC   C19 3969   0.646   4.527   4.845  0.1735 -0.0891 -0.1214
   80DPPC   C20 3970   0.626   4.532   4.693 -1.1404  0.6230  0.0511
   80DPPC   C21 3971   0.671   4.663   4.628 -0.6221  0.5523  0.2548
   80DPPC   C22 3972   0.620   4.652   4.484 -0.1468 -0.2102  0.1423
   80DPPC   C23 3973   0.738   4.614   4.393  0.0093  0.6681 -0.0268
   80DPPC   C24 3974   0.684   4.593   4.252  0.3630 -0.3554 -0.0135
   80DPPC   C25 3975   0.806   4.540   4.176  0.2434 -0.1875 -0.3278
   80DPPC   C26 3976   0.788   4.483   4.035 -0.4467  0.1659 -0.3861
   80DPPC   C27 3977   0.748   4.582   3.926 -0.0658  0.5325 -0.1951
   80DPPC   C28 3978   0.713   4.504   3.799  0.6941  0.0163 -0.0986
   80DPPC   C29 3979   0.697   4.586   3.671  0.3318  0.0001 -0.0662
   80DPPC   C30 3980   0.648   4.506   3.550  0.5109 -0.1657 -0.0287
   80DPPC   C31 3981   0.642   4.584   3.419  0.2524 -0.0220  0.0689
   80DPPC   C32 3982   1.062   4.254   5.094  0.0117 -0.3917  0.3536
   80DPPC   O33 3983   1.177   4.291   5.016 -0.4094  0.1704 -0.0064
   80DPPC   C34 3984   1.235   4.187   4.951 -0.3405  0.1219  0.1310
   80DPPC   O35 3985   1.187   4.076   4.972  0.3610 -0.1807  0.1602
   80DPPC   C36 3986   1.343   4.224   4.849  0.3013 -0.3844  0.6286
   80DPPC   C37 3987   1.329   4.130   4.729 -0.9706 -0.0375  0.4905
   80DPPC   C38 3988   1.225   4.165   4.622  0.4160  0.4483 -0.7377
   80DPPC   C39 3989   1.210   4.055   4.517 -0.3598 -0.1415 -0.0261
   80DPPC   C40 3990   1.093   4.090   4.424 -0.3095  0.4757  0.1420
   80DPPC   C41 3991   1.064   3.974   4.329 -0.2276  0.1692  0.4909
   80DPPC   C42 3992   0.988   4.005   4.201  0.7924  0.2148 -0.1136
   80DPPC   C43 3993   1.025   4.111   4.097  0.2142  0.6985  0.1686
   80DPPC   C44 3994   0.960   4.093   3.960  0.0121  0.0323  0.3469
   80DPPC   C45 3995   1.017   4.159   3.834 -0.5161 -0.5192 -0.1859
   80DPPC   C46 3996   0.923   4.156   3.713 -0.0988 -0.2161 -0.5221
   80DPPC   C47 3997   1.004   4.103   3.594  0.5846  0.2946 -0.2929
   80DPPC   C48 3998   0.910   4.081   3.476 -0.1777 -0.7786  0.4877
   80DPPC   C49 3999   0.983   4.011   3.362  0.6922  0.7870  0.0473
   80DPPC   C50 4000   0.886   3.964   3.253  0.2440  0.0379  0.7642
   81DPPC    C1 4001   5.913   4.189   5.348  0.5088  0.0293 -0.0639
   81DPPC    C2 4002   5.707   4.152   5.467  0.1747  0.0820 -0.1638
   81DPPC    C3 4003   5.882   4.263   5.571  0.2333 -0.1842  0.0417
   81DPPC    N4 4004   5.815   4.249   5.440  0.4100 -0.1488 -0.0523
   81DPPC    C5 4005   5.759   4.370   5.379 -0.0258 -0.3085  0.0253
   81DPPC    C6 4006   5.689   4.473   5.467  0.4358 -0.0079  0.0488
   81DPPC    O7 4007   5.590   4.422   5.558  0.1049  0.1492 -0.2193
   81DPPC    P8 4008   5.560   4.530   5.673 -0.0702  0.0332 -0.1547
   81DPPC    O9 4009   5.697   4.578   5.702 -0.0352 -0.1171 -0.0761
   81DPPC   O10 4010   5.465   4.483   5.776 -0.5533  0.0727 -0.5766
   81DPPC   O11 4011   5.491   4.650   5.590  0.3800 -0.0162 -0.6093
   81DPPC   C12 4012   5.373   4.603   5.523 -0.0373 -0.0803  0.1483
   81DPPC   C13 4013   5.289   4.717   5.465  0.1048  0.1601  0.4121
   81DPPC   O14 4014   5.176   4.681   5.384  0.3270  0.3164  0.0306
   81DPPC   C15 4015   5.057   4.668   5.447  0.0428  0.5395 -0.4567
   81DPPC   O16 4016   5.046   4.720   5.558 -0.2192 -0.2539 -0.1031
   81DPPC   C17 4017   4.931   4.618   5.376 -0.0443  0.1010  0.0017
   81DPPC   C18 4018   4.945   4.609   5.224 -0.4935  0.2573 -0.0515
   81DPPC   C19 4019   4.818   4.563   5.154 -0.1737 -0.1570 -0.3634
   81DPPC   C20 4020   4.773   4.430   5.216 -0.4745 -0.0018 -0.2479
   81DPPC   C21 4021   4.644   4.378   5.150 -0.6013  0.5970 -0.4818
   81DPPC   C22 4022   4.671   4.323   5.010 -0.1161 -0.6576  0.0868
   81DPPC   C23 4023   4.534   4.313   4.943 -0.2557 -0.2989  0.3117
   81DPPC   C24 4024   4.549   4.313   4.791 -0.1498  0.6091  0.3194
   81DPPC   C25 4025   4.409   4.278   4.741  0.1650 -0.0427 -0.1204
   81DPPC   C26 4026   4.294   4.374   4.771  0.1075 -0.1794  0.0938
   81DPPC   C27 4027   4.166   4.303   4.726  0.1050  0.0963 -0.3406
   81DPPC   C28 4028   4.173   4.267   4.578  0.0232 -0.3790 -0.2308
   81DPPC   C29 4029   4.085   4.147   4.540 -0.5159 -0.0021 -0.1824
   81DPPC   C30 4030   4.137   4.103   4.404  0.0948 -1.0386  0.3744
   81DPPC   C31 4031   4.056   3.999   4.326 -0.7065  0.0702 -0.3091
   81DPPC   C32 4032   5.388   4.808   5.392  0.1285  0.1784  0.4669
   81DPPC   O33 4033   5.475   4.761   5.288 -0.2471  0.3354  0.0810
   81DPPC   C34 4034   5.588   4.829   5.254 -0.3045  0.1471 -0.4907
   81DPPC   O35 4035   5.613   4.940   5.300 -0.0128 -0.2122  0.2455
   81DPPC   C36 4036   5.655   4.779   5.126  0.3617  0.5188 -0.2900
   81DPPC   C37 4037   5.629   4.631   5.094  0.4005  0.3755  0.3279
   81DPPC   C38 4038   5.725   4.599   4.979  0.1903  0.3319  0.1646
   81DPPC   C39 4039   5.723   4.450   4.944  0.0128  0.6645 -1.3039
   81DPPC   C40 4040   5.866   4.408   4.907  0.2712  0.0619  0.2706
   81DPPC   C41 4041   5.903   4.261   4.886 -0.0661 -0.0199  0.2392
   81DPPC   C42 4042   5.830   4.194   4.769 -0.1681  0.4499  0.0314
   81DPPC   C43 4043   5.871   4.249   4.632 -0.1863 -0.0236 -0.1656
   81DPPC   C44 4044   5.801   4.195   4.507 -0.7054  0.5054 -0.1074
   81DPPC   C45 4045   5.835   4.245   4.367 -0.1737  0.3358 -0.0426
   81DPPC   C46 4046   5.738   4.160   4.284  0.2343  0.0207 -0.2010
   81DPPC   C47 4047   5.722   4.212   4.141 -0.3033  0.6402  0.0783
   81DPPC   C48 4048   5.848   4.171   4.064 -0.3606  0.0499  0.2944
   81DPPC   C49 4049   5.845   4.229   3.923 -0.1396 -0.1841  0.1949
   81DPPC   C50 4050   5.971   4.218   3.835 -0.3629 -0.1713 -0.1288
   82DPPC    C1 4051   9.166   5.635   5.446  0.1083  0.4675 -0.2620
   82DPPC    C2 4052   9.373   5.539   5.488 -0.1844 -0.0751 -0.0095
   82DPPC    C3 4053   9.188   5.456   5.591 -0.4917  0.7167 -0.1404
   82DPPC    N4 4054   9.232   5.505   5.460 -0.2368  0.2954 -0.2104
   82DPPC    C5 4055   9.207   5.425   5.339 -0.2084 -0.1403  0.0690
   82DPPC    C6 4056   9.263   5.284   5.320 -0.4649 -0.1674 -0.5133
   82DPPC    O7 4057   9.404   5.292   5.300 -0.3126 -0.3595  0.4095
   82DPPC    P8 4058   9.453   5.148   5.245  0.0298 -0.0900  0.0040
   82DPPC    O9 4059   9.384   5.046   5.327  0.0596 -0.3080 -0.2401
   82DPPC   O10 4060   9.601   5.148   5.239  0.0088 -0.2143 -0.5413
   82DPPC   O11 4061   9.391   5.163   5.097  0.2737  0.8084 -0.0133
   82DPPC   C12 4062   9.487   5.215   5.004  0.9980 -0.3969  0.0445
   82DPPC   C13 4063   9.445   5.184   4.860  0.1244  0.6191  0.0720
   82DPPC   O14 4064   9.560   5.171   4.775  0.1347 -0.1088  0.1932
   82DPPC   C15 4065   9.622   5.051   4.760  0.1138 -0.0514 -0.3804
   82DPPC   O16 4066   9.625   4.975   4.857  0.3835  0.0707 -0.2901
   82DPPC   C17 4067   9.752   5.058   4.680  0.1230  0.3500 -0.3335
   82DPPC   C18 4068   9.715   5.057   4.531 -0.5767 -0.0187 -0.1596
   82DPPC   C19 4069   9.835   5.071   4.438 -0.3290  0.2536  0.1987
   82DPPC   C20 4070   9.786   5.068   4.293 -0.0847  0.1952  0.1161
   82DPPC   C21 4071   9.912   5.072   4.207 -0.3568  0.3122 -0.2796
   82DPPC   C22 4072   9.867   5.009   4.075 -0.3600 -0.5244  0.1155
   82DPPC   C23 4073   9.960   5.063   3.967  0.3766 -0.5389  0.7317
   82DPPC   C24 4074   9.955   4.973   3.843  0.2009  0.1178  0.2558
   82DPPC   C25 4075  10.048   5.029   3.735  0.3082  0.0963  0.3365
   82DPPC   C26 4076  10.033   4.962   3.598  0.3127  0.2067  0.2823
   82DPPC   C27 4077  10.122   5.028   3.491 -0.0395  0.2094 -0.0110
   82DPPC   C28 4078  10.110   4.960   3.355  0.0930 -0.4212  0.2919
   82DPPC   C29 4079  10.157   5.046   3.238 -1.2608  0.1415  0.1449
   82DPPC   C30 4080  10.063   5.166   3.239 -1.3503  0.0759 -0.2766
   82DPPC   C31 4081  10.097   5.259   3.122  0.9666 -0.0039  0.3057
   82DPPC   C32 4082   9.351   5.300   4.824  0.4340  0.9395  0.2891
   82DPPC   O33 4083   9.257   5.267   4.722  0.7996  0.2900  0.1537
   82DPPC   C34 4084   9.179   5.376   4.695  0.1929 -0.2401 -0.2616
   82DPPC   O35 4085   9.206   5.489   4.734  0.0571 -0.1797 -0.3453
   82DPPC   C36 4086   9.072   5.348   4.589  0.1252 -0.0555 -0.2423
   82DPPC   C37 4087   9.131   5.353   4.448 -0.0666  0.1890 -0.3129
   82DPPC   C38 4088   9.024   5.301   4.352 -0.4836 -0.1456  0.3233
   82DPPC   C39 4089   9.032   5.149   4.356 -0.2148 -0.1159  0.9145
   82DPPC   C40 4090   8.910   5.076   4.299 -0.2042  0.4040  0.2172
   82DPPC   C41 4091   8.866   5.124   4.161 -0.2392 -0.0871  0.0541
   82DPPC   C42 4092   8.938   5.056   4.044  0.1254  0.1969  0.1110
   82DPPC   C43 4093   8.870   5.102   3.914 -0.4498 -0.2476  0.2490
   82DPPC   C44 4094   8.948   5.032   3.803  0.1351  0.1592  0.3936
   82DPPC   C45 4095   8.900   5.061   3.661 -0.1694  0.1306  0.4894
   82DPPC   C46 4096   9.002   5.009   3.559  0.2612  0.1481  0.9095
   82DPPC   C47 4097   9.073   4.875   3.579  0.2849 -0.0103 -0.2000
   82DPPC   C48 4098   8.968   4.763   3.575  0.0813  0.1887 -0.5163
   82DPPC   C49 4099   9.026   4.622   3.568  0.2595  0.2096  0.3975
   82DPPC   C50 4100   9.137   4.614   3.463  0.0409  0.8309  0.1137
   83DPPC    C1 4101   7.579   5.231   5.808 -0.3955  0.5505  0.3277
   83DPPC    C2 4102   7.693   5.027   5.813 -0.1345  0.3543  0.0199
   83DPPC    C3 4103   7.467   5.027   5.828  0.3455  0.2948  0.4707
   83DPPC    N4 4104   7.575   5.094   5.756 -0.0563  0.6067  0.1537
   83DPPC    C5 4105   7.572   5.103   5.609 -0.2662 -0.1302  0.1065
   83DPPC    C6 4106   7.536   4.983   5.522  0.1456 -0.3483  0.2350
   83DPPC    O7 4107   7.640   4.885   5.516  0.0349 -0.4509  0.0011
   83DPPC    P8 4108   7.606   4.778   5.400  0.0579 -0.3321 -0.1151
   83DPPC    O9 4109   7.460   4.757   5.406  0.0865 -0.5098 -0.0217
   83DPPC   O10 4110   7.709   4.678   5.436  0.5968  0.4348  0.5137
   83DPPC   O11 4111   7.648   4.860   5.268 -0.0362  0.4624  0.3434
   83DPPC   C12 4112   7.776   4.818   5.221 -0.0600  0.1021  0.5993
   83DPPC   C13 4113   7.875   4.924   5.172 -0.0011 -0.3433 -0.2739
   83DPPC   O14 4114   7.850   4.987   5.046  0.4604 -0.1451 -0.2676
   83DPPC   C15 4115   7.909   5.108   5.025 -0.1626  0.1801 -0.1411
   83DPPC   O16 4116   7.987   5.159   5.105 -0.6772  0.2184  0.3432
   83DPPC   C17 4117   7.907   5.156   4.880 -0.3242  0.2810 -0.1059
   83DPPC   C18 4118   7.771   5.212   4.836 -0.3559  0.6579  0.4622
   83DPPC   C19 4119   7.746   5.239   4.688  0.0474 -0.3768  0.1944
   83DPPC   C20 4120   7.849   5.332   4.622 -0.6664  0.0965 -0.2707
   83DPPC   C21 4121   7.855   5.323   4.469 -0.2698  0.2495 -0.2637
   83DPPC   C22 4122   7.729   5.380   4.403 -0.3781 -0.0244 -0.2933
   83DPPC   C23 4123   7.758   5.388   4.253  0.0517 -0.1749 -0.2201
   83DPPC   C24 4124   7.643   5.449   4.173  0.0294  0.3034  0.1751
   83DPPC   C25 4125   7.671   5.438   4.023 -0.2097  0.5848  0.1088
   83DPPC   C26 4126   7.553   5.480   3.934  0.2439  0.3302 -0.6151
   83DPPC   C27 4127   7.578   5.461   3.784  0.0885 -0.2917 -0.5669
   83DPPC   C28 4128   7.450   5.499   3.708 -0.0669  0.6522  0.1384
   83DPPC   C29 4129   7.469   5.491   3.556 -0.1961 -0.7205  0.1753
   83DPPC   C30 4130   7.454   5.352   3.495  0.0525 -0.6976  0.0587
   83DPPC   C31 4131   7.486   5.344   3.346 -0.2473  0.3424 -0.0706
   83DPPC   C32 4132   8.006   4.845   5.173  0.3133  0.1739 -0.1494
   83DPPC   O33 4133   8.007   4.726   5.093 -0.4770  0.0943 -0.0508
   83DPPC   C34 4134   8.132   4.679   5.066 -0.5050  0.2960 -0.5393
   83DPPC   O35 4135   8.235   4.735   5.101 -0.7814  0.4508  0.0394
   83DPPC   C36 4136   8.139   4.550   4.984 -0.1598  0.0953 -0.1928
   83DPPC   C37 4137   8.259   4.543   4.889 -0.1822 -0.2700 -0.1962
   83DPPC   C38 4138   8.234   4.450   4.770 -0.5183 -0.2168 -0.1677
   83DPPC   C39 4139   8.367   4.424   4.699 -0.1572  0.4117  0.2639
   83DPPC   C40 4140   8.431   4.552   4.647  0.0417  0.2060 -0.0001
   83DPPC   C41 4141   8.558   4.503   4.577 -0.7216 -0.6300 -0.8200
   83DPPC   C42 4142   8.659   4.618   4.566 -0.7196 -0.5779 -0.2647
   83DPPC   C43 4143   8.773   4.589   4.469 -0.2900  0.1848  0.0070
   83DPPC   C44 4144   8.861   4.708   4.430  0.1450 -0.1232  0.0318
   83DPPC   C45 4145   8.996   4.655   4.383  0.4446  0.4050  0.2927
   83DPPC   C46 4146   8.990   4.671   4.231 -0.4891 -0.1914  0.2562
   83DPPC   C47 4147   9.118   4.623   4.161 -0.3582  0.3905  0.0903
   83DPPC   C48 4148   9.125   4.651   4.011  0.2814 -0.7844 -0.1105
   83DPPC   C49 4149   9.268   4.615   3.970  0.5089 -0.4036  0.3416
   83DPPC   C50 4150   9.301   4.642   3.823  0.2685 -0.6997  0.2329
   84DPPC    C1 4151   0.842   7.176   4.574 -0.4273  0.5480 -0.5269
   84DPPC    C2 4152   0.657   7.237   4.448  0.1222  0.3442  0.2952
   84DPPC    C3 4153   0.709   7.003   4.475  0.1687  0.0244  0.2014
   84DPPC    N4 4154   0.704   7.134   4.542 -0.4391  0.0025  0.2107
   84DPPC    C5 4155   0.618   7.146   4.660 -0.3911  0.0773  0.2385
   84DPPC    C6 4156   0.484   7.073   4.667 -0.0840 -0.5279 -0.0931
   84DPPC    O7 4157   0.370   7.117   4.592  0.2377 -0.3517 -0.4858
   84DPPC    P8 4158   0.243   7.033   4.645  0.0235  0.3245  0.0947
   84DPPC    O9 4159   0.224   7.055   4.790 -0.5024  0.2339  0.0425
   84DPPC   O10 4160   0.280   6.898   4.597  0.3014  0.5555 -0.3485
   84DPPC   O11 4161   0.123   7.100   4.562 -0.1184  0.0087  0.0447
   84DPPC   C12 4162   0.089   7.004   4.462  0.0545 -0.0913  0.0818
   84DPPC   C13 4163  -0.031   7.057   4.383  0.0017 -0.0722  0.1758
   84DPPC   O14 4164  -0.077   6.965   4.283  0.0214 -0.0451  0.1423
   84DPPC   C15 4165  -0.132   6.844   4.312  0.1797 -0.2460 -0.3865
   84DPPC   O16 4166  -0.094   6.780   4.410 -0.2014 -0.0768 -0.1291
   84DPPC   C17 4167  -0.213   6.785   4.196 -0.3299 -0.0250 -0.1460
   84DPPC   C18 4168  -0.161   6.840   4.063 -0.2334 -0.0258 -0.1096
   84DPPC   C19 4169  -0.268   6.817   3.956  0.0833 -0.1810 -0.3944
   84DPPC   C20 4170  -0.390   6.887   4.017  0.1845 -0.1420 -0.2372
   84DPPC   C21 4171  -0.515   6.844   3.940  0.0600 -0.4280  0.1219
   84DPPC   C22 4172  -0.633   6.857   4.035  0.3899  0.0776  0.4666
   84DPPC   C23 4173  -0.752   6.782   3.974  0.2022  0.7773 -0.0445
   84DPPC   C24 4174  -0.884   6.827   4.038  0.0008 -0.2441  0.2760
   84DPPC   C25 4175  -1.008   6.751   3.992 -0.0562 -0.4780  0.8022
   84DPPC   C26 4176  -1.137   6.793   4.062 -0.1068  0.3793  0.2112
   84DPPC   C27 4177  -1.258   6.706   4.028 -0.1880  0.5050  0.1753
   84DPPC   C28 4178  -1.376   6.775   4.097 -0.1834  0.6322  0.0567
   84DPPC   C29 4179  -1.512   6.706   4.082 -0.1180  0.4824  0.1459
   84DPPC   C30 4180  -1.602   6.781   4.180  0.0124 -0.0842  0.7037
   84DPPC   C31 4181  -1.753   6.760   4.166  0.2549 -1.0615 -0.6096
   84DPPC   C32 4182  -0.004   7.193   4.320 -0.1246 -0.0736  0.1166
   84DPPC   O33 4183   0.065   7.204   4.196  0.4071  0.0937  0.4228
   84DPPC   C34 4184   0.087   7.335   4.165 -0.3736  0.1686  0.1521
   84DPPC   O35 4185   0.034   7.428   4.225 -0.1835  0.2882  0.1377
   84DPPC   C36 4186   0.134   7.355   4.020  0.6573  0.7378  0.5529
   84DPPC   C37 4187   0.277   7.303   4.004  0.0742 -0.6362 -0.3362
   84DPPC   C38 4188   0.322   7.313   3.858  0.1345  0.6798 -0.2401
   84DPPC   C39 4189   0.228   7.231   3.769  0.2830  0.2561 -0.0129
   84DPPC   C40 4190   0.228   7.092   3.832  0.0811  0.0664 -0.4229
   84DPPC   C41 4191   0.151   6.998   3.741 -0.1865 -0.0448 -0.0835
   84DPPC   C42 4192   0.176   6.851   3.777  0.1214  0.0239 -0.0214
   84DPPC   C43 4193   0.327   6.824   3.768  0.1410  0.1156  0.0287
   84DPPC   C44 4194   0.360   6.684   3.819  0.3692 -0.0138 -0.4757
   84DPPC   C45 4195   0.509   6.682   3.857  0.3563 -0.0550 -0.4283
   84DPPC   C46 4196   0.542   6.800   3.948 -0.2964 -0.7111  0.6805
   84DPPC   C47 4197   0.681   6.773   4.006  0.1401  0.1687  0.0558
   84DPPC   C48 4198   0.770   6.756   3.882 -0.0254 -0.0384 -0.0352
   84DPPC   C49 4199   0.899   6.837   3.887 -0.1921  0.2224  0.0915
   84DPPC   C50 4200   0.981   6.824   3.758  0.3088  0.5467  0.3737
   85DPPC    C1 4201   8.288   7.424   4.700 -0.1313  0.2099 -0.8491
   85DPPC    C2 4202   8.217   7.482   4.911  0.2511 -0.0320 -0.5246
   85DPPC    C3 4203   8.376   7.309   4.873 -0.3394 -0.1834 -1.0337
   85DPPC    N4 4204   8.339   7.446   4.836  0.0366 -0.0366 -0.8700
   85DPPC    C5 4205   8.440   7.551   4.821  0.2181 -0.0559  0.1598
   85DPPC    C6 4206   8.531   7.606   4.932 -0.0107  0.5611  0.0462
   85DPPC    O7 4207   8.644   7.524   4.962 -0.1554  0.1708 -0.4620
   85DPPC    P8 4208   8.784   7.604   4.966 -0.3080  0.4177 -0.0057
   85DPPC    O9 4209   8.877   7.507   5.026  0.0438  0.4816 -0.4456
   85DPPC   O10 4210   8.751   7.737   5.022  0.4089  0.5518  0.1030
   85DPPC   O11 4211   8.798   7.602   4.805  0.4525  0.0272  0.0656
   85DPPC   C12 4212   8.826   7.467   4.768  0.5403  0.1382 -0.2781
   85DPPC   C13 4213   8.824   7.438   4.618 -0.0345  0.2249 -0.2871
   85DPPC   O14 4214   8.795   7.301   4.588  0.2494  0.0819  0.0898
   85DPPC   C15 4215   8.670   7.255   4.563  0.2167  0.1271  0.1674
   85DPPC   O16 4216   8.571   7.315   4.604 -0.1101 -0.2840 -0.0101
   85DPPC   C17 4217   8.663   7.126   4.480  0.5731  0.4239 -0.3307
   85DPPC   C18 4218   8.530   7.094   4.412  0.2372  0.6129  0.2336
   85DPPC   C19 4219   8.460   6.987   4.496 -0.3021  0.5250 -0.3238
   85DPPC   C20 4220   8.323   6.959   4.433 -0.0916 -0.0829 -0.5138
   85DPPC   C21 4221   8.230   7.074   4.471  0.2135  0.0465 -0.1505
   85DPPC   C22 4222   8.093   7.058   4.405 -0.0289 -0.1527  0.4003
   85DPPC   C23 4223   7.972   7.135   4.458 -0.1391 -0.5846  0.7846
   85DPPC   C24 4224   7.868   7.119   4.347  0.4406 -0.0002  0.1485
   85DPPC   C25 4225   7.913   7.159   4.206  0.2199 -0.1176  0.0440
   85DPPC   C26 4226   7.801   7.151   4.103  0.6357 -0.0055 -0.4220
   85DPPC   C27 4227   7.842   7.209   3.968 -0.1105  0.2179 -0.5572
   85DPPC   C28 4228   7.964   7.145   3.903 -0.3185 -0.4480 -0.2988
   85DPPC   C29 4229   7.977   7.177   3.754  0.3849  0.1044 -0.1228
   85DPPC   C30 4230   8.102   7.108   3.698  0.2619 -0.2533  0.0438
   85DPPC   C31 4231   8.121   7.146   3.551 -0.7393  0.3547  0.0584
   85DPPC   C32 4232   8.955   7.494   4.562 -0.1196  0.3909 -0.3185
   85DPPC   O33 4233   8.962   7.533   4.425  0.0971  0.0222 -0.4142
   85DPPC   C34 4234   9.076   7.596   4.384  0.5092 -0.5013 -0.0755
   85DPPC   O35 4235   9.162   7.639   4.461  0.6571 -0.3454 -0.3273
   85DPPC   C36 4236   9.081   7.623   4.234 -0.3612  0.1783  0.0150
   85DPPC   C37 4237   9.223   7.649   4.184 -0.2645  0.3944  0.3983
   85DPPC   C38 4238   9.231   7.726   4.052  0.0770 -0.2006  0.0694
   85DPPC   C39 4239   9.376   7.737   4.002 -0.0012 -0.6857 -0.2690
   85DPPC   C40 4240   9.379   7.800   3.863 -0.5868  0.0037  0.0236
   85DPPC   C41 4241   9.489   7.739   3.777 -0.0639  0.7025  0.1827
   85DPPC   C42 4242   9.478   7.786   3.632 -0.2095  0.2687  0.0499
   85DPPC   C43 4243   9.581   7.699   3.560 -0.4920 -0.3425  0.3850
   85DPPC   C44 4244   9.594   7.701   3.407 -0.0594 -0.0826  0.4241
   85DPPC   C45 4245   9.708   7.610   3.361 -0.0489  0.1101  0.0716
   85DPPC   C46 4246   9.683   7.462   3.391 -0.5557  0.1165 -0.2997
   85DPPC   C47 4247   9.774   7.356   3.330  0.1811  0.4707  0.1656
   85DPPC   C48 4248   9.700   7.224   3.352  0.0571  0.4214 -0.5446
   85DPPC   C49 4249   9.738   7.111   3.256  0.0318 -0.1291  0.0873
   85DPPC   C50 4250   9.886   7.081   3.278 -0.0957 -0.5538  0.3804
   86DPPC    C1 4251   7.160   7.301   5.499 -0.4773  0.1747  0.4791
   86DPPC    C2 4252   7.367   7.267   5.360  0.1632 -0.1025  0.3236
   86DPPC    C3 4253   7.336   7.430   5.525 -0.0290 -0.1838 -0.5072
   86DPPC    N4 4254   7.307   7.290   5.492 -0.5231 -0.2089  0.0334
   86DPPC    C5 4255   7.369   7.206   5.595 -0.2376 -0.1450 -0.0867
   86DPPC    C6 4256   7.360   7.054   5.575  0.2021 -0.2229  0.2765
   86DPPC    O7 4257   7.227   7.003   5.559  0.2118 -0.0617 -0.3495
   86DPPC    P8 4258   7.238   6.845   5.527 -0.2005 -0.1992  0.1786
   86DPPC    O9 4259   7.137   6.801   5.625  0.5828 -0.7227  0.7649
   86DPPC   O10 4260   7.379   6.801   5.526 -0.3645 -0.7224 -0.6108
   86DPPC   O11 4261   7.170   6.866   5.383  0.3649  0.8751  0.0488
   86DPPC   C12 4262   7.256   6.861   5.269  0.4964 -0.8801  0.1873
   86DPPC   C13 4263   7.179   6.841   5.139  0.0218 -0.1438  0.3478
   86DPPC   O14 4264   7.270   6.846   5.028 -0.0478 -0.2808  0.2844
   86DPPC   C15 4265   7.234   6.774   4.918  0.3311 -0.7627  0.4749
   86DPPC   O16 4266   7.145   6.690   4.929  0.0851 -0.5264  0.2949
   86DPPC   C17 4267   7.349   6.766   4.817 -0.2268 -0.2798 -0.2000
   86DPPC   C18 4268   7.310   6.716   4.678 -0.3801  0.0104 -0.2633
   86DPPC   C19 4269   7.407   6.767   4.571  0.0402 -0.3038 -0.0328
   86DPPC   C20 4270   7.341   6.738   4.436  0.1295 -0.9333  0.0572
   86DPPC   C21 4271   7.426   6.799   4.324  0.3047 -0.1371  0.6132
   86DPPC   C22 4272   7.403   6.950   4.316 -0.4342 -0.2497  0.4722
   86DPPC   C23 4273   7.298   7.013   4.225 -0.0662 -0.3350 -0.0127
   86DPPC   C24 4274   7.302   7.165   4.246 -0.2012 -0.3718  0.2796
   86DPPC   C25 4275   7.213   7.246   4.152  0.0731 -0.4636 -0.0615
   86DPPC   C26 4276   7.268   7.239   4.010  0.1287 -0.2045 -0.0538
   86DPPC   C27 4277   7.180   7.334   3.929  0.3535 -0.1573 -0.2454
   86DPPC   C28 4278   7.236   7.367   3.790 -0.7385  0.0286 -0.6506
   86DPPC   C29 4279   7.283   7.255   3.699  0.2193 -0.1457  0.0454
   86DPPC   C30 4280   7.355   7.303   3.572  0.2944 -0.5034 -0.0488
   86DPPC   C31 4281   7.250   7.366   3.480  0.9972  0.2369 -0.3530
   86DPPC   C32 4282   7.063   6.940   5.129  0.4063  0.3800  1.0043
   86DPPC   O33 4283   7.095   7.078   5.114  0.1188  0.3524  0.0701
   86DPPC   C34 4284   6.990   7.163   5.134 -0.1872 -0.2531  1.1109
   86DPPC   O35 4285   6.876   7.121   5.154 -0.0783 -0.7296  0.7562
   86DPPC   C36 4286   7.033   7.309   5.150  0.9593 -0.4801  0.2530
   86DPPC   C37 4287   7.024   7.381   5.015 -0.2991 -1.0119  0.0343
   86DPPC   C38 4288   6.884   7.422   4.968 -0.0634 -0.3193 -0.0768
   86DPPC   C39 4289   6.889   7.468   4.823  0.4820 -0.0094  0.0343
   86DPPC   C40 4290   6.977   7.593   4.825  0.3052  0.1074  0.9932
   86DPPC   C41 4291   7.065   7.591   4.699 -0.1014  0.1551  0.7050
   86DPPC   C42 4292   7.142   7.721   4.676  0.4984 -0.2704  0.2877
   86DPPC   C43 4293   7.239   7.742   4.793  0.1287 -0.1558  0.5763
   86DPPC   C44 4294   7.323   7.868   4.770  0.3441 -0.2824  0.6665
   86DPPC   C45 4295   7.218   7.980   4.771  0.4483 -0.1746 -0.0808
   86DPPC   C46 4296   7.261   8.113   4.707 -0.2235 -0.0211 -0.2162
   86DPPC   C47 4297   7.159   8.227   4.712 -0.0474  0.1447 -0.4242
   86DPPC   C48 4298   7.239   8.340   4.647 -0.3604  0.4406 -0.3009
   86DPPC   C49 4299   7.149   8.464   4.651 -0.6539  0.2164  0.1325
   86DPPC   C50 4300   7.207   8.561   4.548 -1.1036 -0.1296 -0.4530
   87DPPC    C1 4301   5.185   4.625   5.912 -0.5925  0.4533  0.1391
   87DPPC    C2 4302   5.029   4.488   6.021 -0.3148  0.8104  0.2645
   87DPPC    C3 4303   4.971   4.648   5.861  0.9636  0.7232 -0.3677
   87DPPC    N4 4304   5.067   4.541   5.889 -0.1116 -0.1735 -0.0744
   87DPPC    C5 4305   5.081   4.447   5.777 -0.2037  0.0495 -0.2718
   87DPPC    C6 4306   5.197   4.348   5.775 -0.6690 -0.5029 -0.1002
   87DPPC    O7 4307   5.162   4.241   5.863 -0.6711 -0.5655 -0.1754
   87DPPC    P8 4308   5.280   4.134   5.887 -0.3133 -0.1383 -0.0073
   87DPPC    O9 4309   5.213   4.002   5.900 -0.3548 -0.1214 -0.0479
   87DPPC   O10 4310   5.357   4.201   5.994 -0.6500  0.3743 -0.0789
   87DPPC   O11 4311   5.348   4.146   5.742  0.0083 -0.2334  0.1336
   87DPPC   C12 4312   5.311   4.034   5.661 -0.0187 -0.1561  0.0385
   87DPPC   C13 4313   5.243   4.070   5.529  0.2087 -0.2504 -0.1066
   87DPPC   O14 4314   5.195   3.955   5.458  0.2022 -0.2768 -0.0597
   87DPPC   C15 4315   5.064   3.921   5.474  0.1506 -0.0081  0.0931
   87DPPC   O16 4316   4.992   3.961   5.565 -0.1625 -0.2607 -0.0410
   87DPPC   C17 4317   5.013   3.804   5.390 -0.6963  0.3204  0.1400
   87DPPC   C18 4318   4.891   3.829   5.302 -0.1766  0.4040 -0.5654
   87DPPC   C19 4319   4.850   3.716   5.207 -0.0613 -0.1561  0.0473
   87DPPC   C20 4320   4.958   3.696   5.100 -0.0247 -0.2892  0.1083
   87DPPC   C21 4321   4.911   3.586   5.004 -0.3164  0.0816 -0.1789
   87DPPC   C22 4322   5.027   3.556   4.909  0.2209  0.2407  0.4169
   87DPPC   C23 4323   5.072   3.687   4.845  0.0533 -0.1385 -0.4936
   87DPPC   C24 4324   5.196   3.665   4.757  0.2379 -0.1206 -0.2406
   87DPPC   C25 4325   5.168   3.612   4.616  0.0382 -0.3370 -0.1195
   87DPPC   C26 4326   5.079   3.709   4.538  0.1794  0.1417  0.3063
   87DPPC   C27 4327   5.038   3.642   4.406  0.1580  0.8841 -0.0665
   87DPPC   C28 4328   4.920   3.710   4.335 -0.4658  0.2938  0.3923
   87DPPC   C29 4329   4.890   3.626   4.210  0.1894  0.7795 -0.0961
   87DPPC   C30 4330   4.758   3.681   4.156 -0.3158 -0.0726  0.2597
   87DPPC   C31 4331   4.727   3.622   4.019 -0.1428 -0.2473  0.2948
   87DPPC   C32 4332   5.333   4.167   5.453 -0.0534  0.0636 -0.0216
   87DPPC   O33 4333   5.250   4.248   5.370 -0.3919 -0.2602  0.0006
   87DPPC   C34 4334   5.320   4.315   5.274  0.1431  0.1664  0.6817
   87DPPC   O35 4335   5.443   4.312   5.270  0.1152 -0.0470 -0.3649
   87DPPC   C36 4336   5.237   4.361   5.154  0.1510 -0.1749  0.5440
   87DPPC   C37 4337   5.220   4.250   5.049 -0.7961  0.2942  0.1971
   87DPPC   C38 4338   5.135   4.137   5.107  0.2067 -0.6137 -0.0924
   87DPPC   C39 4339   5.086   4.037   5.002 -0.4657 -0.0423 -0.3281
   87DPPC   C40 4340   4.981   4.108   4.917 -0.7995  0.3064  0.3714
   87DPPC   C41 4341   4.925   4.020   4.805  0.0370  0.0760  0.1263
   87DPPC   C42 4342   4.802   4.075   4.732 -0.1663 -0.3147  0.1688
   87DPPC   C43 4343   4.790   4.015   4.592 -0.5843  0.3983 -0.1095
   87DPPC   C44 4344   4.660   4.073   4.537 -0.4974  0.5288 -0.1773
   87DPPC   C45 4345   4.651   4.032   4.390 -0.1369 -0.8550  0.1753
   87DPPC   C46 4346   4.549   4.125   4.324  0.4468 -0.3263  0.0015
   87DPPC   C47 4347   4.536   4.114   4.172 -0.2637 -0.0589  0.0409
   87DPPC   C48 4348   4.504   3.968   4.141 -0.3605  0.0600 -0.4337
   87DPPC   C49 4349   4.475   3.966   3.991  0.0487 -0.0497 -0.5129
   87DPPC   C50 4350   4.359   4.050   3.938  0.2549  0.2123 -0.5520
   88DPPC    C1 4351   7.926   6.676   5.385  0.2656 -0.2890  0.3694
   88DPPC    C2 4352   7.793   6.492   5.456  0.1133 -0.3072 -0.0825
   88DPPC    C3 4353   7.817   6.693   5.590  0.2760  0.4843 -0.1485
   88DPPC    N4 4354   7.802   6.639   5.455  0.1629 -0.3081  0.1779
   88DPPC    C5 4355   7.684   6.682   5.377  0.0012 -0.4364  0.3506
   88DPPC    C6 4356   7.644   6.829   5.370 -0.0021 -0.4669 -0.3621
   88DPPC    O7 4357   7.744   6.914   5.313  0.1061 -0.1559  0.2725
   88DPPC    P8 4358   7.700   7.069   5.313  0.0703 -0.1652 -0.1037
   88DPPC    O9 4359   7.819   7.144   5.268 -0.3835  0.6438  0.0189
   88DPPC   O10 4360   7.624   7.101   5.436  0.1926  0.4103 -0.1765
   88DPPC   O11 4361   7.596   7.059   5.190 -0.0027 -0.0817 -0.0486
   88DPPC   C12 4362   7.661   7.014   5.071  0.0514 -0.4245  0.1108
   88DPPC   C13 4363   7.587   6.980   4.941  0.2258 -0.0851 -0.0776
   88DPPC   O14 4364   7.676   6.953   4.831  0.5613  0.3612  0.0824
   88DPPC   C15 4365   7.728   6.830   4.807  1.2678  0.6782 -0.0239
   88DPPC   O16 4366   7.720   6.753   4.902  0.0600  0.1441 -0.5479
   88DPPC   C17 4367   7.781   6.793   4.668  0.6750  0.0719 -0.0913
   88DPPC   C18 4368   7.770   6.643   4.638 -0.3191  0.1158  0.0065
   88DPPC   C19 4369   7.876   6.616   4.530 -0.4354  0.1110 -0.1067
   88DPPC   C20 4370   7.873   6.470   4.485  0.7237 -0.0072  0.1725
   88DPPC   C21 4371   7.984   6.456   4.381  0.4409  0.1165 -0.1483
   88DPPC   C22 4372   7.937   6.386   4.253  0.0929  0.0723  0.0054
   88DPPC   C23 4373   8.062   6.337   4.181  0.1643 -0.7806  0.6888
   88DPPC   C24 4374   8.027   6.279   4.043  0.3357 -0.4539  0.5054
   88DPPC   C25 4375   8.146   6.217   3.971 -0.2568 -0.1353 -0.7704
   88DPPC   C26 4376   8.117   6.207   3.821 -0.2589 -0.1233 -0.7707
   88DPPC   C27 4377   8.239   6.157   3.743  0.1239 -0.5967  0.1147
   88DPPC   C28 4378   8.195   6.088   3.614  0.3566  0.0949 -0.3432
   88DPPC   C29 4379   8.130   6.189   3.520 -0.1246 -0.1737 -0.3059
   88DPPC   C30 4380   8.119   6.150   3.373  1.2224  0.1538 -0.5111
   88DPPC   C31 4381   8.099   6.263   3.271  0.2186  0.6594  0.2311
   88DPPC   C32 4382   7.500   7.103   4.917 -0.4273 -0.3267  0.9893
   88DPPC   O33 4383   7.381   7.085   4.839  0.2179 -0.3989  0.0094
   88DPPC   C34 4384   7.300   7.195   4.843  0.3515 -0.2767 -0.5155
   88DPPC   O35 4385   7.342   7.295   4.900 -0.0804 -0.5113  0.2401
   88DPPC   C36 4386   7.158   7.175   4.791 -0.0711 -0.3660  0.6464
   88DPPC   C37 4387   7.149   7.196   4.640  0.3048 -0.0621  0.6645
   88DPPC   C38 4388   7.014   7.156   4.580  0.5593  0.3843 -0.2290
   88DPPC   C39 4389   6.991   7.005   4.589 -0.3159  0.5276  0.0513
   88DPPC   C40 4390   6.844   6.975   4.555 -0.2032  0.0681 -0.0382
   88DPPC   C41 4391   6.826   6.831   4.602  0.0027  0.0334 -0.0644
   88DPPC   C42 4392   6.678   6.791   4.606 -0.0140  0.1275  0.2743
   88DPPC   C43 4393   6.616   6.789   4.466  0.3085 -0.1063  0.1331
   88DPPC   C44 4394   6.480   6.720   4.455  0.5004 -0.4957  0.1974
   88DPPC   C45 4395   6.396   6.761   4.333  0.3257 -0.5040  0.3152
   88DPPC   C46 4396   6.306   6.644   4.294 -0.1432 -0.0398  0.0025
   88DPPC   C47 4397   6.242   6.667   4.157 -0.0568  0.3873  0.0302
   88DPPC   C48 4398   6.156   6.543   4.128  0.2100  0.2283 -0.0899
   88DPPC   C49 4399   6.236   6.418   4.163  0.0112  0.0591 -0.2389
   88DPPC   C50 4400   6.174   6.296   4.093  0.5120  0.1238 -0.8104
   89DPPC    C1 4401   8.895   1.171   5.598  0.3763  0.5390  0.7433
   89DPPC    C2 4402   8.949   1.393   5.613  0.4309 -0.0621 -0.3152
   89DPPC    C3 4403   9.020   1.278   5.429  0.1019  0.1764 -0.4430
   89DPPC    N4 4404   8.903   1.293   5.516  0.2449 -0.0839 -0.2049
   89DPPC    C5 4405   8.792   1.331   5.428 -0.0118  0.4792  0.3563
   89DPPC    C6 4406   8.652   1.377   5.470 -0.2057  0.4030 -0.1919
   89DPPC    O7 4407   8.664   1.460   5.586  0.0037 -0.2061  0.2305
   89DPPC    P8 4408   8.532   1.552   5.595  0.1198 -0.0544  0.3901
   89DPPC    O9 4409   8.562   1.668   5.682  0.1775  0.2149  0.0131
   89DPPC   O10 4410   8.424   1.453   5.612  0.0677 -0.1077 -0.2402
   89DPPC   O11 4411   8.537   1.599   5.441  0.0429 -0.0312  0.3942
   89DPPC   C12 4412   8.432   1.684   5.394  0.4509  0.2436 -0.0317
   89DPPC   C13 4413   8.477   1.757   5.268 -0.3966  0.3548 -0.2772
   89DPPC   O14 4414   8.371   1.845   5.227 -0.6173  0.1335 -0.1858
   89DPPC   C15 4415   8.373   1.978   5.253  0.7397  0.0997 -0.0031
   89DPPC   O16 4416   8.435   2.017   5.352  0.1854 -0.0869  0.4232
   89DPPC   C17 4417   8.286   2.069   5.165 -0.1039 -0.3574  0.3421
   89DPPC   C18 4418   8.267   2.024   5.020 -0.2923 -0.1075  0.2891
   89DPPC   C19 4419   8.200   2.124   4.926 -0.5246 -0.4453  0.0923
   89DPPC   C20 4420   8.171   2.062   4.789 -0.0606 -0.4900  0.0144
   89DPPC   C21 4421   8.105   2.161   4.693 -0.0970 -0.7754 -0.2564
   89DPPC   C22 4422   7.973   2.209   4.754  0.0427 -0.2399 -0.3687
   89DPPC   C23 4423   7.916   2.295   4.642 -0.5474 -0.4687 -0.2512
   89DPPC   C24 4424   7.785   2.357   4.691 -0.0856  0.3110  0.0084
   89DPPC   C25 4425   7.709   2.442   4.589 -0.5098  0.0886  0.1408
   89DPPC   C26 4426   7.664   2.354   4.472 -1.1290  0.0868  0.3762
   89DPPC   C27 4427   7.566   2.433   4.385 -0.7059  0.0147 -0.1725
   89DPPC   C28 4428   7.618   2.564   4.325  0.1884 -0.2914 -0.0644
   89DPPC   C29 4429   7.514   2.616   4.225  0.0628  0.1306  0.2829
   89DPPC   C30 4430   7.572   2.747   4.172 -0.0281  0.1347  0.1945
   89DPPC   C31 4431   7.701   2.732   4.092 -0.0848 -0.4101  0.2040
   89DPPC   C32 4432   8.522   1.658   5.160  0.5925  0.2830  0.1853
   89DPPC   O33 4433   8.591   1.731   5.058  0.3622  0.0110 -0.1690
   89DPPC   C34 4434   8.620   1.672   4.939 -0.2272 -0.1590 -0.2314
   89DPPC   O35 4435   8.584   1.555   4.924 -0.7340  0.0329 -0.5275
   89DPPC   C36 4436   8.698   1.746   4.829 -0.2584  0.2511  0.0190
   89DPPC   C37 4437   8.600   1.815   4.734 -0.0358  0.4845 -0.0398
   89DPPC   C38 4438   8.665   1.940   4.675  0.1650  0.2942 -0.2273
   89DPPC   C39 4439   8.677   1.949   4.523 -0.4260  0.0856 -0.2846
   89DPPC   C40 4440   8.542   1.968   4.453 -0.4838 -0.0228 -0.2043
   89DPPC   C41 4441   8.570   2.008   4.307  0.2856 -0.2812 -0.1339
   89DPPC   C42 4442   8.447   1.984   4.220 -0.1077  0.6861  0.1433
   89DPPC   C43 4443   8.318   2.029   4.290 -0.2454  0.7110 -0.1215
   89DPPC   C44 4444   8.200   1.972   4.211  0.1944 -0.2819 -0.0791
   89DPPC   C45 4445   8.080   2.043   4.273  0.4390  0.4011 -0.3715
   89DPPC   C46 4446   7.954   2.002   4.195  0.1624  0.7276 -0.1026
   89DPPC   C47 4447   7.822   2.035   4.263 -0.1051 -0.7010  0.1028
   89DPPC   C48 4448   7.713   1.969   4.178 -0.0569 -0.1463 -0.3904
   89DPPC   C49 4449   7.577   2.022   4.226 -0.1118 -0.1289 -0.5646
   89DPPC   C50 4450   7.473   1.985   4.120  0.0685  0.0596 -0.8115
   90DPPC    C1 4451   6.078   3.117   6.092 -0.2946 -0.2336  0.1749
   90DPPC    C2 4452   5.918   3.283   5.999 -0.2827  0.1349  0.4877
   90DPPC    C3 4453   6.045   3.331   6.166  0.6034 -0.1060 -0.1743
   90DPPC    N4 4454   6.056   3.253   6.042 -0.1905 -0.3228 -0.1136
   90DPPC    C5 4455   6.156   3.303   5.947 -0.2184 -0.0802 -0.0156
   90DPPC    C6 4456   6.186   3.453   5.939  0.1532 -0.1725 -0.3656
   90DPPC    O7 4457   6.091   3.529   5.864 -0.3406 -0.0077  0.4256
   90DPPC    P8 4458   6.093   3.684   5.906 -0.0257  0.0986  0.0202
   90DPPC    O9 4459   6.118   3.680   6.052  0.7088 -0.0818 -0.1045
   90DPPC   O10 4460   5.993   3.770   5.839 -0.6583 -0.7700 -0.1714
   90DPPC   O11 4461   6.234   3.711   5.833  0.0805 -0.2207  0.1084
   90DPPC   C12 4462   6.212   3.718   5.692  0.5075 -0.2352  0.0406
   90DPPC   C13 4463   6.339   3.720   5.606  0.3440  0.2077 -0.1906
   90DPPC   O14 4464   6.323   3.762   5.470  0.6111  0.6390 -0.0920
   90DPPC   C15 4465   6.259   3.878   5.437 -0.7658 -0.0148  0.1924
   90DPPC   O16 4466   6.247   3.970   5.517 -0.0876  0.2796 -0.0381
   90DPPC   C17 4467   6.232   3.900   5.288  0.5576 -0.1850 -0.0934
   90DPPC   C18 4468   6.108   3.822   5.244 -0.1961  0.6941  0.4278
   90DPPC   C19 4469   6.052   3.872   5.110  0.1141  0.1321  0.0817
   90DPPC   C20 4470   6.146   3.892   4.991  0.4101  0.1267  0.3111
   90DPPC   C21 4471   6.084   3.933   4.857 -0.1984 -0.6009  0.3616
   90DPPC   C22 4472   6.191   3.988   4.762 -0.4070  0.0554  0.4978
   90DPPC   C23 4473   6.153   4.016   4.617  0.6884 -0.3411  0.1290
   90DPPC   C24 4474   6.271   4.060   4.530  0.3321 -0.1952 -0.2886
   90DPPC   C25 4475   6.227   4.088   4.386  0.3710 -0.1665 -0.2952
   90DPPC   C26 4476   6.344   4.064   4.290 -0.0710 -0.5245 -0.7506
   90DPPC   C27 4477   6.303   4.100   4.147 -0.4616  0.6078 -0.3666
   90DPPC   C28 4478   6.425   4.081   4.058 -0.1819 -0.5051  0.2331
   90DPPC   C29 4479   6.396   4.046   3.911 -0.2374  0.3198  0.0433
   90DPPC   C30 4480   6.356   3.900   3.890  0.0015  0.1955  0.4416
   90DPPC   C31 4481   6.488   3.823   3.893  0.0734  0.2788 -0.4039
   90DPPC   C32 4482   6.418   3.590   5.618 -0.1685 -0.1477 -0.6358
   90DPPC   O33 4483   6.343   3.471   5.590 -0.3308 -0.2671  0.2889
   90DPPC   C34 4484   6.408   3.354   5.611 -0.5576 -0.3805  0.3730
   90DPPC   O35 4485   6.507   3.355   5.684  0.1401  0.6830 -0.5498
   90DPPC   C36 4486   6.331   3.222   5.600 -0.4087 -0.4843  0.5667
   90DPPC   C37 4487   6.354   3.145   5.470 -0.6707  0.8163 -0.2663
   90DPPC   C38 4488   6.242   3.041   5.461 -0.1374  0.2290 -0.1793
   90DPPC   C39 4489   6.230   2.977   5.323  0.5840  0.2768 -0.2662
   90DPPC   C40 4490   6.119   2.872   5.322  0.1384  0.7438 -0.4014
   90DPPC   C41 4491   6.118   2.806   5.183 -0.3463 -0.6684  0.2509
   90DPPC   C42 4492   6.026   2.689   5.152 -1.1701  0.0896 -0.1942
   90DPPC   C43 4493   6.018   2.661   5.002 -0.1990 -0.2174 -0.1927
   90DPPC   C44 4494   5.973   2.776   4.911  0.0524  0.0932  0.0712
   90DPPC   C45 4495   5.986   2.720   4.769  0.5972  0.2653  0.0506
   90DPPC   C46 4496   5.961   2.820   4.656  0.0091 -0.3921 -0.4093
   90DPPC   C47 4497   6.026   2.766   4.529  0.9811 -0.0385 -0.0714
   90DPPC   C48 4498   5.932   2.785   4.410  0.6643  0.2059  0.2172
   90DPPC   C49 4499   5.964   2.676   4.308 -0.1100  0.3997 -0.2454
   90DPPC   C50 4500   6.105   2.697   4.253 -0.0673  0.6811 -0.0286
   91DPPC    C1 4501   4.517   7.123   5.517 -0.1879 -0.0540 -0.0049
   91DPPC    C2 4502   4.461   7.260   5.689  0.7031 -0.3700  0.3179
   91DPPC    C3 4503   4.648   7.329   5.570 -0.0114  0.0533 -0.0727
   91DPPC    N4 4504   4.516   7.265   5.553  0.0296 -0.0679  0.0542
   91DPPC    C5 4505   4.415   7.346   5.482  0.2731 -0.1951 -0.4467
   91DPPC    C6 4506   4.448   7.348   5.333 -0.2552 -0.4951 -0.5712
   91DPPC    O7 4507   4.357   7.441   5.274 -0.3223  0.0368  0.3525
   91DPPC    P8 4508   4.311   7.389   5.129  0.4360  0.0409  0.1049
   91DPPC    O9 4509   4.242   7.507   5.072  0.0658 -0.4586 -0.4984
   91DPPC   O10 4510   4.239   7.263   5.161  0.4490  0.1387  0.5186
   91DPPC   O11 4511   4.452   7.338   5.070  0.6638  0.4059  0.3295
   91DPPC   C12 4512   4.456   7.406   4.944 -0.1223  0.0492  0.1019
   91DPPC   C13 4513   4.574   7.356   4.861 -0.1102  0.0406  0.1239
   91DPPC   O14 4514   4.617   7.433   4.747  0.1258 -0.1834  0.0604
   91DPPC   C15 4515   4.695   7.544   4.758 -0.1922  0.0679 -0.2236
   91DPPC   O16 4516   4.740   7.591   4.862 -0.4885 -0.4967  0.1644
   91DPPC   C17 4517   4.760   7.579   4.624  0.4576 -0.1018  0.0449
   91DPPC   C18 4518   4.727   7.498   4.498  0.2365 -0.3946  0.2913
   91DPPC   C19 4519   4.821   7.531   4.382  0.2441 -0.1118  0.3789
   91DPPC   C20 4520   4.763   7.478   4.251  0.1991 -0.0332  0.3663
   91DPPC   C21 4521   4.835   7.547   4.135 -0.3117 -0.3894 -0.1689
   91DPPC   C22 4522   4.827   7.465   4.006 -0.1332 -0.1084 -0.3601
   91DPPC   C23 4523   4.894   7.531   3.886 -0.5996  0.0187 -0.5542
   91DPPC   C24 4524   4.916   7.440   3.765  0.3391 -0.1089 -0.2993
   91DPPC   C25 4525   4.965   7.525   3.648  0.2591  0.0108 -0.2467
   91DPPC   C26 4526   4.979   7.431   3.528 -0.1106 -0.4769  0.0886
   91DPPC   C27 4527   5.078   7.315   3.545 -0.3733 -0.6958  0.1370
   91DPPC   C28 4528   5.121   7.267   3.406  0.5656  0.2547  0.0861
   91DPPC   C29 4529   5.228   7.157   3.408  0.0566 -0.2393  0.4461
   91DPPC   C30 4530   5.308   7.143   3.279 -0.3780 -0.2928  0.1804
   91DPPC   C31 4531   5.220   7.094   3.164 -0.3658 -0.6435  0.3187
   91DPPC   C32 4532   4.557   7.206   4.836  0.8666  0.0381 -0.5879
   91DPPC   O33 4533   4.419   7.169   4.826  0.8578 -0.1711  0.2401
   91DPPC   C34 4534   4.390   7.042   4.786  0.4846  0.2296 -0.8270
   91DPPC   O35 4535   4.474   6.955   4.812 -0.1592 -0.1080  0.1975
   91DPPC   C36 4536   4.257   7.015   4.717  0.1888 -0.0232 -0.1696
   91DPPC   C37 4537   4.276   6.913   4.604  0.3482 -0.3593  0.1602
   91DPPC   C38 4538   4.133   6.881   4.558  0.4196 -0.2652 -0.1240
   91DPPC   C39 4539   4.147   6.785   4.440 -0.0394 -0.0697 -0.3404
   91DPPC   C40 4540   4.210   6.878   4.336  0.1089  0.1050 -0.0942
   91DPPC   C41 4541   4.252   6.798   4.213 -0.1805 -0.1666 -0.0175
   91DPPC   C42 4542   4.138   6.712   4.158 -0.3225 -0.1130  0.1903
   91DPPC   C43 4543   4.189   6.622   4.045 -0.0435  0.2157  0.0531
   91DPPC   C44 4544   4.313   6.546   4.092 -0.0526  0.1030 -0.1079
   91DPPC   C45 4545   4.334   6.428   3.996  0.4448  0.1543 -0.0635
   91DPPC   C46 4546   4.354   6.470   3.850  1.1821  0.2102  0.0472
   91DPPC   C47 4547   4.375   6.351   3.757  0.0535  0.2959 -0.3295
   91DPPC   C48 4548   4.339   6.403   3.618 -0.4708  0.2217 -0.2242
   91DPPC   C49 4549   4.343   6.280   3.526 -0.0569 -0.0397  0.1395
   91DPPC   C50 4550   4.312   6.313   3.380  0.6708  0.2232  0.0439
   92DPPC    C1 4551   1.860   5.977   5.381 -0.1435  0.9305  0.3206
   92DPPC    C2 4552   1.834   6.206   5.467 -0.1899  0.3052  0.3310
   92DPPC    C3 4553   1.802   6.032   5.605 -0.5221  0.1579  0.1075
   92DPPC    N4 4554   1.886   6.070   5.491  0.0894  0.4723  0.6587
   92DPPC    C5 4555   2.027   6.069   5.534  0.4037  0.2052 -0.3424
   92DPPC    C6 4556   2.126   6.114   5.427  0.2026  0.3272 -0.4796
   92DPPC    O7 4557   2.186   6.005   5.357 -0.1899  0.0158 -0.3333
   92DPPC    P8 4558   2.307   6.050   5.260  0.0217 -0.1052 -0.1270
   92DPPC    O9 4559   2.320   5.921   5.190 -0.2371 -0.1485 -0.0992
   92DPPC   O10 4560   2.385   6.093   5.378 -0.1254 -0.0993 -0.0310
   92DPPC   O11 4561   2.216   6.153   5.175 -0.2638 -0.1595  0.1107
   92DPPC   C12 4562   2.177   6.079   5.059 -0.0517  0.0085 -0.0674
   92DPPC   C13 4563   2.093   6.153   4.955 -0.1163  0.1615  0.0926
   92DPPC   O14 4564   2.056   6.068   4.845 -0.0426 -0.1314  0.2935
   92DPPC   C15 4565   1.924   6.037   4.838  0.0944 -0.7200  0.2659
   92DPPC   O16 4566   1.846   6.111   4.898  0.2662 -0.4606  0.1690
   92DPPC   C17 4567   1.880   5.923   4.746  0.5914 -0.3945 -0.3820
   92DPPC   C18 4568   1.869   5.974   4.602  0.6359 -0.2397 -0.3305
   92DPPC   C19 4569   1.890   5.843   4.527 -0.2115 -0.5843  0.0165
   92DPPC   C20 4570   1.861   5.882   4.382 -0.0776 -0.0108  0.1415
   92DPPC   C21 4571   1.840   5.757   4.296 -0.3078  0.3072 -0.2703
   92DPPC   C22 4572   1.798   5.797   4.154 -0.4473 -0.0133 -0.3206
   92DPPC   C23 4573   1.794   5.674   4.063  0.0624 -0.1759 -0.1264
   92DPPC   C24 4574   1.695   5.573   4.122  0.3154 -0.1855  0.2880
   92DPPC   C25 4575   1.682   5.459   4.021 -0.2936  0.1297  0.0071
   92DPPC   C26 4576   1.561   5.375   4.065 -0.1823  0.1078  0.2717
   92DPPC   C27 4577   1.536   5.289   3.942  0.3527  0.0786  0.1793
   92DPPC   C28 4578   1.553   5.373   3.815  0.4695 -0.2914 -0.0531
   92DPPC   C29 4579   1.498   5.284   3.704 -0.0986 -0.3830  0.3014
   92DPPC   C30 4580   1.519   5.319   3.557 -0.5900 -0.3412  0.2397
   92DPPC   C31 4581   1.475   5.466   3.548  0.0110 -0.1688  0.0903
   92DPPC   C32 4582   2.177   6.277   4.923  0.2264 -0.0819  0.0373
   92DPPC   O33 4583   2.313   6.256   4.883 -0.0779 -0.4623 -0.8086
   92DPPC   C34 4584   2.397   6.362   4.870 -0.2660 -0.1592  0.3128
   92DPPC   O35 4585   2.403   6.465   4.936 -0.2685  0.0991 -0.0881
   92DPPC   C36 4586   2.528   6.331   4.797 -0.2093  0.0235  0.3366
   92DPPC   C37 4587   2.584   6.451   4.721 -0.2289 -0.5328 -0.5670
   92DPPC   C38 4588   2.728   6.425   4.677 -0.1438  0.0018 -0.6116
   92DPPC   C39 4589   2.742   6.313   4.574  0.2698 -0.0766 -0.4720
   92DPPC   C40 4590   2.658   6.349   4.451  0.0749  0.1436 -0.2730
   92DPPC   C41 4591   2.696   6.255   4.337  0.3731 -0.1962  0.1044
   92DPPC   C42 4592   2.677   6.106   4.367 -0.4984 -0.1564 -0.2100
   92DPPC   C43 4593   2.678   6.028   4.235 -0.0176 -0.3329 -0.1032
   92DPPC   C44 4594   2.629   5.887   4.270 -0.3784 -0.1990 -0.0649
   92DPPC   C45 4595   2.729   5.814   4.359 -0.0347 -0.3193 -0.5435
   92DPPC   C46 4596   2.690   5.670   4.396  0.1360 -0.2612 -0.1339
   92DPPC   C47 4597   2.782   5.604   4.499  0.0685  0.2122  0.2384
   92DPPC   C48 4598   2.741   5.467   4.553  0.1435  0.4027  0.7740
   92DPPC   C49 4599   2.841   5.410   4.654 -0.2259 -0.2184  0.7967
   92DPPC   C50 4600   2.785   5.277   4.704 -0.6324 -0.4377 -0.2231
   93DPPC    C1 4601   1.340   2.764   5.011 -0.5930 -0.2615  0.4330
   93DPPC    C2 4602   1.253   2.947   4.892  0.1016  0.6562  0.6183
   93DPPC    C3 4603   1.125   2.741   4.930 -0.4080  0.0807 -0.4329
   93DPPC    N4 4604   1.216   2.841   4.987 -0.3262 -0.0552 -0.3266
   93DPPC    C5 4605   1.165   2.874   5.121  0.2865  0.1367 -0.1382
   93DPPC    C6 4606   1.232   2.991   5.195  0.1205 -0.1376  0.4530
   93DPPC    O7 4607   1.163   3.111   5.160  0.5111 -0.1499 -0.3902
   93DPPC    P8 4608   1.240   3.236   5.226 -0.2207  0.0605  0.0770
   93DPPC    O9 4609   1.325   3.183   5.335 -0.1209  0.2587  0.0962
   93DPPC   O10 4610   1.129   3.330   5.256  0.0258  0.3793 -0.0033
   93DPPC   O11 4611   1.318   3.277   5.091  0.2012  0.3863  0.4187
   93DPPC   C12 4612   1.220   3.320   4.997  0.0178  0.0629  0.4624
   93DPPC   C13 4613   1.256   3.438   4.906 -0.0006 -0.1904  0.1234
   93DPPC   O14 4614   1.165   3.488   4.807 -0.3191 -0.1036  0.4608
   93DPPC   C15 4615   1.058   3.565   4.840 -0.2171  0.3907 -0.3385
   93DPPC   O16 4616   1.023   3.588   4.956 -0.1423 -0.2130 -0.1952
   93DPPC   C17 4617   0.975   3.607   4.719  0.4646  0.1574 -0.8976
   93DPPC   C18 4618   0.838   3.538   4.723  0.3812  0.3571  0.3512
   93DPPC   C19 4619   0.745   3.580   4.609  0.1746 -0.1493  0.3287
   93DPPC   C20 4620   0.816   3.553   4.476 -0.4524  0.0225 -0.0468
   93DPPC   C21 4621   0.755   3.587   4.340  0.0880  0.3615 -0.2042
   93DPPC   C22 4622   0.729   3.737   4.320  0.5254  0.4721  0.0377
   93DPPC   C23 4623   0.669   3.772   4.184  0.1987  0.2795  0.1312
   93DPPC   C24 4624   0.774   3.757   4.073 -0.2402 -0.2594 -0.2188
   93DPPC   C25 4625   0.720   3.807   3.939  0.0583 -0.0135 -0.2486
   93DPPC   C26 4626   0.606   3.712   3.901  0.0282 -0.1347  0.1431
   93DPPC   C27 4627   0.539   3.733   3.765 -0.2306 -0.4713  0.2158
   93DPPC   C28 4628   0.630   3.710   3.644 -0.3140  0.4713 -0.0326
   93DPPC   C29 4629   0.546   3.741   3.519  0.1570  0.2046 -0.4167
   93DPPC   C30 4630   0.627   3.679   3.405  0.1128 -0.1320 -0.2686
   93DPPC   C31 4631   0.559   3.719   3.274 -0.7626  0.2552  0.2981
   93DPPC   C32 4632   1.383   3.386   4.838  0.1813 -0.0615  0.3628
   93DPPC   O33 4633   1.358   3.283   4.742  0.5563  0.2207 -0.0414
   93DPPC   C34 4634   1.453   3.259   4.648  0.0042  0.1854 -0.5977
   93DPPC   O35 4635   1.572   3.284   4.668  0.0716 -0.4852 -0.1284
   93DPPC   C36 4636   1.421   3.160   4.536  0.4819  0.0939 -0.6587
   93DPPC   C37 4637   1.279   3.174   4.481  0.2961 -0.0070 -0.2068
   93DPPC   C38 4638   1.249   3.069   4.374  0.1366  0.1753 -0.3401
   93DPPC   C39 4639   1.336   3.082   4.248  0.5632  0.1472 -0.0495
   93DPPC   C40 4640   1.299   2.974   4.147  0.3650 -0.0433  0.2223
   93DPPC   C41 4641   1.382   2.989   4.019 -0.1777  0.4686 -0.0777
   93DPPC   C42 4642   1.316   2.901   3.913  0.0327  0.1630  0.0433
   93DPPC   C43 4643   1.387   2.899   3.778 -0.4702 -0.4612 -0.2193
   93DPPC   C44 4644   1.308   2.986   3.679 -0.1660  0.1040  0.0261
   93DPPC   C45 4645   1.393   3.014   3.555 -0.0280 -0.9913 -0.1416
   93DPPC   C46 4646   1.305   3.110   3.474  0.8792  0.0242  0.0481
   93DPPC   C47 4647   1.371   3.198   3.369  0.6901  0.1765  0.0570
   93DPPC   C48 4648   1.389   3.129   3.234 -0.1123  0.1812 -0.0545
   93DPPC   C49 4649   1.420   3.213   3.110  0.0312  0.1568 -0.0354
   93DPPC   C50 4650   1.442   3.140   2.977 -0.3067 -0.0486  0.0202
   94DPPC    C1 4651   3.477   6.515   5.391 -0.0967 -0.4549  0.3404
   94DPPC    C2 4652   3.571   6.618   5.595 -0.1972  0.9975 -0.1533
   94DPPC    C3 4653   3.340   6.605   5.569  0.0733 -0.1102  0.2496
   94DPPC    N4 4654   3.465   6.535   5.536  0.2233  0.1363  0.2917
   94DPPC    C5 4655   3.451   6.402   5.597  0.4181  0.2746  0.6408
   94DPPC    C6 4656   3.574   6.313   5.619 -0.1279 -0.5282  0.5196
   94DPPC    O7 4657   3.645   6.280   5.499  0.2424  0.3123  0.5005
   94DPPC    P8 4658   3.764   6.182   5.544  0.2450 -0.0767 -0.3403
   94DPPC    O9 4659   3.684   6.081   5.616  0.2238 -0.3035 -0.6841
   94DPPC   O10 4660   3.849   6.281   5.616 -0.5670 -0.0878  0.6577
   94DPPC   O11 4661   3.800   6.154   5.390  0.0824 -0.1220 -0.3702
   94DPPC   C12 4662   3.866   6.270   5.339 -0.5142  0.3112 -0.1710
   94DPPC   C13 4663   3.884   6.263   5.187  0.0425 -0.0859 -0.0933
   94DPPC   O14 4664   3.769   6.318   5.121  0.2137  0.1187 -0.2233
   94DPPC   C15 4665   3.768   6.452   5.097  0.3195  0.1039 -0.3115
   94DPPC   O16 4666   3.856   6.525   5.142  0.2853 -0.3479  0.5126
   94DPPC   C17 4667   3.640   6.507   5.034  0.0615 -0.3971 -0.2268
   94DPPC   C18 4668   3.680   6.600   4.919  0.0922  0.4821  0.4843
   94DPPC   C19 4669   3.545   6.633   4.855  0.3018  0.3145 -0.0522
   94DPPC   C20 4670   3.566   6.734   4.742  0.0130  0.6412  0.1810
   94DPPC   C21 4671   3.438   6.760   4.663 -0.0809  0.0781  0.1408
   94DPPC   C22 4672   3.478   6.867   4.561  0.6329 -0.4475 -0.1392
   94DPPC   C23 4673   3.595   6.824   4.473  0.4910  0.1834 -0.6465
   94DPPC   C24 4674   3.557   6.704   4.386  0.2331  0.0489 -0.3509
   94DPPC   C25 4675   3.643   6.689   4.260  0.5333 -0.1467 -0.1245
   94DPPC   C26 4676   3.647   6.546   4.206 -0.1684 -0.1871 -0.0772
   94DPPC   C27 4677   3.696   6.556   4.062 -0.3226 -0.3097 -0.1382
   94DPPC   C28 4678   3.756   6.420   4.023 -0.1911 -0.1084 -0.6512
   94DPPC   C29 4679   3.653   6.309   4.049  0.5019 -0.6204 -0.0607
   94DPPC   C30 4680   3.582   6.277   3.918 -0.3806  0.1811  0.2105
   94DPPC   C31 4681   3.493   6.154   3.938 -0.3087  0.1198  0.1491
   94DPPC   C32 4682   3.915   6.119   5.148  0.1574 -0.0100 -0.2826
   94DPPC   O33 4683   3.969   6.087   5.019  0.7864  0.0206 -0.0309
   94DPPC   C34 4684   4.023   5.963   5.026  0.2590 -0.2121 -0.0267
   94DPPC   O35 4685   4.013   5.904   5.134 -0.5541 -1.0449 -0.5391
   94DPPC   C36 4686   4.105   5.918   4.905 -0.2526  0.0686 -0.4778
   94DPPC   C37 4687   4.024   5.812   4.830 -0.0542 -0.0876 -0.4705
   94DPPC   C38 4688   4.065   5.829   4.684 -0.0092  0.5165 -0.3892
   94DPPC   C39 4689   4.195   5.755   4.652 -0.7311 -0.5415 -0.9140
   94DPPC   C40 4690   4.233   5.819   4.518  0.3506 -0.2677 -0.4864
   94DPPC   C41 4691   4.125   5.779   4.417 -0.4367  0.4188  0.0774
   94DPPC   C42 4692   4.183   5.816   4.280 -0.1221 -1.1864 -0.2394
   94DPPC   C43 4693   4.309   5.739   4.240  0.4147 -0.6498  0.3791
   94DPPC   C44 4694   4.315   5.753   4.088  0.2666  0.3490  0.4580
   94DPPC   C45 4695   4.437   5.678   4.033 -0.1086  0.1762 -0.1519
   94DPPC   C46 4696   4.451   5.684   3.881  0.1187 -0.3069 -0.1514
   94DPPC   C47 4697   4.548   5.576   3.833  0.4173 -0.0419 -0.1441
   94DPPC   C48 4698   4.596   5.600   3.689  0.4524  0.3601 -0.0677
   94DPPC   C49 4699   4.662   5.472   3.636  0.0547 -0.0923  0.5018
   94DPPC   C50 4700   4.696   5.494   3.488  0.1721  0.3860  0.5950
   95DPPC    C1 4701   1.114   1.849   5.550 -0.2472 -0.1811  0.2842
   95DPPC    C2 4702   0.955   1.767   5.401  0.0953 -0.2319 -0.2753
   95DPPC    C3 4703   0.894   1.873   5.607 -0.5866  0.4323 -0.9381
   95DPPC    N4 4704   0.983   1.880   5.491  0.1029 -0.0949 -0.4493
   95DPPC    C5 4705   0.981   2.005   5.413  0.2646 -0.2219 -0.6588
   95DPPC    C6 4706   0.989   2.136   5.492  0.7114 -0.6473  0.0172
   95DPPC    O7 4707   1.124   2.180   5.512  0.3262  0.6946 -0.2373
   95DPPC    P8 4708   1.114   2.325   5.581 -0.3947  0.5856 -0.1070
   95DPPC    O9 4709   1.257   2.354   5.600 -0.1749 -0.3996 -0.1845
   95DPPC   O10 4710   1.028   2.309   5.700  0.3782  0.0749  0.3905
   95DPPC   O11 4711   1.055   2.402   5.453 -0.4590  0.4517 -0.1590
   95DPPC   C12 4712   1.157   2.432   5.357  0.1267 -0.0850  0.2957
   95DPPC   C13 4713   1.093   2.476   5.226  0.8143 -0.1551 -0.0670
   95DPPC   O14 4714   1.177   2.488   5.110  0.7991  0.3949 -0.0238
   95DPPC   C15 4715   1.204   2.369   5.051  0.3538  0.1381  0.2845
   95DPPC   O16 4716   1.153   2.268   5.099  0.0012  0.3717  0.4047
   95DPPC   C17 4717   1.322   2.358   4.954  0.1372 -0.1552  0.0507
   95DPPC   C18 4718   1.323   2.231   4.868  0.1789  0.0104 -0.1961
   95DPPC   C19 4719   1.203   2.235   4.773  0.0243  0.4435  0.0130
   95DPPC   C20 4720   1.187   2.096   4.710 -0.2574  0.5275 -0.1024
   95DPPC   C21 4721   1.071   2.096   4.611 -0.3292 -0.0037 -0.0177
   95DPPC   C22 4722   1.055   1.955   4.553 -0.1584  0.0425 -0.1779
   95DPPC   C23 4723   0.938   1.958   4.455 -0.0775  0.6877 -0.2585
   95DPPC   C24 4724   0.979   2.042   4.334  0.4561  0.5372 -0.1869
   95DPPC   C25 4725   0.867   2.040   4.229  0.1893 -0.7308  0.1083
   95DPPC   C26 4726   0.919   1.995   4.093 -0.1544 -0.6733 -0.0427
   95DPPC   C27 4727   0.802   1.984   3.995 -0.0573  0.1712 -0.2559
   95DPPC   C28 4728   0.863   1.954   3.858 -0.4307  0.9281 -0.5970
   95DPPC   C29 4729   0.762   1.917   3.749 -0.2534 -0.4994 -0.2943
   95DPPC   C30 4730   0.850   1.866   3.634  0.4017  0.4737 -0.2393
   95DPPC   C31 4731   0.747   1.834   3.525 -0.0064  0.4160  0.1618
   95DPPC   C32 4732   1.013   2.592   5.284  0.6037 -0.1383 -0.3842
   95DPPC   O33 4733   0.939   2.665   5.186 -0.0387 -0.3760 -0.0793
   95DPPC   C34 4734   0.816   2.702   5.231  0.0567 -0.2056  0.0372
   95DPPC   O35 4735   0.770   2.629   5.319  0.8835 -0.3486  0.3575
   95DPPC   C36 4736   0.740   2.818   5.166  0.2696 -0.2584 -0.3045
   95DPPC   C37 4737   0.770   2.834   5.017  0.2513  0.7801 -0.2025
   95DPPC   C38 4738   0.689   2.952   4.963  0.0602  0.6984 -0.0949
   95DPPC   C39 4739   0.746   2.975   4.823 -0.3832 -0.1903 -0.4261
   95DPPC   C40 4740   0.829   3.103   4.813 -0.0846 -0.3462  0.0581
   95DPPC   C41 4741   0.896   3.110   4.676 -0.0293  0.5389  0.1231
   95DPPC   C42 4742   0.803   3.162   4.566  0.2089 -0.1354 -0.4053
   95DPPC   C43 4743   0.882   3.166   4.435  0.4415 -0.7964 -0.2908
   95DPPC   C44 4744   0.785   3.200   4.321 -0.1069  0.1940  0.4610
   95DPPC   C45 4745   0.869   3.231   4.197 -0.7329 -0.3810 -0.1134
   95DPPC   C46 4746   0.788   3.266   4.072  0.3803 -0.7270 -0.9429
   95DPPC   C47 4747   0.873   3.304   3.951  0.1340 -0.0492 -0.9022
   95DPPC   C48 4748   0.794   3.327   3.822 -0.0592  0.4976 -0.6912
   95DPPC   C49 4749   0.717   3.200   3.783  0.4779  0.0072 -0.1526
   95DPPC   C50 4750   0.799   3.076   3.746  0.3757  0.0433 -0.4965
   96DPPC    C1 4751   2.003   8.032   4.677 -0.1860  0.5622 -0.2025
   96DPPC    C2 4752   1.980   7.940   4.900  0.2130  0.6031 -0.4331
   96DPPC    C3 4753   2.149   7.858   4.749  0.2979 -0.0046  0.2050
   96DPPC    N4 4754   2.074   7.977   4.793  0.1854  0.2255 -0.5875
   96DPPC    C5 4755   2.166   8.084   4.833  0.4231 -0.3204  0.3671
   96DPPC    C6 4756   2.283   8.053   4.927  0.4132 -0.2388  0.4065
   96DPPC    O7 4757   2.337   8.174   4.980 -0.0360  0.0054  0.3099
   96DPPC    P8 4758   2.491   8.172   5.025  0.0192  0.0945  0.1234
   96DPPC    O9 4759   2.513   8.035   5.075  0.5461 -0.0842 -0.5740
   96DPPC   O10 4760   2.507   8.293   5.109 -0.5934 -0.0725  0.4808
   96DPPC   O11 4761   2.547   8.187   4.875  0.0540  0.3813  0.1644
   96DPPC   C12 4762   2.552   8.327   4.844 -0.4638  0.4444  0.3672
   96DPPC   C13 4763   2.629   8.351   4.714  0.0968  0.2480  0.6622
   96DPPC   O14 4764   2.572   8.458   4.637  0.8003  0.0651 -0.1226
   96DPPC   C15 4765   2.616   8.585   4.659  0.6194  0.0766  0.1697
   96DPPC   O16 4766   2.659   8.618   4.770 -0.1916  0.2156  0.4510
   96DPPC   C17 4767   2.557   8.691   4.566 -0.1162 -0.1544  0.3627
   96DPPC   C18 4768   2.648   8.700   4.443 -0.1136  0.3126  0.3980
   96DPPC   C19 4769   2.567   8.774   4.336  0.2534 -0.4188 -0.3936
   96DPPC   C20 4770   2.439   8.699   4.302 -0.1667  0.1384 -0.0519
   96DPPC   C21 4771   2.361   8.768   4.190 -0.3381 -0.2452 -0.1723
   96DPPC   C22 4772   2.245   8.683   4.137 -0.3415 -0.2026 -0.2330
   96DPPC   C23 4773   2.215   8.707   3.988 -0.5630  0.1401 -0.1348
   96DPPC   C24 4774   2.161   8.844   3.948 -0.0700  0.1820 -0.6669
   96DPPC   C25 4775   2.131   8.853   3.798  0.1008 -0.1079 -0.7199
   96DPPC   C26 4776   2.098   8.996   3.753  0.1048  0.1164 -0.0196
   96DPPC   C27 4777   2.137   9.007   3.606 -0.2075  0.2232 -0.0947
   96DPPC   C28 4778   2.091   9.147   3.563 -0.3738  0.2902  0.2986
   96DPPC   C29 4779   2.130   9.183   3.420 -0.2403  0.4274  0.3694
   96DPPC   C30 4780   2.282   9.165   3.423 -0.2550  0.1105 -0.4824
   96DPPC   C31 4781   2.333   9.157   3.279  0.2455 -0.1531 -0.2940
   96DPPC   C32 4782   2.633   8.225   4.628 -0.3114  0.5420  0.2027
   96DPPC   O33 4783   2.712   8.227   4.509 -0.1668 -0.2474  0.2761
   96DPPC   C34 4784   2.671   8.135   4.418  0.0880  0.0756 -0.1684
   96DPPC   O35 4785   2.593   8.044   4.443  0.2335 -0.1853 -0.6593
   96DPPC   C36 4786   2.741   8.140   4.282  0.3096 -0.1237 -0.0625
   96DPPC   C37 4787   2.889   8.110   4.307  0.3077  0.2459  0.4264
   96DPPC   C38 4788   2.976   8.126   4.182 -0.1935  0.2540  0.0753
   96DPPC   C39 4789   3.122   8.093   4.215 -0.1737  0.1979 -0.0682
   96DPPC   C40 4790   3.158   8.172   4.340  0.6329  0.5874 -0.5397
   96DPPC   C41 4791   3.287   8.122   4.405  0.0670  0.1264  0.2387
   96DPPC   C42 4792   3.402   8.132   4.304 -0.0939  0.3599  0.0791
   96DPPC   C43 4793   3.530   8.114   4.386 -0.1556 -0.0833  0.0807
   96DPPC   C44 4794   3.656   8.150   4.307  0.0453  0.2439  0.5449
   96DPPC   C45 4795   3.649   8.295   4.261 -0.5820  0.3239  0.8790
   96DPPC   C46 4796   3.761   8.337   4.165 -0.7012  0.0351  0.6123
   96DPPC   C47 4797   3.748   8.485   4.127  0.2040 -0.0842 -0.1927
   96DPPC   C48 4798   3.866   8.535   4.043  0.2103  0.4585  0.1374
   96DPPC   C49 4799   3.989   8.481   4.116  0.2809  0.2324 -0.1481
   96DPPC   C50 4800   4.117   8.524   4.043  0.2700  0.8416  0.1824
   97DPPC    C1 4801   9.528   4.414   5.753 -0.0233  0.3112  0.0272
   97DPPC    C2 4802   9.487   4.264   5.560 -0.6694  0.1793  0.9271
   97DPPC    C3 4803   9.676   4.379   5.577  0.2672  0.3026  0.1104
   97DPPC    N4 4804   9.580   4.310   5.664  0.1961  0.3696  0.0855
   97DPPC    C5 4805   9.614   4.200   5.756 -0.4158  0.2088  0.1261
   97DPPC    C6 4806   9.711   4.088   5.718 -0.2180  0.2796  0.4226
   97DPPC    O7 4807   9.851   4.111   5.705 -0.2318  0.1180 -0.0142
   97DPPC    P8 4808   9.914   3.963   5.719 -0.1664  0.1520  0.0523
   97DPPC    O9 4809   9.811   3.868   5.672 -0.3528  0.2883  0.1849
   97DPPC   O10 4810   9.936   3.957   5.865 -1.0026  0.1717  0.1840
   97DPPC   O11 4811  10.046   3.956   5.626  0.1422  0.1423  0.4891
   97DPPC   C12 4812   9.993   3.985   5.497  0.1007 -0.3827  0.3875
   97DPPC   C13 4813  10.070   3.912   5.387 -0.1426  0.0843 -0.1025
   97DPPC   O14 4814  10.082   3.996   5.272  0.1050 -0.1362 -0.2394
   97DPPC   C15 4815  10.156   3.943   5.171  0.2306  0.0045 -0.2226
   97DPPC   O16 4816  10.219   3.839   5.188  0.4373 -0.0120 -1.0322
   97DPPC   C17 4817  10.199   4.037   5.058  0.1383 -0.0159 -0.2753
   97DPPC   C18 4818  10.208   3.951   4.932  0.4955 -0.2709 -0.0807
   97DPPC   C19 4819  10.245   4.045   4.817 -0.3515  0.3697  0.1611
   97DPPC   C20 4820  10.247   3.976   4.681 -0.1361  0.0235  0.3395
   97DPPC   C21 4821  10.235   4.071   4.561  0.3842 -0.6874 -0.2857
   97DPPC   C22 4822  10.092   4.122   4.545  0.4672  0.0153  1.0533
   97DPPC   C23 4823  10.088   4.233   4.439  0.0285 -0.9175  0.0805
   97DPPC   C24 4824   9.942   4.255   4.400  0.1212  0.1857  0.3292
   97DPPC   C25 4825   9.913   4.344   4.279  0.2657  0.2367  0.3322
   97DPPC   C26 4826   9.967   4.288   4.148 -0.3589 -0.4086  0.3431
   97DPPC   C27 4827   9.921   4.144   4.124  0.4006 -0.5500 -0.3040
   97DPPC   C28 4828   9.915   4.106   3.976 -0.2638  0.0097 -0.4236
   97DPPC   C29 4829   9.816   4.201   3.909  0.4204  0.5158 -0.7310
   97DPPC   C30 4830   9.801   4.159   3.762  0.2436 -0.1620 -0.5213
   97DPPC   C31 4831   9.934   4.157   3.687  0.4982 -0.1986 -0.0736
   97DPPC   C32 4832  10.012   3.772   5.360 -0.0267  0.0380 -0.1111
   97DPPC   O33 4833   9.914   3.780   5.256 -0.2320  0.3412  0.1037
   97DPPC   C34 4834   9.850   3.667   5.216  0.3511  0.0465 -0.0090
   97DPPC   O35 4835   9.866   3.561   5.277 -0.6976 -0.1517 -0.0647
   97DPPC   C36 4836   9.780   3.684   5.081  0.0712 -0.4251  0.0732
   97DPPC   C37 4837   9.879   3.698   4.966  0.3272 -0.3690  0.2993
   97DPPC   C38 4838   9.808   3.704   4.831  0.5296  0.0342  0.2085
   97DPPC   C39 4839   9.881   3.763   4.710  0.0841 -0.7254 -0.4429
   97DPPC   C40 4840   9.791   3.778   4.588 -0.0762  0.1324 -0.2248
   97DPPC   C41 4841   9.873   3.793   4.459  0.2053 -0.0440 -0.0677
   97DPPC   C42 4842   9.793   3.748   4.336 -0.3143  0.0547  0.2288
   97DPPC   C43 4843   9.653   3.807   4.323 -0.3332 -0.0187  0.0997
   97DPPC   C44 4844   9.578   3.771   4.195 -0.0690  0.4304 -0.1826
   97DPPC   C45 4845   9.655   3.799   4.066  0.1882  0.5848  0.0024
   97DPPC   C46 4846   9.566   3.761   3.947 -0.0291 -0.4191  0.4786
   97DPPC   C47 4847   9.643   3.786   3.817 -0.3025  0.3693  0.4671
   97DPPC   C48 4848   9.559   3.789   3.689  0.2907 -0.1509  0.0630
   97DPPC   C49 4849   9.643   3.794   3.561  0.1096 -0.0204 -0.0507
   97DPPC   C50 4850   9.570   3.833   3.432  0.1477  0.4991  0.0828
   98DPPC    C1 4851   7.929   4.365   5.684 -0.0756 -0.2526  0.0300
   98DPPC    C2 4852   7.755   4.216   5.735  0.3152  0.0944 -0.8043
   98DPPC    C3 4853   7.777   4.451   5.829  0.4629 -0.1189  0.6761
   98DPPC    N4 4854   7.785   4.358   5.716 -0.0565  0.3284  0.2630
   98DPPC    C5 4855   7.719   4.418   5.599  0.0235  0.4329  0.2704
   98DPPC    C6 4856   7.566   4.426   5.595  0.0243  0.4932  0.3576
   98DPPC    O7 4857   7.496   4.301   5.596  0.0311  0.4838 -0.1174
   98DPPC    P8 4858   7.350   4.354   5.641  0.0155  0.1133  0.2717
   98DPPC    O9 4859   7.382   4.432   5.762  0.1645  0.0822  0.2527
   98DPPC   O10 4860   7.259   4.237   5.640 -0.1984  0.2725  1.0005
   98DPPC   O11 4861   7.311   4.441   5.511 -0.2724 -0.3974  0.0125
   98DPPC   C12 4862   7.284   4.342   5.411 -0.7441 -0.2906  0.0345
   98DPPC   C13 4863   7.254   4.410   5.277 -0.2362  0.2353  0.1857
   98DPPC   O14 4864   7.211   4.316   5.178  0.1900  0.1703  0.0602
   98DPPC   C15 4865   7.081   4.317   5.137  0.1516  0.1104  0.1812
   98DPPC   O16 4866   7.014   4.398   5.202 -0.2934  0.0235 -0.1686
   98DPPC   C17 4867   7.040   4.243   5.010 -0.3191  0.0519  0.3655
   98DPPC   C18 4868   7.159   4.241   4.914 -0.5155  0.2355  0.1179
   98DPPC   C19 4869   7.184   4.369   4.834 -0.0342  0.1014  0.0512
   98DPPC   C20 4870   7.192   4.350   4.682 -0.7084 -0.3417  0.0681
   98DPPC   C21 4871   7.299   4.249   4.640  0.0572  0.4753  0.0312
   98DPPC   C22 4872   7.329   4.256   4.490  0.2224 -0.1882  0.0292
   98DPPC   C23 4873   7.387   4.390   4.445  0.0980 -0.0981  0.1355
   98DPPC   C24 4874   7.423   4.415   4.298  0.3599  0.1168  0.2352
   98DPPC   C25 4875   7.290   4.434   4.225  0.5492 -0.2213 -0.2017
   98DPPC   C26 4876   7.305   4.413   4.075 -0.1090 -0.4312 -0.2431
   98DPPC   C27 4877   7.406   4.510   4.013 -0.2275 -0.2736 -0.1909
   98DPPC   C28 4878   7.379   4.522   3.863 -0.2199  0.1057 -0.1639
   98DPPC   C29 4879   7.239   4.582   3.847 -0.2514  0.2564  0.6583
   98DPPC   C30 4880   7.197   4.575   3.700  0.7538 -0.5169  0.3962
   98DPPC   C31 4881   7.298   4.631   3.600  0.1222  0.0449  0.0676
   98DPPC   C32 4882   7.385   4.480   5.238 -0.2324 -0.1027 -0.4108
   98DPPC   O33 4883   7.383   4.569   5.127  0.5025  0.2116 -0.1723
   98DPPC   C34 4884   7.501   4.573   5.058  0.5481  0.0765 -0.1011
   98DPPC   O35 4885   7.602   4.517   5.101  0.2123 -0.7545 -0.3785
   98DPPC   C36 4886   7.495   4.618   4.912 -0.3896 -0.2746 -0.1781
   98DPPC   C37 4887   7.601   4.719   4.867  0.0593 -0.7697 -0.2357
   98DPPC   C38 4888   7.560   4.775   4.731  0.2292  0.5962  0.2656
   98DPPC   C39 4889   7.657   4.754   4.615 -0.4260  0.0685 -0.1967
   98DPPC   C40 4890   7.604   4.831   4.494 -0.6272  0.1546 -0.0541
   98DPPC   C41 4891   7.666   4.778   4.364 -0.2427  0.1742  0.1180
   98DPPC   C42 4892   7.627   4.861   4.242  0.7569  0.2197 -0.1727
   98DPPC   C43 4893   7.697   4.807   4.117 -0.0354 -0.6575 -0.2410
   98DPPC   C44 4894   7.669   4.881   3.986  0.0486  0.3566  0.3046
   98DPPC   C45 4895   7.705   4.795   3.864 -0.2528  0.1941  0.3306
   98DPPC   C46 4896   7.855   4.766   3.863 -0.2060  0.4212  0.5972
   98DPPC   C47 4897   7.887   4.693   3.732  0.1523  0.3986  0.6953
   98DPPC   C48 4898   8.035   4.721   3.703  0.0561  0.1248 -0.0802
   98DPPC   C49 4899   8.093   4.596   3.637 -0.0620 -0.0796  0.1994
   98DPPC   C50 4900   8.245   4.608   3.620 -0.0507 -0.5497 -0.0550
   99DPPC    C1 4901   8.338   5.446   1.226 -0.0240 -0.5674  0.5441
   99DPPC    C2 4902   8.474   5.558   1.397 -0.3844 -0.0673 -0.1816
   99DPPC    C3 4903   8.487   5.595   1.159 -0.1301  0.2166 -0.2805
   99DPPC    N4 4904   8.396   5.572   1.273 -0.1276 -0.1786 -0.3558
   99DPPC    C5 4905   8.301   5.684   1.279  0.5902  0.4197 -0.0029
   99DPPC    C6 4906   8.188   5.687   1.383 -0.0286 -0.1847 -0.6494
   99DPPC    O7 4907   8.054   5.675   1.334 -0.3234  0.0091  0.1079
   99DPPC    P8 4908   7.963   5.784   1.409 -0.1445  0.1720  0.0912
   99DPPC    O9 4909   7.828   5.799   1.350 -0.2123 -0.4009  0.1014
   99DPPC   O10 4910   8.038   5.911   1.416  0.2759 -0.0579 -0.2208
   99DPPC   O11 4911   7.957   5.741   1.564 -0.0208 -0.3964 -0.0601
   99DPPC   C12 4912   7.834   5.788   1.621  0.3422  0.8610 -0.2764
   99DPPC   C13 4913   7.833   5.792   1.774 -0.2871  0.4093 -0.2639
   99DPPC   O14 4914   7.851   5.925   1.824  0.2425  0.2052  0.1011
   99DPPC   C15 4915   7.748   6.014   1.809  0.0918  0.0178  0.0137
   99DPPC   O16 4916   7.654   6.012   1.731 -0.0087 -0.1936  0.1415
   99DPPC   C17 4917   7.750   6.137   1.901 -0.7326  0.1250 -0.1050
   99DPPC   C18 4918   7.608   6.172   1.944 -0.7551 -0.6378  0.4622
   99DPPC   C19 4919   7.614   6.307   2.015 -0.1337 -0.5490  0.2516
   99DPPC   C20 4920   7.693   6.284   2.144  0.1968 -0.0070  0.1452
   99DPPC   C21 4921   7.671   6.412   2.225  0.7497 -0.5646  1.2049
   99DPPC   C22 4922   7.522   6.414   2.259  0.4033  0.5138 -0.2429
   99DPPC   C23 4923   7.488   6.536   2.345 -0.2247 -0.1971  0.5401
   99DPPC   C24 4924   7.340   6.575   2.338  0.0036  0.4852 -0.6588
   99DPPC   C25 4925   7.320   6.700   2.424  0.3489  0.2027 -0.1666
   99DPPC   C26 4926   7.396   6.685   2.556 -0.1238 -0.1275  0.0736
   99DPPC   C27 4927   7.323   6.630   2.679 -0.0786 -0.1338  0.0979
   99DPPC   C28 4928   7.413   6.558   2.780  0.2485  0.0322 -0.0749
   99DPPC   C29 4929   7.325   6.536   2.903 -0.0184 -0.3367 -0.3302
   99DPPC   C30 4930   7.380   6.416   2.980 -0.1163  0.1081  0.4365
   99DPPC   C31 4931   7.289   6.396   3.102 -0.1906 -0.0433  0.3561
   99DPPC   C32 4932   7.937   5.691   1.822 -0.2027  0.5247 -0.2050
   99DPPC   O33 4933   7.885   5.568   1.873  0.1148  0.3433 -0.3125
   99DPPC   C34 4934   7.983   5.494   1.930  0.0340  0.5303  0.0709
   99DPPC   O35 4935   8.096   5.539   1.944  0.0807  0.1619  0.9608
   99DPPC   C36 4936   7.935   5.378   2.019 -0.0551  0.5886  0.0997
   99DPPC   C37 4937   7.995   5.389   2.159  0.0861  0.0243  0.0845
   99DPPC   C38 4938   7.952   5.274   2.251 -0.0712 -0.2777 -0.3615
   99DPPC   C39 4939   8.031   5.300   2.380 -0.4556 -0.1110 -0.1584
   99DPPC   C40 4940   7.995   5.191   2.481 -0.3678 -0.2535 -0.2817
   99DPPC   C41 4941   8.082   5.193   2.607 -0.3953  0.6400 -0.2762
   99DPPC   C42 4942   8.002   5.135   2.724 -0.1111  0.0210 -0.3898
   99DPPC   C43 4943   7.879   5.219   2.758 -0.6463 -0.8662 -0.0898
   99DPPC   C44 4944   7.817   5.190   2.895  0.2642 -0.6444  0.3824
   99DPPC   C45 4945   7.756   5.051   2.916  0.1356 -0.6502 -0.0148
   99DPPC   C46 4946   7.716   5.029   3.062 -0.0182  0.4323  0.1150
   99DPPC   C47 4947   7.630   4.903   3.072 -0.2429  0.5998  0.3141
   99DPPC   C48 4948   7.597   4.847   3.210  0.0589  0.0339  0.1598
   99DPPC   C49 4949   7.486   4.741   3.204 -0.0808  0.1945 -0.1142
   99DPPC   C50 4950   7.354   4.816   3.189  0.1527  0.5571 -0.3663
  100DPPC    C1 4951   4.384   4.550   2.250  0.0655 -0.6118  0.2042
  100DPPC    C2 4952   4.252   4.574   2.055 -0.1799 -0.7347  0.2620
  100DPPC    C3 4953   4.171   4.463   2.251 -0.5109  0.2416  0.0064
  100DPPC    N4 4954   4.248   4.578   2.201  0.1547 -0.0880  0.2579
  100DPPC    C5 4955   4.194   4.702   2.260 -0.1494  0.0594 -0.3222
  100DPPC    C6 4956   4.052   4.741   2.218 -0.2669  0.4480  0.4190
  100DPPC    O7 4957   4.030   4.881   2.236  0.0396  0.5552 -0.0327
  100DPPC    P8 4958   3.931   4.937   2.122  0.0034 -0.1511 -0.3548
  100DPPC    O9 4959   3.987   4.928   1.985  0.1181 -0.2877 -0.2989
  100DPPC   O10 4960   3.885   5.067   2.177 -0.6898 -0.4372 -0.2406
  100DPPC   O11 4961   3.801   4.843   2.137 -0.2878  0.2777 -0.1636
  100DPPC   C12 4962   3.709   4.884   2.239 -0.2152 -0.3490  0.1607
  100DPPC   C13 4963   3.598   4.786   2.277  0.0126 -0.5399  0.3340
  100DPPC   O14 4964   3.484   4.849   2.338 -0.1360 -0.6370  0.1574
  100DPPC   C15 4965   3.413   4.948   2.279  0.0999 -0.5269  0.0536
  100DPPC   O16 4966   3.421   4.964   2.157  0.0481  0.6766  0.1971
  100DPPC   C17 4967   3.296   4.985   2.370  0.2116  0.1232 -0.0630
  100DPPC   C18 4968   3.168   4.906   2.341  0.2956  0.1319 -0.4543
  100DPPC   C19 4969   3.135   4.799   2.445  0.5939  0.4380 -0.0442
  100DPPC   C20 4970   3.121   4.862   2.584  0.6039 -0.4108  0.3437
  100DPPC   C21 4971   3.070   4.766   2.693 -0.2476 -0.2344  0.1065
  100DPPC   C22 4972   3.048   4.843   2.823  1.0248  0.0818  0.1532
  100DPPC   C23 4973   2.984   4.739   2.916 -0.2068  0.4562 -0.2508
  100DPPC   C24 4974   2.979   4.798   3.057 -0.7179  0.0256 -0.0890
  100DPPC   C25 4975   2.871   4.906   3.056 -0.9208 -0.1781 -0.3843
  100DPPC   C26 4976   2.854   4.979   3.190  0.5345  0.3245 -0.4615
  100DPPC   C27 4977   2.809   5.120   3.150  0.2898  0.2606 -0.4115
  100DPPC   C28 4978   2.795   5.210   3.273  0.1778 -0.3305  0.0145
  100DPPC   C29 4979   2.787   5.354   3.222 -0.2781 -0.4657 -0.3022
  100DPPC   C30 4980   2.777   5.446   3.344  0.2002  0.0402 -0.6404
  100DPPC   C31 4981   2.876   5.407   3.454 -0.8887  0.2685  0.4306
  100DPPC   C32 4982   3.665   4.660   2.333  0.2481 -0.6115 -0.1010
  100DPPC   O33 4983   3.758   4.688   2.438  0.2995 -0.3001 -0.2286
  100DPPC   C34 4984   3.812   4.573   2.487 -0.3724 -0.4096  0.2796
  100DPPC   O35 4985   3.787   4.464   2.435 -0.2945 -0.1993 -0.2046
  100DPPC   C36 4986   3.931   4.593   2.581  0.2689  0.0165 -0.6060
  100DPPC   C37 4987   3.896   4.568   2.728  0.4722 -0.0770 -0.5746
  100DPPC   C38 4988   4.019   4.587   2.818 -0.1730 -0.3181  0.3675
  100DPPC   C39 4989   3.985   4.607   2.966 -0.3286  0.0145  0.2876
  100DPPC   C40 4990   3.931   4.748   2.991  0.0403  0.1848  0.1411
  100DPPC   C41 4991   3.914   4.756   3.143 -0.3291 -0.5420  0.1452
  100DPPC   C42 4992   3.874   4.889   3.206 -0.0804 -0.4908  0.1967
  100DPPC   C43 4993   3.764   4.970   3.136  0.0713 -0.1947  0.2972
  100DPPC   C44 4994   3.729   5.098   3.212  0.1866 -0.0787  0.1563
  100DPPC   C45 4995   3.673   5.210   3.125  0.5927 -0.1091 -0.1450
  100DPPC   C46 4996   3.663   5.339   3.206  0.7928  0.2397 -0.6715
  100DPPC   C47 4997   3.594   5.446   3.121  0.1731  0.4689  0.1111
  100DPPC   C48 4998   3.578   5.572   3.206 -0.2736  0.3774  0.1702
  100DPPC   C49 4999   3.718   5.606   3.260 -0.0212 -0.1944 -0.1166
  100DPPC   C50 5000   3.696   5.747   3.314  0.0230 -0.0889 -0.3725
  101DPPC    C1 5001   5.680   0.467   1.922 -0.1044 -0.4136 -0.1002
  101DPPC    C2 5002   5.657   0.260   2.014 -0.3901 -0.3152  0.0080
  101DPPC    C3 5003   5.666   0.452   2.153  0.5762  0.0434 -0.5600
  101DPPC    N4 5004   5.607   0.397   2.030 -0.2145 -0.2431 -0.0643
  101DPPC    C5 5005   5.461   0.415   2.020 -0.1610  0.2013 -0.0777
  101DPPC    C6 5006   5.375   0.336   1.921 -0.0414 -0.0251 -0.0024
  101DPPC    O7 5007   5.238   0.375   1.929 -0.0804 -0.3023  0.7992
  101DPPC    P8 5008   5.138   0.258   1.882 -0.0817 -0.0124  0.0663
  101DPPC    O9 5009   5.214   0.162   1.798 -0.2208  0.0707 -0.1546
  101DPPC   O10 5010   5.020   0.322   1.820  0.0771  0.0912 -0.1344
  101DPPC   O11 5011   5.113   0.202   2.030 -0.6121 -0.0669 -0.0429
  101DPPC   C12 5012   5.038   0.297   2.106  0.3573  0.5393  0.1730
  101DPPC   C13 5013   5.007   0.257   2.250  0.2730  0.3048  0.0910
  101DPPC   O14 5014   4.953   0.379   2.303  0.2921  0.3449  0.0175
  101DPPC   C15 5015   4.826   0.381   2.352  0.1729  0.2862 -0.2891
  101DPPC   O16 5016   4.744   0.304   2.302 -0.2976  0.1066  0.7316
  101DPPC   C17 5017   4.789   0.479   2.463 -0.2655 -0.3967  0.1711
  101DPPC   C18 5018   4.866   0.429   2.586  0.6713 -0.1210 -0.2992
  101DPPC   C19 5019   4.846   0.541   2.688 -0.2200 -0.4212 -0.1397
  101DPPC   C20 5020   4.888   0.515   2.833 -0.4934  0.7569  0.1641
  101DPPC   C21 5021   4.867   0.631   2.931 -0.0174  0.9532  0.0388
  101DPPC   C22 5022   4.721   0.663   2.963 -0.3823  0.2899 -0.9086
  101DPPC   C23 5023   4.662   0.526   2.996  0.6825 -0.0280 -0.2801
  101DPPC   C24 5024   4.512   0.535   3.027  0.7092 -0.0135 -0.1534
  101DPPC   C25 5025   4.449   0.410   3.087  0.2342  0.1874 -0.2312
  101DPPC   C26 5026   4.306   0.441   3.134  0.2830 -0.1360  0.1324
  101DPPC   C27 5027   4.286   0.343   3.250 -0.6161  0.4791  0.5104
  101DPPC   C28 5028   4.327   0.204   3.200 -0.1206  0.6209  0.5118
  101DPPC   C29 5029   4.365   0.119   3.322  0.2930  0.3653  0.2053
  101DPPC   C30 5030   4.428  -0.012   3.274  0.2153  0.3548  0.1312
  101DPPC   C31 5031   4.566  -0.002   3.210 -0.0807  0.1791 -0.5439
  101DPPC   C32 5032   5.130   0.196   2.317 -0.0452 -0.1057  0.3055
  101DPPC   O33 5033   5.255   0.265   2.328  0.0575 -0.2548  0.0539
  101DPPC   C34 5034   5.355   0.189   2.381  0.0385 -0.3212 -0.0050
  101DPPC   O35 5035   5.357   0.069   2.353  0.6502 -0.1502 -0.7159
  101DPPC   C36 5036   5.482   0.261   2.426  0.0340 -0.2349 -0.1282
  101DPPC   C37 5037   5.466   0.286   2.576 -0.1712  0.1876 -0.2199
  101DPPC   C38 5038   5.587   0.342   2.652  0.1044 -0.5300 -0.1196
  101DPPC   C39 5039   5.562   0.350   2.803 -0.1354 -0.0617 -0.1819
  101DPPC   C40 5040   5.670   0.448   2.851  0.1680 -0.3314 -0.3080
  101DPPC   C41 5041   5.652   0.475   3.000 -0.4657  0.5287 -0.5328
  101DPPC   C42 5042   5.762   0.554   3.071 -0.1873 -0.2024 -0.1435
  101DPPC   C43 5043   5.746   0.539   3.223  0.4313 -0.1522 -0.0709
  101DPPC   C44 5044   5.858   0.601   3.306 -0.0089  0.5651 -0.0106
  101DPPC   C45 5045   5.840   0.586   3.457 -0.3765  0.5477 -0.0556
  101DPPC   C46 5046   5.959   0.645   3.534  0.1088  0.1708 -0.5154
  101DPPC   C47 5047   5.925   0.632   3.682  0.5115 -0.4612 -0.4749
  101DPPC   C48 5048   6.030   0.699   3.770  0.0294  0.3498 -0.5058
  101DPPC   C49 5049   6.002   0.692   3.921  0.7337  0.0060 -0.3854
  101DPPC   C50 5050   6.122   0.703   4.015  0.3387 -0.2230  0.1511
  102DPPC    C1 5051   2.395   1.299   1.855 -0.5946  0.4064 -0.2425
  102DPPC    C2 5052   2.501   1.202   2.038 -0.0441  0.1344 -0.2819
  102DPPC    C3 5053   2.285   1.151   2.015 -0.2998  0.5876  0.0514
  102DPPC    N4 5054   2.403   1.174   1.932 -0.3774  0.5203 -0.0785
  102DPPC    C5 5055   2.451   1.062   1.851  0.2665  0.7365 -0.0030
  102DPPC    C6 5056   2.414   1.055   1.702 -0.1164 -0.1828  0.1308
  102DPPC    O7 5057   2.272   1.059   1.683 -0.0743 -0.0093 -0.1498
  102DPPC    P8 5058   2.229   0.950   1.573  0.1523 -0.1237 -0.1255
  102DPPC    O9 5059   2.355   0.906   1.510  0.0547 -0.2328 -0.2440
  102DPPC   O10 5060   2.098   0.982   1.512  0.3272 -0.4080 -0.6583
  102DPPC   O11 5061   2.199   0.830   1.676  0.4581  0.0874  0.2138
  102DPPC   C12 5062   2.083   0.873   1.749  0.2699 -0.1424  0.0520
  102DPPC   C13 5063   2.012   0.775   1.842 -0.1364  0.0945 -0.0086
  102DPPC   O14 5064   1.887   0.823   1.896 -0.0948  0.2023 -0.0073
  102DPPC   C15 5065   1.802   0.733   1.953 -0.5445  0.4215 -0.3254
  102DPPC   O16 5066   1.818   0.613   1.931  0.4344  0.4285  0.2698
  102DPPC   C17 5067   1.687   0.789   2.036 -0.2634  0.1811  0.2369
  102DPPC   C18 5068   1.727   0.758   2.180 -0.7746  0.1202  0.3702
  102DPPC   C19 5069   1.641   0.813   2.294 -0.3027  0.8228  0.3957
  102DPPC   C20 5070   1.696   0.770   2.430  0.2308 -0.2951 -0.1581
  102DPPC   C21 5071   1.600   0.822   2.538  0.7978  0.6024 -0.0772
  102DPPC   C22 5072   1.666   0.818   2.676  0.1145 -0.3164  0.2339
  102DPPC   C23 5073   1.583   0.848   2.801 -0.3144 -0.3348 -0.0439
  102DPPC   C24 5074   1.543   0.995   2.801 -0.7541 -0.4499 -0.3747
  102DPPC   C25 5075   1.427   1.034   2.892  0.3281  0.1111  0.8019
  102DPPC   C26 5076   1.430   1.185   2.914  0.2015  0.2691 -0.2358
  102DPPC   C27 5077   1.543   1.216   3.012  0.3843 -0.9110 -0.0602
  102DPPC   C28 5078   1.588   1.358   2.977  0.4377 -0.9453 -0.1319
  102DPPC   C29 5079   1.474   1.458   2.998  0.8766 -0.4515 -0.0660
  102DPPC   C30 5080   1.515   1.599   2.957  0.2342 -0.1302  0.3613
  102DPPC   C31 5081   1.546   1.601   2.807 -0.6110  0.1247  0.1878
  102DPPC   C32 5082   2.116   0.742   1.949  0.2234  0.2865 -0.2964
  102DPPC   O33 5083   2.183   0.836   2.034 -0.0515  0.5213 -0.3361
  102DPPC   C34 5084   2.247   0.771   2.135 -0.1423  0.8435 -0.0705
  102DPPC   O35 5085   2.266   0.650   2.147 -0.2750  0.8091 -0.2055
  102DPPC   C36 5086   2.304   0.852   2.251  0.4695  0.2093  0.0747
  102DPPC   C37 5087   2.209   0.858   2.371 -0.9971  0.2714 -1.0704
  102DPPC   C38 5088   2.204   0.725   2.446  0.1992  0.8196  0.0114
  102DPPC   C39 5089   2.092   0.715   2.550  0.7660 -0.3301  0.5390
  102DPPC   C40 5090   2.124   0.829   2.647  0.4397  0.1926  0.0462
  102DPPC   C41 5091   2.041   0.803   2.773 -0.6334  0.3894 -0.6095
  102DPPC   C42 5092   2.082   0.668   2.834 -0.1337  0.8172  0.0139
  102DPPC   C43 5093   2.012   0.637   2.966  0.1320 -0.1291 -0.0610
  102DPPC   C44 5094   2.082   0.518   3.031 -0.1992 -0.4683 -0.3231
  102DPPC   C45 5095   1.979   0.457   3.126  0.0447  0.4171  0.5155
  102DPPC   C46 5096   2.025   0.337   3.209  0.1905  0.1112 -0.0072
  102DPPC   C47 5097   1.926   0.301   3.320  0.1675 -0.0393 -0.0768
  102DPPC   C48 5098   1.941   0.150   3.343 -0.2925 -0.0829 -0.0507
  102DPPC   C49 5099   1.870   0.110   3.473  0.0137 -0.1846  0.0862
  102DPPC   C50 5100   1.720   0.095   3.445 -0.0199  0.0941  0.1226
  103DPPC    C1 5101   2.552   7.363   1.267  0.0732 -0.0768 -0.2037
  103DPPC    C2 5102   2.503   7.159   1.378  0.3803  0.0225 -0.5143
  103DPPC    C3 5103   2.719   7.244   1.381  0.2676 -0.1383  0.1392
  103DPPC    N4 5104   2.578   7.285   1.389  0.3007  0.0400 -0.1773
  103DPPC    C5 5105   2.543   7.351   1.516  0.2192  0.2995 -0.3323
  103DPPC    C6 5106   2.618   7.480   1.547 -0.3005  0.5807 -0.2351
  103DPPC    O7 5107   2.750   7.455   1.596 -0.4595  0.3216  0.0581
  103DPPC    P8 5108   2.839   7.588   1.615 -0.0722  0.0131  0.4265
  103DPPC    O9 5109   2.836   7.633   1.475  0.2919  0.3857  0.5368
  103DPPC   O10 5110   2.967   7.552   1.679  0.2725 -0.4951 -0.5269
  103DPPC   O11 5111   2.749   7.657   1.730  0.2516  0.6746  0.2863
  103DPPC   C12 5112   2.796   7.625   1.862  0.3100 -0.4164  0.0118
  103DPPC   C13 5113   2.671   7.639   1.949  0.1109 -0.4028 -0.2717
  103DPPC   O14 5114   2.576   7.534   1.928 -0.4978  0.1691 -0.3791
  103DPPC   C15 5115   2.619   7.415   1.978  0.1005  0.1943 -0.8212
  103DPPC   O16 5116   2.729   7.398   2.031 -0.0448  0.5101 -0.4133
  103DPPC   C17 5117   2.524   7.299   1.944  0.0375 -0.0256  0.0755
  103DPPC   C18 5118   2.533   7.203   2.063 -0.1458 -0.2123 -0.0613
  103DPPC   C19 5119   2.473   7.258   2.193  0.2259 -0.1590  0.0905
  103DPPC   C20 5120   2.497   7.153   2.301 -0.0062 -0.2118  0.0936
  103DPPC   C21 5121   2.447   7.198   2.439 -0.0619 -0.4461  0.1504
  103DPPC   C22 5122   2.459   7.092   2.549 -0.1935 -0.9390 -0.3061
  103DPPC   C23 5123   2.391   7.154   2.671 -0.1326 -0.4071 -0.5361
  103DPPC   C24 5124   2.355   7.062   2.788 -0.5426  0.0156 -0.3294
  103DPPC   C25 5125   2.330   7.121   2.927 -0.8808  0.0980 -0.4233
  103DPPC   C26 5126   2.287   7.029   3.042 -0.2897 -0.1100 -0.3674
  103DPPC   C27 5127   2.260   7.110   3.168 -0.7290 -0.3789 -0.2865
  103DPPC   C28 5128   2.249   6.999   3.273  0.1794 -0.6259 -0.4371
  103DPPC   C29 5129   2.372   6.908   3.272  0.5710 -0.1101  0.0758
  103DPPC   C30 5130   2.367   6.791   3.370 -0.1322 -0.6149 -0.5484
  103DPPC   C31 5131   2.491   6.705   3.395  0.1626 -0.0714 -0.0996
  103DPPC   C32 5132   2.622   7.783   1.934  0.1959 -0.3672 -0.2108
  103DPPC   O33 5133   2.722   7.874   1.979  0.1043 -0.4451  0.1548
  103DPPC   C34 5134   2.693   8.006   1.967  0.2374 -0.4425 -0.1331
  103DPPC   O35 5135   2.581   8.040   1.929  0.5402  0.1038 -0.5577
  103DPPC   C36 5136   2.795   8.107   2.021 -0.2225  0.0106 -0.0988
  103DPPC   C37 5137   2.792   8.108   2.174  0.0736 -0.3657 -0.0886
  103DPPC   C38 5138   2.868   8.221   2.242  0.0851 -0.3130 -0.1883
  103DPPC   C39 5139   2.845   8.231   2.393 -0.4534 -0.1601 -0.2808
  103DPPC   C40 5140   2.955   8.324   2.443 -0.5385 -0.1286 -0.1501
  103DPPC   C41 5141   2.966   8.317   2.595  0.1117 -0.1877 -0.1946
  103DPPC   C42 5142   2.834   8.372   2.650  0.3380 -0.0926  0.2608
  103DPPC   C43 5143   2.855   8.402   2.798  0.1208  0.1501  0.2439
  103DPPC   C44 5144   2.734   8.443   2.883 -0.0699 -0.1358  0.1105
  103DPPC   C45 5145   2.764   8.490   3.025 -0.0449  0.4812 -0.0947
  103DPPC   C46 5146   2.627   8.537   3.074 -0.0963 -0.0360  0.2695
  103DPPC   C47 5147   2.648   8.623   3.199  0.1917  0.5957 -0.2044
  103DPPC   C48 5148   2.508   8.666   3.244  0.1181  0.3242 -0.1716
  103DPPC   C49 5149   2.520   8.775   3.351  0.1240  0.1004  0.0565
  103DPPC   C50 5150   2.579   8.715   3.479  0.2612 -0.2553 -0.1701
  104DPPC    C1 5151   3.890   3.955   1.570 -0.0533 -0.7120 -0.5887
  104DPPC    C2 5152   3.956   3.728   1.570  0.4547 -0.0468 -0.7548
  104DPPC    C3 5153   4.091   3.884   1.462  0.2315 -0.1318  0.0166
  104DPPC    N4 5154   4.006   3.866   1.581  0.3729 -0.0816  0.1267
  104DPPC    C5 5155   4.072   3.898   1.708 -0.3980 -0.1771  0.5593
  104DPPC    C6 5156   4.177   3.808   1.774 -0.0869  0.2756  0.6859
  104DPPC    O7 5157   4.283   3.759   1.691 -0.3900  0.1445  0.3751
  104DPPC    P8 5158   4.318   3.611   1.745  0.3395  0.1149 -0.1651
  104DPPC    O9 5159   4.438   3.564   1.672  0.1385 -0.3759 -0.1844
  104DPPC   O10 5160   4.190   3.538   1.735  0.6844 -0.5103 -0.0484
  104DPPC   O11 5161   4.353   3.654   1.896 -0.0273  0.8068 -0.2716
  104DPPC   C12 5162   4.491   3.676   1.926 -0.0412  0.0872  0.3738
  104DPPC   C13 5163   4.508   3.764   2.050  0.0272  0.3558  0.1759
  104DPPC   O14 5164   4.646   3.780   2.086  0.1522  0.4375 -0.3256
  104DPPC   C15 5165   4.677   3.888   2.164  0.1524  0.3364 -0.1849
  104DPPC   O16 5166   4.624   3.998   2.153 -0.0971  0.1679 -0.7152
  104DPPC   C17 5167   4.796   3.862   2.257 -0.0407  0.1491  0.0104
  104DPPC   C18 5168   4.816   3.723   2.319  0.0637  0.2132  0.1191
  104DPPC   C19 5169   4.925   3.704   2.425  0.2235 -0.2473 -0.1266
  104DPPC   C20 5170   4.896   3.594   2.527 -0.1552 -0.1781 -0.1565
  104DPPC   C21 5171   5.020   3.579   2.614 -0.0728  0.7798 -0.1031
  104DPPC   C22 5172   4.972   3.533   2.752  0.2329  0.4019 -0.1200
  104DPPC   C23 5173   5.083   3.495   2.850  0.3298  0.1329 -0.3324
  104DPPC   C24 5174   5.025   3.453   2.985  0.7557  0.2239 -0.1173
  104DPPC   C25 5175   5.125   3.398   3.087  0.7508  0.1531 -0.1509
  104DPPC   C26 5176   5.081   3.404   3.234  0.1496  0.0125 -0.3217
  104DPPC   C27 5177   5.037   3.544   3.275  0.1085 -0.1794  0.2908
  104DPPC   C28 5178   4.982   3.537   3.418  0.3042  0.2247  0.3878
  104DPPC   C29 5179   4.937   3.657   3.502  0.1902  0.2004  0.3612
  104DPPC   C30 5180   4.844   3.616   3.616 -0.0073  0.5604  0.3332
  104DPPC   C31 5181   4.832   3.752   3.685 -0.0834  0.3066  0.8271
  104DPPC   C32 5182   4.440   3.677   2.156  0.5481 -0.3053 -0.0258
  104DPPC   O33 5183   4.410   3.741   2.281  0.0496 -0.2048 -0.1989
  104DPPC   C34 5184   4.317   3.685   2.363 -0.6162  0.2223 -0.6520
  104DPPC   O35 5185   4.241   3.597   2.322 -0.1619 -0.3694 -0.2240
  104DPPC   C36 5186   4.301   3.763   2.494  0.5693  0.2704 -0.5314
  104DPPC   C37 5187   4.432   3.725   2.564  0.1399  0.5928  0.4497
  104DPPC   C38 5188   4.459   3.838   2.665  0.3076  1.1167 -0.1743
  104DPPC   C39 5189   4.583   3.812   2.750  0.1557 -0.1688 -0.3277
  104DPPC   C40 5190   4.571   3.676   2.820  0.4554 -0.1393 -0.2202
  104DPPC   C41 5191   4.660   3.674   2.944 -0.4600 -0.2996  0.4410
  104DPPC   C42 5192   4.642   3.792   3.040  0.0041  0.2059 -0.0869
  104DPPC   C43 5193   4.721   3.772   3.169  0.0294 -0.0270 -0.1370
  104DPPC   C44 5194   4.750   3.903   3.243 -0.0822 -0.2565  0.3134
  104DPPC   C45 5195   4.620   3.969   3.289 -0.0849 -0.3681  0.4694
  104DPPC   C46 5196   4.627   4.073   3.402  0.2107 -0.1720  0.2739
  104DPPC   C47 5197   4.490   4.084   3.470 -0.0568  0.1937 -0.3109
  104DPPC   C48 5198   4.483   4.170   3.596  0.4286 -0.4504  0.1613
  104DPPC   C49 5199   4.474   4.315   3.549 -1.0044 -0.5158  0.2019
  104DPPC   C50 5200   4.492   4.407   3.670 -0.0634 -0.4240  0.0040
  105DPPC    C1 5201   4.465   5.142   1.777  0.9278 -0.2502  0.1373
  105DPPC    C2 5202   4.474   4.993   1.597  0.3821 -0.4556 -0.0795
  105DPPC    C3 5203   4.522   5.235   1.563 -0.2194  0.3775  0.1806
  105DPPC    N4 5204   4.534   5.117   1.650 -0.0664 -0.0728 -0.4517
  105DPPC    C5 5205   4.679   5.091   1.649  0.0325  0.4303  0.2365
  105DPPC    C6 5206   4.736   5.011   1.766  0.0582  0.3831  0.1915
  105DPPC    O7 5207   4.785   5.091   1.874  0.6908  0.3307 -0.0501
  105DPPC    P8 5208   4.865   4.994   1.975  0.0868  0.1673  0.2796
  105DPPC    O9 5209   4.942   5.096   2.049 -0.1773  0.7721 -0.2677
  105DPPC   O10 5210   4.937   4.899   1.887  0.0743  0.1270  0.3126
  105DPPC   O11 5211   4.746   4.921   2.055 -0.0712  0.3997  0.2570
  105DPPC   C12 5212   4.735   4.975   2.187  0.2040  0.3242  0.3112
  105DPPC   C13 5213   4.612   4.936   2.269 -0.0283 -0.0543 -0.2090
  105DPPC   O14 5214   4.564   5.035   2.361  0.2964  0.0056 -0.1036
  105DPPC   C15 5215   4.481   5.124   2.301  0.0924  0.0250  0.2066
  105DPPC   O16 5216   4.408   5.081   2.212  0.3458  0.1594 -0.0685
  105DPPC   C17 5217   4.453   5.251   2.383  0.2032  0.0540  0.2002
  105DPPC   C18 5218   4.303   5.269   2.405  0.1972 -0.1523  0.3333
  105DPPC   C19 5219   4.290   5.384   2.505 -0.1690  0.2900 -0.2179
  105DPPC   C20 5220   4.335   5.512   2.433  0.1281  0.2889 -0.0337
  105DPPC   C21 5221   4.331   5.632   2.528 -0.3118 -0.2304  0.6162
  105DPPC   C22 5222   4.388   5.751   2.450 -0.8681 -0.3846 -0.0460
  105DPPC   C23 5223   4.367   5.885   2.522  0.1552 -0.2028 -0.0675
  105DPPC   C24 5224   4.460   5.890   2.643 -0.3183  0.1449  0.2851
  105DPPC   C25 5225   4.428   6.013   2.728 -0.0208  0.3779  0.0650
  105DPPC   C26 5226   4.294   5.985   2.796 -0.0671  0.4528  0.0054
  105DPPC   C27 5227   4.254   6.116   2.866 -0.2065  0.4477 -0.0633
  105DPPC   C28 5228   4.108   6.096   2.906 -0.2068  0.0437 -0.2520
  105DPPC   C29 5229   4.039   6.211   2.981  0.1106  0.0337  0.0576
  105DPPC   C30 5230   4.072   6.346   2.917 -0.5429 -0.0972 -0.5662
  105DPPC   C31 5231   3.963   6.439   2.969 -0.2348  0.1845 -0.4190
  105DPPC   C32 5232   4.635   4.794   2.320 -0.1023 -0.0784 -0.2426
  105DPPC   O33 5233   4.753   4.789   2.401 -0.4973 -0.1849  0.3269
  105DPPC   C34 5234   4.782   4.670   2.460  0.1515  0.1847  0.7689
  105DPPC   O35 5235   4.715   4.567   2.444  0.0680  0.3758 -0.1843
  105DPPC   C36 5236   4.929   4.662   2.501  0.2644 -0.0411  0.3288
  105DPPC   C37 5237   4.933   4.632   2.651  0.6204  0.1234  0.3526
  105DPPC   C38 5238   4.888   4.757   2.729  0.2694  0.1040  0.1848
  105DPPC   C39 5239   4.901   4.737   2.880 -0.7739 -0.3973  0.2203
  105DPPC   C40 5240   4.827   4.845   2.959  0.2076  0.5918 -0.1784
  105DPPC   C41 5241   4.850   4.832   3.110  0.0261  0.0018 -0.1991
  105DPPC   C42 5242   4.810   4.965   3.173  0.4239  0.0557 -0.0585
  105DPPC   C43 5243   4.817   4.968   3.326 -0.0512  0.2196 -0.0391
  105DPPC   C44 5244   4.752   5.093   3.386  0.2282  0.4203 -0.1506
  105DPPC   C45 5245   4.797   5.095   3.532  0.0394  0.0637 -0.0863
  105DPPC   C46 5246   4.747   4.975   3.613  0.3575 -0.1276 -0.1690
  105DPPC   C47 5247   4.814   4.985   3.750 -0.2699 -0.5248  0.1708
  105DPPC   C48 5248   4.785   4.866   3.841 -0.2802 -0.3423  0.4105
  105DPPC   C49 5249   4.857   4.881   3.975 -0.3567 -0.7587  0.5014
  105DPPC   C50 5250   5.009   4.893   3.966 -0.3758 -0.5951  0.3875
  106DPPC    C1 5251   9.117   0.567   1.189 -0.1621 -0.5880  0.0677
  106DPPC    C2 5252   8.963   0.459   1.326 -0.2880  0.2089  0.9837
  106DPPC    C3 5253   9.113   0.324   1.212 -0.2745  0.1280 -0.0354
  106DPPC    N4 5254   9.103   0.453   1.282 -0.4479 -0.1845  0.5248
  106DPPC    C5 5255   9.205   0.463   1.386 -0.0450 -0.5258  0.1681
  106DPPC    C6 5256   9.356   0.451   1.363  0.0159  0.3057  0.0892
  106DPPC    O7 5257   9.424   0.524   1.466  0.2388  0.2201  0.0029
  106DPPC    P8 5258   9.583   0.501   1.453  0.1671 -0.1325 -0.2805
  106DPPC    O9 5259   9.616   0.538   1.314 -0.4116  0.7011 -0.2043
  106DPPC   O10 5260   9.650   0.385   1.516 -0.1551  0.0643  0.4336
  106DPPC   O11 5261   9.619   0.631   1.541 -0.1666 -0.1369 -0.1350
  106DPPC   C12 5262   9.607   0.611   1.682  0.4579  0.1102 -0.0442
  106DPPC   C13 5263   9.518   0.716   1.748  0.1605 -0.0851 -0.1350
  106DPPC   O14 5264   9.577   0.772   1.866  0.0528  0.0353 -0.1374
  106DPPC   C15 5265   9.609   0.904   1.862 -0.8832  0.2868  0.4335
  106DPPC   O16 5266   9.581   0.966   1.760 -0.0890  0.3215  0.2319
  106DPPC   C17 5267   9.673   0.971   1.983  0.5514 -0.2085 -0.0263
  106DPPC   C18 5268   9.603   0.925   2.111  0.1703  0.0140 -0.1528
  106DPPC   C19 5269   9.697   0.930   2.232 -0.1894  0.4982  0.1140
  106DPPC   C20 5270   9.639   0.881   2.365  0.0134 -0.2779 -0.0782
  106DPPC   C21 5271   9.748   0.922   2.464  0.2055  0.1226 -0.4524
  106DPPC   C22 5272   9.845   0.806   2.484  0.2273  0.1747 -0.2466
  106DPPC   C23 5273   9.959   0.861   2.570  0.0054  0.0618  0.1222
  106DPPC   C24 5274  10.052   0.946   2.483 -0.1385 -0.0141 -0.1086
  106DPPC   C25 5275  10.193   0.933   2.542 -0.1147 -0.0349 -0.1700
  106DPPC   C26 5276  10.307   0.986   2.455 -0.0045 -0.0301 -0.0244
  106DPPC   C27 5277  10.446   0.970   2.517 -0.1943 -0.4651  0.2894
  106DPPC   C28 5278  10.433   1.020   2.661 -0.0169 -0.5972  0.3513
  106DPPC   C29 5279  10.566   1.013   2.737  0.3168  0.1798 -0.1386
  106DPPC   C30 5280  10.539   1.067   2.878  0.2897 -0.0484 -0.0556
  106DPPC   C31 5281  10.513   1.218   2.873 -0.0465 -0.0794  0.7342
  106DPPC   C32 5282   9.380   0.650   1.759  0.0143  0.1947 -0.2685
  106DPPC   O33 5283   9.382   0.519   1.816 -0.3198  0.3239  0.0426
  106DPPC   C34 5284   9.265   0.452   1.794  0.0926 -0.4058  0.0500
  106DPPC   O35 5285   9.169   0.515   1.751  0.6073  0.1100 -0.3624
  106DPPC   C36 5286   9.258   0.306   1.841 -0.7094 -0.3328  0.1792
  106DPPC   C37 5287   9.314   0.281   1.981 -0.1686 -0.2635 -0.0201
  106DPPC   C38 5288   9.234   0.355   2.088  0.0702 -0.1449  0.0779
  106DPPC   C39 5289   9.308   0.469   2.158 -0.4151  0.3079 -0.1467
  106DPPC   C40 5290   9.215   0.526   2.266 -0.3785 -0.0465  0.0741
  106DPPC   C41 5291   9.154   0.420   2.357  0.8604 -0.3791  0.5371
  106DPPC   C42 5292   9.054   0.502   2.439 -0.0797 -0.3209 -0.6385
  106DPPC   C43 5293   9.042   0.436   2.576  0.0323  0.1792 -0.3835
  106DPPC   C44 5294   8.963   0.519   2.678  0.3227 -0.1553  0.1185
  106DPPC   C45 5295   8.953   0.437   2.806  0.7448 -0.2381  0.1018
  106DPPC   C46 5296   8.902   0.530   2.916  0.1262  0.1489 -0.5025
  106DPPC   C47 5297   8.869   0.469   3.053 -0.0117  0.0528 -0.5789
  106DPPC   C48 5298   8.754   0.368   3.053 -0.2538  0.3295 -0.4210
  106DPPC   C49 5299   8.741   0.318   3.197  0.1365  0.4517 -0.3429
  106DPPC   C50 5300   8.735   0.439   3.291 -0.5463 -0.1795  0.4446
  107DPPC    C1 5301   6.157   7.916   2.044  0.9383  0.0568 -0.3779
  107DPPC    C2 5302   6.116   8.012   1.840  0.2722 -0.4100  0.1080
  107DPPC    C3 5303   6.033   8.126   2.045 -0.2844  0.1493  0.1498
  107DPPC    N4 5304   6.140   8.047   1.980 -0.3425  0.1264  0.0817
  107DPPC    C5 5305   6.275   8.103   1.969 -0.4199  0.2608 -0.1930
  107DPPC    C6 5306   6.318   8.192   2.087  0.0210 -0.4327  0.1769
  107DPPC    O7 5307   6.247   8.316   2.089 -0.0356 -0.4473 -0.4621
  107DPPC    P8 5308   6.345   8.425   2.022 -0.1337 -0.0561  0.0201
  107DPPC    O9 5309   6.271   8.462   1.899  0.0997 -0.3505 -0.2123
  107DPPC   O10 5310   6.481   8.365   2.024 -0.1212 -0.0283 -0.0214
  107DPPC   O11 5311   6.336   8.543   2.130  0.1745 -0.2741  0.2868
  107DPPC   C12 5312   6.195   8.557   2.150  0.1174  0.2836 -0.4548
  107DPPC   C13 5313   6.140   8.594   2.288  0.5914 -0.4461 -0.0645
  107DPPC   O14 5314   6.178   8.728   2.324  0.2341 -0.3196 -0.1595
  107DPPC   C15 5315   6.085   8.823   2.351 -0.0475 -0.7418  0.3782
  107DPPC   O16 5316   5.980   8.815   2.288  0.2980  0.2040 -0.3545
  107DPPC   C17 5317   6.140   8.956   2.404 -0.7700 -0.2497 -0.0831
  107DPPC   C18 5318   6.217   8.941   2.535 -0.0631  0.7321 -0.3754
  107DPPC   C19 5319   6.135   8.890   2.654  0.0875  0.0212 -0.5731
  107DPPC   C20 5320   6.024   8.987   2.696  0.1532 -0.2122  0.1498
  107DPPC   C21 5321   6.088   9.074   2.804 -0.1541  0.4188 -0.1744
  107DPPC   C22 5322   6.007   9.200   2.840 -0.1742  0.4206 -0.2246
  107DPPC   C23 5323   6.058   9.310   2.933 -0.1949  0.1838  0.0690
  107DPPC   C24 5324   6.171   9.385   2.863 -0.3576  0.4440  0.0818
  107DPPC   C25 5325   6.235   9.497   2.945 -0.0983 -0.2339  0.8163
  107DPPC   C26 5326   6.135   9.609   2.975 -0.4347 -0.1971 -0.3947
  107DPPC   C27 5327   6.106   9.685   2.845 -0.4059 -0.5435 -0.6049
  107DPPC   C28 5328   5.999   9.790   2.875 -0.2634 -0.3497 -0.7704
  107DPPC   C29 5329   5.994   9.912   2.784  0.7651  0.2548 -0.0372
  107DPPC   C30 5330   5.944   9.867   2.646  0.5620 -0.0790  0.1454
  107DPPC   C31 5331   5.930   9.976   2.540 -0.6572 -0.4816 -0.1231
  107DPPC   C32 5332   6.191   8.480   2.377  0.2988 -0.4517  0.0947
  107DPPC   O33 5333   6.123   8.473   2.503  0.1759 -0.0279  0.0542
  107DPPC   C34 5334   5.989   8.449   2.510  0.1262  0.0844 -0.4156
  107DPPC   O35 5335   5.930   8.418   2.407 -0.1933  0.0781 -0.2310
  107DPPC   C36 5336   5.923   8.476   2.646  0.0829  0.7107 -0.5592
  107DPPC   C37 5337   6.026   8.532   2.745 -0.1292 -0.1314  0.1514
  107DPPC   C38 5338   5.965   8.577   2.878  0.2713 -0.1355  0.3376
  107DPPC   C39 5339   6.072   8.650   2.959 -0.1489  0.5357  0.3014
  107DPPC   C40 5340   6.018   8.778   3.022 -0.4849  0.3696  0.3538
  107DPPC   C41 5341   6.124   8.854   3.102  0.2808 -0.0200 -0.2624
  107DPPC   C42 5342   6.163   8.766   3.221 -0.5718 -0.2926 -0.1787
  107DPPC   C43 5343   6.056   8.750   3.330 -0.3942 -0.2496  0.0012
  107DPPC   C44 5344   6.128   8.712   3.459  0.2919  0.2143 -0.2379
  107DPPC   C45 5345   6.029   8.684   3.572  0.4626 -0.0463 -0.1514
  107DPPC   C46 5346   6.114   8.651   3.696 -0.1451 -0.1693  0.2379
  107DPPC   C47 5347   6.018   8.661   3.814 -0.2128  0.4209  0.1396
  107DPPC   C48 5348   5.942   8.794   3.811 -0.4792  0.2673 -0.0155
  107DPPC   C49 5349   5.794   8.769   3.837 -0.5091 -0.3681 -0.7607
  107DPPC   C50 5350   5.704   8.890   3.815  0.0271  0.2211  0.2102
  108DPPC    C1 5351   7.138   0.593   1.198  0.1366  0.3564 -0.4608
  108DPPC    C2 5352   6.986   0.780   1.223  0.1656  0.0884 -0.1500
  108DPPC    C3 5353   6.994   0.655   1.023 -0.3859  0.0957  0.0735
  108DPPC    N4 5354   7.003   0.644   1.169 -0.1232 -0.0295  0.0484
  108DPPC    C5 5355   6.887   0.562   1.204 -0.0241 -0.1921 -0.0026
  108DPPC    C6 5356   6.905   0.454   1.311  0.3561 -0.0807  0.0459
  108DPPC    O7 5357   6.890   0.504   1.444 -0.8370 -0.1101 -0.0720
  108DPPC    P8 5358   6.907   0.374   1.537 -0.1411  0.0230 -0.0094
  108DPPC    O9 5359   7.051   0.342   1.535 -0.0812  0.2839  0.1414
  108DPPC   O10 5360   6.802   0.282   1.489  0.0411 -0.1826 -0.0135
  108DPPC   O11 5361   6.855   0.444   1.672  0.1201 -0.1722  0.1940
  108DPPC   C12 5362   6.957   0.526   1.729  0.0732 -0.0268  0.0681
  108DPPC   C13 5363   6.912   0.617   1.843  0.0389  0.2312 -0.1493
  108DPPC   O14 5364   6.991   0.735   1.864  0.0163  0.2787 -0.3323
  108DPPC   C15 5365   6.910   0.844   1.866 -0.5514 -0.1490  0.1654
  108DPPC   O16 5366   6.797   0.837   1.817 -0.4381  0.3963 -0.1744
  108DPPC   C17 5367   6.960   0.975   1.926 -0.1790 -0.0391 -0.3746
  108DPPC   C18 5368   6.930   0.993   2.075  0.8763 -0.1777 -0.1385
  108DPPC   C19 5369   6.947   1.142   2.109  0.6327 -0.2014  0.0944
  108DPPC   C20 5370   6.881   1.179   2.241  0.0412 -0.4250 -0.1319
  108DPPC   C21 5371   6.987   1.130   2.340  0.1133  0.4705  0.2478
  108DPPC   C22 5372   6.947   1.155   2.486  0.1847  0.0779  0.3364
  108DPPC   C23 5373   6.820   1.087   2.539  0.0181 -0.1379 -0.3273
  108DPPC   C24 5374   6.846   1.002   2.664  0.1532  0.1475 -0.1616
  108DPPC   C25 5375   6.912   1.106   2.756  0.5306  0.1115 -0.3869
  108DPPC   C26 5376   6.974   1.038   2.877 -0.1475 -0.1155 -0.1585
  108DPPC   C27 5377   6.879   0.955   2.964 -0.4475  0.4077  0.0124
  108DPPC   C28 5378   6.933   0.913   3.101 -0.0335 -0.2803 -0.3575
  108DPPC   C29 5379   6.839   0.812   3.167 -0.0486  0.0242  0.0906
  108DPPC   C30 5380   6.899   0.802   3.308  0.1822 -0.5322 -0.0427
  108DPPC   C31 5381   6.820   0.723   3.412  0.1625 -0.0417  0.3193
  108DPPC   C32 5382   6.925   0.513   1.954  0.6820  0.1771 -0.2715
  108DPPC   O33 5383   6.892   0.543   2.090 -0.1711 -0.3465 -0.3546
  108DPPC   C34 5384   6.905   0.434   2.170 -0.5206 -0.0306  0.1346
  108DPPC   O35 5385   6.964   0.332   2.136  0.0973  0.2180  0.4484
  108DPPC   C36 5386   6.902   0.459   2.321 -0.2528 -0.3377  0.1903
  108DPPC   C37 5387   6.862   0.335   2.401 -0.0782 -0.3569  0.2501
  108DPPC   C38 5388   6.884   0.367   2.549  0.1927 -0.4917  0.2398
  108DPPC   C39 5389   6.846   0.245   2.633 -0.1686 -0.3781  0.2454
  108DPPC   C40 5390   6.934   0.122   2.607  0.4695  0.0357  0.4260
  108DPPC   C41 5391   6.883  -0.004   2.677  0.0767 -0.0546 -0.0149
  108DPPC   C42 5392   6.886   0.021   2.828  0.3002  0.3263 -0.0808
  108DPPC   C43 5393   6.828  -0.096   2.909 -0.0576  0.7580  0.2932
  108DPPC   C44 5394   6.863  -0.094   3.058 -0.6727  0.0108  0.4518
  108DPPC   C45 5395   6.816  -0.223   3.126  0.0760 -0.4341  0.1437
  108DPPC   C46 5396   6.859  -0.224   3.273  0.0701 -0.3192  0.1469
  108DPPC   C47 5397   6.777  -0.126   3.357  0.1647  0.4689 -0.6642
  108DPPC   C48 5398   6.818  -0.128   3.505 -0.0409  0.3559 -0.6081
  108DPPC   C49 5399   6.964  -0.104   3.545 -0.1392 -0.1145  0.0504
  108DPPC   C50 5400   6.976  -0.025   3.676  0.0222  0.2202 -0.1656
  109DPPC    C1 5401   9.325   6.064   0.456 -0.2563  0.1978  0.3432
  109DPPC    C2 5402   9.372   6.052   0.684  0.4360 -0.4857 -0.2608
  109DPPC    C3 5403   9.445   6.236   0.551 -0.8101  0.0811  0.1527
  109DPPC    N4 5404   9.332   6.146   0.578 -0.6348 -0.0324  0.5215
  109DPPC    C5 5405   9.202   6.213   0.593 -0.5961  0.1763 -0.0367
  109DPPC    C6 5406   9.159   6.240   0.737  0.4545 -0.3833  0.3948
  109DPPC    O7 5407   9.087   6.128   0.788 -0.1227 -0.2318 -0.0825
  109DPPC    P8 5408   8.978   6.165   0.900  0.0408 -0.1760  0.0588
  109DPPC    O9 5409   8.881   6.056   0.878  0.3725 -0.4410 -0.0954
  109DPPC   O10 5410   8.942   6.309   0.891  0.1531 -0.1380  0.2163
  109DPPC   O11 5411   9.070   6.154   1.031 -0.6123  0.1517  0.5528
  109DPPC   C12 5412   9.053   6.023   1.085  0.3855 -0.0829  0.3196
  109DPPC   C13 5413   9.166   5.969   1.173  0.6314 -0.2254 -0.0799
  109DPPC   O14 5414   9.142   5.839   1.229 -0.2514 -0.0978 -0.1367
  109DPPC   C15 5415   9.245   5.767   1.282 -0.2489 -0.0021 -0.0107
  109DPPC   O16 5416   9.362   5.795   1.254 -0.3140 -0.0468 -0.3291
  109DPPC   C17 5417   9.205   5.632   1.341  0.5968 -0.0398  0.4967
  109DPPC   C18 5418   9.131   5.654   1.473 -0.1438  0.1565  0.0527
  109DPPC   C19 5419   9.217   5.736   1.569 -0.1841  0.0239  0.1999
  109DPPC   C20 5420   9.158   5.705   1.707 -0.4299 -0.5100 -0.0228
  109DPPC   C21 5421   9.229   5.765   1.828 -0.2005  0.2696 -0.5331
  109DPPC   C22 5422   9.155   5.746   1.960  0.4289  0.7707 -0.1009
  109DPPC   C23 5423   9.222   5.829   2.070  0.3483  0.4237  0.2121
  109DPPC   C24 5424   9.160   5.804   2.208  0.4890 -0.1756  0.1698
  109DPPC   C25 5425   9.232   5.867   2.327 -0.0680  0.9616 -0.0774
  109DPPC   C26 5426   9.141   5.877   2.450 -0.1711 -0.3467 -0.0385
  109DPPC   C27 5427   9.207   5.901   2.586 -0.2674 -0.5923  0.0532
  109DPPC   C28 5428   9.090   5.876   2.680 -0.2618  0.4925  0.3595
  109DPPC   C29 5429   9.131   5.880   2.828 -0.0740 -0.3220  0.3334
  109DPPC   C30 5430   9.007   5.868   2.916 -0.2551 -0.2270  0.0917
  109DPPC   C31 5431   9.049   5.886   3.062 -0.1227  1.0124 -0.0869
  109DPPC   C32 5432   9.196   6.081   1.273 -0.0343  0.1133 -0.2520
  109DPPC   O33 5433   9.102   6.098   1.380  0.1842 -0.1408 -0.0171
  109DPPC   C34 5434   9.096   6.224   1.433 -0.1589 -0.0477 -0.2754
  109DPPC   O35 5435   9.182   6.306   1.401  0.1874 -0.0120  0.7212
  109DPPC   C36 5436   9.014   6.228   1.562  0.1523 -0.2451 -0.0686
  109DPPC   C37 5437   9.104   6.208   1.684  0.3492 -0.7402 -0.2893
  109DPPC   C38 5438   9.046   6.258   1.816  0.1035 -1.0290 -0.2865
  109DPPC   C39 5439   9.153   6.260   1.926 -0.0199  0.8283 -0.1615
  109DPPC   C40 5440   9.093   6.302   2.061 -0.3271 -0.2700  0.0517
  109DPPC   C41 5441   9.208   6.300   2.162 -0.6077 -0.2163  0.3727
  109DPPC   C42 5442   9.136   6.331   2.293 -0.5138 -0.1003  0.3967
  109DPPC   C43 5443   9.232   6.348   2.411 -0.0641 -0.0487  0.0242
  109DPPC   C44 5444   9.328   6.229   2.422  0.2706  0.1505 -0.6341
  109DPPC   C45 5445   9.412   6.258   2.546  0.1562  0.2415 -0.5775
  109DPPC   C46 5446   9.514   6.148   2.574  0.3101  0.4012 -0.5052
  109DPPC   C47 5447   9.605   6.189   2.690 -0.3289 -0.6263  0.3778
  109DPPC   C48 5448   9.716   6.085   2.706  1.0338  0.6747 -0.3450
  109DPPC   C49 5449   9.788   6.104   2.839  0.1915  0.0366  0.2134
  109DPPC   C50 5450   9.883   5.985   2.824  0.2782  0.1484 -0.1158
  110DPPC    C1 5451   1.342   3.470   0.943  0.0508  0.1475 -0.1344
  110DPPC    C2 5452   1.555   3.388   1.053  0.1526 -0.0247  0.0052
  110DPPC    C3 5453   1.558   3.561   0.893 -0.2615  0.3121 -0.3042
  110DPPC    N4 5454   1.475   3.498   0.997  0.1577 -0.1468 -0.2443
  110DPPC    C5 5455   1.460   3.604   1.098  0.1701 -0.3250 -0.0532
  110DPPC    C6 5456   1.369   3.574   1.217  0.2001  0.1316  0.0890
  110DPPC    O7 5457   1.330   3.685   1.298 -0.2788 -0.1249  0.2154
  110DPPC    P8 5458   1.193   3.758   1.255 -0.1710  0.1127  0.2736
  110DPPC    O9 5459   1.133   3.669   1.153  0.5729 -0.4513  0.3247
  110DPPC   O10 5460   1.210   3.903   1.232 -0.2045  0.1969  0.7713
  110DPPC   O11 5461   1.132   3.745   1.404 -0.1765  0.1950  0.2787
  110DPPC   C12 5462   1.067   3.618   1.413  0.3922 -0.1312 -0.1431
  110DPPC   C13 5463   1.128   3.515   1.509  0.3732 -0.1587 -0.1606
  110DPPC   O14 5464   1.053   3.393   1.520  0.0360  0.0581 -0.0515
  110DPPC   C15 5465   1.122   3.279   1.546  0.0676  0.0650 -0.1061
  110DPPC   O16 5466   1.232   3.251   1.498  0.4228  0.6015  0.3802
  110DPPC   C17 5467   1.028   3.172   1.602 -0.0154  0.2442  0.0966
  110DPPC   C18 5468   1.040   3.193   1.753 -0.3107  0.5799  0.0735
  110DPPC   C19 5469   0.955   3.090   1.827  0.2752 -0.3124 -0.4798
  110DPPC   C20 5470   0.971   3.114   1.977  0.5893 -0.8479 -0.4268
  110DPPC   C21 5471   0.868   3.031   2.055  0.6113 -0.5557 -0.0825
  110DPPC   C22 5472   0.866   3.076   2.201  0.0849 -0.1969 -0.1974
  110DPPC   C23 5473   0.767   2.990   2.279  0.1146 -0.3199 -0.2959
  110DPPC   C24 5474   0.629   2.993   2.213 -0.0984 -0.0846  0.1613
  110DPPC   C25 5475   0.534   2.936   2.319  0.3211 -0.5082  0.3131
  110DPPC   C26 5476   0.561   3.022   2.442 -0.2997 -0.1143  0.1750
  110DPPC   C27 5477   0.470   2.989   2.561  0.3202 -0.4409  0.5597
  110DPPC   C28 5478   0.487   3.095   2.670  0.2429 -0.2185  0.3553
  110DPPC   C29 5479   0.626   3.075   2.730  0.3878 -0.3648 -0.0240
  110DPPC   C30 5480   0.670   3.168   2.844  0.2759 -0.3074 -0.0271
  110DPPC   C31 5481   0.595   3.152   2.976  0.6559 -0.1902  0.2051
  110DPPC   C32 5482   1.163   3.587   1.639 -0.0193 -0.3933  0.0778
  110DPPC   O33 5483   1.241   3.510   1.731  0.3643 -0.2049 -0.0846
  110DPPC   C34 5484   1.255   3.573   1.851  0.1639  0.2835 -0.3157
  110DPPC   O35 5485   1.248   3.695   1.864 -0.6881  0.2278 -0.2322
  110DPPC   C36 5486   1.324   3.495   1.963  0.1905  0.3985 -0.2516
  110DPPC   C37 5487   1.217   3.433   2.053  0.2587  0.2062 -0.3028
  110DPPC   C38 5488   1.282   3.349   2.164 -0.1202  0.3221  0.0108
  110DPPC   C39 5489   1.185   3.282   2.261 -0.0226  0.1918  0.0187
  110DPPC   C40 5490   1.243   3.219   2.387  0.3615 -0.2370 -0.3676
  110DPPC   C41 5491   1.134   3.136   2.453  0.1332  0.7013  0.4694
  110DPPC   C42 5492   1.202   3.055   2.564  0.1504  0.0842  0.0133
  110DPPC   C43 5493   1.101   2.990   2.659 -0.1647 -0.1068 -0.4467
  110DPPC   C44 5494   1.188   2.929   2.770 -0.3395  0.0373 -0.2296
  110DPPC   C45 5495   1.115   2.886   2.897  0.4189  0.5525  0.3916
  110DPPC   C46 5496   1.068   3.009   2.974 -0.6807  0.4778 -0.1387
  110DPPC   C47 5497   0.986   2.996   3.102  0.7749 -0.6607  0.7080
  110DPPC   C48 5498   0.957   3.137   3.154 -0.0184 -0.5041 -0.1304
  110DPPC   C49 5499   0.872   3.103   3.277  0.2067 -0.2712  0.0893
  110DPPC   C50 5500   0.793   3.231   3.305 -0.0106 -0.3905  0.0228
  111DPPC    C1 5501   1.688   1.092   1.668  0.4573  0.3066 -0.3431
  111DPPC    C2 5502   1.714   1.154   1.436  0.2229  0.6939  0.4105
  111DPPC    C3 5503   1.702   0.933   1.488  0.4824  0.1421 -0.4927
  111DPPC    N4 5504   1.647   1.062   1.530  0.3002 -0.0209 -0.2267
  111DPPC    C5 5505   1.501   1.062   1.509  0.0998 -0.3848  1.0987
  111DPPC    C6 5506   1.410   0.946   1.550 -0.6274  0.0144  0.6320
  111DPPC    O7 5507   1.436   0.904   1.684  0.1420 -0.1492  0.4357
  111DPPC    P8 5508   1.338   0.779   1.710 -0.1359 -0.0508 -0.1403
  111DPPC    O9 5509   1.425   0.677   1.771  0.1193  0.0607 -0.3151
  111DPPC   O10 5510   1.273   0.734   1.584  0.0051 -0.0086 -0.2278
  111DPPC   O11 5511   1.245   0.856   1.817 -0.0249  0.1263 -0.1715
  111DPPC   C12 5512   1.331   0.870   1.930 -0.1018 -0.2719 -0.0637
  111DPPC   C13 5513   1.249   0.880   2.059 -0.0169  0.4638 -0.0629
  111DPPC   O14 5514   1.317   0.947   2.166 -0.2356  0.1709  0.2642
  111DPPC   C15 5515   1.245   1.007   2.264 -0.0599 -0.2396  0.6443
  111DPPC   O16 5516   1.123   0.997   2.256  0.0045 -0.4803 -0.1458
  111DPPC   C17 5517   1.318   1.056   2.389 -0.3801  0.3410  0.6042
  111DPPC   C18 5518   1.375   1.191   2.346 -0.2612  0.0286 -0.2342
  111DPPC   C19 5519   1.443   1.247   2.471 -0.4758 -0.4866  0.1147
  111DPPC   C20 5520   1.489   1.391   2.448 -0.3001 -0.5844 -0.1441
  111DPPC   C21 5521   1.386   1.489   2.392  0.3031  0.2302  0.1496
  111DPPC   C22 5522   1.452   1.626   2.380 -0.1435  0.3856 -0.6011
  111DPPC   C23 5523   1.345   1.728   2.419 -0.2852  0.0647 -0.1434
  111DPPC   C24 5524   1.270   1.708   2.551  0.2623  0.2401  0.1999
  111DPPC   C25 5525   1.144   1.794   2.544  0.2164  0.1228 -0.5067
  111DPPC   C26 5526   1.055   1.783   2.668 -0.5657 -0.7390 -1.1262
  111DPPC   C27 5527   0.956   1.900   2.666 -0.1596 -0.3675 -0.2990
  111DPPC   C28 5528   0.908   1.913   2.811  0.4100 -0.6693 -0.0826
  111DPPC   C29 5529   0.825   2.041   2.823  0.3203 -0.7649  0.3037
  111DPPC   C30 5530   0.770   2.066   2.964 -0.4188  0.3727 -0.1723
  111DPPC   C31 5531   0.700   1.943   3.021  0.7067 -0.4820 -0.5862
  111DPPC   C32 5532   1.180   0.744   2.067  0.0570  0.4173 -0.2162
  111DPPC   O33 5533   1.267   0.642   2.117 -0.5509 -0.0934 -0.1918
  111DPPC   C34 5534   1.246   0.509   2.096  0.1567 -0.2024 -0.2391
  111DPPC   O35 5535   1.175   0.480   2.000 -0.5023 -0.4529  0.3100
  111DPPC   C36 5536   1.313   0.400   2.180  0.4911  0.0668 -0.1568
  111DPPC   C37 5537   1.372   0.452   2.312  0.4454  0.3530 -0.2477
  111DPPC   C38 5538   1.264   0.518   2.397  0.2991 -0.3428  0.1125
  111DPPC   C39 5539   1.311   0.559   2.537  0.2911 -0.1354  0.0549
  111DPPC   C40 5540   1.198   0.635   2.608  0.5310  0.5268 -0.2668
  111DPPC   C41 5541   1.237   0.684   2.747  0.1652 -0.2185  0.1033
  111DPPC   C42 5542   1.261   0.567   2.843  0.3936 -0.3068 -0.0597
  111DPPC   C43 5543   1.285   0.627   2.982  0.1214 -0.1364 -0.0838
  111DPPC   C44 5544   1.167   0.692   3.054  0.0694 -0.3400  0.0163
  111DPPC   C45 5545   1.212   0.729   3.196  0.6253  0.0909 -0.2684
  111DPPC   C46 5546   1.252   0.876   3.205  0.3438  0.1598 -0.1324
  111DPPC   C47 5547   1.274   0.922   3.349  0.1773  0.2940 -0.1498
  111DPPC   C48 5548   1.296   1.073   3.341  0.1330  0.3234  0.2545
  111DPPC   C49 5549   1.176   1.121   3.258 -0.0588 -0.3590  0.1321
  111DPPC   C50 5550   1.157   1.271   3.277  0.0373 -0.3812  0.4154
  112DPPC    C1 5551   4.890   8.075   1.783  0.1419 -0.8345  0.0219
  112DPPC    C2 5552   5.063   8.088   1.938  0.0366  0.8207 -0.8638
  112DPPC    C3 5553   4.850   8.095   2.025 -0.1136 -0.7856  0.3587
  112DPPC    N4 5554   4.929   8.031   1.918  0.2574 -0.1151  0.2262
  112DPPC    C5 5555   4.943   7.885   1.925 -0.0760 -0.1485  0.2068
  112DPPC    C6 5556   4.826   7.786   1.918  0.0324 -0.2227 -0.5866
  112DPPC    O7 5557   4.720   7.802   2.012  0.5361 -0.5271  0.0402
  112DPPC    P8 5558   4.616   7.680   2.005 -0.2599  0.1579 -0.1911
  112DPPC    O9 5559   4.606   7.626   1.868 -0.3408  0.0102 -0.1273
  112DPPC   O10 5560   4.495   7.717   2.083  0.1823  0.2218  0.4740
  112DPPC   O11 5561   4.701   7.567   2.082 -0.2549  0.5215  0.3446
  112DPPC   C12 5562   4.637   7.545   2.207 -0.1735 -0.5629  0.1987
  112DPPC   C13 5563   4.709   7.452   2.305  0.0381 -0.8883 -0.2611
  112DPPC   O14 5564   4.628   7.381   2.400 -0.0135 -0.1099  0.2842
  112DPPC   C15 5565   4.591   7.260   2.352 -0.2521  0.2019 -0.3216
  112DPPC   O16 5566   4.613   7.222   2.236  0.2179 -0.5458  0.0024
  112DPPC   C17 5567   4.544   7.162   2.459 -0.2051  0.1007 -0.3939
  112DPPC   C18 5568   4.624   7.171   2.589  0.0045 -0.1959 -0.5015
  112DPPC   C19 5569   4.575   7.084   2.705  0.0985  0.2175 -0.1502
  112DPPC   C20 5570   4.568   6.938   2.661  0.0690  0.1317  0.1400
  112DPPC   C21 5571   4.536   6.860   2.789  0.1410  0.5528  0.4162
  112DPPC   C22 5572   4.396   6.879   2.849  0.1519 -0.2098  0.6863
  112DPPC   C23 5573   4.366   6.764   2.946 -0.3278 -0.4175  0.2973
  112DPPC   C24 5574   4.239   6.800   3.024 -0.3608  0.3258 -0.0900
  112DPPC   C25 5575   4.119   6.835   2.935 -0.2082  0.0672 -0.4004
  112DPPC   C26 5576   3.992   6.846   3.020  0.1243 -0.0693  0.1254
  112DPPC   C27 5577   3.888   6.917   2.932  0.2347  0.5711  0.5089
  112DPPC   C28 5578   3.779   6.957   3.032 -0.3433  0.2538  0.0097
  112DPPC   C29 5579   3.684   7.061   2.973 -0.6588 -0.3710 -0.5927
  112DPPC   C30 5580   3.575   7.109   3.069  0.3804  0.6272  0.1064
  112DPPC   C31 5581   3.462   7.202   3.024  0.1834  0.3580  0.0404
  112DPPC   C32 5582   4.819   7.543   2.360 -0.4958 -0.3058 -0.1443
  112DPPC   O33 5583   4.931   7.479   2.423 -0.1950  0.3862  0.0318
  112DPPC   C34 5584   5.044   7.537   2.471  0.0720 -0.1260  0.0183
  112DPPC   O35 5585   5.079   7.651   2.444  0.4681 -0.3860 -0.5905
  112DPPC   C36 5586   5.134   7.444   2.553  0.1471  0.2064  0.3174
  112DPPC   C37 5587   5.179   7.514   2.682  0.7726  0.3212  0.0406
  112DPPC   C38 5588   5.269   7.427   2.770  0.2896 -0.1552  0.0676
  112DPPC   C39 5589   5.291   7.503   2.901 -0.1010  0.2823 -0.1158
  112DPPC   C40 5590   5.374   7.423   3.001  0.0406 -0.1440 -0.5681
  112DPPC   C41 5591   5.502   7.357   2.950  0.0991 -0.3818 -0.1231
  112DPPC   C42 5592   5.613   7.462   2.939 -0.3328  0.1018  0.0713
  112DPPC   C43 5593   5.710   7.439   3.055 -0.0255 -0.1100 -0.2240
  112DPPC   C44 5594   5.813   7.552   3.047 -0.1181 -0.0228 -0.1856
  112DPPC   C45 5595   5.883   7.551   3.183 -0.5315 -0.0728  0.0294
  112DPPC   C46 5596   5.944   7.690   3.207 -0.0610 -0.2883  0.0910
  112DPPC   C47 5597   5.992   7.699   3.352 -0.2821  0.0908  0.1422
  112DPPC   C48 5598   5.867   7.688   3.439 -0.3886  1.0114  0.1088
  112DPPC   C49 5599   5.916   7.676   3.583 -0.6046 -0.4607  0.0770
  112DPPC   C50 5600   5.806   7.718   3.680 -0.5765  0.1583 -0.1535
  113DPPC    C1 5601   0.932   1.572   1.530 -0.4658 -0.2413 -0.1451
  113DPPC    C2 5602   0.994   1.613   1.751 -0.0564  0.1868 -0.0386
  113DPPC    C3 5603   0.790   1.526   1.705  0.7738  0.4802 -0.3583
  113DPPC    N4 5604   0.931   1.513   1.665  0.7745 -0.2699 -0.1313
  113DPPC    C5 5605   0.980   1.375   1.678  0.6340 -0.2859  0.2532
  113DPPC    C6 5606   1.111   1.343   1.605  0.3406 -0.7070 -0.0899
  113DPPC    O7 5607   1.220   1.424   1.650 -0.0944 -0.2999  0.2434
  113DPPC    P8 5608   1.361   1.376   1.590 -0.0462  0.3061 -0.1403
  113DPPC    O9 5609   1.474   1.472   1.592  0.1552  0.0697 -0.0367
  113DPPC   O10 5610   1.336   1.300   1.465 -0.2418 -0.2210  0.2134
  113DPPC   O11 5611   1.381   1.277   1.716 -0.5606  0.4490  0.0570
  113DPPC   C12 5612   1.422   1.369   1.817 -0.3441  0.4634 -0.0438
  113DPPC   C13 5613   1.427   1.309   1.957  0.3745 -0.7068 -0.5522
  113DPPC   O14 5614   1.533   1.217   1.988  0.5388 -0.4550 -0.3662
  113DPPC   C15 5615   1.658   1.264   2.013  0.1386  0.4175  0.0516
  113DPPC   O16 5616   1.678   1.379   1.974 -0.0443  0.3738 -0.1686
  113DPPC   C17 5617   1.757   1.154   2.051 -0.3478  0.0446  0.2527
  113DPPC   C18 5618   1.869   1.196   2.147 -0.0977 -0.7568  0.3183
  113DPPC   C19 5619   1.808   1.202   2.287  0.1208 -0.0664  0.3863
  113DPPC   C20 5620   1.920   1.240   2.384  0.3173 -0.2327  0.2258
  113DPPC   C21 5621   1.868   1.238   2.527 -0.0766 -0.2596  0.0816
  113DPPC   C22 5622   1.983   1.245   2.627  0.0039  0.2191 -0.0420
  113DPPC   C23 5623   1.927   1.244   2.769 -0.1737 -0.3270 -0.1155
  113DPPC   C24 5624   2.040   1.240   2.873 -0.4040 -0.0765  0.1486
  113DPPC   C25 5625   1.987   1.227   3.016 -0.1721  0.0278  0.2443
  113DPPC   C26 5626   2.079   1.144   3.106 -0.2366 -0.3423 -0.0252
  113DPPC   C27 5627   2.009   1.128   3.241 -0.7381  0.5191 -0.1754
  113DPPC   C28 5628   1.867   1.075   3.221 -0.5612 -0.1244  0.2683
  113DPPC   C29 5629   1.851   0.928   3.179  0.4444 -0.3868  0.7687
  113DPPC   C30 5630   1.705   0.890   3.206  0.3118 -0.4424 -0.0034
  113DPPC   C31 5631   1.690   0.740   3.180  0.2890 -0.6112  0.9307
  113DPPC   C32 5632   1.293   1.243   1.994 -0.2184  0.6977 -0.1316
  113DPPC   O33 5633   1.194   1.338   2.033 -0.2174  0.7420 -0.2359
  113DPPC   C34 5634   1.079   1.270   2.061  0.0135  0.2698 -0.4341
  113DPPC   O35 5635   1.047   1.172   1.993  0.4708  0.2182 -0.5801
  113DPPC   C36 5636   0.975   1.362   2.124  0.1047  0.0614  0.0271
  113DPPC   C37 5637   0.911   1.299   2.247 -0.0714  0.2090  0.0124
  113DPPC   C38 5638   0.798   1.391   2.295 -0.2917 -0.1785  0.2447
  113DPPC   C39 5639   0.758   1.348   2.436  0.5801 -0.2442  0.4787
  113DPPC   C40 5640   0.667   1.455   2.496  0.1300 -0.2479 -0.1864
  113DPPC   C41 5641   0.598   1.416   2.627  0.2151 -0.0322 -0.0777
  113DPPC   C42 5642   0.708   1.364   2.721  0.2349  0.3022  0.0845
  113DPPC   C43 5643   0.657   1.365   2.866  0.2489 -0.2131  0.0922
  113DPPC   C44 5644   0.529   1.285   2.888 -0.2097  0.4849 -0.0249
  113DPPC   C45 5645   0.556   1.140   2.929  0.2455  0.5587 -0.0670
  113DPPC   C46 5646   0.429   1.062   2.961  0.3200  0.3136 -0.3579
  113DPPC   C47 5647   0.469   0.917   2.993 -0.4733  0.0139 -0.6912
  113DPPC   C48 5648   0.343   0.832   3.010 -0.7783  0.6303  0.1888
  113DPPC   C49 5649   0.381   0.689   3.050  0.3325  0.8329 -0.0889
  113DPPC   C50 5650   0.245   0.618   3.046  0.6941  0.1591 -0.7994
  114DPPC    C1 5651   1.114   3.976   1.754 -0.2778  0.0908 -1.0040
  114DPPC    C2 5652   1.209   4.041   1.539 -0.3265 -0.0209  0.0522
  114DPPC    C3 5653   1.155   4.201   1.703 -0.7658  0.1159 -0.7046
  114DPPC    N4 5654   1.208   4.065   1.684  0.2023  0.3862 -0.0094
  114DPPC    C5 5655   1.333   4.042   1.758 -0.2070 -0.0490  0.5605
  114DPPC    C6 5656   1.465   4.107   1.715 -0.3404  0.0660  0.3204
  114DPPC    O7 5657   1.574   4.056   1.792 -0.1952  0.5250  0.4195
  114DPPC    P8 5658   1.707   4.124   1.730 -0.1582 -0.0113 -0.0925
  114DPPC    O9 5659   1.671   4.171   1.595 -0.1921 -0.6489 -0.3104
  114DPPC   O10 5660   1.821   4.029   1.738  0.1409  0.3107 -0.5049
  114DPPC   O11 5661   1.713   4.242   1.839 -0.4872 -0.2665  0.2074
  114DPPC   C12 5662   1.752   4.173   1.958 -0.0619 -0.0369  0.2053
  114DPPC   C13 5663   1.693   4.241   2.081 -0.0309 -0.4361  0.4419
  114DPPC   O14 5664   1.742   4.181   2.202  0.8832 -0.3677  0.1118
  114DPPC   C15 5665   1.856   4.229   2.259  0.7157 -0.1697  0.2767
  114DPPC   O16 5666   1.938   4.283   2.185  0.3956 -0.2016 -0.1043
  114DPPC   C17 5667   1.905   4.166   2.389  0.3482  0.3768  0.6869
  114DPPC   C18 5668   1.990   4.041   2.364 -0.7720 -0.2487 -0.0757
  114DPPC   C19 5669   2.115   4.047   2.452 -0.5224 -0.0486 -0.4439
  114DPPC   C20 5670   2.203   3.923   2.448 -0.0469  0.2584  0.3862
  114DPPC   C21 5671   2.302   3.909   2.564  0.6279  1.0985 -0.0767
  114DPPC   C22 5672   2.225   3.927   2.695  0.2189 -0.0338 -0.1508
  114DPPC   C23 5673   2.325   3.962   2.805  0.1683  0.3853 -0.2375
  114DPPC   C24 5674   2.247   4.049   2.904  0.4379  0.6830 -0.2820
  114DPPC   C25 5675   2.347   4.125   2.991  0.4457  0.5814 -0.2011
  114DPPC   C26 5676   2.297   4.202   3.113 -0.1832  0.1714 -0.1980
  114DPPC   C27 5677   2.407   4.285   3.179  0.2750 -0.5744 -0.0150
  114DPPC   C28 5678   2.356   4.360   3.302 -0.4114 -0.1126 -0.5785
  114DPPC   C29 5679   2.470   4.434   3.372 -0.3818 -0.2342 -0.4975
  114DPPC   C30 5680   2.547   4.529   3.280 -0.4743  0.4762  0.1541
  114DPPC   C31 5681   2.657   4.581   3.372 -0.1121  0.0125 -0.0154
  114DPPC   C32 5682   1.545   4.213   2.057 -0.0465  0.2971 -0.3362
  114DPPC   O33 5683   1.453   4.312   2.106  0.1675  0.3844 -0.1084
  114DPPC   C34 5684   1.325   4.267   2.111  0.4003 -0.2434  0.4145
  114DPPC   O35 5685   1.286   4.198   2.016  0.4343  0.8148 -0.3825
  114DPPC   C36 5686   1.223   4.337   2.201 -0.1847 -0.4047 -0.1127
  114DPPC   C37 5687   1.165   4.240   2.305  0.3609 -0.6944 -0.0716
  114DPPC   C38 5688   1.074   4.313   2.404  0.2738 -0.3319 -0.4136
  114DPPC   C39 5689   1.016   4.201   2.490 -0.1167  0.0703 -0.1501
  114DPPC   C40 5690   1.118   4.144   2.589 -0.0075  0.3914 -0.0778
  114DPPC   C41 5691   1.056   4.041   2.684  0.1096  0.2830 -0.1191
  114DPPC   C42 5692   0.943   4.093   2.773  0.1214  0.3437 -0.1395
  114DPPC   C43 5693   1.002   4.190   2.876  0.2009 -0.2208  0.3545
  114DPPC   C44 5694   0.894   4.267   2.953  0.1015 -0.3680  0.3628
  114DPPC   C45 5695   0.959   4.394   3.009 -0.2765 -0.0499  0.0848
  114DPPC   C46 5696   0.869   4.481   3.096  0.2579  0.0922  0.4968
  114DPPC   C47 5697   0.793   4.576   3.004  0.3814 -0.1905  0.0996
  114DPPC   C48 5698   0.640   4.563   3.001  0.3950 -0.2482 -0.3870
  114DPPC   C49 5699   0.567   4.662   2.910 -0.1792 -0.3557 -0.0419
  114DPPC   C50 5700   0.419   4.623   2.909 -0.0647 -0.8085  0.2984
  115DPPC    C1 5701   3.999   3.202   2.098  0.1614 -0.0715 -0.1466
  115DPPC    C2 5702   3.900   3.342   1.937 -0.2984  0.0128  0.3829
  115DPPC    C3 5703   3.792   3.314   2.145 -0.0480  0.1620 -0.0423
  115DPPC    N4 5704   3.924   3.327   2.081  0.1394 -0.0233  0.3094
  115DPPC    C5 5705   4.008   3.432   2.140  0.2596  0.3682 -0.5500
  115DPPC    C6 5706   3.995   3.573   2.082  0.1433  0.5623 -0.0612
  115DPPC    O7 5707   3.875   3.640   2.121  0.0243 -0.2314  0.9634
  115DPPC    P8 5708   3.866   3.787   2.057 -0.0036 -0.4885  0.3716
  115DPPC    O9 5709   3.761   3.752   1.959 -0.0563  0.2400  0.1630
  115DPPC   O10 5710   4.011   3.806   2.034 -0.1429 -0.0971 -0.2188
  115DPPC   O11 5711   3.807   3.864   2.185  0.4795 -0.4244  0.5565
  115DPPC   C12 5712   3.927   3.885   2.259  0.4524 -0.1471  0.5254
  115DPPC   C13 5713   3.922   3.980   2.379 -0.1466 -0.0584  0.4304
  115DPPC   O14 5714   4.047   3.993   2.449  0.4686 -0.7028 -0.5235
  115DPPC   C15 5715   4.099   4.118   2.460 -0.3768 -0.4127  0.2549
  115DPPC   O16 5716   4.051   4.209   2.392 -0.6202 -0.6036  0.1712
  115DPPC   C17 5717   4.220   4.134   2.552  0.3606 -0.5953 -0.6799
  115DPPC   C18 5718   4.259   4.282   2.563  0.4165 -0.6340 -0.3394
  115DPPC   C19 5719   4.402   4.289   2.615  0.3795  0.4556 -0.3559
  115DPPC   C20 5720   4.440   4.431   2.655  0.3298  0.3619  0.0272
  115DPPC   C21 5721   4.577   4.443   2.722  0.3998 -0.4006  0.0244
  115DPPC   C22 5722   4.577   4.359   2.850 -0.3412 -0.6995 -0.1642
  115DPPC   C23 5723   4.722   4.326   2.887 -0.4728 -0.3696  0.6738
  115DPPC   C24 5724   4.742   4.313   3.038  0.0031 -0.1969  0.6281
  115DPPC   C25 5725   4.882   4.262   3.072  0.3088  0.4005  0.2603
  115DPPC   C26 5726   4.897   4.258   3.224  0.0058  0.5527  0.2943
  115DPPC   C27 5727   5.043   4.238   3.265  0.0994 -0.6024 -0.5547
  115DPPC   C28 5728   5.066   4.231   3.416 -0.0832  0.2595 -0.4819
  115DPPC   C29 5729   5.007   4.104   3.477  0.5244  0.3897  0.3899
  115DPPC   C30 5730   5.006   4.110   3.630 -0.0367  0.3029  0.3906
  115DPPC   C31 5731   4.882   4.190   3.670  0.0927  0.1271  1.1466
  115DPPC   C32 5732   3.796   3.928   2.448 -0.3054 -0.2074  0.0277
  115DPPC   O33 5733   3.753   4.005   2.560  0.0060 -0.1263  0.0925
  115DPPC   C34 5734   3.697   4.127   2.542 -0.0524 -0.1785 -0.0866
  115DPPC   O35 5735   3.676   4.186   2.436 -0.0382  0.2532  0.1486
  115DPPC   C36 5736   3.672   4.198   2.676 -0.7349 -0.0790 -0.2598
  115DPPC   C37 5737   3.780   4.183   2.784 -0.5970  0.0455 -0.3785
  115DPPC   C38 5738   3.783   4.050   2.859 -0.3842  0.3469  0.1553
  115DPPC   C39 5739   3.876   4.071   2.978  0.3579 -0.1879 -0.3240
  115DPPC   C40 5740   4.011   4.118   2.922  0.2435 -0.1078 -0.5345
  115DPPC   C41 5741   4.111   4.139   3.036 -0.2590 -0.1492 -0.0849
  115DPPC   C42 5742   4.077   4.262   3.120 -0.1000  0.4562 -0.9026
  115DPPC   C43 5743   4.161   4.240   3.246 -0.4500  0.1888 -0.7143
  115DPPC   C44 5744   4.132   4.354   3.344  0.1143  0.2836 -0.6547
  115DPPC   C45 5745   3.981   4.368   3.362  0.1445  0.1604 -0.3099
  115DPPC   C46 5746   3.949   4.486   3.454  0.0133  0.0052 -0.1537
  115DPPC   C47 5747   3.799   4.500   3.477  0.0983  0.5672  0.0706
  115DPPC   C48 5748   3.737   4.621   3.548  0.0875  0.3476  0.4355
  115DPPC   C49 5749   3.586   4.596   3.563  0.0767  0.0129 -0.1974
  115DPPC   C50 5750   3.511   4.701   3.644 -0.3248 -0.3469 -0.0980
  116DPPC    C1 5751   6.743   8.506   2.147  0.3666 -0.0046 -0.5563
  116DPPC    C2 5752   6.965   8.483   2.208 -0.4394  0.4464 -0.2539
  116DPPC    C3 5753   6.797   8.338   2.290  0.1463 -0.0216 -0.1715
  116DPPC    N4 5754   6.847   8.404   2.168  0.0653 -0.2697 -0.3410
  116DPPC    C5 5755   6.875   8.320   2.051 -0.2818 -0.2644 -0.4282
  116DPPC    C6 5756   6.768   8.214   2.025 -0.6333 -0.1056  0.3372
  116DPPC    O7 5757   6.783   8.094   2.101 -0.0939 -0.2402  0.0233
  116DPPC    P8 5758   6.663   7.991   2.070 -0.1389 -0.1430 -0.1271
  116DPPC    O9 5759   6.705   7.849   2.074  0.4407  0.0197 -0.3017
  116DPPC   O10 5760   6.591   8.045   1.953  0.0252  0.1481 -0.0944
  116DPPC   O11 5761   6.578   8.025   2.202  0.2115 -0.0256  0.0702
  116DPPC   C12 5762   6.573   7.915   2.294 -0.9341  0.1545  0.2382
  116DPPC   C13 5763   6.479   7.938   2.412 -0.3152 -0.1094  0.7864
  116DPPC   O14 5764   6.343   7.947   2.367 -0.0901  0.0585  0.1402
  116DPPC   C15 5765   6.227   7.967   2.434  0.0293  0.2557  0.2880
  116DPPC   O16 5766   6.118   7.962   2.378  0.2176  0.1334 -0.0698
  116DPPC   C17 5767   6.242   7.942   2.584 -0.2000 -0.1600  0.2454
  116DPPC   C18 5768   6.203   8.056   2.679 -0.0753  0.0539  0.0418
  116DPPC   C19 5769   6.252   8.013   2.817 -0.1565 -0.2817 -0.0324
  116DPPC   C20 5770   6.220   8.129   2.912  0.3243 -0.5176  0.4278
  116DPPC   C21 5771   6.323   8.238   2.883 -0.2542 -0.0123  0.2564
  116DPPC   C22 5772   6.291   8.358   2.973 -0.1484  0.0860  0.1652
  116DPPC   C23 5773   6.282   8.311   3.118  0.3530 -0.3883  0.0465
  116DPPC   C24 5774   6.298   8.427   3.217  0.3474  0.1696 -0.6033
  116DPPC   C25 5775   6.326   8.391   3.363 -0.1688  0.5110 -0.4144
  116DPPC   C26 5776   6.217   8.307   3.430  0.4477 -0.3180 -0.4328
  116DPPC   C27 5777   6.262   8.257   3.567 -0.2617 -0.0431 -0.0978
  116DPPC   C28 5778   6.177   8.137   3.612 -0.3664  0.1631  0.2587
  116DPPC   C29 5779   6.210   8.076   3.748  0.1175  0.0655  0.1003
  116DPPC   C30 5780   6.111   7.969   3.793 -0.2849 -0.1581 -1.2793
  116DPPC   C31 5781   5.971   8.024   3.824 -0.0431 -0.1109 -0.2291
  116DPPC   C32 5782   6.533   8.062   2.484 -0.4322  0.2894  0.1949
  116DPPC   O33 5783   6.650   8.018   2.553 -0.4606 -0.4843 -0.2396
  116DPPC   C34 5784   6.699   8.119   2.630 -0.6035 -0.1625 -0.5670
  116DPPC   O35 5785   6.629   8.217   2.652 -0.0553  0.0232  0.4013
  116DPPC   C36 5786   6.823   8.084   2.713 -0.6986  0.1421 -0.2987
  116DPPC   C37 5787   6.947   8.057   2.627 -0.3389  0.7403  0.0171
  116DPPC   C38 5788   7.066   8.031   2.720 -0.3135  0.0019 -0.2130
  116DPPC   C39 5789   7.090   8.132   2.832 -0.2399 -0.3488  0.0893
  116DPPC   C40 5790   7.193   8.093   2.937 -0.3418 -0.2628  0.2226
  116DPPC   C41 5791   7.322   8.044   2.869 -0.2453  0.0762  0.1626
  116DPPC   C42 5792   7.411   8.161   2.825  0.3059 -0.2441  0.4165
  116DPPC   C43 5793   7.488   8.237   2.932  0.1047  0.1380  0.2944
  116DPPC   C44 5794   7.625   8.173   2.957  0.2781  0.4359  0.1141
  116DPPC   C45 5795   7.694   8.233   3.080  0.3793  0.4956  0.0287
  116DPPC   C46 5796   7.720   8.382   3.056  0.4703  0.4362 -0.2459
  116DPPC   C47 5797   7.822   8.432   3.159  0.5125  0.6720 -0.4029
  116DPPC   C48 5798   7.756   8.476   3.290  0.2088  0.0622 -0.3459
  116DPPC   C49 5799   7.842   8.578   3.365 -0.3486  0.0110  0.3725
  116DPPC   C50 5800   7.976   8.519   3.410 -0.2019  0.1848  0.1678
  117DPPC    C1 5801   5.677   4.569   1.877 -0.4326 -0.2745 -0.4344
  117DPPC    C2 5802   5.816   4.608   1.707 -0.2903 -0.3067 -0.0754
  117DPPC    C3 5803   5.863   4.664   1.940  0.2844 -0.3673 -0.1424
  117DPPC    N4 5804   5.820   4.560   1.846 -0.3411 -0.2046 -0.0385
  117DPPC    C5 5805   5.856   4.419   1.868 -0.0245 -0.0846  0.2181
  117DPPC    C6 5806   5.983   4.369   1.798 -0.4510 -0.4532 -0.3048
  117DPPC    O7 5807   6.000   4.228   1.810 -0.2430 -0.4182 -0.1874
  117DPPC    P8 5808   6.128   4.190   1.720 -0.0269 -0.1384 -0.0011
  117DPPC    O9 5809   6.115   4.263   1.591 -0.2505 -0.1877 -0.0072
  117DPPC   O10 5810   6.189   4.056   1.728  0.2004 -0.0719 -0.5309
  117DPPC   O11 5811   6.237   4.277   1.799  0.2890 -0.3029 -0.2536
  117DPPC   C12 5812   6.290   4.212   1.915  0.2721  0.0737 -0.0335
  117DPPC   C13 5813   6.397   4.297   1.985  0.1421 -0.1995  0.5015
  117DPPC   O14 5814   6.493   4.224   2.062  0.4322  0.0385  0.3646
  117DPPC   C15 5815   6.591   4.149   2.004  0.0674 -0.4878  0.4249
  117DPPC   O16 5816   6.601   4.147   1.882  0.2230  0.1397  0.4235
  117DPPC   C17 5817   6.686   4.066   2.091  0.9450 -0.0316 -0.0824
  117DPPC   C18 5818   6.645   4.070   2.238 -0.0291  0.0110 -0.3461
  117DPPC   C19 5819   6.764   4.024   2.322 -0.2507 -0.3549 -0.2272
  117DPPC   C20 5820   6.766   4.058   2.472  0.0587 -0.3222 -0.2370
  117DPPC   C21 5821   6.831   3.950   2.559  0.5644  0.2264  0.0644
  117DPPC   C22 5822   6.777   3.813   2.521  0.1161  0.4453 -0.0965
  117DPPC   C23 5823   6.843   3.700   2.600 -0.4552 -0.1325 -0.4315
  117DPPC   C24 5824   6.824   3.726   2.750  0.1292  0.0448 -0.3843
  117DPPC   C25 5825   6.870   3.601   2.824 -0.8237  0.0857  0.2887
  117DPPC   C26 5826   6.786   3.480   2.781 -0.4527  0.0041 -0.2126
  117DPPC   C27 5827   6.699   3.424   2.894 -0.3838 -0.3505 -0.3367
  117DPPC   C28 5828   6.620   3.301   2.849  0.5886 -0.8401 -0.7377
  117DPPC   C29 5829   6.547   3.247   2.972 -0.0601 -0.0067 -0.7519
  117DPPC   C30 5830   6.426   3.158   2.945 -0.7832  0.6609  0.1955
  117DPPC   C31 5831   6.352   3.111   3.070 -0.1205 -0.0002  0.3540
  117DPPC   C32 5832   6.325   4.413   2.055  0.2216  0.1220  0.0567
  117DPPC   O33 5833   6.229   4.371   2.153  0.0471 -0.1515 -0.2309
  117DPPC   C34 5834   6.153   4.478   2.191  0.1908 -0.0742 -0.1598
  117DPPC   O35 5835   6.146   4.571   2.110 -0.1933 -0.0385 -0.0848
  117DPPC   C36 5836   6.054   4.445   2.302  0.1243  0.4138 -0.0725
  117DPPC   C37 5837   5.924   4.393   2.241 -0.0876  0.8946 -0.0348
  117DPPC   C38 5838   5.821   4.376   2.353  0.0962  0.0786  0.0193
  117DPPC   C39 5839   5.817   4.506   2.434 -0.0321  0.0886 -0.0021
  117DPPC   C40 5840   5.692   4.589   2.408 -0.1147 -0.1168 -0.2691
  117DPPC   C41 5841   5.695   4.701   2.512 -0.2370  0.0955 -0.4920
  117DPPC   C42 5842   5.700   4.635   2.650 -0.4061  0.2715 -0.4005
  117DPPC   C43 5843   5.658   4.741   2.753  0.1553  0.2074 -0.0977
  117DPPC   C44 5844   5.690   4.693   2.895 -0.1696 -0.1062 -0.1277
  117DPPC   C45 5845   5.681   4.799   3.005 -0.0899  0.0489 -0.2686
  117DPPC   C46 5846   5.708   4.727   3.137  0.0959  0.4359 -0.0970
  117DPPC   C47 5847   5.655   4.824   3.244 -0.3844 -0.0774  0.1414
  117DPPC   C48 5848   5.703   4.781   3.382 -0.0849  0.3998  0.1884
  117DPPC   C49 5849   5.671   4.632   3.382  0.0764  0.3647  0.4020
  117DPPC   C50 5850   5.716   4.578   3.518  0.3090  0.1169  0.2268
  118DPPC    C1 5851   4.637   0.160   1.552  0.2614 -0.3979 -0.2302
  118DPPC    C2 5852   4.864   0.110   1.579 -0.1408 -0.1126  0.0355
  118DPPC    C3 5853   4.764   0.340   1.637  0.6648  0.0405  0.0335
  118DPPC    N4 5854   4.755   0.193   1.633 -0.0186  0.0798 -0.0120
  118DPPC    C5 5855   4.743   0.162   1.776  0.1762  0.5572  0.1083
  118DPPC    C6 5856   4.719   0.017   1.819  0.2474  0.4202 -0.3076
  118DPPC    O7 5857   4.577  -0.002   1.819  0.3218 -0.1993  0.4275
  118DPPC    P8 5858   4.547  -0.154   1.863 -0.1373 -0.2502 -0.0554
  118DPPC    O9 5859   4.616  -0.232   1.758  0.1365 -0.1834  0.0733
  118DPPC   O10 5860   4.402  -0.170   1.890 -0.0808  0.2772  0.5710
  118DPPC   O11 5861   4.628  -0.143   2.001 -0.4205  0.0309  0.0905
  118DPPC   C12 5862   4.528  -0.134   2.103 -0.4206  0.7751  0.0258
  118DPPC   C13 5863   4.575  -0.119   2.248  0.5667  0.2214 -0.2285
  118DPPC   O14 5864   4.591  -0.244   2.316  0.0547  0.0195 -0.4695
  118DPPC   C15 5865   4.715  -0.256   2.371  0.0071 -0.1798 -0.4048
  118DPPC   O16 5866   4.788  -0.157   2.375  0.0710 -0.2334 -0.2470
  118DPPC   C17 5867   4.747  -0.382   2.452 -0.0911  0.1278  0.1151
  118DPPC   C18 5868   4.758  -0.515   2.377 -0.1887 -0.0485  0.4122
  118DPPC   C19 5869   4.848  -0.605   2.462 -0.2524 -0.7032 -0.1990
  118DPPC   C20 5870   4.781  -0.637   2.596  0.6781 -0.3747  0.3560
  118DPPC   C21 5871   4.733  -0.780   2.621  0.4851 -0.4105 -0.2127
  118DPPC   C22 5872   4.645  -0.801   2.744 -0.3560 -0.1926 -0.7615
  118DPPC   C23 5873   4.568  -0.932   2.762 -0.5753 -0.0085 -0.3360
  118DPPC   C24 5874   4.487  -0.940   2.892  0.4251 -0.4265  0.2739
  118DPPC   C25 5875   4.401  -1.065   2.880  0.1490 -0.2190  0.0747
  118DPPC   C26 5876   4.295  -1.094   2.986  0.1565 -0.1107  0.1111
  118DPPC   C27 5877   4.213  -1.220   2.960 -0.3201 -0.0721  1.3269
  118DPPC   C28 5878   4.126  -1.255   3.080 -1.3418  0.4698  0.7531
  118DPPC   C29 5879   4.202  -1.255   3.213 -0.3015 -0.2217  0.1678
  118DPPC   C30 5880   4.108  -1.260   3.334 -0.2239  0.1013  0.2406
  118DPPC   C31 5881   4.012  -1.377   3.311 -0.5186  0.2232  0.8295
  118DPPC   C32 5882   4.478  -0.019   2.311  0.2895  0.0440 -0.3694
  118DPPC   O33 5883   4.347  -0.074   2.331  0.5073  0.0324  1.1209
  118DPPC   C34 5884   4.259   0.024   2.365 -0.1405 -0.2255  0.2225
  118DPPC   O35 5885   4.289   0.139   2.397  0.3874 -0.2220 -0.2728
  118DPPC   C36 5886   4.117  -0.026   2.392 -0.2585 -0.0500 -0.0667
  118DPPC   C37 5887   4.133  -0.135   2.498  0.1835  0.3901  0.3252
  118DPPC   C38 5888   3.995  -0.187   2.539  0.3655 -0.2411  0.1316
  118DPPC   C39 5889   4.011  -0.294   2.647  0.1216 -0.3991  0.0127
  118DPPC   C40 5890   3.868  -0.330   2.687  0.2023 -0.5439  0.1756
  118DPPC   C41 5891   3.850  -0.443   2.789 -0.0447 -0.6638 -0.0004
  118DPPC   C42 5892   3.704  -0.440   2.833  0.0451  0.5423  0.2369
  118DPPC   C43 5893   3.667  -0.562   2.917 -0.0569  0.0997 -0.4475
  118DPPC   C44 5894   3.515  -0.563   2.928  0.0259  1.1483  1.0441
  118DPPC   C45 5895   3.477  -0.679   3.020 -0.5039  0.0409 -0.5432
  118DPPC   C46 5896   3.324  -0.689   3.020 -0.4845 -0.2994 -0.8512
  118DPPC   C47 5897   3.291  -0.809   3.110 -0.3130  0.0157 -0.3626
  118DPPC   C48 5898   3.273  -0.760   3.253  0.3949 -0.0948 -0.2289
  118DPPC   C49 5899   3.163  -0.654   3.267  0.3001 -0.2123 -0.0793
  118DPPC   C50 5900   3.038  -0.715   3.203  0.1929 -0.0303 -0.0414
  119DPPC    C1 5901   0.390   6.285   0.576  0.2409  0.1255  0.5513
  119DPPC    C2 5902   0.504   6.190   0.775  0.3512  0.0734  0.6501
  119DPPC    C3 5903   0.567   6.400   0.683  0.4164 -0.0330  0.7213
  119DPPC    N4 5904   0.454   6.309   0.706  0.3503 -0.0008  0.5216
  119DPPC    C5 5905   0.361   6.375   0.799  0.0122  0.3082 -0.0252
  119DPPC    C6 5906   0.218   6.323   0.812  0.1788 -0.2145 -0.2649
  119DPPC    O7 5907   0.157   6.371   0.932 -0.1277  0.0700 -0.5315
  119DPPC    P8 5908   0.031   6.274   0.959 -0.0217 -0.0509 -0.4708
  119DPPC    O9 5909   0.077   6.135   0.939 -0.0517 -0.1083 -0.1482
  119DPPC   O10 5910  -0.075   6.341   0.881 -0.0423  0.4774 -0.0032
  119DPPC   O11 5911   0.011   6.287   1.118  0.2067 -0.5189 -0.4016
  119DPPC   C12 5912   0.111   6.197   1.166  0.3736 -0.2004 -0.1520
  119DPPC   C13 5913   0.157   6.230   1.308 -0.4260  0.1061  0.0386
  119DPPC   O14 5914   0.071   6.201   1.420 -0.2499  0.1275  0.1801
  119DPPC   C15 5915   0.097   6.078   1.471 -0.2205 -0.0922 -0.3554
  119DPPC   O16 5916   0.196   6.018   1.430  0.0553  0.1859 -0.1003
  119DPPC   C17 5917   0.000   6.013   1.570 -0.2452  0.6429  0.1087
  119DPPC   C18 5918   0.028   6.051   1.716  0.2718  0.5896  0.0259
  119DPPC   C19 5919  -0.022   6.186   1.767 -0.1284  0.4749 -0.0581
  119DPPC   C20 5920   0.062   6.201   1.894 -0.4539 -0.1063  0.2282
  119DPPC   C21 5921   0.032   6.339   1.953 -0.1305  0.0361  0.0576
  119DPPC   C22 5922   0.115   6.345   2.081  0.0367 -0.6838 -0.0169
  119DPPC   C23 5923   0.073   6.458   2.175  0.1668 -0.4873 -0.1946
  119DPPC   C24 5924   0.131   6.438   2.315  0.2295 -0.0927 -0.1644
  119DPPC   C25 5925   0.283   6.451   2.315  0.2670 -0.5364 -0.3567
  119DPPC   C26 5926   0.326   6.445   2.461  0.3415  0.2233 -0.3448
  119DPPC   C27 5927   0.475   6.439   2.495  0.1258 -0.2399  0.5651
  119DPPC   C28 5928   0.568   6.532   2.416  0.0965 -0.0774  0.7201
  119DPPC   C29 5929   0.700   6.535   2.492  0.3687  0.0162  0.2497
  119DPPC   C30 5930   0.676   6.576   2.638 -0.1976  0.3523  0.0657
  119DPPC   C31 5931   0.802   6.555   2.722 -0.3911 -0.0905  0.2486
  119DPPC   C32 5932   0.204   6.375   1.294  0.1785 -0.0493  0.3988
  119DPPC   O33 5933   0.231   6.435   1.421  0.3028  0.4452  0.1436
  119DPPC   C34 5934   0.242   6.570   1.421  0.5055  0.4290  0.3028
  119DPPC   O35 5935   0.232   6.621   1.310 -0.2997  0.0408  0.1876
  119DPPC   C36 5936   0.226   6.654   1.548 -0.0197  0.5417  0.1631
  119DPPC   C37 5937   0.249   6.580   1.680  0.2383  0.6851  0.1997
  119DPPC   C38 5938   0.221   6.662   1.806 -0.6594  0.9047 -0.1300
  119DPPC   C39 5939   0.309   6.787   1.815 -0.0263  0.5016 -0.6106
  119DPPC   C40 5940   0.307   6.865   1.947 -0.0248  0.1724 -0.4143
  119DPPC   C41 5941   0.357   6.755   2.041 -0.4564 -0.1845 -0.5926
  119DPPC   C42 5942   0.307   6.803   2.177 -0.1656  0.0523 -0.5671
  119DPPC   C43 5943   0.387   6.929   2.212 -0.3671 -0.0099  0.1443
  119DPPC   C44 5944   0.333   6.983   2.344 -0.4104  0.7142 -0.1649
  119DPPC   C45 5945   0.381   7.122   2.385  0.0295  0.4203  0.3304
  119DPPC   C46 5946   0.321   7.162   2.520 -0.2880 -0.0107  0.3187
  119DPPC   C47 5947   0.191   7.240   2.503 -0.0743  0.2922  0.0543
  119DPPC   C48 5948   0.130   7.280   2.638 -0.3644  0.4171 -0.1137
  119DPPC   C49 5949   0.230   7.351   2.729 -0.2326  0.1222 -0.0256
  119DPPC   C50 5950   0.191   7.351   2.877 -0.5492  0.5368 -0.1059
  120DPPC    C1 5951   4.085   6.547   2.052  0.2414 -0.2775 -0.1260
  120DPPC    C2 5952   3.887   6.638   1.946 -0.0248 -0.1627  0.1908
  120DPPC    C3 5953   3.858   6.474   2.110 -0.3144 -0.1844 -0.4449
  120DPPC    N4 5954   3.944   6.586   2.071  0.2090 -0.4403 -0.0300
  120DPPC    C5 5955   3.943   6.689   2.176  0.0823 -0.0622 -0.3990
  120DPPC    C6 5956   4.036   6.810   2.179  0.4450 -0.3464 -0.1272
  120DPPC    O7 5957   4.020   6.896   2.292  0.7166 -0.1513 -0.2344
  120DPPC    P8 5958   4.157   6.978   2.316  0.5201 -0.0267  0.4772
  120DPPC    O9 5959   4.139   7.081   2.421  0.0879  0.3205  0.0669
  120DPPC   O10 5960   4.200   7.013   2.179 -0.3127 -0.5283  0.0734
  120DPPC   O11 5961   4.245   6.859   2.379  0.3777 -0.2126  0.3269
  120DPPC   C12 5962   4.202   6.840   2.514 -0.1343 -0.3222  0.1537
  120DPPC   C13 5963   4.121   6.712   2.530 -0.1237 -0.3011  0.3815
  120DPPC   O14 5964   4.007   6.728   2.617 -0.2235 -0.1830  0.2279
  120DPPC   C15 5965   3.885   6.699   2.564 -0.0127 -0.2445 -0.2360
  120DPPC   O16 5966   3.867   6.633   2.462 -0.5913  0.1772 -0.4086
  120DPPC   C17 5967   3.760   6.710   2.652 -0.0064 -0.2825 -0.2222
  120DPPC   C18 5968   3.737   6.574   2.717 -0.0171 -0.0016  0.3693
  120DPPC   C19 5969   3.602   6.555   2.788 -0.1031 -0.3608  0.1157
  120DPPC   C20 5970   3.580   6.661   2.896  0.3635  0.0407 -0.1737
  120DPPC   C21 5971   3.435   6.661   2.946  0.5053 -0.1543  0.2434
  120DPPC   C22 5972   3.432   6.767   3.057  0.2479 -0.2592  0.3350
  120DPPC   C23 5973   3.292   6.764   3.120  0.0164  0.0587 -0.1590
  120DPPC   C24 5974   3.279   6.885   3.213 -0.8153  0.0912 -0.3096
  120DPPC   C25 5975   3.154   6.862   3.298 -0.2019 -0.4255  0.4635
  120DPPC   C26 5976   3.157   6.726   3.369  0.0061 -0.0961  1.0959
  120DPPC   C27 5977   3.018   6.686   3.418 -0.3677 -0.2795 -0.0869
  120DPPC   C28 5978   3.019   6.697   3.570 -0.4040  0.0514 -0.1099
  120DPPC   C29 5979   2.897   6.639   3.643 -0.2614 -0.1052  0.0051
  120DPPC   C30 5980   2.795   6.749   3.672  0.1515  0.1926  0.3420
  120DPPC   C31 5981   2.674   6.704   3.755  0.3729 -0.5473  0.2730
  120DPPC   C32 5982   4.199   6.581   2.548  0.3107 -0.1438 -0.3343
  120DPPC   O33 5983   4.316   6.590   2.630 -0.1308  0.1187  0.2787
  120DPPC   C34 5984   4.377   6.470   2.645 -0.3765  0.0827  1.0303
  120DPPC   O35 5985   4.337   6.372   2.581 -0.2757  0.3298  0.5866
  120DPPC   C36 5986   4.497   6.441   2.737  0.0897  0.2786  0.4895
  120DPPC   C37 5987   4.458   6.430   2.884 -0.5270 -0.1755  0.2953
  120DPPC   C38 5988   4.574   6.402   2.979 -0.3146  0.2092  0.1480
  120DPPC   C39 5989   4.666   6.525   2.972 -0.4008  0.2633 -0.0385
  120DPPC   C40 5990   4.790   6.521   3.061 -0.1843 -0.2929 -0.3611
  120DPPC   C41 5991   4.851   6.661   3.077  0.1430 -0.3978 -0.6642
  120DPPC   C42 5992   4.881   6.727   2.943 -0.2393  0.2556 -0.4274
  120DPPC   C43 5993   4.915   6.875   2.959 -0.4808  0.2714 -0.0535
  120DPPC   C44 5994   4.923   6.941   2.821  0.8011 -0.1363 -0.1917
  120DPPC   C45 5995   4.960   7.089   2.825 -0.0266  0.0680  0.2264
  120DPPC   C46 5996   4.883   7.174   2.927 -0.5441  0.4036 -0.4350
  120DPPC   C47 5997   4.965   7.300   2.956 -0.2401  0.1025  0.0315
  120DPPC   C48 5998   4.888   7.396   3.047 -0.0659  0.5907 -0.3315
  120DPPC   C49 5999   4.985   7.507   3.086  0.4710 -0.1250  0.4047
  120DPPC   C50 6000   4.919   7.609   3.179 -0.0017 -0.1598  0.1107
  121DPPC    C1 6001   7.191   3.257   2.186  0.6214  0.0140 -0.9288
  121DPPC    C2 6002   7.241   3.072   2.317  0.4161 -0.2008  0.1291
  121DPPC    C3 6003   7.083   3.047   2.131  0.3461 -0.2748 -0.1855
  121DPPC    N4 6004   7.206   3.111   2.180  0.0889 -0.0998  0.2419
  121DPPC    C5 6005   7.315   3.063   2.094 -0.0781 -0.3819  0.1884
  121DPPC    C6 6006   7.348   3.135   1.963 -0.5309 -0.1912  0.1761
  121DPPC    O7 6007   7.476   3.086   1.922 -0.2906  0.2879  0.3470
  121DPPC    P8 6008   7.518   3.132   1.774  0.1706 -0.0049  0.3852
  121DPPC    O9 6009   7.405   3.183   1.694  0.1101 -0.2424  0.3211
  121DPPC   O10 6010   7.613   3.035   1.714  0.0630  0.0671  0.0958
  121DPPC   O11 6011   7.614   3.255   1.818  0.0668  0.3154 -0.2721
  121DPPC   C12 6012   7.728   3.209   1.891 -0.1153  0.1872 -0.0667
  121DPPC   C13 6013   7.767   3.289   2.016  0.3900 -0.2092  0.0296
  121DPPC   O14 6014   7.890   3.248   2.078  0.6409 -0.3962 -0.5862
  121DPPC   C15 6015   7.991   3.339   2.080  0.0035  0.3097 -0.0870
  121DPPC   O16 6016   7.996   3.428   1.994 -0.1829 -0.0098 -0.4338
  121DPPC   C17 6017   8.111   3.316   2.171 -0.0192  0.5095 -0.0076
  121DPPC   C18 6018   8.107   3.410   2.293  0.1604 -0.0930  0.4674
  121DPPC   C19 6019   8.002   3.360   2.392 -0.2974  0.0076  0.0409
  121DPPC   C20 6020   8.021   3.436   2.524  0.3304 -0.4374  0.2089
  121DPPC   C21 6021   7.973   3.359   2.648 -0.0598  0.2187  0.4683
  121DPPC   C22 6022   8.006   3.448   2.769 -0.0528  0.1096  0.5465
  121DPPC   C23 6023   7.927   3.408   2.894 -0.4604  0.6121  0.4527
  121DPPC   C24 6024   7.779   3.438   2.871 -0.6044 -0.0672  0.4628
  121DPPC   C25 6025   7.697   3.389   2.990 -0.4349 -0.0620  0.5809
  121DPPC   C26 6026   7.749   3.442   3.124  0.7590 -0.1749  0.1795
  121DPPC   C27 6027   7.702   3.584   3.154  0.0268 -0.5069  0.6412
  121DPPC   C28 6028   7.779   3.636   3.276 -0.4422  0.9581  0.3320
  121DPPC   C29 6029   7.921   3.655   3.223 -0.4003 -0.6075 -0.1603
  121DPPC   C30 6030   8.014   3.699   3.336 -0.0821 -0.8208 -0.3366
  121DPPC   C31 6031   8.019   3.599   3.452  0.3666 -0.5808 -0.1479
  121DPPC   C32 6032   7.657   3.275   2.122 -0.3142  0.8028 -0.5553
  121DPPC   O33 6033   7.654   3.387   2.210 -0.4715  0.0242  0.4451
  121DPPC   C34 6034   7.571   3.365   2.315  0.0488 -0.8491  0.6840
  121DPPC   O35 6035   7.464   3.304   2.302 -0.0438 -0.4270 -0.7025
  121DPPC   C36 6036   7.608   3.430   2.449 -0.4055 -0.3733  0.5846
  121DPPC   C37 6037   7.622   3.580   2.427  0.4954 -0.5208  0.0543
  121DPPC   C38 6038   7.699   3.649   2.540  0.4205  0.8587 -0.7056
  121DPPC   C39 6039   7.729   3.798   2.524  0.2137  0.9526 -0.2679
  121DPPC   C40 6040   7.812   3.832   2.648  0.5398 -0.5541 -0.0484
  121DPPC   C41 6041   7.857   3.978   2.636 -0.0846 -0.3286  0.3066
  121DPPC   C42 6042   7.926   4.015   2.768  0.1414  0.4980 -0.0359
  121DPPC   C43 6043   7.830   4.000   2.887  0.4071 -0.0722  0.1103
  121DPPC   C44 6044   7.893   4.067   3.009 -0.4200  0.4795  0.2362
  121DPPC   C45 6045   7.798   4.081   3.129 -0.3777  0.3463  0.2849
  121DPPC   C46 6046   7.883   4.142   3.241 -0.0947 -0.1501  0.3458
  121DPPC   C47 6047   7.809   4.159   3.374 -0.2849 -0.4001  0.2719
  121DPPC   C48 6048   7.909   4.188   3.486  0.1327 -0.2260 -0.1452
  121DPPC   C49 6049   7.842   4.197   3.623  0.3866 -0.1218 -0.0284
  121DPPC   C50 6050   7.952   4.251   3.715 -0.3028  0.5822  0.3974
  122DPPC    C1 6051   6.857   6.598   1.575  0.0639  0.4463  0.0537
  122DPPC    C2 6052   7.090   6.612   1.528 -0.2400 -0.3244  0.4271
  122DPPC    C3 6053   6.936   6.758   1.431 -0.3686 -0.3440 -0.3875
  122DPPC    N4 6054   6.969   6.691   1.557  0.0862  0.3879 -0.1133
  122DPPC    C5 6055   6.973   6.777   1.677 -0.1522 -0.5283  0.5675
  122DPPC    C6 6056   7.094   6.866   1.704  0.0116 -0.5446 -0.0877
  122DPPC    O7 6057   7.107   6.980   1.619 -0.1490 -0.0055  0.6029
  122DPPC    P8 6058   7.267   6.999   1.625 -0.1444  0.1770 -0.0272
  122DPPC    O9 6059   7.288   7.125   1.550 -0.0516  0.1962  0.0314
  122DPPC   O10 6060   7.318   6.865   1.592  0.0780  0.1581  0.3840
  122DPPC   O11 6061   7.286   7.044   1.779 -0.0763 -0.2130  0.0800
  122DPPC   C12 6062   7.227   7.167   1.823 -0.1709 -0.2403  0.0302
  122DPPC   C13 6063   7.278   7.208   1.962  0.1532  0.1602 -0.2041
  122DPPC   O14 6064   7.416   7.236   1.985 -0.1004  0.4893  1.0105
  122DPPC   C15 6065   7.468   7.356   1.948 -0.1419  0.2017 -0.0173
  122DPPC   O16 6066   7.403   7.438   1.882 -0.4687 -0.1026 -0.0773
  122DPPC   C17 6067   7.595   7.397   2.022 -0.0749  0.2299 -0.1466
  122DPPC   C18 6068   7.580   7.388   2.174  0.2480  0.4395 -0.1023
  122DPPC   C19 6069   7.716   7.437   2.225  0.3552 -0.0779  0.1149
  122DPPC   C20 6070   7.709   7.443   2.377  0.1045  0.1965  0.0929
  122DPPC   C21 6071   7.851   7.443   2.436  0.4254  0.2755 -0.6761
  122DPPC   C22 6072   7.918   7.306   2.441 -0.3327 -0.0763 -0.0719
  122DPPC   C23 6073   8.055   7.320   2.508 -0.5860  0.3894  0.3600
  122DPPC   C24 6074   8.078   7.179   2.563  0.7076  0.3151 -0.3175
  122DPPC   C25 6075   8.196   7.166   2.659  0.1930  0.3623  0.3301
  122DPPC   C26 6076   8.197   7.018   2.700 -0.1390  0.2253 -0.1611
  122DPPC   C27 6077   8.292   7.003   2.819 -0.3418  0.2124 -0.0003
  122DPPC   C28 6078   8.258   7.109   2.923 -0.2794 -0.0788  0.3168
  122DPPC   C29 6079   8.331   7.086   3.056  0.2513  0.2218  0.0819
  122DPPC   C30 6080   8.320   7.212   3.141 -0.0928  0.3490 -0.1486
  122DPPC   C31 6081   8.366   7.193   3.286 -0.0092 -0.3238 -0.2627
  122DPPC   C32 6082   7.238   7.084   2.042 -0.5445  0.5540  0.0651
  122DPPC   O33 6083   7.095   7.083   2.049 -0.5615  0.1974 -0.3404
  122DPPC   C34 6084   7.037   6.985   2.123 -0.0183 -0.3374 -0.6102
  122DPPC   O35 6085   7.091   6.875   2.125  0.3446 -0.1507  0.1994
  122DPPC   C36 6086   6.887   7.002   2.150  0.1849  0.3492  0.1090
  122DPPC   C37 6087   6.859   6.976   2.298  0.0312 -0.1171 -0.0010
  122DPPC   C38 6088   6.842   6.826   2.319  0.4263 -0.1928 -0.2151
  122DPPC   C39 6089   6.812   6.805   2.468 -0.3300 -0.0368 -0.3378
  122DPPC   C40 6090   6.933   6.838   2.556 -0.4633  0.2450 -0.2610
  122DPPC   C41 6091   6.894   6.813   2.701  0.3866  0.2895 -0.0219
  122DPPC   C42 6092   7.005   6.833   2.805  0.4389  0.2320 -0.0666
  122DPPC   C43 6093   7.059   6.975   2.815  0.1794  0.3117  0.2227
  122DPPC   C44 6094   7.195   6.987   2.885  0.2181 -0.6249  0.3157
  122DPPC   C45 6095   7.180   6.925   3.025 -0.4191 -0.2859  0.3994
  122DPPC   C46 6096   7.310   6.937   3.104 -0.3466  0.6221  0.1631
  122DPPC   C47 6097   7.336   6.817   3.196  0.0751  0.6964  0.1421
  122DPPC   C48 6098   7.461   6.829   3.285  0.2307 -0.6553  0.1165
  122DPPC   C49 6099   7.581   6.779   3.205  0.3418 -0.4470  0.1527
  122DPPC   C50 6100   7.705   6.823   3.284  0.2551 -0.2316  0.1700
  123DPPC    C1 6101   8.081   8.134   1.813 -0.0238  0.1530  0.0532
  123DPPC    C2 6102   7.897   8.239   1.729  0.0559 -0.0316 -0.4102
  123DPPC    C3 6103   8.012   8.130   1.583 -0.7408 -0.1675 -0.1978
  123DPPC    N4 6104   7.968   8.110   1.722  0.0192 -0.0823  0.0595
  123DPPC    C5 6105   7.888   7.989   1.745  0.4451 -0.4048 -0.1428
  123DPPC    C6 6106   7.958   7.855   1.723  0.5428 -0.4682  0.5263
  123DPPC    O7 6107   7.868   7.746   1.702 -0.3240  0.3000  0.1678
  123DPPC    P8 6108   7.956   7.630   1.632 -0.1809  0.1279  0.6287
  123DPPC    O9 6109   8.018   7.717   1.529 -0.2767  0.3391  0.7480
  123DPPC   O10 6110   7.857   7.523   1.607  0.4939 -0.4067  0.2164
  123DPPC   O11 6111   8.045   7.602   1.764 -0.1142 -0.1545  0.5232
  123DPPC   C12 6112   7.994   7.476   1.811  0.2466 -0.4864  0.0397
  123DPPC   C13 6113   8.076   7.436   1.934  0.3377 -0.1766  0.0828
  123DPPC   O14 6114   8.016   7.316   1.984  0.3466 -0.0087  0.5006
  123DPPC   C15 6115   8.079   7.200   1.951  0.4141  0.0811  0.3096
  123DPPC   O16 6116   8.150   7.193   1.852  0.0181 -0.8372  0.0728
  123DPPC   C17 6117   8.008   7.072   1.997  0.0102  0.3418  0.4149
  123DPPC   C18 6118   8.106   6.975   2.062  0.4611 -0.0179 -0.7816
  123DPPC   C19 6119   8.036   6.852   2.121 -0.7146  0.9212 -0.1942
  123DPPC   C20 6120   8.139   6.779   2.207 -0.8284  0.6467 -0.2893
  123DPPC   C21 6121   8.132   6.814   2.356  0.0990  0.4830 -0.2008
  123DPPC   C22 6122   8.040   6.732   2.447  0.8072  0.0593  0.1406
  123DPPC   C23 6123   8.054   6.581   2.426  0.7387 -0.0309  0.7459
  123DPPC   C24 6124   7.937   6.526   2.509  0.0103 -0.1148 -0.3206
  123DPPC   C25 6125   7.916   6.375   2.498  0.2908 -0.1987  0.2644
  123DPPC   C26 6126   7.799   6.328   2.586  0.1390 -0.0921  0.1214
  123DPPC   C27 6127   7.755   6.185   2.555 -0.2174  0.0264  0.0824
  123DPPC   C28 6128   7.661   6.123   2.658 -0.0901 -0.2499  0.0331
  123DPPC   C29 6129   7.747   6.120   2.784  0.1485  0.0768 -0.1209
  123DPPC   C30 6130   7.694   6.036   2.901 -0.3445  0.5793  0.0238
  123DPPC   C31 6131   7.771   6.054   3.032 -0.1256 -0.3257  0.0254
  123DPPC   C32 6132   8.059   7.555   2.028  0.9501  0.2601 -0.3535
  123DPPC   O33 6133   8.182   7.599   2.087  0.6223  0.0579  0.4953
  123DPPC   C34 6134   8.158   7.699   2.176 -0.1428  0.3102  0.0164
  123DPPC   O35 6135   8.066   7.700   2.257  0.5239  0.2504  0.7851
  123DPPC   C36 6136   8.290   7.777   2.188 -0.1112  0.2000  0.3853
  123DPPC   C37 6137   8.328   7.809   2.332  0.4186  0.2980  0.2230
  123DPPC   C38 6138   8.363   7.685   2.415  0.1261  0.0564 -0.0147
  123DPPC   C39 6139   8.373   7.710   2.565 -0.3413  0.2758 -0.0194
  123DPPC   C40 6140   8.409   7.585   2.645 -0.3817  0.4150  0.2184
  123DPPC   C41 6141   8.383   7.603   2.795 -0.3138  0.8126  0.1822
  123DPPC   C42 6142   8.247   7.549   2.838 -0.0599 -0.0162 -0.0410
  123DPPC   C43 6143   8.248   7.589   2.985 -0.3606  0.2931 -0.1214
  123DPPC   C44 6144   8.108   7.569   3.043 -0.1084 -0.2307  0.3202
  123DPPC   C45 6145   8.109   7.601   3.193 -0.1450 -0.1295  0.2993
  123DPPC   C46 6146   8.165   7.743   3.199  0.2651 -0.2806  0.1492
  123DPPC   C47 6147   8.184   7.763   3.349  0.0223 -0.0598  0.1534
  123DPPC   C48 6148   8.250   7.638   3.409 -0.3097 -0.3232 -0.0253
  123DPPC   C49 6149   8.299   7.663   3.552 -0.1634 -0.3657 -0.0671
  123DPPC   C50 6150   8.189   7.679   3.658  0.2612 -0.1528  0.3448
  124DPPC    C1 6151   6.318   3.413   2.089  0.3686 -0.2495 -0.6472
  124DPPC    C2 6152   6.294   3.253   2.253 -0.4887 -0.2990  0.1912
  124DPPC    C3 6153   6.115   3.291   2.094  0.0442 -0.7851 -1.0305
  124DPPC    N4 6154   6.260   3.280   2.113 -0.0279  0.0576  0.1444
  124DPPC    C5 6155   6.309   3.179   2.018 -0.2251 -0.1456  0.2582
  124DPPC    C6 6156   6.458   3.179   1.984 -0.2365  0.2126  0.2097
  124DPPC    O7 6157   6.553   3.183   2.091 -0.0517 -0.0377  0.0561
  124DPPC    P8 6158   6.701   3.181   2.028 -0.0965  0.0844 -0.0537
  124DPPC    O9 6159   6.688   3.247   1.896  0.4898 -0.1551 -0.2338
  124DPPC   O10 6160   6.785   3.059   2.038 -0.5929 -0.2379  0.2255
  124DPPC   O11 6161   6.761   3.278   2.141  0.0594  0.2030 -0.2388
  124DPPC   C12 6162   6.775   3.216   2.269  0.3493  0.6052 -0.0713
  124DPPC   C13 6163   6.811   3.313   2.381  0.6785  0.5219 -0.1053
  124DPPC   O14 6164   6.806   3.249   2.510  0.1704  0.1714 -0.2945
  124DPPC   C15 6165   6.912   3.170   2.541  0.0686  0.3679  0.5753
  124DPPC   O16 6166   7.001   3.157   2.458 -0.6730  0.3937 -0.2407
  124DPPC   C17 6167   6.926   3.104   2.679 -0.4548 -0.0910  0.4135
  124DPPC   C18 6168   7.068   3.109   2.736 -0.2276 -0.2327 -0.1329
  124DPPC   C19 6169   7.069   3.074   2.885  0.0973 -0.3644 -0.1656
  124DPPC   C20 6170   6.979   3.160   2.974  0.0446 -1.0211  0.4231
  124DPPC   C21 6171   6.989   3.115   3.120 -0.8654 -0.4617  0.6651
  124DPPC   C22 6172   6.909   3.198   3.220 -0.4673  0.1249  0.5040
  124DPPC   C23 6173   6.907   3.147   3.364  0.4719 -0.4134  0.3323
  124DPPC   C24 6174   6.781   3.209   3.424  0.3787 -0.3535  0.0766
  124DPPC   C25 6175   6.660   3.185   3.334  0.0270 -0.0480  0.4571
  124DPPC   C26 6176   6.530   3.222   3.405  0.1127  0.4713  0.3482
  124DPPC   C27 6177   6.522   3.374   3.405 -0.0440  0.4635  0.5207
  124DPPC   C28 6178   6.405   3.407   3.497 -0.4991 -0.5993  0.3389
  124DPPC   C29 6179   6.405   3.540   3.574 -0.0414 -0.2285 -0.2969
  124DPPC   C30 6180   6.293   3.538   3.678  0.1558  0.7009 -0.0586
  124DPPC   C31 6181   6.338   3.497   3.819 -0.2073  0.0768 -0.1196
  124DPPC   C32 6182   6.724   3.438   2.372  0.0265  0.1085  0.3454
  124DPPC   O33 6183   6.581   3.442   2.382 -0.0449 -0.2215 -0.4893
  124DPPC   C34 6184   6.542   3.572   2.371 -0.3206 -0.2897 -0.3107
  124DPPC   O35 6185   6.591   3.639   2.281  0.4110 -0.5402 -0.1046
  124DPPC   C36 6186   6.436   3.621   2.470  0.1045  0.1946 -0.0937
  124DPPC   C37 6187   6.427   3.536   2.597 -0.5429  0.2001 -0.1350
  124DPPC   C38 6188   6.312   3.584   2.686 -0.5826 -0.0363 -0.0580
  124DPPC   C39 6189   6.294   3.489   2.804  0.2090 -0.2937 -0.1351
  124DPPC   C40 6190   6.156   3.503   2.869  0.2860 -0.6240  0.1012
  124DPPC   C41 6191   6.144   3.450   3.012 -0.1211 -0.5706  0.0879
  124DPPC   C42 6192   5.996   3.434   3.049 -0.3890  0.5170 -0.4851
  124DPPC   C43 6193   5.969   3.410   3.198  0.2845 -0.1518 -0.4650
  124DPPC   C44 6194   5.935   3.262   3.215 -0.1544  0.0016  0.0154
  124DPPC   C45 6195   5.918   3.244   3.366  0.7312 -0.2941  0.0855
  124DPPC   C46 6196   5.931   3.094   3.391 -0.7448 -0.5237 -0.4473
  124DPPC   C47 6197   5.899   3.064   3.537  0.0630  0.1757 -0.1175
  124DPPC   C48 6198   5.907   2.913   3.564  0.0032  0.1028 -0.5055
  124DPPC   C49 6199   5.814   2.870   3.677  0.2291 -0.1489 -0.4145
  124DPPC   C50 6200   5.838   2.721   3.702 -0.3243 -0.1204  0.3371
  125DPPC    C1 6201   2.375   0.089   1.482 -0.0124  0.5935 -0.2168
  125DPPC    C2 6202   2.247   0.204   1.650 -0.3302  0.4257 -0.8579
  125DPPC    C3 6203   2.148   0.116   1.462 -0.4850  0.3236  0.6748
  125DPPC    N4 6204   2.252   0.087   1.561  0.0964 -0.1676 -0.0652
  125DPPC    C5 6205   2.235  -0.033   1.646 -0.4621 -0.0136  0.0439
  125DPPC    C6 6206   2.239  -0.168   1.574 -0.1354 -0.2558  0.5185
  125DPPC    O7 6207   2.114  -0.203   1.513 -0.1273  0.0402  0.3325
  125DPPC    P8 6208   2.135  -0.327   1.414  0.0110  0.6522 -0.4117
  125DPPC    O9 6209   2.266  -0.303   1.349  0.4215 -0.4047 -0.0135
  125DPPC   O10 6210   2.009  -0.340   1.337 -0.0669 -0.1857 -0.1548
  125DPPC   O11 6211   2.137  -0.429   1.539 -0.4596  0.3972 -0.6100
  125DPPC   C12 6212   2.001  -0.470   1.558 -0.1730 -0.2000  0.1868
  125DPPC   C13 6213   1.974  -0.532   1.695  0.2342 -0.1545  0.2891
  125DPPC   O14 6214   1.897  -0.451   1.784 -0.3180 -0.3007 -0.0549
  125DPPC   C15 6215   1.765  -0.442   1.751 -0.3670 -0.3665  0.1210
  125DPPC   O16 6216   1.701  -0.525   1.686 -0.3982 -0.0301 -0.2812
  125DPPC   C17 6217   1.699  -0.335   1.838 -0.4126 -0.1210 -0.2123
  125DPPC   C18 6218   1.634  -0.404   1.958 -0.0666  0.1778  0.1507
  125DPPC   C19 6219   1.555  -0.298   2.034 -0.7055 -0.2529  0.0927
  125DPPC   C20 6220   1.634  -0.210   2.131 -0.0134 -0.1319 -0.5749
  125DPPC   C21 6221   1.544  -0.100   2.188  0.6585  0.1875 -0.1171
  125DPPC   C22 6222   1.621  -0.031   2.301  0.7044  0.1454 -0.1224
  125DPPC   C23 6223   1.518   0.054   2.377  0.1955 -0.0033 -0.6317
  125DPPC   C24 6224   1.400  -0.040   2.399 -0.1933  0.7073  0.3625
  125DPPC   C25 6225   1.286   0.026   2.478 -0.5755  0.4931 -0.0076
  125DPPC   C26 6226   1.327   0.080   2.615 -0.5761 -0.5000  0.3947
  125DPPC   C27 6227   1.219   0.167   2.678  0.1476  0.5584  0.2116
  125DPPC   C28 6228   1.108   0.072   2.724  0.1189  0.3664 -0.2468
  125DPPC   C29 6229   0.981   0.153   2.748  0.0447  0.2185 -0.1356
  125DPPC   C30 6230   0.864   0.072   2.805 -0.0513  0.3139 -0.1956
  125DPPC   C31 6231   0.744   0.166   2.819 -0.2763  0.0337 -0.2436
  125DPPC   C32 6232   2.111  -0.562   1.757  0.1885  0.0273  0.4796
  125DPPC   O33 6233   2.115  -0.636   1.879  0.2689 -0.5436  0.1348
  125DPPC   C34 6234   2.239  -0.657   1.933  0.2814 -0.0815  0.2883
  125DPPC   O35 6235   2.337  -0.662   1.859  0.4903  0.0027  0.5582
  125DPPC   C36 6236   2.235  -0.710   2.076  0.0168  0.0083  0.3141
  125DPPC   C37 6237   2.146  -0.624   2.166  0.0451 -0.0789  0.4243
  125DPPC   C38 6238   2.215  -0.494   2.208 -0.1192  0.1245  0.0699
  125DPPC   C39 6239   2.355  -0.529   2.260 -0.0676  0.0972 -0.0871
  125DPPC   C40 6240   2.433  -0.399   2.284 -0.4290  0.2402  0.3318
  125DPPC   C41 6241   2.361  -0.296   2.370 -0.4594  0.1559  0.4059
  125DPPC   C42 6242   2.460  -0.194   2.427 -0.5332  0.2301  0.4031
  125DPPC   C43 6243   2.370  -0.099   2.507 -0.4617  0.3972  0.2854
  125DPPC   C44 6244   2.456   0.017   2.557  0.3772 -0.2838  0.4547
  125DPPC   C45 6245   2.523   0.096   2.445  0.1097 -0.3393  0.2542
  125DPPC   C46 6246   2.580   0.226   2.501  0.1290 -0.2793  0.0969
  125DPPC   C47 6247   2.460   0.286   2.575  0.0927 -0.0119 -0.1768
  125DPPC   C48 6248   2.492   0.423   2.634  0.0851 -0.0957  0.0203
  125DPPC   C49 6249   2.380   0.457   2.732  0.0062 -0.0144 -0.0988
  125DPPC   C50 6250   2.432   0.567   2.825  0.4767  0.0670 -0.4576
  126DPPC    C1 6251   6.532   3.827   1.726  0.1383 -0.0759 -0.1583
  126DPPC    C2 6252   6.498   3.986   1.566 -0.5267 -0.0847  0.6839
  126DPPC    C3 6253   6.555   3.771   1.483  0.0531  0.1026 -0.0813
  126DPPC    N4 6254   6.481   3.841   1.589 -0.2227 -0.2394 -0.0438
  126DPPC    C5 6255   6.338   3.813   1.573 -0.0603 -0.5290 -1.0375
  126DPPC    C6 6256   6.282   3.681   1.628 -0.4048  0.0152 -0.0710
  126DPPC    O7 6257   6.144   3.651   1.610 -0.2641 -0.2948 -0.6520
  126DPPC    P8 6258   6.075   3.517   1.666 -0.4128 -0.0134 -0.1511
  126DPPC    O9 6259   6.182   3.445   1.739 -0.3736  0.0082 -0.1867
  126DPPC   O10 6260   6.008   3.475   1.541  0.0506  0.3494 -0.5259
  126DPPC   O11 6261   5.979   3.590   1.772 -0.0085 -0.2507  0.3844
  126DPPC   C12 6262   6.031   3.640   1.896 -0.2991  0.2329  0.3155
  126DPPC   C13 6263   6.083   3.783   1.888  0.5040 -0.0777 -0.0980
  126DPPC   O14 6264   6.140   3.829   2.012 -0.1869  0.3941  0.0516
  126DPPC   C15 6265   6.268   3.797   2.044 -0.1853 -0.0300 -0.3693
  126DPPC   O16 6266   6.335   3.714   1.982 -0.9480 -0.5436 -0.5292
  126DPPC   C17 6267   6.317   3.874   2.166  0.4089  0.1465 -0.7118
  126DPPC   C18 6268   6.196   3.922   2.247  0.5399 -0.0466 -0.3975
  126DPPC   C19 6269   6.237   3.948   2.392 -0.3317  0.8918 -0.3040
  126DPPC   C20 6270   6.133   4.019   2.479 -0.3009  0.4669  0.0854
  126DPPC   C21 6271   6.172   4.031   2.626 -0.2436 -0.2780  0.1322
  126DPPC   C22 6272   6.066   4.107   2.706  0.0881  0.0554  0.2566
  126DPPC   C23 6273   6.061   4.255   2.668 -0.3594 -0.1010 -0.3115
  126DPPC   C24 6274   5.970   4.323   2.770 -0.4737  0.0135 -0.4897
  126DPPC   C25 6275   6.033   4.317   2.910  0.0774  0.3374 -0.7192
  126DPPC   C26 6276   5.962   4.410   3.009  0.1291 -0.3118 -0.0671
  126DPPC   C27 6277   6.036   4.428   3.141  0.5849  0.4182 -0.4194
  126DPPC   C28 6278   6.169   4.505   3.140  0.4758  0.6076 -0.3981
  126DPPC   C29 6279   6.242   4.479   3.272 -0.3469  0.3663  0.0152
  126DPPC   C30 6280   6.255   4.328   3.292 -0.1862  0.3784  0.0039
  126DPPC   C31 6281   6.295   4.290   3.435  0.5832 -0.3670 -0.4047
  126DPPC   C32 6282   5.963   3.862   1.835  0.0977 -0.2210  0.5883
  126DPPC   O33 6283   5.853   3.861   1.925 -0.3166 -0.8818  0.0864
  126DPPC   C34 6284   5.754   3.947   1.888  0.1546 -0.3988 -0.0553
  126DPPC   O35 6285   5.742   3.986   1.772 -0.5179  0.4364  0.2859
  126DPPC   C36 6286   5.643   3.951   1.993  0.2362  0.2907  0.0120
  126DPPC   C37 6287   5.677   4.031   2.119  0.4305 -0.1127  0.2180
  126DPPC   C38 6288   5.573   4.040   2.230  0.2132 -0.2341  0.0255
  126DPPC   C39 6289   5.643   4.072   2.362  0.7114  0.5674 -0.4247
  126DPPC   C40 6290   5.538   4.124   2.460  0.1555 -1.1574 -0.0813
  126DPPC   C41 6291   5.613   4.147   2.591 -0.4240 -0.5303  0.1475
  126DPPC   C42 6292   5.524   4.195   2.705  0.0265  0.2980  0.1634
  126DPPC   C43 6293   5.607   4.203   2.834  0.3985 -0.3061 -0.0377
  126DPPC   C44 6294   5.512   4.257   2.940 -0.1117 -0.1349 -0.5762
  126DPPC   C45 6295   5.572   4.230   3.078 -0.1664  0.7669 -0.3699
  126DPPC   C46 6296   5.472   4.262   3.190  0.0228 -0.4948  0.1768
  126DPPC   C47 6297   5.535   4.244   3.328  0.3324 -0.0582  0.0948
  126DPPC   C48 6298   5.429   4.241   3.438 -0.1369 -0.4077 -0.3638
  126DPPC   C49 6299   5.495   4.227   3.575 -0.0427 -0.3968 -0.4086
  126DPPC   C50 6300   5.394   4.198   3.686  0.4121  0.0847  0.1438
  127DPPC    C1 6301   2.187   6.247   1.272  0.3595  0.3544 -0.3066
  127DPPC    C2 6302   2.364   6.330   1.404  0.7672  0.3795  0.0747
  127DPPC    C3 6303   2.365   6.316   1.156  0.7347 -0.2313  0.5191
  127DPPC    N4 6304   2.291   6.351   1.278  0.4598  0.2216  0.2261
  127DPPC    C5 6305   2.209   6.472   1.272 -0.1673 -0.2064  0.0473
  127DPPC    C6 6306   2.286   6.602   1.298 -0.3494 -0.1988  0.5655
  127DPPC    O7 6307   2.189   6.699   1.336 -0.1261  0.0912  0.3978
  127DPPC    P8 6308   2.260   6.836   1.383 -0.0552  0.2636 -0.2047
  127DPPC    O9 6309   2.240   6.926   1.267 -0.0997  0.5941  0.0614
  127DPPC   O10 6310   2.396   6.812   1.437 -0.3424  0.5724  0.6659
  127DPPC   O11 6311   2.162   6.894   1.497  0.0806 -0.0066  0.0501
  127DPPC   C12 6312   2.176   6.822   1.620 -0.1457 -0.7502 -0.3517
  127DPPC   C13 6313   2.129   6.892   1.748 -0.1439 -0.4546 -0.5116
  127DPPC   O14 6314   2.153   6.819   1.869  0.1326  0.0431 -0.2626
  127DPPC   C15 6315   2.274   6.802   1.928  0.1023  0.6632 -0.0127
  127DPPC   O16 6316   2.372   6.835   1.862  0.3772  0.0519  0.0737
  127DPPC   C17 6317   2.286   6.775   2.079 -0.2874 -0.1762 -0.1213
  127DPPC   C18 6318   2.425   6.720   2.113 -0.2313  0.3371  0.5026
  127DPPC   C19 6319   2.438   6.694   2.263  0.2895 -0.0781  0.3855
  127DPPC   C20 6320   2.580   6.646   2.294  0.5438  0.5516  0.2141
  127DPPC   C21 6321   2.589   6.630   2.446  0.9221  0.1729  0.1530
  127DPPC   C22 6322   2.584   6.764   2.518  0.0078  0.4946 -0.4904
  127DPPC   C23 6323   2.591   6.745   2.670 -0.1590 -0.2045 -0.5676
  127DPPC   C24 6324   2.717   6.681   2.728 -0.2574 -0.0427 -0.1709
  127DPPC   C25 6325   2.711   6.693   2.880 -0.1597 -0.8441 -0.0992
  127DPPC   C26 6326   2.843   6.628   2.922  0.3893  0.4066  0.1672
  127DPPC   C27 6327   2.841   6.602   3.072 -0.3591  0.2505  0.1337
  127DPPC   C28 6328   2.735   6.497   3.107 -0.4637  0.4006  0.2737
  127DPPC   C29 6329   2.759   6.447   3.249 -0.0174 -0.3212 -0.0506
  127DPPC   C30 6330   2.646   6.346   3.271 -0.3043 -0.0909 -0.4438
  127DPPC   C31 6331   2.654   6.287   3.412  0.0082 -0.3218 -0.5561
  127DPPC   C32 6332   1.981   6.915   1.716 -0.2816 -0.2301  0.2762
  127DPPC   O33 6333   1.901   7.014   1.780 -0.1928 -0.0197  0.0644
  127DPPC   C34 6334   1.810   7.073   1.698  0.1242 -0.0341 -0.2942
  127DPPC   O35 6335   1.812   7.047   1.577 -0.6268  0.4073 -0.4057
  127DPPC   C36 6336   1.713   7.173   1.760 -0.3493 -0.6151 -0.0894
  127DPPC   C37 6337   1.666   7.115   1.894  0.4053 -0.0951  0.4097
  127DPPC   C38 6338   1.534   7.184   1.931  0.4113  0.0882  0.1023
  127DPPC   C39 6339   1.487   7.149   2.072 -0.2702 -0.1531 -0.1794
  127DPPC   C40 6340   1.356   7.219   2.109 -0.4062 -0.6506  0.2987
  127DPPC   C41 6341   1.280   7.159   2.227 -0.3783 -0.8901  0.1957
  127DPPC   C42 6342   1.371   7.176   2.349 -0.0655  0.2118 -0.1798
  127DPPC   C43 6343   1.307   7.116   2.475  0.0223 -0.0709 -0.2688
  127DPPC   C44 6344   1.396   7.165   2.590  0.2499 -0.0286 -0.4614
  127DPPC   C45 6345   1.544   7.130   2.577  0.2557 -0.1887  0.0158
  127DPPC   C46 6346   1.603   7.180   2.709  0.5287  0.0872 -0.2091
  127DPPC   C47 6347   1.746   7.125   2.711  0.3098 -0.4701  0.1730
  127DPPC   C48 6348   1.794   7.132   2.856 -0.4944  0.2957  0.4103
  127DPPC   C49 6349   1.787   7.277   2.904 -1.0825  0.4258 -0.0587
  127DPPC   C50 6350   1.863   7.295   3.035  0.0475  0.1546 -0.6661
  128DPPC    C1 6351   2.009   4.063   1.432 -0.5267  0.3268 -0.0319
  128DPPC    C2 6352   1.804   3.946   1.416  0.4670 -0.6390 -0.2051
  128DPPC    C3 6353   1.994   3.860   1.301  0.5590 -0.4665  0.4699
  128DPPC    N4 6354   1.950   3.929   1.423  0.5005 -0.1598  0.2764
  128DPPC    C5 6355   1.983   3.853   1.544  0.2901  0.1570  0.5360
  128DPPC    C6 6356   2.126   3.801   1.559  0.1257 -0.3790  0.3072
  128DPPC    O7 6357   2.185   3.841   1.683  0.2515  0.3784  0.0132
  128DPPC    P8 6358   2.343   3.866   1.662  0.2396  0.0745 -0.4477
  128DPPC    O9 6359   2.353   4.014   1.669 -0.0533  0.0461  0.7006
  128DPPC   O10 6360   2.404   3.784   1.554  0.6021 -0.4613  0.1596
  128DPPC   O11 6361   2.393   3.793   1.796 -0.5444  0.0509 -0.1646
  128DPPC   C12 6362   2.427   3.656   1.777 -0.3770  0.0418  0.1797
  128DPPC   C13 6363   2.435   3.573   1.905  0.6023  0.1010  0.1594
  128DPPC   O14 6364   2.341   3.465   1.911  0.7118 -0.0118 -0.1156
  128DPPC   C15 6365   2.396   3.351   1.959 -0.3118 -0.4757 -0.0077
  128DPPC   O16 6366   2.507   3.320   1.914  0.1699 -0.2709  1.0114
  128DPPC   C17 6367   2.301   3.243   2.012 -0.4270 -0.3258  0.0917
  128DPPC   C18 6368   2.350   3.200   2.150  0.4402 -0.0406 -0.1191
  128DPPC   C19 6369   2.343   3.312   2.254  0.0530 -0.4536  0.3043
  128DPPC   C20 6370   2.337   3.266   2.400  0.5353 -0.7337  0.2371
  128DPPC   C21 6371   2.297   3.376   2.499 -0.3056 -0.4304 -0.4308
  128DPPC   C22 6372   2.325   3.334   2.644 -1.0769 -0.9111 -0.4131
  128DPPC   C23 6373   2.311   3.456   2.735  0.0990 -1.0077 -0.0941
  128DPPC   C24 6374   2.309   3.414   2.882 -0.3231  0.0604  0.2171
  128DPPC   C25 6375   2.270   3.539   2.962  0.0224  0.1775  0.2015
  128DPPC   C26 6376   2.385   3.634   2.996 -0.0123  0.3964 -0.2836
  128DPPC   C27 6377   2.334   3.705   3.121  0.1374 -0.3073  0.1865
  128DPPC   C28 6378   2.454   3.768   3.192 -0.0186 -0.0949  0.2620
  128DPPC   C29 6379   2.554   3.658   3.225 -0.3505 -0.3468  0.4340
  128DPPC   C30 6380   2.658   3.716   3.321 -0.0187 -0.0402 -0.1050
  128DPPC   C31 6381   2.594   3.761   3.453 -0.1208  0.4694 -0.3263
  128DPPC   C32 6382   2.420   3.665   2.026  0.1780  0.3669 -0.0935
  128DPPC   O33 6383   2.488   3.616   2.142 -0.0408 -0.1466 -0.1760
  128DPPC   C34 6384   2.524   3.718   2.225 -0.4215 -0.4222  0.3364
  128DPPC   O35 6385   2.510   3.838   2.201 -0.2905 -0.4525  0.1104
  128DPPC   C36 6386   2.560   3.673   2.367  0.6415 -0.8642 -0.0641
  128DPPC   C37 6387   2.616   3.783   2.457 -0.0776 -0.4844 -0.0707
  128DPPC   C38 6388   2.633   3.718   2.594  0.4253 -0.2114 -0.0006
  128DPPC   C39 6389   2.678   3.823   2.695  0.1736  0.1887 -0.3061
  128DPPC   C40 6390   2.753   3.753   2.808  0.4559  0.6727 -0.1884
  128DPPC   C41 6391   2.819   3.846   2.910  0.6376  0.1654  0.1666
  128DPPC   C42 6392   2.924   3.766   2.987  0.5817 -0.1876 -0.1252
  128DPPC   C43 6393   2.999   3.870   3.071  0.2264 -0.1344  0.1297
  128DPPC   C44 6394   3.022   3.793   3.201 -0.2614 -0.4928  0.0102
  128DPPC   C45 6395   3.096   3.882   3.302 -0.0759 -0.1020 -0.4621
  128DPPC   C46 6396   3.225   3.936   3.241  0.0743 -0.0104 -0.0630
  128DPPC   C47 6397   3.305   4.004   3.353  0.1777 -0.4116  0.1059
  128DPPC   C48 6398   3.431   4.054   3.282 -0.1862 -0.1896 -0.3885
  128DPPC   C49 6399   3.524   4.124   3.381 -0.3085 -0.1458 -0.3045
  128DPPC   C50 6400   3.645   4.182   3.307 -0.3124  0.1961 -0.0441
  129DPPC    C1 6401   2.737   2.233   5.622  0.4081 -0.3654  0.2302
  129DPPC    C2 6402   2.649   2.207   5.849 -0.5465  0.5286  0.5902
  129DPPC    C3 6403   2.688   2.418   5.749  0.2106 -0.6413  0.7490
  129DPPC    N4 6404   2.642   2.281   5.722  0.0833 -0.4521 -0.0347
  129DPPC    C5 6405   2.501   2.278   5.679 -0.0981 -0.1223  0.5207
  129DPPC    C6 6406   2.444   2.157   5.605  0.1393  0.1668 -0.1474
  129DPPC    O7 6407   2.341   2.188   5.511  0.0733 -0.2214 -0.2056
  129DPPC    P8 6408   2.249   2.059   5.483 -0.0724 -0.1631 -0.0025
  129DPPC    O9 6409   2.155   2.128   5.392 -0.0021  0.6221  0.5082
  129DPPC   O10 6410   2.202   2.017   5.616 -0.2756  0.5966  0.1711
  129DPPC   O11 6411   2.351   1.953   5.418 -0.0378 -0.0115 -0.1971
  129DPPC   C12 6412   2.387   2.013   5.293 -0.0518 -0.2409 -0.3118
  129DPPC   C13 6413   2.534   1.982   5.265 -0.1014 -0.0033 -0.8572
  129DPPC   O14 6414   2.587   2.064   5.160 -0.2418  0.0486 -0.8879
  129DPPC   C15 6415   2.643   2.184   5.190 -0.0345 -0.2688  0.0182
  129DPPC   O16 6416   2.600   2.239   5.291 -0.6644 -0.4632 -0.1382
  129DPPC   C17 6417   2.714   2.270   5.085 -0.5628  0.1510 -0.0002
  129DPPC   C18 6418   2.641   2.400   5.054  0.3268  0.6461 -0.0554
  129DPPC   C19 6419   2.669   2.453   4.913  0.0945  0.4555 -0.1746
  129DPPC   C20 6420   2.625   2.340   4.819 -0.5293  0.5651 -0.0182
  129DPPC   C21 6421   2.653   2.380   4.674  0.3874  0.0646  0.0125
  129DPPC   C22 6422   2.583   2.277   4.585  0.1854  0.2942 -0.0947
  129DPPC   C23 6423   2.539   2.345   4.455 -0.0173 -0.2007 -0.2880
  129DPPC   C24 6424   2.500   2.241   4.351 -0.0756 -0.5309  0.0633
  129DPPC   C25 6425   2.474   2.300   4.212 -0.1647 -0.1018  0.2614
  129DPPC   C26 6426   2.483   2.193   4.103  0.0172  0.0425  0.1356
  129DPPC   C27 6427   2.486   2.258   3.965 -0.3793 -0.3101 -0.0381
  129DPPC   C28 6428   2.508   2.145   3.864 -0.0313 -0.4066  0.1438
  129DPPC   C29 6429   2.527   2.205   3.724  0.5183 -0.3649  0.2357
  129DPPC   C30 6430   2.506   2.096   3.620 -0.4498  0.2433 -0.2165
  129DPPC   C31 6431   2.548   2.155   3.485 -0.1748  0.1619 -0.1662
  129DPPC   C32 6432   2.546   1.832   5.240 -0.2432 -0.3004  0.7522
  129DPPC   O33 6433   2.435   1.786   5.163  0.3532 -0.1264 -0.2236
  129DPPC   C34 6434   2.444   1.652   5.138  0.0877 -0.0757 -0.5997
  129DPPC   O35 6435   2.541   1.593   5.185 -0.1016  0.0493 -0.0389
  129DPPC   C36 6436   2.338   1.584   5.053 -0.2467 -0.7383  0.3348
  129DPPC   C37 6437   2.381   1.446   5.002 -0.3225 -0.5483 -0.2517
  129DPPC   C38 6438   2.504   1.469   4.913  0.2132  0.4354  0.7178
  129DPPC   C39 6439   2.543   1.329   4.864  0.3150  0.6965  0.0402
  129DPPC   C40 6440   2.444   1.268   4.765  0.4848  0.2195  0.1632
  129DPPC   C41 6441   2.526   1.158   4.697  0.3884  0.3228 -0.1213
  129DPPC   C42 6442   2.456   1.105   4.571  0.1035 -0.4087  0.3378
  129DPPC   C43 6443   2.530   0.978   4.528 -0.0043 -0.3103 -0.1408
  129DPPC   C44 6444   2.445   0.900   4.428 -0.3963  0.1548 -0.1755
  129DPPC   C45 6445   2.533   0.798   4.355 -0.0554  0.1764  0.1993
  129DPPC   C46 6446   2.457   0.732   4.239  0.6206  0.3280 -0.3379
  129DPPC   C47 6447   2.551   0.636   4.166 -0.2491 -0.5301 -0.3507
  129DPPC   C48 6448   2.492   0.609   4.027 -0.2872 -0.2410 -0.3918
  129DPPC   C49 6449   2.587   0.526   3.941 -0.1122 -0.1825 -0.2564
  129DPPC   C50 6450   2.530   0.460   3.815 -0.4694  0.1607 -0.2748
  130DPPC    C1 6451   0.627   7.741   1.240 -0.0622  0.0983 -0.5792
  130DPPC    C2 6452   0.804   7.904   1.238  0.6631 -0.7993  0.3293
  130DPPC    C3 6453   0.575   7.968   1.257 -0.5018 -0.5427  0.3253
  130DPPC    N4 6454   0.675   7.868   1.297  0.1845 -0.1236 -0.2892
  130DPPC    C5 6455   0.659   7.864   1.443  0.3683 -0.3898 -0.2752
  130DPPC    C6 6456   0.733   7.755   1.520  0.1123 -0.1547  0.3115
  130DPPC    O7 6457   0.643   7.663   1.582 -0.0880 -0.6155 -0.6546
  130DPPC    P8 6458   0.714   7.599   1.711 -0.1731  0.5854  0.0019
  130DPPC    O9 6459   0.845   7.664   1.728  0.3783 -0.3073 -0.7312
  130DPPC   O10 6460   0.695   7.452   1.710  0.0215  0.5642 -0.5537
  130DPPC   O11 6461   0.608   7.663   1.814 -0.1843  0.0259  0.3454
  130DPPC   C12 6462   0.675   7.768   1.886  0.2743 -0.3787  0.5107
  130DPPC   C13 6463   0.589   7.832   1.995 -0.3792 -0.0494 -0.1886
  130DPPC   O14 6464   0.678   7.869   2.101 -0.0402 -0.2950 -0.3822
  130DPPC   C15 6465   0.767   7.972   2.098 -0.0218 -0.2823  0.2844
  130DPPC   O16 6466   0.753   8.054   2.007  0.0576 -0.5989 -0.0197
  130DPPC   C17 6467   0.853   7.986   2.224  0.0354 -0.1794  0.2347
  130DPPC   C18 6468   0.800   8.085   2.328  0.8296  0.1563  0.3201
  130DPPC   C19 6469   0.812   8.019   2.465 -0.1210  0.2555  0.4591
  130DPPC   C20 6470   0.953   7.962   2.485  0.2196  0.5889 -0.8999
  130DPPC   C21 6471   1.043   8.084   2.510  0.3003  0.4607 -0.5698
  130DPPC   C22 6472   1.191   8.043   2.510  0.0062 -0.6633 -0.1164
  130DPPC   C23 6473   1.257   8.148   2.599 -1.3504  0.1958 -0.0820
  130DPPC   C24 6474   1.271   8.105   2.745 -0.0561  0.1255 -0.2108
  130DPPC   C25 6475   1.388   8.007   2.759 -0.3570 -0.2556 -0.3291
  130DPPC   C26 6476   1.401   7.960   2.904  0.2582  0.3751 -0.1740
  130DPPC   C27 6477   1.444   8.064   3.008 -0.1279  0.0236  0.3459
  130DPPC   C28 6478   1.452   8.026   3.156  0.3263  0.3312  0.4041
  130DPPC   C29 6479   1.558   7.915   3.155 -0.1087 -0.0880 -0.3591
  130DPPC   C30 6480   1.571   7.855   3.295 -0.3332  0.5139 -0.0770
  130DPPC   C31 6481   1.440   7.848   3.373 -0.1302  0.0029  0.2240
  130DPPC   C32 6482   0.487   7.725   2.035 -0.4662 -0.0211 -0.3327
  130DPPC   O33 6483   0.371   7.780   2.098  0.0937  0.2335  0.5011
  130DPPC   C34 6484   0.298   7.680   2.155  1.0089 -0.4912  0.4304
  130DPPC   O35 6485   0.318   7.561   2.132 -0.5542 -0.7621  0.3903
  130DPPC   C36 6486   0.168   7.726   2.221  0.4359 -0.3033 -0.8091
  130DPPC   C37 6487   0.114   7.621   2.319  0.0781  0.7255  0.1136
  130DPPC   C38 6488  -0.031   7.637   2.364 -0.2333  0.2399 -0.6881
  130DPPC   C39 6489  -0.064   7.774   2.424 -0.1479 -0.1310  0.2233
  130DPPC   C40 6490  -0.195   7.791   2.501 -0.3906 -0.0983 -0.1907
  130DPPC   C41 6491  -0.206   7.941   2.524 -0.7247 -0.0808 -0.4564
  130DPPC   C42 6492  -0.351   7.975   2.560 -0.4655  0.1228  0.4378
  130DPPC   C43 6493  -0.375   8.122   2.595 -0.3608  0.2719 -0.1052
  130DPPC   C44 6494  -0.491   8.153   2.689 -0.2885 -0.4355  0.2222
  130DPPC   C45 6495  -0.512   8.303   2.711  0.0168 -0.3826  0.1492
  130DPPC   C46 6496  -0.625   8.344   2.805  0.3548  0.0522  0.3748
  130DPPC   C47 6497  -0.586   8.293   2.944 -0.3406 -0.2898  0.4481
  130DPPC   C48 6498  -0.709   8.293   3.036 -0.2543  0.3784  0.5607
  130DPPC   C49 6499  -0.762   8.437   3.044 -0.6375  0.2263  0.7528
  130DPPC   C50 6500  -0.908   8.438   3.091 -0.7209 -0.0162  0.5097
  131DPPC    C1 6501   1.370   4.060   5.550 -0.9942  0.8280  0.0280
  131DPPC    C2 6502   1.395   3.885   5.380 -0.5007  0.0165  0.0002
  131DPPC    C3 6503   1.256   4.074   5.349 -0.1830  0.1224 -0.1970
  131DPPC    N4 6504   1.384   4.029   5.407 -0.4400 -0.0257  0.2591
  131DPPC    C5 6505   1.484   4.109   5.335 -0.4257 -0.1102  0.1844
  131DPPC    C6 6506   1.497   4.259   5.364 -0.3069 -0.0523 -0.1768
  131DPPC    O7 6507   1.418   4.339   5.275  0.5640  0.1157 -0.8090
  131DPPC    P8 6508   1.437   4.491   5.324  0.1623 -0.2429  0.4779
  131DPPC    O9 6509   1.496   4.497   5.460  0.8436 -0.0219  0.1751
  131DPPC   O10 6510   1.315   4.568   5.292  0.0469 -0.4035  0.5243
  131DPPC   O11 6511   1.550   4.528   5.216 -0.4976  0.5261  0.0393
  131DPPC   C12 6512   1.491   4.514   5.087 -0.3598  0.8759 -0.0632
  131DPPC   C13 6513   1.595   4.510   4.975 -0.0948 -0.0058  0.2095
  131DPPC   O14 6514   1.530   4.525   4.849  0.1552  0.1973  0.1042
  131DPPC   C15 6515   1.587   4.622   4.771 -0.3463  0.1607 -0.3167
  131DPPC   O16 6516   1.686   4.686   4.805 -0.1946  0.0249 -0.5032
  131DPPC   C17 6517   1.539   4.614   4.626  0.6521  0.1725 -0.6499
  131DPPC   C18 6518   1.643   4.529   4.552  0.3167 -0.7410 -0.0885
  131DPPC   C19 6519   1.587   4.498   4.413 -0.4440 -0.0035  0.0433
  131DPPC   C20 6520   1.705   4.483   4.317 -0.4609  0.1761 -0.0048
  131DPPC   C21 6521   1.665   4.436   4.177  0.2981 -0.4227 -0.0286
  131DPPC   C22 6522   1.788   4.459   4.089  0.2012 -0.4844 -0.1807
  131DPPC   C23 6523   1.766   4.403   3.948 -0.4812  0.0178 -0.2784
  131DPPC   C24 6524   1.882   4.433   3.853  0.0590  0.4961  0.5151
  131DPPC   C25 6525   2.018   4.386   3.904  0.1300  0.6368  0.4550
  131DPPC   C26 6526   2.125   4.410   3.796 -0.1558  0.4170  0.1206
  131DPPC   C27 6527   2.265   4.377   3.849  0.0132  0.0377 -0.5578
  131DPPC   C28 6528   2.368   4.381   3.736  0.6628  0.2816  0.0391
  131DPPC   C29 6529   2.511   4.386   3.791  0.7372 -0.1057 -0.1182
  131DPPC   C30 6530   2.583   4.515   3.751  0.7876 -0.1327 -0.1162
  131DPPC   C31 6531   2.731   4.516   3.789  0.8682 -0.0032 -0.4277
  131DPPC   C32 6532   1.677   4.383   4.997 -0.0118  0.0594  0.2801
  131DPPC   O33 6533   1.751   4.322   4.891 -0.3417 -0.1393  0.1631
  131DPPC   C34 6534   1.816   4.203   4.889 -0.3675 -0.1536  0.1465
  131DPPC   O35 6535   1.785   4.126   4.980  0.2743 -0.6053 -0.0067
  131DPPC   C36 6536   1.898   4.149   4.772 -0.2723 -0.1533  0.2131
  131DPPC   C37 6537   1.814   4.155   4.644  0.2650 -0.5643 -0.1646
  131DPPC   C38 6538   1.887   4.092   4.526  0.0789 -0.4619 -0.3345
  131DPPC   C39 6539   1.794   4.100   4.404  0.2835 -1.0644 -0.5352
  131DPPC   C40 6540   1.651   4.045   4.407 -0.4359  0.7733  0.3697
  131DPPC   C41 6541   1.610   4.047   4.259  0.2540 -1.0927  0.1257
  131DPPC   C42 6542   1.457   4.040   4.256  0.2060 -0.1985  0.1664
  131DPPC   C43 6543   1.413   4.034   4.109  0.0281  0.2232  0.2002
  131DPPC   C44 6544   1.469   3.912   4.036 -0.1883  0.0619  0.3025
  131DPPC   C45 6545   1.403   3.899   3.899  0.2489 -0.5300  0.1443
  131DPPC   C46 6546   1.455   3.995   3.791 -0.4872  0.0510  0.3069
  131DPPC   C47 6547   1.454   3.931   3.652 -0.1814  0.4216  0.1336
  131DPPC   C48 6548   1.476   4.033   3.540 -0.3100  0.0901 -0.1944
  131DPPC   C49 6549   1.475   3.967   3.402 -0.7288 -0.6158  0.1374
  131DPPC   C50 6550   1.579   3.860   3.370 -0.2010  0.1343 -0.7129
  132DPPC    C1 6551   9.180   6.455   1.124  0.1463  0.0105 -0.2995
  132DPPC    C2 6552   9.381   6.565   1.227  0.2189  0.0078 -0.0227
  132DPPC    C3 6553   9.238   6.678   1.085  0.3311 -0.3191 -0.2912
  132DPPC    N4 6554   9.239   6.573   1.188  0.2346 -0.1381 -0.1057
  132DPPC    C5 6555   9.158   6.609   1.306 -0.2759 -0.0750 -0.4716
  132DPPC    C6 6556   9.006   6.621   1.304 -0.3133 -0.3762  0.2613
  132DPPC    O7 6557   8.957   6.653   1.435  0.0343  0.1634  0.2640
  132DPPC    P8 6558   8.800   6.627   1.455  0.0544 -0.0881  0.1011
  132DPPC    O9 6559   8.781   6.483   1.425  0.0049 -0.1895  0.6026
  132DPPC   O10 6560   8.744   6.732   1.368 -0.2319 -0.6830 -0.4434
  132DPPC   O11 6561   8.789   6.643   1.615  0.1963 -0.0631  0.1085
  132DPPC   C12 6562   8.902   6.595   1.687  0.5253  0.1624 -0.2512
  132DPPC   C13 6563   8.895   6.624   1.837  0.0972  0.4536 -0.3263
  132DPPC   O14 6564   9.011   6.581   1.911 -0.2295 -0.5043 -0.3549
  132DPPC   C15 6565   9.124   6.656   1.910 -0.2373 -0.4930 -0.2964
  132DPPC   O16 6566   9.147   6.727   1.812 -0.3123  0.3230  0.2571
  132DPPC   C17 6567   9.225   6.644   2.024 -0.5144 -0.1730 -0.0129
  132DPPC   C18 6568   9.197   6.727   2.150 -0.0980 -0.3206  0.1797
  132DPPC   C19 6569   9.306   6.713   2.257  0.3584 -0.1357 -0.2564
  132DPPC   C20 6570   9.249   6.767   2.388  0.4091 -0.7253  0.0111
  132DPPC   C21 6571   9.318   6.734   2.521  0.4466  0.0573  0.1910
  132DPPC   C22 6572   9.466   6.771   2.527  0.4613  0.0753 -0.2089
  132DPPC   C23 6573   9.490   6.803   2.675  0.1960 -0.3744 -0.0676
  132DPPC   C24 6574   9.627   6.750   2.717  0.0571 -0.4425  0.3040
  132DPPC   C25 6575   9.664   6.789   2.861  0.4455 -0.0948  0.1156
  132DPPC   C26 6576   9.814   6.759   2.858  0.3249 -0.6773 -0.3964
  132DPPC   C27 6577   9.855   6.764   3.006 -0.0288  0.0168 -0.3168
  132DPPC   C28 6578  10.007   6.761   3.026 -0.0366 -0.0707 -0.2726
  132DPPC   C29 6579  10.029   6.713   3.170 -0.7160  0.1214 -0.1009
  132DPPC   C30 6580  10.018   6.560   3.168 -0.5502  0.1044  0.3199
  132DPPC   C31 6581  10.034   6.501   3.308  0.2684 -0.7638 -0.1281
  132DPPC   C32 6582   8.765   6.561   1.889  0.5349 -0.0364  0.1903
  132DPPC   O33 6583   8.746   6.558   2.030 -0.0036 -0.3031  0.1110
  132DPPC   C34 6584   8.630   6.507   2.082  0.1539 -0.5718  0.2002
  132DPPC   O35 6585   8.539   6.481   2.003 -0.2136  0.5095  0.2462
  132DPPC   C36 6586   8.618   6.503   2.234 -0.3057 -0.3028  0.1727
  132DPPC   C37 6587   8.543   6.620   2.299 -0.3408 -0.1673 -0.1094
  132DPPC   C38 6588   8.486   6.582   2.436  0.0817 -0.1874  0.0614
  132DPPC   C39 6589   8.442   6.704   2.516  0.4325 -0.2194  0.3063
  132DPPC   C40 6590   8.441   6.675   2.666  0.3223 -0.2460  0.3003
  132DPPC   C41 6591   8.343   6.561   2.698 -0.1785  0.1081  0.0339
  132DPPC   C42 6592   8.352   6.527   2.847  0.4046 -0.2987 -0.0941
  132DPPC   C43 6593   8.330   6.656   2.927  0.6569 -0.3833  0.1128
  132DPPC   C44 6594   8.300   6.612   3.070 -0.4013  0.3500  0.1251
  132DPPC   C45 6595   8.242   6.731   3.146  0.3344  0.5235  0.4271
  132DPPC   C46 6596   8.230   6.692   3.294  0.0994  0.1256  0.3032
  132DPPC   C47 6597   8.158   6.809   3.362  0.7169  0.5688  0.2028
  132DPPC   C48 6598   8.150   6.801   3.514 -0.4795 -0.1252  0.1173
  132DPPC   C49 6599   8.050   6.692   3.552 -0.1924 -0.3307  0.2909
  132DPPC   C50 6600   8.061   6.669   3.703 -0.0361 -0.3905  0.2700
  133DPPC    C1 6601   7.243   0.346   5.442 -0.3355  0.1263  0.4605
  133DPPC    C2 6602   7.221   0.548   5.533  0.1859 -0.1504  0.0463
  133DPPC    C3 6603   7.343   0.361   5.653  0.4893  0.0697  0.2210
  133DPPC    N4 6604   7.318   0.438   5.530  0.2662 -0.0850  0.1698
  133DPPC    C5 6605   7.447   0.473   5.468  0.2430 -0.2387  0.0330
  133DPPC    C6 6606   7.548   0.573   5.523  0.1120  0.0215 -0.1963
  133DPPC    O7 6607   7.668   0.576   5.445  0.3470 -0.5594  0.1364
  133DPPC    P8 6608   7.779   0.676   5.504 -0.2730  0.0711  0.2440
  133DPPC    O9 6609   7.904   0.677   5.426  0.1513 -0.1648  0.9158
  133DPPC   O10 6610   7.761   0.668   5.651 -0.2115  0.1088  0.2537
  133DPPC   O11 6611   7.703   0.810   5.456 -0.1283  0.2365  0.4722
  133DPPC   C12 6612   7.728   0.832   5.317 -0.4379  0.0722  0.3904
  133DPPC   C13 6613   7.639   0.934   5.246 -0.3163 -0.1696 -0.1140
  133DPPC   O14 6614   7.693   1.067   5.232 -0.5210 -0.0823 -0.0755
  133DPPC   C15 6615   7.783   1.083   5.132  0.2200  0.2189  0.6234
  133DPPC   O16 6616   7.818   0.979   5.075 -0.4683  0.1163  0.3777
  133DPPC   C17 6617   7.867   1.210   5.121  0.7512 -0.1559  0.2822
  133DPPC   C18 6618   7.804   1.334   5.057 -0.2347 -0.6586  0.2630
  133DPPC   C19 6619   7.812   1.331   4.904  0.4432  0.1548  0.2760
  133DPPC   C20 6620   7.760   1.464   4.849  0.6395  0.1203  0.0064
  133DPPC   C21 6621   7.835   1.587   4.901  0.4226  0.3138 -0.1408
  133DPPC   C22 6622   7.754   1.713   4.868  0.0414  0.0992 -0.0430
  133DPPC   C23 6623   7.843   1.837   4.882  0.4684 -0.2119  0.0518
  133DPPC   C24 6624   7.745   1.956   4.887  0.0316 -0.5673  0.0341
  133DPPC   C25 6625   7.667   1.961   4.756  0.0179 -0.5940  0.0410
  133DPPC   C26 6626   7.552   2.061   4.749  0.6173  0.0554 -0.7588
  133DPPC   C27 6627   7.479   2.045   4.615  0.0013 -0.0791 -0.4086
  133DPPC   C28 6628   7.368   2.151   4.617 -0.1496 -0.2455  0.0954
  133DPPC   C29 6629   7.283   2.133   4.491 -0.1078 -0.5238  0.1051
  133DPPC   C30 6630   7.151   2.210   4.494  0.1832 -0.0192  0.0748
  133DPPC   C31 6631   7.063   2.177   4.373  0.0056  0.3519  0.1012
  133DPPC   C32 6632   7.514   0.944   5.334 -0.0285 -0.3640  0.3172
  133DPPC   O33 6633   7.386   0.937   5.272  0.1437 -0.3369 -0.0478
  133DPPC   C34 6634   7.339   0.812   5.245 -0.1424 -0.2607  0.0873
  133DPPC   O35 6635   7.381   0.707   5.295  0.4482 -0.1079 -0.0805
  133DPPC   C36 6636   7.201   0.810   5.179 -0.0024 -0.2095 -0.2056
  133DPPC   C37 6637   7.218   0.791   5.028  0.8860  0.5259 -0.2111
  133DPPC   C38 6638   7.079   0.821   4.972  0.5107  0.2674  0.5675
  133DPPC   C39 6639   7.098   0.843   4.822 -0.3206 -0.0236  0.4111
  133DPPC   C40 6640   7.154   0.718   4.753 -0.3269 -0.1351  0.6076
  133DPPC   C41 6641   7.147   0.740   4.602  0.0481 -0.6443  0.5128
  133DPPC   C42 6642   7.158   0.608   4.525 -0.2828 -0.5236  0.2495
  133DPPC   C43 6643   7.134   0.638   4.378  0.9315 -0.4936  0.0426
  133DPPC   C44 6644   7.232   0.729   4.303  0.2950 -0.2504 -0.5112
  133DPPC   C45 6645   7.210   0.725   4.152 -0.3841  0.1764 -0.4281
  133DPPC   C46 6646   7.223   0.582   4.101  1.3837  0.0824  0.1989
  133DPPC   C47 6647   7.196   0.576   3.950  0.1607 -0.1011  0.4089
  133DPPC   C48 6648   7.217   0.436   3.891 -0.0174 -0.0286  0.1719
  133DPPC   C49 6649   7.211   0.437   3.739 -0.2892  0.4308  0.1837
  133DPPC   C50 6650   7.065   0.452   3.693 -0.4528 -0.1903  0.4896
  134DPPC    C1 6651   0.217   7.807   5.283 -0.3384  0.1673 -0.3663
  134DPPC    C2 6652   0.157   7.855   5.490 -0.1374 -0.4508  0.0077
  134DPPC    C3 6653   0.393   7.839   5.440 -0.6257  0.6317  1.1834
  134DPPC    N4 6654   0.263   7.891   5.395 -0.4375 -0.0346 -0.1738
  134DPPC    C5 6655   0.263   8.036   5.375 -0.2626 -0.0258 -0.1062
  134DPPC    C6 6656   0.348   8.099   5.265  0.7149 -1.2365 -0.0595
  134DPPC    O7 6657   0.320   8.066   5.129 -0.0196 -0.4584 -0.1002
  134DPPC    P8 6658   0.426   8.153   5.045 -0.2573 -0.0044  0.0672
  134DPPC    O9 6659   0.548   8.070   5.058 -0.2790 -0.1059 -0.3898
  134DPPC   O10 6660   0.416   8.288   5.105 -0.1545  0.3077 -0.6050
  134DPPC   O11 6661   0.375   8.145   4.893 -0.1875  0.0432  0.0409
  134DPPC   C12 6662   0.392   8.267   4.819  0.0791 -0.0239 -0.0101
  134DPPC   C13 6663   0.425   8.247   4.671 -0.1204 -0.1801 -0.0334
  134DPPC   O14 6664   0.424   8.369   4.596 -0.4217 -0.1676 -0.0105
  134DPPC   C15 6665   0.520   8.465   4.598 -0.1631 -0.4263 -0.0743
  134DPPC   O16 6666   0.628   8.433   4.647  0.0394  0.5214  0.1015
  134DPPC   C17 6667   0.503   8.595   4.521 -0.3397 -0.1883  0.3622
  134DPPC   C18 6668   0.412   8.582   4.398 -0.1979  0.6598  0.1598
  134DPPC   C19 6669   0.439   8.698   4.302  0.4189  0.2255 -0.1934
  134DPPC   C20 6670   0.367   8.686   4.168 -0.7048  0.5165  0.3746
  134DPPC   C21 6671   0.440   8.764   4.059 -0.5273 -0.1466  0.0131
  134DPPC   C22 6672   0.345   8.871   4.005 -0.3015  0.1079  0.1167
  134DPPC   C23 6673   0.399   8.966   3.898  0.0685  0.4248  0.5833
  134DPPC   C24 6674   0.384   9.112   3.941 -0.2472  0.3253  0.8109
  134DPPC   C25 6675   0.452   9.204   3.840  0.1499  0.1118  0.8852
  134DPPC   C26 6676   0.433   9.352   3.873  0.2774  0.3258  0.0307
  134DPPC   C27 6677   0.503   9.435   3.765  0.2109 -0.1443 -0.3791
  134DPPC   C28 6678   0.455   9.580   3.764 -0.0425 -0.2212  0.2089
  134DPPC   C29 6679   0.563   9.666   3.699 -0.0349  0.0410  0.5698
  134DPPC   C30 6680   0.568   9.617   3.555 -0.0524  0.2667  0.4923
  134DPPC   C31 6681   0.671   9.705   3.483  0.1935 -0.0776  0.4210
  134DPPC   C32 6682   0.316   8.150   4.624 -0.5090  0.0855  0.3010
  134DPPC   O33 6683   0.184   8.197   4.650 -0.4275  0.0293  0.8217
  134DPPC   C34 6684   0.082   8.106   4.648 -0.1743 -0.2439  0.2493
  134DPPC   O35 6685   0.103   7.990   4.612 -0.4440  0.0339 -0.8432
  134DPPC   C36 6686  -0.051   8.164   4.694  0.0070  0.5406 -0.1928
  134DPPC   C37 6687  -0.134   8.208   4.573 -0.9172  0.1073  0.2742
  134DPPC   C38 6688  -0.187   8.098   4.481 -0.0662 -0.0113 -0.0814
  134DPPC   C39 6689  -0.260   8.157   4.360  0.0225 -0.1760 -0.2165
  134DPPC   C40 6690  -0.311   8.062   4.251  0.0138  0.1986 -0.5433
  134DPPC   C41 6691  -0.352   8.128   4.120 -0.5502  0.4562 -0.2416
  134DPPC   C42 6692  -0.441   8.249   4.150 -0.0912  0.6886  0.1934
  134DPPC   C43 6693  -0.497   8.289   4.013 -0.1466 -0.1949 -0.0504
  134DPPC   C44 6694  -0.557   8.164   3.950 -0.0260 -0.3531  0.1447
  134DPPC   C45 6695  -0.668   8.224   3.863  0.3582 -0.1187 -0.1903
  134DPPC   C46 6696  -0.746   8.115   3.788  0.1008 -0.1549  0.1270
  134DPPC   C47 6697  -0.869   8.168   3.713 -0.0765  0.2466  0.6949
  134DPPC   C48 6698  -0.958   8.047   3.683 -0.5216  0.4248  1.2758
  134DPPC   C49 6699  -1.075   8.108   3.606  0.0325 -0.2689 -0.1595
  134DPPC   C50 6700  -1.016   8.187   3.490  0.8481  0.0439  0.4579
  135DPPC    C1 6701   7.829   7.821   5.568  0.7226  0.2329  0.2088
  135DPPC    C2 6702   7.890   7.997   5.702  0.2791  0.1893  0.0111
  135DPPC    C3 6703   8.023   7.972   5.508  0.1652  0.4538 -0.0427
  135DPPC    N4 6704   7.887   7.956   5.561  0.1558  0.4620 -0.0642
  135DPPC    C5 6705   7.787   8.038   5.489 -0.1258 -0.1519 -0.3762
  135DPPC    C6 6706   7.737   7.992   5.352  0.1077 -0.1780 -0.4515
  135DPPC    O7 6707   7.613   8.035   5.295  0.1182  0.2890 -0.1246
  135DPPC    P8 6708   7.607   7.991   5.141 -0.0933 -0.2587  0.0367
  135DPPC    O9 6709   7.476   8.034   5.086 -0.1650 -0.0683  0.3519
  135DPPC   O10 6710   7.662   7.854   5.134 -0.4095 -0.3704 -0.3214
  135DPPC   O11 6711   7.719   8.099   5.099 -0.3767  0.1894  0.4267
  135DPPC   C12 6712   7.670   8.217   5.034  0.2083 -0.2084 -0.7593
  135DPPC   C13 6713   7.777   8.325   5.022  0.0384  0.0788  0.2061
  135DPPC   O14 6714   7.726   8.459   5.009  0.1543  0.1216  0.1885
  135DPPC   C15 6715   7.813   8.564   5.006 -0.0619  0.3045  0.3689
  135DPPC   O16 6716   7.918   8.553   5.068 -0.0316 -0.7490  0.1445
  135DPPC   C17 6717   7.751   8.704   4.997 -0.3802  0.1067 -0.6314
  135DPPC   C18 6718   7.841   8.804   4.924  0.3197 -0.1267 -0.0932
  135DPPC   C19 6719   7.883   8.750   4.788  0.2490 -0.0392 -0.1494
  135DPPC   C20 6720   7.768   8.710   4.696 -0.0004  0.4970 -0.0733
  135DPPC   C21 6721   7.793   8.581   4.618 -0.4234  0.5589 -0.3153
  135DPPC   C22 6722   7.651   8.538   4.578 -0.2147 -0.2533 -0.1937
  135DPPC   C23 6723   7.581   8.639   4.488  0.1651 -0.0544 -0.2674
  135DPPC   C24 6724   7.651   8.642   4.351 -0.1239  0.3443 -0.4072
  135DPPC   C25 6725   7.579   8.715   4.237  0.3443  0.9058 -0.3460
  135DPPC   C26 6726   7.662   8.715   4.108  0.3472 -0.3046 -0.3554
  135DPPC   C27 6727   7.594   8.805   4.005  0.3249 -0.0386 -0.1107
  135DPPC   C28 6728   7.701   8.853   3.907  0.2400 -0.3971 -0.3825
  135DPPC   C29 6729   7.617   8.947   3.820  0.2688 -0.0499 -0.0344
  135DPPC   C30 6730   7.690   9.002   3.697 -0.3006  0.2430 -0.2480
  135DPPC   C31 6731   7.654   8.920   3.573 -0.3465  0.2451 -0.2357
  135DPPC   C32 6732   7.888   8.275   4.928 -0.0902 -0.1685  0.1862
  135DPPC   O33 6733   7.835   8.217   4.809 -0.0552 -0.0322  0.1031
  135DPPC   C34 6734   7.932   8.175   4.724  0.2163  0.3477  0.2231
  135DPPC   O35 6735   8.049   8.207   4.747  0.3157  0.1337  0.0210
  135DPPC   C36 6736   7.885   8.148   4.581  0.5291 -0.0732  0.1960
  135DPPC   C37 6737   7.756   8.067   4.599  0.3536  0.0919 -0.2922
  135DPPC   C38 6738   7.673   8.068   4.471  0.3687 -0.8493 -0.3196
  135DPPC   C39 6739   7.550   7.978   4.463 -0.2668 -0.0623  0.4275
  135DPPC   C40 6740   7.475   7.967   4.329 -0.3570  0.0272  0.4704
  135DPPC   C41 6741   7.460   8.112   4.282 -0.0551 -0.1176 -0.0760
  135DPPC   C42 6742   7.387   8.102   4.147  0.6106  0.4035 -0.4780
  135DPPC   C43 6743   7.479   8.020   4.056 -0.2362 -0.7487 -0.3178
  135DPPC   C44 6744   7.429   8.033   3.912  0.0818  0.0464 -0.3635
  135DPPC   C45 6745   7.537   7.988   3.812  0.6992 -0.1465  0.3842
  135DPPC   C46 6746   7.503   7.974   3.664  0.7402 -0.4795  0.4059
  135DPPC   C47 6747   7.411   7.855   3.634 -0.0713  0.0963  0.5643
  135DPPC   C48 6748   7.379   7.854   3.484 -0.0630 -0.1664  0.5629
  135DPPC   C49 6749   7.288   7.742   3.433 -0.4241  0.3090  0.1461
  135DPPC   C50 6750   7.271   7.758   3.282 -0.0252 -0.5257  0.0060
  136DPPC    C1 6751   7.052   3.255   5.980  0.3319  0.1851 -0.5073
  136DPPC    C2 6752   7.263   3.254   5.896  0.1229  0.7964 -0.3471
  136DPPC    C3 6753   7.145   3.440   5.867  0.1122  0.0899 -0.0462
  136DPPC    N4 6754   7.172   3.340   5.971  0.2300  0.4104  0.2339
  136DPPC    C5 6755   7.228   3.392   6.097  0.0514  0.0081  0.4817
  136DPPC    C6 6756   7.374   3.436   6.093  0.0417 -0.0228 -0.4994
  136DPPC    O7 6757   7.402   3.555   6.019 -0.0549  0.2937 -0.0276
  136DPPC    P8 6758   7.555   3.553   5.969 -0.0524 -0.1298 -0.0072
  136DPPC    O9 6759   7.619   3.453   6.058 -0.5394 -0.3040  0.1534
  136DPPC   O10 6760   7.592   3.696   5.965  1.0218 -0.3908  0.2124
  136DPPC   O11 6761   7.522   3.499   5.821  0.4618  0.1836 -0.2373
  136DPPC   C12 6762   7.502   3.620   5.747 -0.6620  0.3167  0.2562
  136DPPC   C13 6763   7.577   3.613   5.613 -0.2085 -0.2149  0.5319
  136DPPC   O14 6764   7.541   3.725   5.530 -0.0808 -0.0252  0.7299
  136DPPC   C15 6765   7.606   3.844   5.543  0.0347 -0.0139  0.0558
  136DPPC   O16 6766   7.704   3.856   5.617  0.4307 -0.2697 -0.4182
  136DPPC   C17 6767   7.545   3.966   5.475  0.6963  0.2707 -0.0381
  136DPPC   C18 6768   7.605   4.013   5.342  0.0020  0.1904 -0.3864
  136DPPC   C19 6769   7.538   4.132   5.273 -0.1157  0.3822  0.0585
  136DPPC   C20 6770   7.610   4.157   5.141 -0.9978  0.1656 -0.4759
  136DPPC   C21 6771   7.627   4.042   5.042 -0.4164  0.0729 -0.2764
  136DPPC   C22 6772   7.707   4.091   4.921  0.1802  0.2776  0.1980
  136DPPC   C23 6773   7.637   4.213   4.860  0.2399  0.3153  0.2048
  136DPPC   C24 6774   7.744   4.297   4.791 -0.1677  0.4120 -0.3120
  136DPPC   C25 6775   7.800   4.251   4.656  0.4680  0.0350  0.0763
  136DPPC   C26 6776   7.918   4.334   4.607 -0.0652  0.5936 -0.2817
  136DPPC   C27 6777   7.991   4.257   4.497 -0.1924 -0.1460  0.1441
  136DPPC   C28 6778   8.101   4.336   4.426  0.0218 -0.2391  0.3698
  136DPPC   C29 6779   8.049   4.471   4.376 -0.3024 -0.4157  0.2281
  136DPPC   C30 6780   8.112   4.505   4.240 -0.4379 -0.1953  0.2204
  136DPPC   C31 6781   8.074   4.644   4.191  0.0814 -0.1827 -0.1505
  136DPPC   C32 6782   7.510   3.486   5.561  0.0448  0.1551 -0.7113
  136DPPC   O33 6783   7.589   3.400   5.478 -0.3331 -0.5052 -0.3925
  136DPPC   C34 6784   7.542   3.287   5.418  0.2980 -1.1235  0.2619
  136DPPC   O35 6785   7.425   3.254   5.433  0.1050 -0.2287  0.8150
  136DPPC   C36 6786   7.622   3.236   5.298  0.1245 -0.2146 -0.2510
  136DPPC   C37 6787   7.587   3.334   5.186 -0.6545 -0.3164 -0.1068
  136DPPC   C38 6788   7.535   3.267   5.059 -0.2027 -0.0013 -0.4634
  136DPPC   C39 6789   7.467   3.362   4.960 -0.4046  0.1959 -0.1376
  136DPPC   C40 6790   7.415   3.292   4.834 -0.2773 -0.2369  0.0479
  136DPPC   C41 6791   7.332   3.392   4.754  0.4455  0.2576 -0.0886
  136DPPC   C42 6792   7.268   3.328   4.630  0.4433  0.3503 -0.1353
  136DPPC   C43 6793   7.207   3.439   4.544 -0.3698 -0.0839 -0.1207
  136DPPC   C44 6794   7.167   3.377   4.410 -0.5471 -0.2083 -0.0110
  136DPPC   C45 6795   7.093   3.473   4.317 -1.0473 -0.1413  0.4502
  136DPPC   C46 6796   7.059   3.393   4.191  0.5308  0.2230 -0.2322
  136DPPC   C47 6797   7.005   3.491   4.086  0.0232 -0.2454 -0.4129
  136DPPC   C48 6798   7.024   3.425   3.949  0.0275 -0.4030 -0.3371
  136DPPC   C49 6799   6.927   3.307   3.938 -0.6977  0.2298 -0.8545
  136DPPC   C50 6800   6.954   3.260   3.795 -0.5793 -0.2568 -0.6753
  137DPPC    C1 6801   3.041   6.203   4.964 -0.5328  0.3320  0.2927
  137DPPC    C2 6802   3.153   6.030   5.086  0.0501 -0.3584 -0.0998
  137DPPC    C3 6803   3.258   6.243   5.023 -0.2284  0.4093  0.4513
  137DPPC    N4 6804   3.137   6.176   5.072 -0.0894 -0.3906 -0.2765
  137DPPC    C5 6805   3.104   6.248   5.196 -0.3589 -0.0381 -0.5537
  137DPPC    C6 6806   2.969   6.216   5.260 -0.3751 -0.3683 -0.7518
  137DPPC    O7 6807   2.854   6.285   5.211 -0.2826  0.2204 -0.1495
  137DPPC    P8 6808   2.719   6.200   5.236 -0.2160  0.2118  0.1792
  137DPPC    O9 6809   2.606   6.275   5.178  0.0649  0.2550 -0.3189
  137DPPC   O10 6810   2.735   6.157   5.377  0.5551  0.0894  0.0589
  137DPPC   O11 6811   2.749   6.073   5.143 -0.4294  0.2285  0.0889
  137DPPC   C12 6812   2.649   6.044   5.045 -0.0872  0.4412 -0.3289
  137DPPC   C13 6813   2.684   5.912   4.977 -0.4194  0.1995 -0.0369
  137DPPC   O14 6814   2.806   5.918   4.902 -0.3008 -0.3289  0.1048
  137DPPC   C15 6815   2.876   5.803   4.886  0.4446  0.1488 -0.1342
  137DPPC   O16 6816   2.846   5.712   4.963  0.1288  0.1765 -0.2225
  137DPPC   C17 6817   3.002   5.796   4.800  0.4332  0.3880 -0.1694
  137DPPC   C18 6818   2.978   5.858   4.662 -0.4281  0.0555 -0.1716
  137DPPC   C19 6819   3.103   5.832   4.578 -0.2380  0.1028  0.0949
  137DPPC   C20 6820   3.144   5.685   4.563  0.1357  0.2050  0.1208
  137DPPC   C21 6821   3.250   5.677   4.453 -0.0428  0.0993 -0.0435
  137DPPC   C22 6822   3.306   5.536   4.433 -0.1086  0.0555  0.0781
  137DPPC   C23 6823   3.428   5.519   4.342 -0.1543  0.0344  0.0201
  137DPPC   C24 6824   3.472   5.373   4.323  0.0486  0.1017 -0.0262
  137DPPC   C25 6825   3.586   5.358   4.222  0.5775 -0.1431  0.5988
  137DPPC   C26 6826   3.612   5.209   4.204  0.2701 -0.1562  0.2450
  137DPPC   C27 6827   3.733   5.175   4.117  0.5206  1.1114  0.0758
  137DPPC   C28 6828   3.715   5.239   3.979 -0.6611 -0.2412 -0.4241
  137DPPC   C29 6829   3.805   5.175   3.873  0.1351 -0.4538  0.3620
  137DPPC   C30 6830   3.719   5.171   3.747  0.2534  0.7417  0.2248
  137DPPC   C31 6831   3.780   5.082   3.638 -0.6119 -0.1710  0.4591
  137DPPC   C32 6832   2.556   5.873   4.902 -0.2921  0.1871 -0.2497
  137DPPC   O33 6833   2.492   5.976   4.826 -0.2180  0.5672  0.1916
  137DPPC   C34 6834   2.394   5.936   4.740 -0.1477 -0.1595  0.4421
  137DPPC   O35 6835   2.365   5.817   4.728  0.3855 -0.2701  0.2104
  137DPPC   C36 6836   2.337   6.042   4.646  0.7636 -0.0603 -0.0195
  137DPPC   C37 6837   2.302   5.996   4.504 -0.7684 -0.2439  0.3951
  137DPPC   C38 6838   2.283   6.101   4.395  0.1123 -0.2503  0.2255
  137DPPC   C39 6839   2.252   6.031   4.263 -0.3524 -0.7066  0.5755
  137DPPC   C40 6840   2.312   6.113   4.149 -0.1894 -0.6736  0.6847
  137DPPC   C41 6841   2.221   6.230   4.112  0.7682 -0.0255  0.3553
  137DPPC   C42 6842   2.248   6.278   3.969  0.1045  0.1957  0.3031
  137DPPC   C43 6843   2.222   6.159   3.877 -0.2089  0.3619  0.1743
  137DPPC   C44 6844   2.267   6.170   3.731 -0.1585  0.1442  0.1719
  137DPPC   C45 6845   2.214   6.051   3.650 -0.0686  0.0182  0.2994
  137DPPC   C46 6846   2.244   5.919   3.721 -0.3956 -0.1098  0.1996
  137DPPC   C47 6847   2.183   5.804   3.642 -0.3381  0.2531 -0.3755
  137DPPC   C48 6848   2.031   5.797   3.656 -0.2708  0.1392  0.3185
  137DPPC   C49 6849   1.960   5.688   3.576  0.6064 -0.4472  0.3262
  137DPPC   C50 6850   1.819   5.660   3.629  0.5667 -0.5151  0.1863
  138DPPC    C1 6851   2.022   2.748   5.619  0.0227 -0.3034  1.1964
  138DPPC    C2 6852   1.982   2.971   5.691 -0.1941 -0.6982 -0.0922
  138DPPC    C3 6853   2.152   2.838   5.781  0.7374 -0.5399  0.0887
  138DPPC    N4 6854   2.087   2.875   5.654  0.3836 -0.2456  0.3542
  138DPPC    C5 6855   2.173   2.911   5.541 -0.0790 -0.3767 -0.0395
  138DPPC    C6 6856   2.106   2.965   5.413 -0.1833 -0.5410 -0.0555
  138DPPC    O7 6857   2.027   2.879   5.332 -0.2583 -0.2537 -0.2871
  138DPPC    P8 6858   1.994   2.966   5.201 -0.2482  0.0651 -0.0766
  138DPPC    O9 6859   1.937   3.086   5.267  0.0832 -0.1487  0.6102
  138DPPC   O10 6860   1.918   2.879   5.109 -0.1076 -0.1608  0.0198
  138DPPC   O11 6861   2.149   2.986   5.161 -0.1343  0.2328  0.4399
  138DPPC   C12 6862   2.159   3.073   5.048  0.3352 -0.3325  0.0342
  138DPPC   C13 6863   2.297   3.135   5.027  0.1444  0.0359 -0.1479
  138DPPC   O14 6864   2.310   3.248   4.940 -0.1190 -0.3584 -0.7038
  138DPPC   C15 6865   2.288   3.374   4.986 -0.0630 -0.4236 -0.4982
  138DPPC   O16 6866   2.265   3.389   5.106 -0.0943  0.1868 -0.5754
  138DPPC   C17 6867   2.289   3.486   4.881 -0.3477  0.1665  0.1216
  138DPPC   C18 6868   2.401   3.587   4.903 -0.0926 -0.1462  0.2751
  138DPPC   C19 6869   2.400   3.695   4.794  0.0369  0.3903  0.8005
  138DPPC   C20 6870   2.263   3.762   4.778 -0.3584 -0.5909 -0.0044
  138DPPC   C21 6871   2.253   3.852   4.654  0.1568 -0.6200 -0.0716
  138DPPC   C22 6872   2.212   3.777   4.527 -1.2743  0.0431 -0.0214
  138DPPC   C23 6873   2.209   3.877   4.411  0.1764  0.0476 -0.0812
  138DPPC   C24 6874   2.228   3.789   4.287 -0.3560  0.1066 -0.2064
  138DPPC   C25 6875   2.249   3.858   4.152 -0.3491  0.1822 -0.1669
  138DPPC   C26 6876   2.262   3.737   4.059 -0.3112  0.1121 -0.0705
  138DPPC   C27 6877   2.281   3.780   3.913 -0.4713  0.1981 -0.0657
  138DPPC   C28 6878   2.163   3.873   3.882 -0.4925  0.3075  0.3264
  138DPPC   C29 6879   2.200   3.958   3.760  0.5695  0.0198  0.4450
  138DPPC   C30 6880   2.090   4.052   3.712  0.1718 -0.6311  0.0542
  138DPPC   C31 6881   1.981   3.964   3.651  0.3053 -0.1930 -0.8329
  138DPPC   C32 6882   2.383   3.018   4.979  0.4650  0.5784 -0.9046
  138DPPC   O33 6883   2.317   2.951   4.871  0.0198  0.0201 -0.2857
  138DPPC   C34 6884   2.358   2.822   4.861 -0.7635 -0.2805  0.2636
  138DPPC   O35 6885   2.422   2.773   4.954  0.3918  0.0863 -0.3230
  138DPPC   C36 6886   2.333   2.734   4.738 -0.1000 -0.0433 -0.0405
  138DPPC   C37 6887   2.395   2.802   4.615  0.0732  0.6713  0.4321
  138DPPC   C38 6888   2.378   2.698   4.504 -0.3543  0.4015  0.7429
  138DPPC   C39 6889   2.236   2.664   4.460 -0.0250  0.3927 -0.3495
  138DPPC   C40 6890   2.229   2.550   4.358 -0.1122  0.7295 -0.7203
  138DPPC   C41 6891   2.084   2.535   4.310 -0.1341 -0.4393 -0.3078
  138DPPC   C42 6892   2.064   2.403   4.235  0.1756 -0.3572 -0.5361
  138DPPC   C43 6893   1.919   2.403   4.188  0.0202  0.1587 -0.0688
  138DPPC   C44 6894   1.872   2.279   4.110  0.2518 -0.0891  0.1820
  138DPPC   C45 6895   1.720   2.281   4.130  0.2469  0.2556  0.1190
  138DPPC   C46 6896   1.662   2.176   4.036  0.0758  0.4879 -0.0361
  138DPPC   C47 6897   1.509   2.172   4.047  0.0287  0.1885 -0.7320
  138DPPC   C48 6898   1.449   2.046   3.985 -0.1491 -0.2630  0.3383
  138DPPC   C49 6899   1.302   2.021   4.018 -0.2483  0.3292  0.3397
  138DPPC   C50 6900   1.312   2.029   4.170 -0.1977 -0.5222  0.3840
  139DPPC    C1 6901   9.023   3.869   5.296  0.0352  0.1093  0.7248
  139DPPC    C2 6902   8.848   4.027   5.249 -0.5240 -0.0078 -0.5628
  139DPPC    C3 6903   8.847   3.894   5.445  0.6915  0.4569  0.2188
  139DPPC    N4 6904   8.933   3.970   5.354 -0.1861  0.6221 -0.4874
  139DPPC    C5 6905   9.002   4.068   5.439  0.3083 -0.0477 -0.1040
  139DPPC    C6 6906   9.083   4.173   5.362  0.2993 -0.1103 -0.2000
  139DPPC    O7 6907   9.153   4.257   5.456  0.0913 -0.0219 -0.1234
  139DPPC    P8 6908   9.190   4.397   5.387 -0.0722 -0.1037 -0.3813
  139DPPC    O9 6909   9.222   4.501   5.488 -0.6682 -0.1405 -0.1523
  139DPPC   O10 6910   9.092   4.425   5.280  0.1552  0.5668 -0.4206
  139DPPC   O11 6911   9.319   4.353   5.302  0.1991  0.0978 -0.0782
  139DPPC   C12 6912   9.336   4.432   5.185 -0.2682 -0.5286 -0.5765
  139DPPC   C13 6913   9.402   4.357   5.069  0.1227 -0.5031 -0.3706
  139DPPC   O14 6914   9.449   4.440   4.962 -0.2969  0.1303 -0.0737
  139DPPC   C15 6915   9.562   4.516   4.972  0.1714 -0.5321 -0.2098
  139DPPC   O16 6916   9.627   4.514   5.076 -0.3515 -0.5115  0.1264
  139DPPC   C17 6917   9.575   4.626   4.867 -0.2072 -0.2221  0.0637
  139DPPC   C18 6918   9.664   4.584   4.750  0.0809 -0.3702  0.3366
  139DPPC   C19 6919   9.663   4.679   4.630  0.1054 -0.4302  0.2889
  139DPPC   C20 6920   9.700   4.608   4.500  0.2755  0.3705 -0.1012
  139DPPC   C21 6921   9.681   4.692   4.373 -0.2675  0.4088  0.0068
  139DPPC   C22 6922   9.661   4.590   4.261 -0.5941  0.2102  0.2426
  139DPPC   C23 6923   9.670   4.664   4.127 -0.1283 -0.1285  0.0844
  139DPPC   C24 6924   9.676   4.563   4.013  0.5406 -0.0918  0.0860
  139DPPC   C25 6925   9.684   4.632   3.877 -0.3596  0.3867  0.2724
  139DPPC   C26 6926   9.688   4.521   3.772 -0.5155  0.5167  0.1278
  139DPPC   C27 6927   9.744   4.571   3.639  0.0356 -0.6833 -0.1016
  139DPPC   C28 6928   9.663   4.679   3.567  0.4563 -0.1554  0.2017
  139DPPC   C29 6929   9.742   4.703   3.438 -0.2447 -0.3251 -0.2689
  139DPPC   C30 6930   9.669   4.803   3.348  0.1180  0.2337  0.0495
  139DPPC   C31 6931   9.730   4.818   3.209  0.5885  0.1912  0.2516
  139DPPC   C32 6932   9.303   4.245   5.039 -0.7112  0.1300 -0.0269
  139DPPC   O33 6933   9.364   4.119   5.011 -0.5731  0.1631  0.1222
  139DPPC   C34 6934   9.281   4.011   5.014 -0.2929 -0.0714 -0.3536
  139DPPC   O35 6935   9.168   4.032   5.058 -0.0503  0.5986 -0.0364
  139DPPC   C36 6936   9.322   3.875   4.959  0.2749  0.0089 -0.1407
  139DPPC   C37 6937   9.286   3.877   4.810 -0.2407 -0.0062 -0.0193
  139DPPC   C38 6938   9.334   3.754   4.731 -0.3428  0.3416 -0.6269
  139DPPC   C39 6939   9.288   3.783   4.588 -0.5153  0.3552 -0.5694
  139DPPC   C40 6940   9.291   3.672   4.483 -0.5564 -0.2506  0.0625
  139DPPC   C41 6941   9.234   3.723   4.350  0.4229 -0.1486 -0.3312
  139DPPC   C42 6942   9.201   3.597   4.270  0.3641 -0.5791  0.3637
  139DPPC   C43 6943   9.179   3.630   4.122 -0.4321  0.4535  0.7009
  139DPPC   C44 6944   9.062   3.724   4.095 -0.4419  0.2174 -0.1081
  139DPPC   C45 6945   9.034   3.729   3.945  0.6928 -0.0668 -0.3335
  139DPPC   C46 6946   9.117   3.822   3.856 -0.1978  0.3133 -0.7825
  139DPPC   C47 6947   9.097   3.791   3.707 -0.1598  0.3006 -0.7853
  139DPPC   C48 6948   9.167   3.888   3.612  0.6649  0.0669 -0.4260
  139DPPC   C49 6949   9.145   3.830   3.472 -0.5149 -0.4059 -0.0622
  139DPPC   C50 6950   9.218   3.912   3.365 -0.3771  0.2182  0.5010
  140DPPC    C1 6951   0.117   2.511   5.309  0.5977  0.0604  0.1659
  140DPPC    C2 6952   0.250   2.637   5.478  0.0504  0.0090  0.3247
  140DPPC    C3 6953   0.093   2.732   5.352  0.1025  0.2268  0.3906
  140DPPC    N4 6954   0.118   2.605   5.422  0.1060  0.0923  0.1457
  140DPPC    C5 6955   0.029   2.583   5.537  0.0743  0.0405  0.1113
  140DPPC    C6 6956  -0.114   2.530   5.519  0.2065  0.0722 -1.1338
  140DPPC    O7 6957  -0.188   2.623   5.439  0.0245  0.8836 -0.0372
  140DPPC    P8 6958  -0.343   2.591   5.414  0.1863  0.0504  0.0011
  140DPPC    O9 6959  -0.389   2.719   5.355 -0.0175  0.1019  0.2671
  140DPPC   O10 6960  -0.405   2.535   5.537  0.6076 -0.2713  0.0685
  140DPPC   O11 6961  -0.329   2.483   5.296 -0.5682 -0.0672  0.0149
  140DPPC   C12 6962  -0.288   2.534   5.169 -0.8969  0.2051  0.0156
  140DPPC   C13 6963  -0.295   2.420   5.066  0.0489  0.2277 -0.0813
  140DPPC   O14 6964  -0.196   2.415   4.962 -0.2124  0.5283 -0.3471
  140DPPC   C15 6965  -0.071   2.365   4.976 -0.3120  0.4297  0.2197
  140DPPC   O16 6966  -0.017   2.322   5.079  0.6770  0.3548 -0.3140
  140DPPC   C17 6967  -0.008   2.326   4.842  0.1146  0.4396  0.4129
  140DPPC   C18 6968   0.044   2.450   4.769 -0.2682  0.4201  0.1016
  140DPPC   C19 6969   0.078   2.412   4.624  0.1079  0.1140  0.2673
  140DPPC   C20 6970   0.210   2.474   4.577  0.2593 -0.4853 -0.1098
  140DPPC   C21 6971   0.237   2.461   4.427 -0.2796  0.6762 -0.3186
  140DPPC   C22 6972   0.371   2.526   4.392  0.2469 -0.3369 -0.1908
  140DPPC   C23 6973   0.449   2.456   4.280  0.6040  0.0377 -0.1801
  140DPPC   C24 6974   0.369   2.455   4.150 -0.1736 -0.1308  0.2875
  140DPPC   C25 6975   0.453   2.424   4.026  0.1768 -1.1653  0.7747
  140DPPC   C26 6976   0.390   2.392   3.890  0.3774  0.2569  0.3337
  140DPPC   C27 6977   0.496   2.372   3.781  0.1329 -0.1674  0.1708
  140DPPC   C28 6978   0.438   2.329   3.646 -0.3540  0.0776  0.2980
  140DPPC   C29 6979   0.328   2.223   3.657  0.2567 -0.5838  0.1276
  140DPPC   C30 6980   0.310   2.156   3.520 -0.5473  0.2844 -0.2032
  140DPPC   C31 6981   0.211   2.040   3.533  0.3021 -0.4951 -0.5786
  140DPPC   C32 6982  -0.436   2.439   5.009  0.0572 -0.3287 -0.2930
  140DPPC   O33 6983  -0.461   2.575   4.975 -0.3390 -0.3456 -0.0741
  140DPPC   C34 6984  -0.547   2.610   4.875  0.0733 -0.6972 -0.5543
  140DPPC   O35 6985  -0.564   2.544   4.772  0.0054 -0.5027 -0.6680
  140DPPC   C36 6986  -0.611   2.749   4.883  0.5153 -0.4896 -0.5857
  140DPPC   C37 6987  -0.756   2.700   4.890  0.1371  0.7242  0.4754
  140DPPC   C38 6988  -0.836   2.781   4.789 -0.0590  0.4269  0.3906
  140DPPC   C39 6989  -0.987   2.763   4.813 -0.0592 -0.5113 -0.2822
  140DPPC   C40 6990  -1.045   2.880   4.733  0.5562  0.1804  0.2586
  140DPPC   C41 6991  -1.013   2.867   4.584 -0.1730 -0.1873  0.1307
  140DPPC   C42 6992  -1.056   2.989   4.501  0.2752  0.0116  0.1921
  140DPPC   C43 6993  -1.033   2.967   4.352 -0.4461 -0.1117  0.0948
  140DPPC   C44 6994  -1.097   3.075   4.265  0.0104 -0.1562 -0.3032
  140DPPC   C45 6995  -1.072   3.034   4.120  0.0722 -0.7179 -0.1352
  140DPPC   C46 6996  -1.136   2.897   4.093  0.1192 -0.8404  0.3718
  140DPPC   C47 6997  -1.079   2.850   3.960  0.2103  0.7112 -0.1619
  140DPPC   C48 6998  -1.178   2.867   3.844  0.1590  0.6921 -0.1205
  140DPPC   C49 6999  -1.156   2.760   3.737 -0.1774  0.2132  0.2824
  140DPPC   C50 7000  -1.022   2.798   3.672 -0.4417  0.1267 -0.3139
  141DPPC    C1 7001   5.802   1.821   6.201  0.6496  0.0632 -0.1457
  141DPPC    C2 7002   5.648   1.688   6.091 -0.2715  0.0352  0.7826
  141DPPC    C3 7003   5.569   1.891   6.158  0.3264 -0.0902  0.2630
  141DPPC    N4 7004   5.690   1.828   6.106  0.3167 -0.0803  0.2281
  141DPPC    C5 7005   5.719   1.880   5.971 -0.4916  0.0189  0.0918
  141DPPC    C6 7006   5.763   2.027   5.967 -0.1484 -0.0981 -0.4555
  141DPPC    O7 7007   5.650   2.115   5.969 -0.1983 -0.1684  0.1045
  141DPPC    P8 7008   5.695   2.253   5.900 -0.2747 -0.1676  0.0556
  141DPPC    O9 7009   5.823   2.284   5.967 -0.2045 -0.0818 -0.1164
  141DPPC   O10 7010   5.574   2.339   5.903  0.1516  0.4792 -0.6912
  141DPPC   O11 7011   5.713   2.209   5.746 -0.1571  0.5863 -0.1508
  141DPPC   C12 7012   5.596   2.171   5.674 -0.1083  0.1343  0.0001
  141DPPC   C13 7013   5.620   2.162   5.523  0.1442 -0.0811  0.0537
  141DPPC   O14 7014   5.702   2.060   5.463  0.3402  0.0535  0.0954
  141DPPC   C15 7015   5.626   1.962   5.408 -0.1783  0.3309  0.3048
  141DPPC   O16 7016   5.505   1.949   5.419 -0.1665  0.1281  0.2033
  141DPPC   C17 7017   5.711   1.848   5.351  0.1857  0.4828  0.5379
  141DPPC   C18 7018   5.719   1.862   5.199  0.0980  0.1836  0.5041
  141DPPC   C19 7019   5.790   1.744   5.133 -0.1584  0.6038 -0.5510
  141DPPC   C20 7020   5.724   1.715   4.998  0.2965  0.1760 -0.6870
  141DPPC   C21 7021   5.573   1.698   5.021  0.4129  0.0187 -0.0315
  141DPPC   C22 7022   5.494   1.644   4.901 -0.5085  0.1606  0.5066
  141DPPC   C23 7023   5.503   1.739   4.782  0.5438 -0.0286  0.4251
  141DPPC   C24 7024   5.452   1.675   4.653  0.2388  0.2713  0.3956
  141DPPC   C25 7025   5.510   1.536   4.628  0.0134  0.3786 -0.7719
  141DPPC   C26 7026   5.469   1.481   4.491 -0.5481 -0.0836 -0.4244
  141DPPC   C27 7027   5.562   1.541   4.385 -0.2176  0.2953  0.0763
  141DPPC   C28 7028   5.528   1.487   4.246 -0.2159 -0.5683  0.4041
  141DPPC   C29 7029   5.387   1.536   4.212  0.0779  0.4907  0.6566
  141DPPC   C30 7030   5.379   1.671   4.141 -0.3377 -0.0413 -0.3356
  141DPPC   C31 7031   5.237   1.727   4.129 -0.3914  0.0717  0.7619
  141DPPC   C32 7032   5.677   2.299   5.486  0.0772 -0.1557 -0.3310
  141DPPC   O33 7033   5.582   2.406   5.491 -0.2968 -0.4909 -0.1974
  141DPPC   C34 7034   5.630   2.532   5.476 -0.2073 -0.4465  0.4445
  141DPPC   O35 7035   5.751   2.543   5.494 -0.1140  0.1869 -0.4774
  141DPPC   C36 7036   5.534   2.650   5.456 -0.0018 -0.3267  0.1509
  141DPPC   C37 7037   5.500   2.682   5.310  0.7345  0.1075  0.0729
  141DPPC   C38 7038   5.441   2.565   5.233 -0.2813  0.7477 -0.1341
  141DPPC   C39 7039   5.398   2.619   5.096 -0.6663  0.2196 -0.2282
  141DPPC   C40 7040   5.517   2.652   5.006 -0.7470  0.4555 -0.2491
  141DPPC   C41 7041   5.471   2.699   4.869 -0.4801 -0.9434 -0.8366
  141DPPC   C42 7042   5.583   2.689   4.765 -0.1577  0.0096 -0.5885
  141DPPC   C43 7043   5.538   2.726   4.624 -0.2223  0.4655 -0.4500
  141DPPC   C44 7044   5.418   2.638   4.591 -0.0533  0.1078 -0.1081
  141DPPC   C45 7045   5.364   2.679   4.454  0.3029  0.5520 -0.1185
  141DPPC   C46 7046   5.306   2.820   4.455 -0.3506  0.2879  0.7643
  141DPPC   C47 7047   5.268   2.866   4.314  0.5573  0.0849  0.4487
  141DPPC   C48 7048   5.377   2.879   4.208  0.6726 -0.4230  0.5041
  141DPPC   C49 7049   5.315   2.918   4.073  0.6380 -0.4337  0.5167
  141DPPC   C50 7050   5.210   2.821   4.019  0.4674  0.0242  0.0209
  142DPPC    C1 7051   1.515   6.081   4.902 -0.0111  0.7299  0.6828
  142DPPC    C2 7052   1.523   6.312   4.930 -0.4160 -0.2487  0.8716
  142DPPC    C3 7053   1.570   6.223   4.720  0.3348 -0.0565  0.6323
  142DPPC    N4 7054   1.481   6.208   4.835 -0.3604  0.3661  0.1590
  142DPPC    C5 7055   1.342   6.195   4.790 -0.4435 -0.0157  0.5137
  142DPPC    C6 7056   1.259   6.322   4.770 -0.6002 -0.2100 -0.1068
  142DPPC    O7 7057   1.296   6.404   4.659 -0.4582 -0.1707 -0.0296
  142DPPC    P8 7058   1.245   6.556   4.680 -0.2244 -0.0851 -0.0713
  142DPPC    O9 7059   1.333   6.641   4.597  0.3668 -0.2693  0.3595
  142DPPC   O10 7060   1.224   6.579   4.825  0.3910 -0.2636  0.0505
  142DPPC   O11 7061   1.103   6.546   4.604 -0.3083 -0.2368  0.1038
  142DPPC   C12 7062   1.120   6.507   4.467 -0.2599 -0.1786  0.0925
  142DPPC   C13 7063   0.993   6.533   4.385 -0.0864 -0.1278 -0.1591
  142DPPC   O14 7064   0.988   6.448   4.270  0.0127  0.1419 -0.3642
  142DPPC   C15 7065   0.871   6.438   4.202 -0.0585  0.1782 -0.2472
  142DPPC   O16 7066   0.760   6.467   4.246 -0.1564  0.0575 -0.4098
  142DPPC   C17 7067   0.885   6.360   4.071  0.0047 -0.1529 -0.0456
  142DPPC   C18 7068   0.779   6.392   3.964 -0.3008 -0.1905  0.2446
  142DPPC   C19 7069   0.824   6.305   3.846 -0.2994 -0.6722  0.5939
  142DPPC   C20 7070   0.726   6.281   3.732  0.6730 -0.2734 -0.3482
  142DPPC   C21 7071   0.597   6.224   3.793  0.5345 -0.1077 -0.4844
  142DPPC   C22 7072   0.615   6.077   3.830  0.1128 -0.0665 -0.1079
  142DPPC   C23 7073   0.485   6.036   3.899  0.1607  0.1246  0.0997
  142DPPC   C24 7074   0.489   5.900   3.969  0.0225  0.1040  0.0686
  142DPPC   C25 7075   0.356   5.825   3.977 -0.2320  0.5404 -0.0365
  142DPPC   C26 7076   0.259   5.923   4.044  0.0824  0.5409  0.4220
  142DPPC   C27 7077   0.122   5.857   4.065  0.1357  0.2581 -0.1243
  142DPPC   C28 7078   0.016   5.944   4.131  0.1074 -0.1426  0.3608
  142DPPC   C29 7079  -0.117   5.869   4.148 -0.0099 -0.0146  0.0122
  142DPPC   C30 7080  -0.122   5.734   4.219  0.4047 -0.5139 -0.8944
  142DPPC   C31 7081  -0.249   5.652   4.197 -0.3663  0.4304 -0.0388
  142DPPC   C32 7082   0.987   6.682   4.352  0.2497  0.0729  0.6537
  142DPPC   O33 7083   1.097   6.747   4.287  0.2536 -0.3450  0.2348
  142DPPC   C34 7084   1.060   6.874   4.255 -0.5986 -0.7351 -0.3557
  142DPPC   O35 7085   0.974   6.938   4.314  0.2288  0.3634 -0.3000
  142DPPC   C36 7086   1.171   6.939   4.171 -0.1034 -0.3757  0.5626
  142DPPC   C37 7087   1.149   7.089   4.157  0.6479 -0.3339 -0.2900
  142DPPC   C38 7088   1.039   7.125   4.056  0.3746  0.2294  0.1943
  142DPPC   C39 7089   1.034   7.269   4.006 -0.2162  0.1381 -0.0107
  142DPPC   C40 7090   0.920   7.299   3.908 -0.3215  0.2191  0.1364
  142DPPC   C41 7091   0.924   7.206   3.787 -0.1170  0.5389 -0.1039
  142DPPC   C42 7092   0.854   7.268   3.666  0.1219  0.0013 -0.5211
  142DPPC   C43 7093   0.710   7.283   3.716  0.2127  0.1318 -0.2959
  142DPPC   C44 7094   0.624   7.369   3.622 -0.1632 -0.1930 -0.2550
  142DPPC   C45 7095   0.690   7.507   3.624  0.2825 -0.4082  0.2545
  142DPPC   C46 7096   0.625   7.590   3.513  0.3328 -0.4018  0.2301
  142DPPC   C47 7097   0.685   7.730   3.506  0.0056 -0.2705  0.0162
  142DPPC   C48 7098   0.634   7.821   3.394  0.1928 -0.1178  0.0542
  142DPPC   C49 7099   0.697   7.772   3.264 -0.2040 -0.1308 -0.1330
  142DPPC   C50 7100   0.845   7.808   3.252 -0.1013 -0.4673  0.0856
  143DPPC    C1 7101   0.265   0.075   5.190 -0.4071  0.2464  0.0047
  143DPPC    C2 7102   0.085   0.219   5.274 -0.5556  0.0299 -0.5275
  143DPPC    C3 7103   0.303   0.236   5.362 -0.3745  0.0199  0.2705
  143DPPC    N4 7104   0.227   0.208   5.240 -0.3559  0.1796  0.2218
  143DPPC    C5 7105   0.258   0.305   5.134 -0.0855 -0.1015  0.0403
  143DPPC    C6 7106   0.219   0.453   5.139  0.0428 -0.0765  0.2826
  143DPPC    O7 7107   0.331   0.527   5.188 -0.0632 -0.1258  0.6042
  143DPPC    P8 7108   0.283   0.679   5.212  0.0158  0.0225 -0.1396
  143DPPC    O9 7109   0.406   0.754   5.244  0.0662 -0.1642  0.1054
  143DPPC   O10 7110   0.173   0.664   5.310  0.3456  0.0358  0.2347
  143DPPC   O11 7111   0.253   0.705   5.056  0.5592 -0.0978 -0.2648
  143DPPC   C12 7112   0.347   0.796   4.997  0.1388  0.0773 -0.6710
  143DPPC   C13 7113   0.330   0.843   4.853  0.1144 -0.0227 -0.7006
  143DPPC   O14 7114   0.241   0.955   4.845 -0.2279 -0.2713 -0.3937
  143DPPC   C15 7115   0.295   1.079   4.851  0.0969 -0.4271 -0.0547
  143DPPC   O16 7116   0.401   1.095   4.910 -0.0131  0.0312  0.0239
  143DPPC   C17 7117   0.220   1.195   4.783 -0.1938 -0.4953  0.1480
  143DPPC   C18 7118   0.116   1.144   4.683 -0.2107  0.2159 -0.2003
  143DPPC   C19 7119  -0.022   1.176   4.741 -0.0579  0.0705  0.2467
  143DPPC   C20 7120  -0.138   1.141   4.648  0.3114 -0.3142 -0.0699
  143DPPC   C21 7121  -0.186   1.266   4.574  0.0211  0.0468  0.7172
  143DPPC   C22 7122  -0.316   1.239   4.498  0.5192  0.3663 -0.2739
  143DPPC   C23 7123  -0.284   1.118   4.411  0.4798  0.2420 -0.1157
  143DPPC   C24 7124  -0.416   1.078   4.344  0.3406  0.4412  0.0396
  143DPPC   C25 7125  -0.462   1.183   4.243 -0.0781  0.2033 -0.0221
  143DPPC   C26 7126  -0.599   1.159   4.181  0.1968 -0.5819 -0.3313
  143DPPC   C27 7127  -0.628   1.273   4.083  0.8207 -0.1104  0.0261
  143DPPC   C28 7128  -0.541   1.290   3.958  0.0424  0.3048 -0.4727
  143DPPC   C29 7129  -0.570   1.166   3.873  0.2177  0.1169 -0.2612
  143DPPC   C30 7130  -0.482   1.173   3.748 -0.1934 -0.1599 -0.5671
  143DPPC   C31 7131  -0.536   1.298   3.678 -0.4489  0.1181  0.1175
  143DPPC   C32 7132   0.309   0.718   4.767  0.4490 -0.3753 -0.2753
  143DPPC   O33 7133   0.259   0.740   4.634  0.3594  0.1996 -0.1468
  143DPPC   C34 7134   0.225   0.627   4.568 -0.6535  0.6011 -0.3332
  143DPPC   O35 7135   0.174   0.538   4.636  0.6783  0.2476  0.2400
  143DPPC   C36 7136   0.181   0.648   4.423 -0.2142  0.4568 -0.4915
  143DPPC   C37 7137   0.113   0.522   4.369  0.1982  0.0175  0.0097
  143DPPC   C38 7138   0.043   0.534   4.233 -0.1420 -0.1719  0.1654
  143DPPC   C39 7139  -0.073   0.633   4.250 -0.2953 -0.3896  0.4056
  143DPPC   C40 7140  -0.154   0.655   4.122 -0.0255  0.0966  0.3183
  143DPPC   C41 7141  -0.062   0.720   4.018 -0.4087  0.2807  0.0934
  143DPPC   C42 7142  -0.089   0.644   3.888 -0.3570  0.7092 -0.1703
  143DPPC   C43 7143  -0.008   0.698   3.770  0.1331  0.0735 -0.1309
  143DPPC   C44 7144  -0.020   0.847   3.741 -0.3934  0.0264 -0.1558
  143DPPC   C45 7145   0.071   0.867   3.619  0.3982 -0.1139  0.4077
  143DPPC   C46 7146   0.106   1.011   3.582  0.5316 -0.1785  0.2819
  143DPPC   C47 7147   0.195   1.004   3.458  0.5874 -0.2465  0.3261
  143DPPC   C48 7148   0.241   1.138   3.401 -0.0271 -0.0644  0.2564
  143DPPC   C49 7149   0.142   1.248   3.363 -0.4794 -0.6930 -0.4100
  143DPPC   C50 7150   0.211   1.370   3.300 -0.6447 -0.9015 -1.0062
  144DPPC    C1 7151   8.663   0.302   5.642 -0.3480 -0.0453 -0.1364
  144DPPC    C2 7152   8.866   0.418   5.693  0.0214 -0.0675 -0.1850
  144DPPC    C3 7153   8.861   0.187   5.631 -0.0888  0.0153 -0.2027
  144DPPC    N4 7154   8.803   0.319   5.603 -0.3087 -0.0356  0.0094
  144DPPC    C5 7155   8.815   0.354   5.461  0.1498 -0.4475 -0.0566
  144DPPC    C6 7156   8.819   0.503   5.424  0.0366 -0.3037  0.4983
  144DPPC    O7 7157   8.708   0.587   5.455  0.0944 -0.1547  0.3000
  144DPPC    P8 7158   8.753   0.738   5.422 -0.1452 -0.1545 -0.0290
  144DPPC    O9 7159   8.887   0.735   5.484 -0.0377  0.3829 -0.2281
  144DPPC   O10 7160   8.642   0.813   5.485 -0.3114 -0.3863 -0.0410
  144DPPC   O11 7161   8.747   0.733   5.261 -0.0330  0.5304 -0.0570
  144DPPC   C12 7162   8.612   0.750   5.219 -0.0669 -0.4532 -0.3651
  144DPPC   C13 7163   8.596   0.708   5.073 -0.2068  0.0140 -0.4854
  144DPPC   O14 7164   8.463   0.728   5.021 -0.5427 -0.0965  0.3049
  144DPPC   C15 7165   8.443   0.851   4.966  0.2376 -0.0714  0.0492
  144DPPC   O16 7166   8.489   0.958   5.005  0.2460 -0.3371  0.7888
  144DPPC   C17 7167   8.319   0.866   4.877  0.0932  0.0220  0.2634
  144DPPC   C18 7168   8.340   0.912   4.732  0.6311 -0.2121  0.2644
  144DPPC   C19 7169   8.436   0.814   4.665  0.3356 -0.1993 -0.1795
  144DPPC   C20 7170   8.471   0.853   4.521 -0.2639 -0.4859 -0.4051
  144DPPC   C21 7171   8.343   0.835   4.440 -0.6028  0.0429  0.0060
  144DPPC   C22 7172   8.380   0.844   4.291  0.1378 -0.1258  0.1790
  144DPPC   C23 7173   8.472   0.965   4.274 -0.2136  0.1235  0.0414
  144DPPC   C24 7174   8.496   1.008   4.129 -0.0848 -0.2364 -0.0455
  144DPPC   C25 7175   8.378   1.053   4.043 -0.0303  0.2016  0.1014
  144DPPC   C26 7176   8.433   1.115   3.915  0.4375  0.0388  0.2234
  144DPPC   C27 7177   8.505   1.018   3.820  0.1655  0.1669 -0.1150
  144DPPC   C28 7178   8.576   1.108   3.719  0.3695  0.0121 -0.1078
  144DPPC   C29 7179   8.633   1.035   3.597  0.0675 -0.2230 -0.1078
  144DPPC   C30 7180   8.513   0.960   3.537 -0.4804  0.4031  0.1973
  144DPPC   C31 7181   8.558   0.908   3.400 -0.1698  0.7163  0.1792
  144DPPC   C32 7182   8.659   0.569   5.062 -0.1362  0.0023  0.0500
  144DPPC   O33 7183   8.654   0.514   4.930  0.3138  0.2905 -0.0900
  144DPPC   C34 7184   8.768   0.548   4.865  0.3888  0.0637 -0.0799
  144DPPC   O35 7185   8.863   0.592   4.930  0.6261  0.1574 -0.4814
  144DPPC   C36 7186   8.791   0.486   4.727 -0.1452 -0.1858 -0.0582
  144DPPC   C37 7187   8.662   0.470   4.647  0.0611 -0.1817 -0.3963
  144DPPC   C38 7188   8.677   0.348   4.557  0.5026 -0.3002 -0.1649
  144DPPC   C39 7189   8.555   0.355   4.465  0.0900 -0.1738  0.3872
  144DPPC   C40 7190   8.556   0.232   4.374  0.2101  0.1321 -0.0293
  144DPPC   C41 7191   8.475   0.246   4.244 -0.3664  0.1010  0.3201
  144DPPC   C42 7192   8.484   0.115   4.165 -0.6399 -0.0459  0.5306
  144DPPC   C43 7193   8.367   0.115   4.066 -0.3224 -0.2893  0.1520
  144DPPC   C44 7194   8.399   0.022   3.949  0.1071  0.4819 -0.3544
  144DPPC   C45 7195   8.263  -0.007   3.884 -0.1847  0.0420  0.4265
  144DPPC   C46 7196   8.200   0.123   3.831  0.1702 -0.1027 -0.3611
  144DPPC   C47 7197   8.063   0.118   3.763 -0.1555 -0.2465  0.3021
  144DPPC   C48 7198   8.041   0.242   3.675  0.2121 -0.2423  0.2148
  144DPPC   C49 7199   8.073   0.369   3.754 -0.3448 -0.1482  0.2886
  144DPPC   C50 7200   8.047   0.498   3.676  0.1273 -0.5752 -0.5883
  145DPPC    C1 7201   7.995   5.639   5.531 -0.1466  0.1930  0.3768
  145DPPC    C2 7202   8.244   5.655   5.562 -0.6602  0.5538  0.1462
  145DPPC    C3 7203   8.162   5.456   5.497 -0.3994  0.1191 -0.4461
  145DPPC    N4 7204   8.130   5.599   5.488 -0.3065  0.1630 -0.1009
  145DPPC    C5 7205   8.134   5.627   5.344  0.0156 -0.0282 -0.1304
  145DPPC    C6 7206   8.156   5.775   5.307 -0.1170 -0.0281 -0.2078
  145DPPC    O7 7207   8.172   5.794   5.167  0.0948 -0.1436 -0.2000
  145DPPC    P8 7208   8.176   5.952   5.135  0.0997 -0.1706 -0.3346
  145DPPC    O9 7209   8.239   5.957   5.002 -0.0551  0.4457 -0.3872
  145DPPC   O10 7210   8.239   6.016   5.253  0.7739 -0.6442 -0.4250
  145DPPC   O11 7211   8.017   5.936   5.123  0.0956 -0.1468 -0.3155
  145DPPC   C12 7212   7.991   5.904   4.986 -0.1484  0.0016 -0.3045
  145DPPC   C13 7213   7.848   5.858   4.954 -0.3358  0.3261  0.0543
  145DPPC   O14 7214   7.848   5.793   4.826 -0.5042  0.2268  0.1057
  145DPPC   C15 7215   7.751   5.702   4.797  0.1853 -0.5894  0.3396
  145DPPC   O16 7216   7.671   5.674   4.886 -0.6861 -0.0284 -0.2541
  145DPPC   C17 7217   7.725   5.675   4.649  0.0296 -0.3013  0.3143
  145DPPC   C18 7218   7.616   5.778   4.617 -0.2165 -0.7300 -0.2471
  145DPPC   C19 7219   7.575   5.746   4.473  0.0771 -0.4346 -0.3959
  145DPPC   C20 7220   7.436   5.684   4.481 -0.3138  0.4657 -0.0553
  145DPPC   C21 7221   7.398   5.625   4.345 -0.0401  0.4185 -0.1126
  145DPPC   C22 7222   7.368   5.748   4.259 -0.3290  0.3980 -0.0419
  145DPPC   C23 7223   7.257   5.839   4.312 -0.1645  0.4753  0.1724
  145DPPC   C24 7224   7.267   5.977   4.247  0.0358  0.2541 -0.2726
  145DPPC   C25 7225   7.134   6.051   4.232 -0.0962  0.2727  0.8772
  145DPPC   C26 7226   7.175   6.190   4.183 -0.4572 -0.0504 -0.3968
  145DPPC   C27 7227   7.222   6.199   4.038 -0.0498 -0.1659 -0.2746
  145DPPC   C28 7228   7.106   6.171   3.942 -0.4002 -0.6530  0.2818
  145DPPC   C29 7229   7.155   6.145   3.799 -0.3374 -0.3419  0.2446
  145DPPC   C30 7230   7.237   6.016   3.797 -0.4994 -0.4349 -0.5263
  145DPPC   C31 7231   7.284   5.990   3.654  0.1056  0.2107 -0.4505
  145DPPC   C32 7232   7.746   5.967   4.985 -0.2699  0.3469  0.1973
  145DPPC   O33 7233   7.752   6.081   4.899 -0.4371  0.0767 -0.1714
  145DPPC   C34 7234   7.642   6.159   4.916  0.0654  0.6405  0.5358
  145DPPC   O35 7235   7.568   6.148   5.014 -0.4941 -0.4636  0.0080
  145DPPC   C36 7236   7.598   6.231   4.789  0.5537 -0.6203 -0.3656
  145DPPC   C37 7237   7.503   6.146   4.703 -0.5543  0.0374  0.1816
  145DPPC   C38 7238   7.447   6.223   4.583  0.3083  0.2108 -0.1232
  145DPPC   C39 7239   7.542   6.264   4.471  0.2406  0.6113 -0.0358
  145DPPC   C40 7240   7.471   6.343   4.360 -0.2942  0.3347  0.1058
  145DPPC   C41 7241   7.555   6.398   4.244 -0.3495 -0.1097 -0.1490
  145DPPC   C42 7242   7.605   6.270   4.176 -0.3329  0.1379 -0.6064
  145DPPC   C43 7243   7.664   6.294   4.037  0.4413  0.3000 -0.2516
  145DPPC   C44 7244   7.554   6.354   3.950 -0.0369  0.5754  0.5359
  145DPPC   C45 7245   7.605   6.377   3.808 -0.4374  0.0087  0.2965
  145DPPC   C46 7246   7.490   6.448   3.736 -0.4240 -0.3755 -0.1082
  145DPPC   C47 7247   7.546   6.484   3.598  0.0642 -0.1870  0.1354
  145DPPC   C48 7248   7.575   6.358   3.515  0.2415 -0.2031  0.2204
  145DPPC   C49 7249   7.632   6.376   3.374 -0.0792 -0.4565  0.0575
  145DPPC   C50 7250   7.768   6.443   3.392 -0.3680  0.2079 -0.2295
  146DPPC    C1 7251   6.862   4.182   5.808  0.1862 -0.3162  0.1967
  146DPPC    C2 7252   7.063   4.196   5.940  0.3123  0.1225  0.5250
  146DPPC    C3 7253   6.873   4.137   6.046  0.3465  0.7560  0.2292
  146DPPC    N4 7254   6.940   4.120   5.916  0.3613  0.1084  0.3193
  146DPPC    C5 7255   6.983   3.981   5.893 -0.2332 -0.0682  0.2695
  146DPPC    C6 7256   6.875   3.887   5.838  0.1752 -0.1714 -0.3573
  146DPPC    O7 7257   6.918   3.752   5.816  0.0735 -0.2757  0.0859
  146DPPC    P8 7258   6.795   3.656   5.779 -0.0556 -0.1121  0.0919
  146DPPC    O9 7259   6.670   3.703   5.844  0.0293  0.2190  0.0187
  146DPPC   O10 7260   6.840   3.515   5.781 -0.1167 -0.1310  0.1316
  146DPPC   O11 7261   6.777   3.694   5.623 -0.0590 -0.3450  0.0349
  146DPPC   C12 7262   6.863   3.613   5.543  0.5428 -0.1258  0.4507
  146DPPC   C13 7263   6.885   3.642   5.394 -0.1136 -0.5302  0.2725
  146DPPC   O14 7264   6.989   3.735   5.361 -0.2659 -0.4293  0.0723
  146DPPC   C15 7265   7.121   3.707   5.382 -0.1820  0.0081  0.1427
  146DPPC   O16 7266   7.158   3.637   5.477 -0.2835 -0.3774 -0.0980
  146DPPC   C17 7267   7.212   3.814   5.323 -0.1658 -0.1124 -0.0494
  146DPPC   C18 7268   7.146   3.899   5.215  0.3802  0.8314  0.3504
  146DPPC   C19 7269   7.170   3.833   5.079  0.0769  0.6587  0.3786
  146DPPC   C20 7270   7.323   3.832   5.071  0.0568 -0.0996 -0.0289
  146DPPC   C21 7271   7.361   3.783   4.932  0.3325 -0.0212  0.0173
  146DPPC   C22 7272   7.302   3.887   4.836  0.1027 -0.0874  0.0875
  146DPPC   C23 7273   7.357   3.860   4.696  0.1616 -0.2034  0.1327
  146DPPC   C24 7274   7.509   3.880   4.683  0.1978 -0.1377  0.6348
  146DPPC   C25 7275   7.537   3.881   4.533  0.2768 -0.1120  0.6498
  146DPPC   C26 7276   7.529   3.738   4.480  0.8418  0.1836 -0.2677
  146DPPC   C27 7277   7.569   3.753   4.333  0.4452 -0.4093 -0.4393
  146DPPC   C28 7278   7.501   3.878   4.277  0.4328 -0.2769 -0.1270
  146DPPC   C29 7279   7.549   3.917   4.137 -0.2618 -0.2412 -0.3542
  146DPPC   C30 7280   7.481   4.049   4.099 -0.0220  0.2255  0.7828
  146DPPC   C31 7281   7.465   4.053   3.947  0.1635  0.2408  0.7643
  146DPPC   C32 7282   6.758   3.695   5.326  0.3574 -0.2256 -0.3760
  146DPPC   O33 7283   6.662   3.596   5.287  0.2319 -0.2150 -0.0881
  146DPPC   C34 7284   6.559   3.647   5.215 -0.0981 -0.1474  0.4283
  146DPPC   O35 7285   6.561   3.757   5.162 -1.0410  0.0027  0.6711
  146DPPC   C36 7286   6.437   3.554   5.215 -0.0700 -0.1842 -0.0301
  146DPPC   C37 7287   6.370   3.553   5.077 -0.2118 -0.5181  0.0396
  146DPPC   C38 7288   6.280   3.436   5.039 -0.4875 -0.3466  0.1578
  146DPPC   C39 7289   6.188   3.493   4.930 -0.2576  0.0260  0.1599
  146DPPC   C40 7290   6.256   3.524   4.796  0.2051 -0.1126  0.3588
  146DPPC   C41 7291   6.164   3.587   4.691  0.4798 -0.3126 -0.0001
  146DPPC   C42 7292   6.232   3.606   4.555  0.2296 -0.4349 -0.1411
  146DPPC   C43 7293   6.134   3.683   4.466  0.2164  0.0855  0.3150
  146DPPC   C44 7294   6.165   3.643   4.321 -0.0391 -0.1227  0.3156
  146DPPC   C45 7295   6.052   3.701   4.236 -0.3674 -0.7358  0.3293
  146DPPC   C46 7296   6.065   3.633   4.100 -0.0044  0.3278 -0.1810
  146DPPC   C47 7297   5.962   3.701   4.008 -0.1067 -0.1467 -0.4216
  146DPPC   C48 7298   5.953   3.648   3.865 -0.4349 -0.4578 -0.2872
  146DPPC   C49 7299   5.835   3.708   3.789 -0.2205  0.4711  0.0982
  146DPPC   C50 7300   5.703   3.667   3.855  0.1375 -0.4645  0.2465
  147DPPC    C1 7301   8.218   3.129   6.124 -0.6246  0.1509  1.0752
  147DPPC    C2 7302   8.072   2.940   6.128  0.3597 -0.5349  0.1521
  147DPPC    C3 7303   7.982   3.162   6.161  0.4046  0.2119  0.1612
  147DPPC    N4 7304   8.083   3.082   6.091 -0.1743 -0.4982  0.1217
  147DPPC    C5 7305   8.061   3.078   5.945 -0.4271 -0.0667  0.1464
  147DPPC    C6 7306   8.070   3.210   5.869  0.1454  0.1015  0.5025
  147DPPC    O7 7307   7.972   3.313   5.884  0.2472  0.1990  0.4964
  147DPPC    P8 7308   8.049   3.453   5.865  0.3871  0.0466 -0.0541
  147DPPC    O9 7309   8.168   3.426   5.949  0.0278 -0.7953  0.1940
  147DPPC   O10 7310   7.962   3.571   5.881 -0.2232 -0.3478 -0.3958
  147DPPC   O11 7311   8.083   3.425   5.710  0.0665  0.1946 -0.1515
  147DPPC   C12 7312   7.961   3.469   5.649 -0.0365  0.1407  0.0163
  147DPPC   C13 7313   8.004   3.459   5.502  0.2869 -0.3057  0.1377
  147DPPC   O14 7314   7.911   3.526   5.416  0.3289 -0.1916  0.1807
  147DPPC   C15 7315   7.956   3.647   5.372 -0.2881  0.1863  0.5728
  147DPPC   O16 7316   8.052   3.697   5.430  0.0880  0.5645 -0.3559
  147DPPC   C17 7317   7.858   3.712   5.274 -0.1808 -0.1977  0.2091
  147DPPC   C18 7318   7.884   3.670   5.129  0.3247  0.5568  0.0753
  147DPPC   C19 7319   7.748   3.682   5.060  0.3376 -0.4110 -0.1373
  147DPPC   C20 7320   7.769   3.645   4.913 -0.2832 -0.0443 -0.3239
  147DPPC   C21 7321   7.867   3.748   4.854 -0.1231  0.1389  0.2606
  147DPPC   C22 7322   7.888   3.715   4.706 -0.0475  0.4202  0.2093
  147DPPC   C23 7323   7.970   3.825   4.639 -0.4588  0.2188 -0.6401
  147DPPC   C24 7324   7.973   3.779   4.493 -0.0880 -0.3042 -0.4729
  147DPPC   C25 7325   7.999   3.902   4.406 -0.2129 -0.0235 -0.1165
  147DPPC   C26 7326   8.011   3.868   4.258 -0.3299 -0.4038 -0.0385
  147DPPC   C27 7327   8.011   3.995   4.173 -0.2283 -0.6275 -0.3760
  147DPPC   C28 7328   7.890   4.083   4.205  0.5257  0.4837 -0.5010
  147DPPC   C29 7329   7.898   4.218   4.134 -0.0546  0.6053 -0.3357
  147DPPC   C30 7330   7.760   4.286   4.142 -0.2885  0.0422  0.4867
  147DPPC   C31 7331   7.758   4.407   4.050  0.2070 -0.2248  0.1155
  147DPPC   C32 7332   8.036   3.311   5.480  0.1170 -0.3180 -0.0266
  147DPPC   O33 7333   7.930   3.226   5.524  0.0623 -0.0931  0.2828
  147DPPC   C34 7334   7.953   3.093   5.536 -0.0808 -0.1514 -0.0642
  147DPPC   O35 7335   8.057   3.034   5.566 -0.0674  0.1310  0.4602
  147DPPC   C36 7336   7.826   3.010   5.564  0.0547 -0.2640  0.2218
  147DPPC   C37 7337   7.832   2.870   5.503 -0.2387 -0.1450 -0.0817
  147DPPC   C38 7338   7.833   2.866   5.351  0.1789 -0.2635 -0.0748
  147DPPC   C39 7339   7.808   2.724   5.300 -0.2940 -0.2199  0.0329
  147DPPC   C40 7340   7.816   2.731   5.148  0.3980  0.3162  0.0851
  147DPPC   C41 7341   7.713   2.818   5.075 -0.2856 -0.6126 -0.0800
  147DPPC   C42 7342   7.740   2.805   4.924  0.5433 -0.0363  0.0094
  147DPPC   C43 7343   7.626   2.884   4.860  0.0056 -0.6653  0.1720
  147DPPC   C44 7344   7.636   2.864   4.709  0.1035  0.8215 -0.0368
  147DPPC   C45 7345   7.519   2.941   4.648 -0.5192 -0.0260  0.0607
  147DPPC   C46 7346   7.513   2.941   4.495  0.2092  0.1559  0.0265
  147DPPC   C47 7347   7.382   3.012   4.461 -0.0477 -0.4030 -0.1546
  147DPPC   C48 7348   7.333   3.017   4.316 -0.8040  0.2211  0.1141
  147DPPC   C49 7349   7.184   3.045   4.294 -0.8096  0.2131  0.1420
  147DPPC   C50 7350   7.143   3.048   4.147 -0.1764 -0.1227 -0.0469
  148DPPC    C1 7351   2.598   6.556   5.410  0.4316 -0.7123  0.2478
  148DPPC    C2 7352   2.822   6.580   5.474 -0.9696 -0.7070  0.2443
  148DPPC    C3 7353   2.754   6.608   5.243  0.4432  0.0518 -0.0863
  148DPPC    N4 7354   2.719   6.635   5.384 -0.1594  0.0479 -0.2322
  148DPPC    C5 7355   2.711   6.778   5.414 -0.0269 -0.0580  0.3181
  148DPPC    C6 7356   2.793   6.884   5.339  0.0840 -0.1834  0.2613
  148DPPC    O7 7357   2.933   6.858   5.331  0.1747  0.3714  0.0307
  148DPPC    P8 7358   3.020   6.992   5.355  0.0806  0.4584 -0.1122
  148DPPC    O9 7359   3.161   6.951   5.343 -0.1852 -0.2259 -0.9824
  148DPPC   O10 7360   2.982   7.058   5.482  0.5555  0.6136 -0.0510
  148DPPC   O11 7361   2.959   7.068   5.227 -0.4462 -0.0687 -0.1826
  148DPPC   C12 7362   3.018   7.042   5.100 -0.1059  0.1881 -0.0794
  148DPPC   C13 7363   2.926   7.086   4.986  0.2358  0.1924 -0.3571
  148DPPC   O14 7364   2.960   7.018   4.865 -0.0365 -0.1059 -0.2667
  148DPPC   C15 7365   2.938   6.886   4.840 -0.9493  0.1132 -0.6606
  148DPPC   O16 7366   2.871   6.821   4.921  0.3435  0.1818  0.5050
  148DPPC   C17 7367   2.995   6.822   4.714 -0.4257 -0.2997 -0.2214
  148DPPC   C18 7368   2.900   6.733   4.633 -1.0509  0.0499  0.1216
  148DPPC   C19 7369   2.963   6.658   4.515  0.2614  0.1196  0.7628
  148DPPC   C20 7370   3.051   6.767   4.453 -0.1438 -0.0705 -0.1504
  148DPPC   C21 7371   3.147   6.687   4.364 -0.8329 -0.7782 -0.2726
  148DPPC   C22 7372   3.205   6.778   4.256 -0.2408  0.0327  0.7106
  148DPPC   C23 7373   3.110   6.861   4.170 -0.2155 -0.5459  0.1181
  148DPPC   C24 7374   3.189   6.933   4.061 -0.1355 -0.7044  0.0709
  148DPPC   C25 7375   3.248   6.840   3.955  0.7403 -0.3960  0.2776
  148DPPC   C26 7376   3.292   6.919   3.832  0.1441 -0.0548  0.2771
  148DPPC   C27 7377   3.404   6.837   3.767  0.1405  0.0636  0.1191
  148DPPC   C28 7378   3.474   6.913   3.654  0.3679  0.2332  0.3704
  148DPPC   C29 7379   3.563   6.819   3.573 -0.5782 -0.2623 -0.1142
  148DPPC   C30 7380   3.616   6.890   3.448  0.4568 -0.0283  0.4480
  148DPPC   C31 7381   3.740   6.806   3.413  0.0419 -0.3493 -0.2877
  148DPPC   C32 7382   2.942   7.238   4.989 -0.0916  0.2211 -0.0470
  148DPPC   O33 7383   3.074   7.290   5.009  0.0168  0.1816 -0.6568
  148DPPC   C34 7384   3.074   7.426   5.023  0.0169  0.1043  0.1317
  148DPPC   O35 7385   2.966   7.484   5.021 -0.0292  0.0073 -0.4710
  148DPPC   C36 7386   3.202   7.509   5.012  0.4159 -0.5599 -0.3704
  148DPPC   C37 7387   3.242   7.569   4.877  0.3404 -0.0211 -0.1584
  148DPPC   C38 7388   3.366   7.657   4.890 -0.2247  0.6659  0.6187
  148DPPC   C39 7389   3.439   7.679   4.757  0.0941 -0.1950  0.6499
  148DPPC   C40 7390   3.488   7.542   4.709  0.4269  0.2489 -0.2927
  148DPPC   C41 7391   3.547   7.559   4.569  0.1524 -0.0194 -0.4405
  148DPPC   C42 7392   3.655   7.667   4.561 -0.0486  0.2104 -0.0379
  148DPPC   C43 7393   3.703   7.680   4.417 -0.7661 -0.4661 -0.3472
  148DPPC   C44 7394   3.818   7.589   4.373 -0.4966 -0.2856 -0.0236
  148DPPC   C45 7395   3.864   7.619   4.230 -0.3989  0.9663  0.2618
  148DPPC   C46 7396   3.926   7.494   4.167 -0.1496  0.9885  0.4619
  148DPPC   C47 7397   3.952   7.531   4.020  0.0105 -0.5521  0.0922
  148DPPC   C48 7398   4.033   7.427   3.942  0.0126 -0.1858 -0.3954
  148DPPC   C49 7399   4.045   7.467   3.795 -0.0306 -0.2115 -0.4059
  148DPPC   C50 7400   4.138   7.370   3.721 -0.0969 -0.3189 -0.3476
  149DPPC    C1 7401   5.161   0.562   5.238 -0.7396  0.0572  0.2072
  149DPPC    C2 7402   5.223   0.617   5.013  0.0480  0.3495  0.1093
  149DPPC    C3 7403   5.060   0.735   5.139  0.5124  0.2918  1.2001
  149DPPC    N4 7404   5.193   0.672   5.146  0.3720 -0.1116  0.3753
  149DPPC    C5 7405   5.288   0.772   5.195  0.5163  0.2125 -0.5512
  149DPPC    C6 7406   5.376   0.751   5.318 -0.0608 -0.0409 -0.1788
  149DPPC    O7 7407   5.470   0.853   5.356  0.1177 -0.3181  0.1295
  149DPPC    P8 7408   5.585   0.798   5.454  0.4738 -0.1082 -0.1714
  149DPPC    O9 7409   5.544   0.666   5.506  0.5297 -0.0945 -0.0905
  149DPPC   O10 7410   5.655   0.901   5.535 -0.3039  0.3680 -0.0948
  149DPPC   O11 7411   5.675   0.736   5.336 -0.0456 -0.5916 -0.3180
  149DPPC   C12 7412   5.766   0.835   5.285 -0.6523  0.0819 -0.1156
  149DPPC   C13 7413   5.791   0.820   5.135 -0.1347  0.3133 -0.0530
  149DPPC   O14 7414   5.909   0.891   5.093 -0.0236  0.1108 -0.0853
  149DPPC   C15 7415   6.018   0.840   5.031  0.0088  0.3806 -0.2543
  149DPPC   O16 7416   6.046   0.721   5.044 -0.0792  0.3510 -0.3353
  149DPPC   C17 7417   6.116   0.946   4.981 -0.6326  1.0012 -0.1968
  149DPPC   C18 7418   6.100   0.954   4.829 -0.4627  0.5661 -0.2359
  149DPPC   C19 7419   6.211   1.033   4.760  0.4079 -0.3575  0.0714
  149DPPC   C20 7420   6.206   1.014   4.608  0.3550  0.5901 -0.0548
  149DPPC   C21 7421   6.291   1.108   4.523  0.6354  0.1584 -0.2514
  149DPPC   C22 7422   6.302   1.040   4.386  0.1444  0.2357 -0.3324
  149DPPC   C23 7423   6.381   1.137   4.299  0.7212  0.0833  0.0178
  149DPPC   C24 7424   6.411   1.085   4.158 -0.7546 -0.4757 -0.0978
  149DPPC   C25 7425   6.515   1.189   4.115  0.0014 -1.1755  0.0231
  149DPPC   C26 7426   6.503   1.251   3.976  0.1891  0.2409  0.6249
  149DPPC   C27 7427   6.624   1.344   3.968  0.1635  0.2054 -0.2142
  149DPPC   C28 7428   6.620   1.414   3.832 -0.4485  0.1520 -0.2261
  149DPPC   C29 7429   6.719   1.532   3.830  0.0728 -0.2796  0.0765
  149DPPC   C30 7430   6.702   1.620   3.707  0.2981  0.5666  0.6444
  149DPPC   C31 7431   6.573   1.703   3.702  0.2510  0.4619 -0.0111
  149DPPC   C32 7432   5.656   0.844   5.067 -0.2636 -0.0249  0.0838
  149DPPC   O33 7433   5.655   0.833   4.925  0.7439  0.0753  0.0611
  149DPPC   C34 7434   5.535   0.879   4.881  0.3973 -0.5773  0.2971
  149DPPC   O35 7435   5.431   0.882   4.946  0.2117 -0.8021  0.0159
  149DPPC   C36 7436   5.522   0.887   4.728 -1.0076 -0.1124  0.4261
  149DPPC   C37 7437   5.535   1.030   4.676 -0.5202 -0.3466 -0.1090
  149DPPC   C38 7438   5.534   1.047   4.524 -0.8517 -0.6068 -0.1361
  149DPPC   C39 7439   5.654   1.009   4.436 -0.1227  0.3260  0.4355
  149DPPC   C40 7440   5.652   1.054   4.290 -0.1359 -0.3695  0.2169
  149DPPC   C41 7441   5.771   1.000   4.211 -0.1990  0.3107 -0.3580
  149DPPC   C42 7442   5.883   1.097   4.173 -0.1111  0.0782 -0.6964
  149DPPC   C43 7443   5.807   1.211   4.106 -0.0132  0.1411 -0.7013
  149DPPC   C44 7444   5.880   1.259   3.981  0.3728 -0.7495 -0.8243
  149DPPC   C45 7445   5.804   1.379   3.924  0.3598 -0.0900  0.5604
  149DPPC   C46 7446   5.849   1.436   3.790 -0.2351 -0.6440  0.1220
  149DPPC   C47 7447   5.766   1.556   3.743 -0.0109 -0.1279  1.0191
  149DPPC   C48 7448   5.616   1.533   3.723  0.1058  0.0211 -0.0677
  149DPPC   C49 7449   5.542   1.666   3.707 -0.0834 -0.0663  0.0698
  149DPPC   C50 7450   5.389   1.661   3.701 -0.0807  0.1935 -0.2689
  150DPPC    C1 7451   4.648   0.967   5.845 -0.2575 -0.0537 -0.0693
  150DPPC    C2 7452   4.781   0.793   5.773 -0.1241 -0.0118  0.8992
  150DPPC    C3 7453   4.690   0.953   5.614  0.1087 -0.4021 -0.3370
  150DPPC    N4 7454   4.751   0.935   5.746 -0.3453 -0.2438 -0.0996
  150DPPC    C5 7455   4.860   1.032   5.762 -0.0952 -0.6321  0.6101
  150DPPC    C6 7456   4.988   1.017   5.679 -0.4186 -1.0363  0.1765
  150DPPC    O7 7457   4.980   1.048   5.540 -0.0524 -0.1094  0.3494
  150DPPC    P8 7458   5.113   1.022   5.452 -0.0913  0.1661  0.2077
  150DPPC    O9 7459   5.140   0.883   5.496  0.5693 -0.0541 -0.8736
  150DPPC   O10 7460   5.214   1.127   5.477 -0.0020 -0.0077  0.5965
  150DPPC   O11 7461   5.047   1.019   5.306 -0.4404  0.1278  0.3644
  150DPPC   C12 7462   5.002   1.153   5.287  0.1521  0.3096  0.2233
  150DPPC   C13 7463   4.873   1.186   5.211  0.1300 -0.1570  0.0588
  150DPPC   O14 7464   4.747   1.149   5.270 -0.0837 -0.1192 -0.3713
  150DPPC   C15 7465   4.662   1.251   5.297  0.1259 -0.0733  0.1364
  150DPPC   O16 7466   4.690   1.367   5.268  0.9453 -0.0678  0.9444
  150DPPC   C17 7467   4.520   1.216   5.342  0.2031 -0.8110 -0.1813
  150DPPC   C18 7468   4.420   1.312   5.279 -0.1279 -0.3993  0.9366
  150DPPC   C19 7469   4.340   1.228   5.179  0.2329  0.0537  0.2590
  150DPPC   C20 7470   4.232   1.315   5.115  0.0947 -0.4466 -0.1972
  150DPPC   C21 7471   4.136   1.244   5.020 -0.0290  0.0999 -0.4862
  150DPPC   C22 7472   4.042   1.348   4.959 -0.1054  0.5035  0.3149
  150DPPC   C23 7473   3.910   1.271   4.942 -0.0872  0.3396  0.8962
  150DPPC   C24 7474   3.800   1.351   4.872  0.0927 -0.2402 -0.0572
  150DPPC   C25 7475   3.687   1.260   4.823  0.0829  0.0177 -0.5174
  150DPPC   C26 7476   3.589   1.344   4.741  0.0317  0.3168 -0.1526
  150DPPC   C27 7477   3.471   1.250   4.712 -0.0398  0.2557  0.3321
  150DPPC   C28 7478   3.354   1.346   4.692 -0.0842 -0.0036 -0.7046
  150DPPC   C29 7479   3.233   1.281   4.625 -0.2909 -0.0329 -0.3073
  150DPPC   C30 7480   3.280   1.245   4.484  0.1144  0.1647 -0.2252
  150DPPC   C31 7481   3.167   1.163   4.420 -0.1689  0.3157  0.0799
  150DPPC   C32 7482   4.889   1.125   5.071  0.4113 -0.2908  0.1489
  150DPPC   O33 7483   5.007   1.162   4.999  0.0009 -0.0362 -0.3986
  150DPPC   C34 7484   5.058   1.083   4.901  0.6051 -0.4333  0.2172
  150DPPC   O35 7485   5.020   0.966   4.897  0.5954 -0.4196 -0.1394
  150DPPC   C36 7486   5.158   1.146   4.804  0.2788 -0.4957 -0.1631
  150DPPC   C37 7487   5.090   1.181   4.671  0.1370 -0.4982 -0.0913
  150DPPC   C38 7488   5.176   1.268   4.579  0.0338  0.5652  0.7920
  150DPPC   C39 7489   5.107   1.300   4.446  0.5028 -0.1283  0.3747
  150DPPC   C40 7490   5.092   1.179   4.354  0.7274  0.4042 -0.3702
  150DPPC   C41 7491   5.011   1.228   4.234  0.4029 -0.1180 -0.3686
  150DPPC   C42 7492   4.968   1.119   4.136  0.3832 -0.6343  0.2061
  150DPPC   C43 7493   4.836   1.151   4.064  0.5948  0.3103  0.2180
  150DPPC   C44 7494   4.723   1.180   4.163 -0.2974 -0.4460 -0.5623
  150DPPC   C45 7495   4.589   1.188   4.090 -0.5571  0.3595 -0.0040
  150DPPC   C46 7496   4.492   1.268   4.178 -0.3462 -0.0348  0.5912
  150DPPC   C47 7497   4.351   1.237   4.129 -0.0600 -0.1210 -0.2075
  150DPPC   C48 7498   4.354   1.270   3.980 -0.3984  0.3686 -0.1107
  150DPPC   C49 7499   4.212   1.274   3.923 -0.5324  0.6868  0.2429
  150DPPC   C50 7500   4.212   1.320   3.777  0.2981  0.1101  0.0566
  151DPPC    C1 7501   0.944   0.973   5.123  0.8021 -0.5276  0.1251
  151DPPC    C2 7502   1.072   0.814   5.007 -0.2564 -0.3072 -0.4617
  151DPPC    C3 7503   0.964   0.756   5.214 -0.7958  0.0279  0.4724
  151DPPC    N4 7504   0.951   0.831   5.088  0.0398 -0.5426  0.0347
  151DPPC    C5 7505   0.840   0.800   4.996 -0.1938  0.1583  0.0711
  151DPPC    C6 7506   0.753   0.680   5.035 -0.2997  0.1992 -0.0404
  151DPPC    O7 7507   0.660   0.638   4.935 -0.3502  0.0419  0.0725
  151DPPC    P8 7508   0.630   0.481   4.950 -0.2823  0.0603  0.4025
  151DPPC    O9 7509   0.494   0.435   4.913 -0.1095 -0.0975 -0.0537
  151DPPC   O10 7510   0.702   0.433   5.070 -0.2029 -0.3214  0.2043
  151DPPC   O11 7511   0.712   0.458   4.813  0.2000  0.3303  0.6434
  151DPPC   C12 7512   0.618   0.474   4.706  0.4611  0.0798  0.3767
  151DPPC   C13 7513   0.671   0.502   4.565 -0.1835 -0.4151  0.0308
  151DPPC   O14 7514   0.709   0.388   4.486  0.1257 -0.5296  0.3415
  151DPPC   C15 7515   0.825   0.321   4.506  0.6630  0.2000 -0.2640
  151DPPC   O16 7516   0.902   0.345   4.600  0.3645  0.1541 -0.0057
  151DPPC   C17 7517   0.846   0.206   4.408 -0.4918 -0.4184  0.1921
  151DPPC   C18 7518   0.883   0.250   4.266 -0.3568  0.0127  0.3582
  151DPPC   C19 7519   0.910   0.128   4.176 -0.3171  0.8359 -0.7671
  151DPPC   C20 7520   0.992   0.165   4.053  0.5382  0.6303 -0.2663
  151DPPC   C21 7521   0.915   0.255   3.956  0.1795 -0.0198 -0.5914
  151DPPC   C22 7522   0.806   0.181   3.879 -0.0952 -0.1117 -0.1179
  151DPPC   C23 7523   0.866   0.084   3.777 -0.0132 -0.6953  0.4779
  151DPPC   C24 7524   0.760   0.004   3.701 -0.0489  0.0891 -0.3225
  151DPPC   C25 7525   0.667   0.096   3.622 -0.1785  0.2000 -0.0440
  151DPPC   C26 7526   0.569   0.028   3.526  0.4075 -0.0001 -0.5030
  151DPPC   C27 7527   0.506   0.129   3.430 -0.6236 -0.2307 -0.0751
  151DPPC   C28 7528   0.429   0.236   3.508  0.2280  0.2716  0.0806
  151DPPC   C29 7529   0.338   0.335   3.435  0.0631 -0.0723 -0.1812
  151DPPC   C30 7530   0.298   0.456   3.519 -0.6029 -0.2437 -0.2452
  151DPPC   C31 7531   0.226   0.570   3.446 -0.6638 -0.1849 -0.0935
  151DPPC   C32 7532   0.772   0.617   4.576 -0.2073 -0.4607  0.8082
  151DPPC   O33 7533   0.703   0.731   4.630 -0.1108 -0.1533  0.2960
  151DPPC   C34 7534   0.773   0.845   4.653  0.0266 -0.2537  0.3814
  151DPPC   O35 7535   0.895   0.839   4.642 -0.0042 -0.0926 -0.0965
  151DPPC   C36 7536   0.697   0.977   4.664  0.0881 -0.1554 -0.3099
  151DPPC   C37 7537   0.626   1.002   4.531 -0.0236 -0.5554 -0.3257
  151DPPC   C38 7538   0.477   1.035   4.530 -0.0479 -0.6174  0.4658
  151DPPC   C39 7539   0.416   1.015   4.391 -0.1688 -0.0366  0.4325
  151DPPC   C40 7540   0.265   1.030   4.377 -0.1560 -0.0311  0.2990
  151DPPC   C41 7541   0.226   1.017   4.229 -0.2906 -0.2979  0.3566
  151DPPC   C42 7542   0.079   1.058   4.220 -0.2734 -0.3495 -0.2238
  151DPPC   C43 7543   0.028   1.066   4.076  0.0195 -0.3695 -0.3290
  151DPPC   C44 7544   0.124   1.169   4.016 -0.1179 -0.0232  0.0403
  151DPPC   C45 7545   0.098   1.320   4.028 -0.1962  0.0182 -0.5928
  151DPPC   C46 7546   0.180   1.406   3.932  0.3673  0.1669  0.0109
  151DPPC   C47 7547   0.130   1.398   3.788  0.0553 -0.2625  0.1395
  151DPPC   C48 7548  -0.002   1.474   3.769 -0.0904 -0.5962 -0.1882
  151DPPC   C49 7549  -0.040   1.489   3.621 -0.4581 -0.1782 -0.0526
  151DPPC   C50 7550  -0.186   1.531   3.604 -0.3514 -0.0523 -0.6513
  152DPPC    C1 7551   4.819   1.881   5.994 -0.3931  0.4923 -0.0243
  152DPPC    C2 7552   5.031   1.894   5.872  0.0570  0.0448 -0.7055
  152DPPC    C3 7553   4.965   1.690   5.952 -0.0122  0.5060 -0.2770
  152DPPC    N4 7554   4.910   1.815   5.899 -0.1441  0.6187  0.1251
  152DPPC    C5 7555   4.843   1.795   5.769  0.4886 -0.1873 -0.0892
  152DPPC    C6 7556   4.733   1.694   5.738 -0.1973  0.5447 -0.0951
  152DPPC    O7 7557   4.602   1.731   5.693 -0.2900 -0.0064 -0.2882
  152DPPC    P8 7558   4.498   1.608   5.683 -0.1912 -0.1057 -0.1081
  152DPPC    O9 7559   4.400   1.605   5.793 -0.6110 -0.5133 -0.4911
  152DPPC   O10 7560   4.569   1.489   5.631  0.4137  0.4297 -0.5244
  152DPPC   O11 7561   4.413   1.693   5.576  0.1556  0.7018  0.2443
  152DPPC   C12 7562   4.487   1.704   5.454  0.3191  0.1414  0.2872
  152DPPC   C13 7563   4.410   1.782   5.348  0.4715 -0.2297 -0.0975
  152DPPC   O14 7564   4.415   1.719   5.219  0.3572 -0.1981 -0.1176
  152DPPC   C15 7565   4.288   1.712   5.170  0.1410 -0.2848  0.4458
  152DPPC   O16 7566   4.194   1.689   5.245  0.0975 -0.3689  0.3657
  152DPPC   C17 7567   4.279   1.688   5.019 -0.6621  0.3586  0.3871
  152DPPC   C18 7568   4.314   1.816   4.943  0.6357  0.0578  0.4643
  152DPPC   C19 7569   4.462   1.853   4.922  0.3334  0.6942 -0.6586
  152DPPC   C20 7570   4.462   1.984   4.844 -0.4683  0.7065 -0.6526
  152DPPC   C21 7571   4.601   2.048   4.837 -0.2216  0.2738  0.1574
  152DPPC   C22 7572   4.642   2.080   4.693 -0.3233  0.8472  0.2530
  152DPPC   C23 7573   4.776   2.153   4.700  0.0606  0.2067 -0.2699
  152DPPC   C24 7574   4.823   2.181   4.557  0.1602 -0.4685 -0.3726
  152DPPC   C25 7575   4.745   2.305   4.514  0.4017 -0.2361 -0.1539
  152DPPC   C26 7576   4.775   2.330   4.366 -0.2307  0.8814 -0.1114
  152DPPC   C27 7577   4.747   2.206   4.280  0.7793 -0.0443  0.8624
  152DPPC   C28 7578   4.867   2.172   4.191  0.1391 -0.3532  0.1107
  152DPPC   C29 7579   4.847   2.047   4.105  0.5891 -0.4964  0.2133
  152DPPC   C30 7580   4.936   2.035   3.981  0.3958  0.2254  0.0028
  152DPPC   C31 7581   4.855   2.119   3.882 -0.1890 -0.2520  0.0726
  152DPPC   C32 7582   4.431   1.934   5.353 -0.2153 -0.1356  0.0427
  152DPPC   O33 7583   4.571   1.960   5.341 -0.2761  0.5485  0.7394
  152DPPC   C34 7584   4.613   2.084   5.303 -0.3207  0.3576  0.0573
  152DPPC   O35 7585   4.537   2.177   5.280 -0.7993 -0.2131 -0.7239
  152DPPC   C36 7586   4.756   2.089   5.249 -0.1308 -0.4216  0.4737
  152DPPC   C37 7587   4.781   1.964   5.165 -0.1214  0.0452 -0.2273
  152DPPC   C38 7588   4.919   1.966   5.097  0.0980  0.3136  0.2202
  152DPPC   C39 7589   4.924   1.844   5.004 -0.1113  0.1736  0.3912
  152DPPC   C40 7590   5.049   1.873   4.922 -0.2033  0.4146  0.3339
  152DPPC   C41 7591   5.074   1.768   4.813  0.1860  0.3455  0.4871
  152DPPC   C42 7592   4.961   1.785   4.710  0.6558 -0.1155 -0.1130
  152DPPC   C43 7593   4.985   1.705   4.582 -0.1059 -0.1121 -0.2634
  152DPPC   C44 7594   4.894   1.750   4.468  0.4300  0.9360 -0.2855
  152DPPC   C45 7595   4.906   1.655   4.350 -0.1131  0.1517  0.2827
  152DPPC   C46 7596   4.835   1.710   4.225 -0.3237 -0.3371  0.1834
  152DPPC   C47 7597   4.855   1.622   4.102 -0.4609  0.1534 -0.1890
  152DPPC   C48 7598   4.750   1.655   3.996 -0.2532  0.2894 -0.3556
  152DPPC   C49 7599   4.766   1.560   3.878 -0.1430 -0.1380  0.0029
  152DPPC   C50 7600   4.647   1.562   3.783 -0.0417 -0.3871 -0.1321
  153DPPC    C1 7601   1.985   1.358   5.547 -0.6151 -0.6062 -0.3080
  153DPPC    C2 7602   2.146   1.226   5.657  0.2020  0.5488 -0.4324
  153DPPC    C3 7603   1.914   1.168   5.644 -0.4092  0.8097  0.4141
  153DPPC    N4 7604   2.029   1.219   5.568 -0.1098 -0.3939  0.0408
  153DPPC    C5 7605   2.033   1.152   5.437 -0.4849 -0.2063 -0.0681
  153DPPC    C6 7606   2.073   1.004   5.441 -0.2885 -0.1552 -0.1621
  153DPPC    O7 7607   2.210   0.983   5.476 -0.3680 -0.0951  0.1835
  153DPPC    P8 7608   2.217   0.835   5.540  0.2981 -0.0183  0.3006
  153DPPC    O9 7609   2.079   0.800   5.581  0.0248  0.1488 -0.4596
  153DPPC   O10 7610   2.337   0.827   5.625  0.2683  0.1619  0.3593
  153DPPC   O11 7611   2.249   0.762   5.400 -0.4005 -0.1648  0.2119
  153DPPC   C12 7612   2.376   0.802   5.348 -0.5227 -0.2400 -0.1435
  153DPPC   C13 7613   2.445   0.702   5.254 -0.0927  0.4045 -0.5252
  153DPPC   O14 7614   2.565   0.750   5.193  0.4277 -0.0067  0.1622
  153DPPC   C15 7615   2.651   0.663   5.133  0.4270  0.0451  0.0859
  153DPPC   O16 7616   2.648   0.544   5.163 -0.4666 -0.0658 -0.4076
  153DPPC   C17 7617   2.744   0.710   5.020 -0.0464  0.0595 -0.3015
  153DPPC   C18 7618   2.694   0.657   4.886  0.1927  0.2910 -0.4818
  153DPPC   C19 7619   2.785   0.691   4.767  0.0618  0.4140 -0.5468
  153DPPC   C20 7620   2.723   0.637   4.638 -0.3501 -0.0545 -0.1608
  153DPPC   C21 7621   2.851   0.623   4.554 -0.2634 -0.2828  0.0069
  153DPPC   C22 7622   2.836   0.537   4.428 -0.3586 -0.0098 -0.1685
  153DPPC   C23 7623   2.956   0.543   4.334  0.2333 -0.2056  0.5601
  153DPPC   C24 7624   2.917   0.461   4.211  0.3623  0.7428 -0.1336
  153DPPC   C25 7625   2.984   0.500   4.080 -0.1632  0.5854 -0.4529
  153DPPC   C26 7626   2.942   0.430   3.950 -0.0935 -0.2316 -0.0401
  153DPPC   C27 7627   3.010   0.495   3.830  0.3664 -0.1375  0.2654
  153DPPC   C28 7628   2.972   0.433   3.695 -0.5282  0.7395  0.1028
  153DPPC   C29 7629   2.988   0.507   3.561  0.5069 -0.1901 -0.2983
  153DPPC   C30 7630   2.904   0.440   3.452  0.1012  0.3357 -0.3116
  153DPPC   C31 7631   2.970   0.307   3.413  0.1376  0.2483  0.0513
  153DPPC   C32 7632   2.335   0.670   5.153 -0.1654 -0.2277 -0.2509
  153DPPC   O33 7633   2.365   0.577   5.048  0.2702 -0.2483 -0.1089
  153DPPC   C34 7634   2.262   0.523   4.977 -0.0431 -0.1494  0.2667
  153DPPC   O35 7635   2.148   0.554   5.011  0.0650 -0.1285  0.6197
  153DPPC   C36 7636   2.287   0.454   4.843  0.0038 -0.1964  0.2998
  153DPPC   C37 7637   2.196   0.480   4.723  0.1456  0.4966  0.3435
  153DPPC   C38 7638   2.254   0.418   4.596 -0.1507 -0.1139  0.5025
  153DPPC   C39 7639   2.149   0.416   4.485  0.0983  0.1829  0.2573
  153DPPC   C40 7640   2.160   0.532   4.386  0.3158 -0.0796 -0.0300
  153DPPC   C41 7641   2.047   0.524   4.284 -0.0868 -0.2424  0.4247
  153DPPC   C42 7642   2.050   0.644   4.190 -0.4247 -0.0465  0.6624
  153DPPC   C43 7643   1.905   0.648   4.140 -0.1983  0.4450  0.0289
  153DPPC   C44 7644   1.802   0.680   4.248 -0.5206  0.3022 -0.2338
  153DPPC   C45 7645   1.666   0.660   4.182 -0.5552  0.0468 -0.0890
  153DPPC   C46 7646   1.563   0.737   4.265 -0.6312 -0.1659  0.0141
  153DPPC   C47 7647   1.598   0.886   4.256 -0.7273 -0.1378  0.0956
  153DPPC   C48 7648   1.510   0.981   4.337 -0.6525  0.0698 -0.0662
  153DPPC   C49 7649   1.542   1.119   4.279  0.0504 -0.0483  0.0357
  153DPPC   C50 7650   1.447   1.217   4.348 -0.1058 -0.0843 -0.1281
  154DPPC    C1 7651   9.055   7.669   5.445 -0.1766 -0.2923 -0.2649
  154DPPC    C2 7652   9.143   7.882   5.411 -0.0156  0.3079 -0.4307
  154DPPC    C3 7653   9.001   7.785   5.246 -0.3463  0.1809 -0.0300
  154DPPC    N4 7654   9.022   7.802   5.391  0.2035 -0.1164 -0.0737
  154DPPC    C5 7655   8.904   7.850   5.464  0.1261 -0.1787 -0.1582
  154DPPC    C6 7656   8.848   7.992   5.452  0.4656 -0.0348 -0.0598
  154DPPC    O7 7657   8.769   8.007   5.333  0.1865 -0.3741  0.0781
  154DPPC    P8 7658   8.745   8.162   5.298 -0.4077 -0.4464  0.1657
  154DPPC    O9 7659   8.722   8.237   5.424  0.0803  0.0859 -0.0600
  154DPPC   O10 7660   8.656   8.185   5.181  0.1273  0.2384 -0.1139
  154DPPC   O11 7661   8.896   8.186   5.248 -0.4155 -0.3337  0.1968
  154DPPC   C12 7662   8.901   8.239   5.115  0.3471 -0.3953  0.1983
  154DPPC   C13 7663   9.037   8.297   5.073  0.1812 -0.2899 -0.1974
  154DPPC   O14 7664   9.032   8.376   4.953 -0.6357 -0.2099 -0.1196
  154DPPC   C15 7665   9.138   8.449   4.909 -0.5490  0.1481  0.6630
  154DPPC   O16 7666   9.240   8.474   4.974  0.2275 -0.1873 -0.3965
  154DPPC   C17 7667   9.111   8.510   4.772  0.2908 -0.1299  0.3641
  154DPPC   C18 7668   9.199   8.627   4.728 -0.0486  0.0388  0.1225
  154DPPC   C19 7669   9.146   8.702   4.606  0.3105 -0.4299 -0.3291
  154DPPC   C20 7670   9.248   8.800   4.548 -0.3183  0.3777 -0.0951
  154DPPC   C21 7671   9.254   8.771   4.398 -0.2287 -0.2389  0.0254
  154DPPC   C22 7672   9.111   8.808   4.356 -0.0753  0.2466 -0.0680
  154DPPC   C23 7673   9.100   8.801   4.203 -0.0852  0.1023 -0.0602
  154DPPC   C24 7674   8.959   8.816   4.145 -0.3255 -0.2996  0.4092
  154DPPC   C25 7675   8.960   8.756   4.005 -0.2761  0.1110  0.2321
  154DPPC   C26 7676   8.823   8.788   3.944  0.0020  0.4901 -0.2040
  154DPPC   C27 7677   8.786   8.713   3.815  0.5359 -0.2422  0.0583
  154DPPC   C28 7678   8.875   8.760   3.700  0.6233 -0.4676  0.0349
  154DPPC   C29 7679   8.843   8.685   3.571  0.0970 -0.4493  0.1531
  154DPPC   C30 7680   8.860   8.537   3.605  0.0921 -0.4027  0.3563
  154DPPC   C31 7681   8.841   8.447   3.483 -0.3887 -0.1838  0.2677
  154DPPC   C32 7682   9.114   8.167   5.049  0.3048 -0.3699  0.6208
  154DPPC   O33 7683   9.053   8.072   4.961  0.3756  0.1164  0.0461
  154DPPC   C34 7684   9.116   7.962   4.913  0.2815  0.2951 -0.4967
  154DPPC   O35 7685   9.232   7.929   4.938  0.2286  0.6249  0.1909
  154DPPC   C36 7686   9.035   7.877   4.814  0.4124  0.1976 -0.5208
  154DPPC   C37 7687   8.961   7.960   4.709 -0.2585  0.3176  0.0365
  154DPPC   C38 7688   8.892   7.873   4.604  0.1262  0.5377 -0.4044
  154DPPC   C39 7689   8.804   7.944   4.501 -0.1993  0.5293 -0.1333
  154DPPC   C40 7690   8.733   7.844   4.410  0.2870  0.4049 -0.3783
  154DPPC   C41 7691   8.606   7.898   4.344 -0.1463 -0.3544 -0.1797
  154DPPC   C42 7692   8.553   7.833   4.216 -0.0429  0.3021 -0.5612
  154DPPC   C43 7693   8.660   7.806   4.110  0.3880  0.2148 -0.1079
  154DPPC   C44 7694   8.616   7.733   3.983 -0.1934  0.0254  0.1990
  154DPPC   C45 7695   8.747   7.708   3.907 -0.3055  0.0870 -0.0134
  154DPPC   C46 7696   8.748   7.568   3.846  0.2956 -0.0314  0.2652
  154DPPC   C47 7697   8.878   7.552   3.766 -0.1075 -0.3966 -0.3250
  154DPPC   C48 7698   8.881   7.645   3.644 -0.3052  0.5879  0.4083
  154DPPC   C49 7699   9.026   7.647   3.594 -0.5351  0.1324 -0.2831
  154DPPC   C50 7700   9.054   7.731   3.469  0.3154  0.3540  0.0524
  155DPPC    C1 7701   3.647   4.189   6.451 -0.5243  0.3432 -0.3099
  155DPPC    C2 7702   3.607   3.950   6.444 -0.6530 -0.2716 -0.2217
  155DPPC    C3 7703   3.449   4.102   6.529 -0.9788 -0.2598  0.0047
  155DPPC    N4 7704   3.548   4.083   6.423 -0.3760 -0.0290  0.5208
  155DPPC    C5 7705   3.510   4.117   6.285  0.4509 -0.1921  0.2460
  155DPPC    C6 7706   3.397   4.041   6.217  0.0904  0.1990  0.4044
  155DPPC    O7 7707   3.368   4.104   6.092  0.0720  0.2535  0.4362
  155DPPC    P8 7708   3.232   4.053   6.023  0.1222  0.0638  0.4768
  155DPPC    O9 7709   3.178   4.170   5.951  0.0137 -0.2478  0.0443
  155DPPC   O10 7710   3.163   3.966   6.122 -0.2735 -0.0729  0.0871
  155DPPC   O11 7711   3.311   3.955   5.923  0.3230  0.2014  0.5010
  155DPPC   C12 7712   3.404   4.017   5.834  0.1986  0.0048  0.2302
  155DPPC   C13 7713   3.452   3.923   5.723 -0.0473  0.0144  0.1144
  155DPPC   O14 7714   3.537   3.998   5.635 -0.0652 -0.0582  0.0361
  155DPPC   C15 7715   3.652   3.944   5.585 -0.1647 -0.2730  0.0368
  155DPPC   O16 7716   3.727   3.887   5.663  0.5167  0.0596 -0.3625
  155DPPC   C17 7717   3.698   4.002   5.451 -0.1806 -0.6753 -0.1433
  155DPPC   C18 7718   3.611   3.969   5.330 -0.3699 -0.1678 -0.1489
  155DPPC   C19 7719   3.678   4.029   5.206  0.1248  0.0615  0.2258
  155DPPC   C20 7720   3.609   3.991   5.075 -0.0416 -0.1833  0.3830
  155DPPC   C21 7721   3.672   4.083   4.970 -0.6288 -0.0121  0.1759
  155DPPC   C22 7722   3.566   4.092   4.860 -0.1964  0.2220 -0.2282
  155DPPC   C23 7723   3.633   4.172   4.749  0.2088  0.1829 -0.0138
  155DPPC   C24 7724   3.558   4.173   4.616 -0.1075  0.1117  0.1649
  155DPPC   C25 7725   3.661   4.222   4.514 -0.1746 -0.1372 -0.0234
  155DPPC   C26 7726   3.628   4.209   4.365  0.0189 -0.6903 -0.0219
  155DPPC   C27 7727   3.757   4.203   4.283 -0.0649 -0.0067 -0.2060
  155DPPC   C28 7728   3.731   4.179   4.134 -0.4218 -0.5343 -0.0627
  155DPPC   C29 7729   3.689   4.287   4.034  0.0789 -0.3544 -0.0831
  155DPPC   C30 7730   3.677   4.225   3.894 -0.6465 -0.2744 -0.0607
  155DPPC   C31 7731   3.660   4.346   3.802  0.2964  0.0979  0.2402
  155DPPC   C32 7732   3.331   3.863   5.652  0.1154 -0.5143  0.2836
  155DPPC   O33 7733   3.355   3.759   5.557  0.3365 -0.0193 -0.2042
  155DPPC   C34 7734   3.246   3.705   5.495  0.2706 -0.3351  0.1838
  155DPPC   O35 7735   3.134   3.727   5.540  0.1629  0.1429 -0.3019
  155DPPC   C36 7736   3.277   3.602   5.386 -0.3255 -0.6483  0.3036
  155DPPC   C37 7737   3.327   3.658   5.253  0.0596 -0.2661  0.6048
  155DPPC   C38 7738   3.334   3.543   5.152 -0.3378 -0.1154  0.4039
  155DPPC   C39 7739   3.348   3.598   5.010  0.4079 -0.2297  0.4295
  155DPPC   C40 7740   3.357   3.483   4.909 -0.2541  0.0886  0.0028
  155DPPC   C41 7741   3.330   3.534   4.767 -0.1588  0.0335 -0.0352
  155DPPC   C42 7742   3.352   3.408   4.682  0.0802 -0.0445  0.1396
  155DPPC   C43 7743   3.382   3.457   4.540  0.0739 -0.1508  0.1020
  155DPPC   C44 7744   3.402   3.352   4.431  0.6500  0.0967 -0.0354
  155DPPC   C45 7745   3.453   3.402   4.296 -0.2326  0.2090 -0.3292
  155DPPC   C46 7746   3.478   3.286   4.200  0.3369  0.0313  0.0352
  155DPPC   C47 7747   3.529   3.326   4.061 -0.1470 -0.3472 -0.2540
  155DPPC   C48 7748   3.574   3.198   3.991 -0.1640 -0.4938 -0.0008
  155DPPC   C49 7749   3.603   3.234   3.845 -0.4832 -0.0791  0.0349
  155DPPC   C50 7750   3.486   3.264   3.752  0.0756  0.9957 -0.3426
  156DPPC    C1 7751   7.338   2.706   6.066  0.1012 -0.4582 -0.1005
  156DPPC    C2 7752   7.117   2.697   6.163  0.2986  0.3082 -0.1001
  156DPPC    C3 7753   7.182   2.874   6.020  0.5017 -0.2815 -0.0691
  156DPPC    N4 7754   7.195   2.730   6.043  0.1617 -0.3601 -0.3732
  156DPPC    C5 7755   7.162   2.656   5.919 -0.1709  0.3727 -0.7255
  156DPPC    C6 7756   7.181   2.505   5.916 -0.2152  0.3389  0.1793
  156DPPC    O7 7757   7.102   2.455   5.807  0.3689 -0.1882 -0.0135
  156DPPC    P8 7758   7.155   2.307   5.774  0.1569 -0.2747  0.0313
  156DPPC    O9 7759   7.068   2.244   5.671 -0.1607 -0.0833  0.1799
  156DPPC   O10 7760   7.201   2.244   5.900 -0.1628 -0.1529  0.2095
  156DPPC   O11 7761   7.282   2.348   5.685 -0.1405 -0.3028 -0.4116
  156DPPC   C12 7762   7.241   2.443   5.586 -0.2955  0.1057  0.0416
  156DPPC   C13 7763   7.350   2.483   5.486  0.0737  0.0031  0.3990
  156DPPC   O14 7764   7.305   2.569   5.380  0.2119 -0.5122 -0.0809
  156DPPC   C15 7765   7.299   2.701   5.410 -0.9888 -0.6289  0.2385
  156DPPC   O16 7766   7.317   2.725   5.530  0.4525 -0.0766 -0.0595
  156DPPC   C17 7767   7.261   2.801   5.301  0.1643 -0.3570  0.0717
  156DPPC   C18 7768   7.358   2.815   5.183 -0.4000  0.0934 -0.3402
  156DPPC   C19 7769   7.274   2.898   5.084 -0.7473 -0.1024 -0.2130
  156DPPC   C20 7770   7.148   2.821   5.044 -0.5546 -0.4179 -0.2163
  156DPPC   C21 7771   7.044   2.897   4.962 -0.3100  0.5159  0.3231
  156DPPC   C22 7772   6.949   2.793   4.902 -0.0492  0.4549  0.0115
  156DPPC   C23 7773   6.847   2.865   4.814  0.2496  0.4213 -0.3666
  156DPPC   C24 7774   6.931   2.940   4.711  0.1887  0.4463 -0.3986
  156DPPC   C25 7775   6.863   3.020   4.600  0.3335  0.5074 -0.4430
  156DPPC   C26 7776   6.766   3.125   4.653  0.1186 -0.1622  0.5128
  156DPPC   C27 7777   6.779   3.267   4.597 -0.2530 -0.1430  0.4747
  156DPPC   C28 7778   6.666   3.291   4.496  0.1527 -0.3023 -0.0227
  156DPPC   C29 7779   6.696   3.416   4.413 -0.4468  0.0329  0.2564
  156DPPC   C30 7780   6.585   3.438   4.310 -0.0772 -0.2213 -0.1968
  156DPPC   C31 7781   6.608   3.563   4.223 -0.3030 -0.3464 -0.4367
  156DPPC   C32 7782   7.440   2.362   5.459 -0.2741 -0.0929 -0.3506
  156DPPC   O33 7783   7.379   2.241   5.415 -0.1202 -0.3639  0.1758
  156DPPC   C34 7784   7.465   2.138   5.395  0.0591 -0.1241 -0.3042
  156DPPC   O35 7785   7.577   2.138   5.447 -0.0684 -0.1785 -0.0271
  156DPPC   C36 7786   7.419   2.018   5.312 -0.1259 -0.3887  0.1749
  156DPPC   C37 7787   7.538   1.965   5.232 -0.0524 -0.2569  0.1967
  156DPPC   C38 7788   7.500   1.843   5.147 -0.0373 -0.0021 -0.1745
  156DPPC   C39 7789   7.411   1.883   5.029  0.5322  0.2611 -0.5238
  156DPPC   C40 7790   7.360   1.765   4.946 -0.3215  0.6788 -0.6152
  156DPPC   C41 7791   7.265   1.810   4.836 -0.1857  0.1869 -0.9356
  156DPPC   C42 7792   7.130   1.854   4.894  0.3844  0.3592  0.2659
  156DPPC   C43 7793   7.039   1.923   4.793  0.1398 -0.9266 -0.4068
  156DPPC   C44 7794   6.889   1.938   4.821  0.3685  0.2160  0.2763
  156DPPC   C45 7795   6.834   2.024   4.707 -0.2343 -0.2691  0.1966
  156DPPC   C46 7796   6.682   2.009   4.709 -0.3085  0.4031 -0.0996
  156DPPC   C47 7797   6.620   2.056   4.577 -0.0535  0.3674 -0.2326
  156DPPC   C48 7798   6.645   1.944   4.476 -0.1816 -0.1879  0.3356
  156DPPC   C49 7799   6.598   1.983   4.335 -0.3785  0.3745  0.5526
  156DPPC   C50 7800   6.635   2.124   4.290 -0.1434  0.1883  0.1550
  157DPPC    C1 7801   0.231   1.034   5.317  0.4438 -0.1925 -0.1871
  157DPPC    C2 7802   0.146   1.208   5.433  0.2294  0.6277 -0.3324
  157DPPC    C3 7803   0.386   1.177   5.427 -0.4085 -0.6671  0.5263
  157DPPC    N4 7804   0.261   1.174   5.349  0.0721 -0.0922 -0.2694
  157DPPC    C5 7805   0.278   1.245   5.221  0.6911  0.1920 -0.0365
  157DPPC    C6 7806   0.314   1.393   5.228  0.3832  0.2653  0.0363
  157DPPC    O7 7807   0.223   1.486   5.288  0.1932  0.0969  0.0102
  157DPPC    P8 7808   0.310   1.596   5.367  0.1789  0.0624  0.0731
  157DPPC    O9 7809   0.389   1.513   5.460 -0.5666 -0.6615  0.0688
  157DPPC   O10 7810   0.206   1.698   5.399  0.1342  0.1852 -0.4629
  157DPPC   O11 7811   0.406   1.658   5.254  0.1550 -0.4910 -0.2491
  157DPPC   C12 7812   0.338   1.767   5.193  0.1348 -0.1752  0.3265
  157DPPC   C13 7813   0.414   1.825   5.074 -0.6371  0.1007 -0.0419
  157DPPC   O14 7814   0.359   1.942   5.011 -0.4461  0.0919 -0.2283
  157DPPC   C15 7815   0.355   2.059   5.081  0.5326  0.1419 -0.2357
  157DPPC   O16 7816   0.387   2.070   5.199 -0.5492  1.0393 -0.0035
  157DPPC   C17 7817   0.307   2.179   4.999  0.0891 -0.1770 -0.4491
  157DPPC   C18 7818   0.329   2.170   4.848 -0.0180  0.1552 -0.4860
  157DPPC   C19 7819   0.471   2.210   4.804  0.2940 -0.6152 -0.1949
  157DPPC   C20 7820   0.476   2.196   4.652  0.3093  0.2275 -0.2753
  157DPPC   C21 7821   0.483   2.048   4.614  1.1541  0.2287 -0.1487
  157DPPC   C22 7822   0.508   2.036   4.463  0.2362 -0.1203 -0.2808
  157DPPC   C23 7823   0.509   1.892   4.410  0.4536 -0.2359  0.0292
  157DPPC   C24 7824   0.509   1.903   4.257  0.2238  0.3135  0.0669
  157DPPC   C25 7825   0.403   2.002   4.207  0.0137  0.0489 -0.0164
  157DPPC   C26 7826   0.391   1.993   4.055  0.8512 -0.1525 -0.0775
  157DPPC   C27 7827   0.392   1.848   4.007  0.3216 -0.2244  0.1265
  157DPPC   C28 7828   0.391   1.854   3.854  0.5273 -0.2226  0.1256
  157DPPC   C29 7829   0.373   1.709   3.807  0.1912 -0.2221  0.2556
  157DPPC   C30 7830   0.358   1.694   3.655  0.5667  0.1104  0.1841
  157DPPC   C31 7831   0.363   1.550   3.606 -0.3773  0.1155  0.0389
  157DPPC   C32 7832   0.422   1.707   4.977 -0.1507  0.2774 -0.2246
  157DPPC   O33 7833   0.290   1.662   4.944 -0.1460  0.2174 -0.1647
  157DPPC   C34 7834   0.277   1.556   4.859 -0.3379 -0.4496  0.6922
  157DPPC   O35 7835   0.367   1.474   4.844 -0.2094 -0.1189 -0.4276
  157DPPC   C36 7836   0.136   1.534   4.804 -0.3355  0.1075  0.4549
  157DPPC   C37 7837   0.054   1.660   4.777 -0.2396  0.0025 -0.3554
  157DPPC   C38 7838   0.125   1.762   4.687 -0.0104  0.2043  0.0489
  157DPPC   C39 7839   0.034   1.886   4.683  0.0125  0.2378  0.5870
  157DPPC   C40 7840   0.087   1.999   4.595  0.3896  0.0629  0.5853
  157DPPC   C41 7841  -0.025   2.088   4.540 -0.0970 -0.5118  0.6316
  157DPPC   C42 7842  -0.124   2.008   4.456  0.0005  0.1784 -0.1513
  157DPPC   C43 7843  -0.230   2.090   4.382  0.1478  0.3903 -0.1292
  157DPPC   C44 7844  -0.329   2.011   4.296 -0.1304  0.3519  0.2229
  157DPPC   C45 7845  -0.411   2.111   4.215  0.0485 -0.0609 -0.4810
  157DPPC   C46 7846  -0.501   2.037   4.116  0.2161 -0.4611 -0.3365
  157DPPC   C47 7847  -0.586   2.144   4.047  0.0879 -0.3185  0.0379
  157DPPC   C48 7848  -0.511   2.239   3.952 -0.0808  0.0297  0.2509
  157DPPC   C49 7849  -0.607   2.342   3.892  0.2621  0.1259 -0.1412
  157DPPC   C50 7850  -0.701   2.265   3.799  0.6421 -0.0648 -0.3672
  158DPPC    C1 7851   2.830   0.855   5.436 -0.1315 -0.2251 -0.2546
  158DPPC    C2 7852   2.919   0.630   5.489 -0.3407  0.0993  0.4416
  158DPPC    C3 7853   2.994   0.736   5.310 -0.0782  0.6142 -0.0513
  158DPPC    N4 7854   2.947   0.767   5.446 -0.0405 -0.0632  0.1193
  158DPPC    C5 7855   3.043   0.825   5.542  0.1765 -0.4419  0.1336
  158DPPC    C6 7856   3.142   0.937   5.508 -0.5280 -0.0749 -0.7623
  158DPPC    O7 7857   3.094   1.070   5.525 -0.0913 -0.0134  0.0225
  158DPPC    P8 7858   3.214   1.154   5.593  0.2978 -0.5174 -0.0402
  158DPPC    O9 7859   3.276   1.065   5.694  0.3160 -0.2374  0.1965
  158DPPC   O10 7860   3.185   1.297   5.618 -0.2205 -0.6311  0.0322
  158DPPC   O11 7861   3.319   1.147   5.471  0.6266  0.1234  0.2003
  158DPPC   C12 7862   3.276   1.238   5.370  0.5318 -0.0403  0.0921
  158DPPC   C13 7863   3.387   1.275   5.271  0.6871  0.1254  0.3265
  158DPPC   O14 7864   3.373   1.404   5.211  0.2976 -0.2639 -0.4321
  158DPPC   C15 7865   3.487   1.472   5.185  0.1726  0.5792  1.1370
  158DPPC   O16 7866   3.601   1.428   5.201  0.1111 -0.1567 -0.2959
  158DPPC   C17 7867   3.473   1.557   5.059 -0.9893 -0.2424  0.7003
  158DPPC   C18 7868   3.413   1.695   5.090  0.5782  0.5585  0.2720
  158DPPC   C19 7869   3.405   1.789   4.969 -0.8263 -0.1429 -0.2039
  158DPPC   C20 7870   3.334   1.725   4.850 -0.1429 -0.4446 -0.4541
  158DPPC   C21 7871   3.340   1.814   4.726 -0.2706  0.4553  0.1745
  158DPPC   C22 7872   3.238   1.752   4.629  0.0822 -0.5854  0.4538
  158DPPC   C23 7873   3.262   1.788   4.483 -0.0821 -1.0123  0.3217
  158DPPC   C24 7874   3.163   1.720   4.388 -0.2655 -0.1044 -0.1508
  158DPPC   C25 7875   3.191   1.759   4.243 -0.3868 -0.0267 -0.1532
  158DPPC   C26 7876   3.099   1.682   4.148 -0.3683 -0.0745 -0.1320
  158DPPC   C27 7877   3.149   1.710   4.006  0.0941 -0.2639 -0.0088
  158DPPC   C28 7878   3.064   1.644   3.898 -0.3512  0.3588 -0.0475
  158DPPC   C29 7879   3.108   1.678   3.755 -0.1707  0.1457 -0.0441
  158DPPC   C30 7880   3.253   1.643   3.721 -0.2036 -0.2785  0.2449
  158DPPC   C31 7881   3.296   1.723   3.598  0.3233  0.0257  0.6233
  158DPPC   C32 7882   3.410   1.157   5.176 -0.3977  0.0292  0.1699
  158DPPC   O33 7883   3.294   1.104   5.110 -0.0112  0.4301 -0.8426
  158DPPC   C34 7884   3.328   1.006   5.021  0.3298  0.1570 -0.4178
  158DPPC   O35 7885   3.440   0.959   5.007  0.3520  0.0815 -0.0069
  158DPPC   C36 7886   3.204   0.978   4.935  0.3276 -0.0433 -0.3496
  158DPPC   C37 7887   3.144   0.842   4.970 -0.4143  0.2210 -0.5795
  158DPPC   C38 7888   3.211   0.720   4.907  0.1457 -0.0625  0.5269
  158DPPC   C39 7889   3.123   0.596   4.894  0.1744 -0.0217 -0.1215
  158DPPC   C40 7890   3.194   0.511   4.788 -0.5418 -0.3187 -0.3648
  158DPPC   C41 7891   3.217   0.590   4.659  0.0931 -0.2678 -0.2219
  158DPPC   C42 7892   3.291   0.494   4.566  0.6192 -0.1518  0.0738
  158DPPC   C43 7893   3.329   0.563   4.435  0.4924 -0.7013 -0.2557
  158DPPC   C44 7894   3.434   0.670   4.466  0.0913 -0.3339 -0.1568
  158DPPC   C45 7895   3.518   0.713   4.346  0.1712  0.3024  0.1231
  158DPPC   C46 7896   3.600   0.833   4.395  0.3324  0.2031  0.0988
  158DPPC   C47 7897   3.692   0.888   4.286 -0.3122  0.0947 -0.5093
  158DPPC   C48 7898   3.776   1.007   4.332  0.2058 -0.2004 -0.6876
  158DPPC   C49 7899   3.876   1.052   4.225  0.0134  0.0886 -0.7473
  158DPPC   C50 7900   3.971   0.936   4.195  0.0669 -0.0265 -0.1512
  159DPPC    C1 7901   3.479   8.299   4.840 -0.9158  0.4856  0.2316
  159DPPC    C2 7902   3.397   8.073   4.826 -0.1431  0.2954 -0.2192
  159DPPC    C3 7903   3.558   8.128   4.985  0.0460 -0.1792 -0.6484
  159DPPC    N4 7904   3.438   8.181   4.918 -0.2193  0.1090  0.0347
  159DPPC    C5 7905   3.320   8.205   5.002 -0.0709  0.2159  0.2113
  159DPPC    C6 7906   3.288   8.335   5.076 -0.3704  0.0587  0.3577
  159DPPC    O7 7907   3.225   8.436   4.996  0.0698  0.1626  0.1435
  159DPPC    P8 7908   3.231   8.577   5.073 -0.0966  0.2310  0.0318
  159DPPC    O9 7909   3.230   8.540   5.216  0.5270  0.0068 -0.0175
  159DPPC   O10 7910   3.126   8.659   5.009  0.1159  0.4677 -0.0161
  159DPPC   O11 7911   3.377   8.615   5.015 -0.1522 -0.1910 -0.3910
  159DPPC   C12 7912   3.384   8.728   4.927  0.4214  0.5284  0.5589
  159DPPC   C13 7913   3.525   8.760   4.875  0.2044  0.0748 -0.3317
  159DPPC   O14 7914   3.552   8.897   4.844 -0.0595  0.2055  0.0041
  159DPPC   C15 7915   3.565   8.998   4.935  0.8559 -0.0005  0.1156
  159DPPC   O16 7916   3.545   8.973   5.054 -0.6736 -0.3607 -0.1920
  159DPPC   C17 7917   3.585   9.139   4.881 -0.1744  0.2959  0.4782
  159DPPC   C18 7918   3.708   9.158   4.792  0.1698  0.5325  0.9982
  159DPPC   C19 7919   3.729   9.302   4.747 -0.1278  0.0914 -0.6270
  159DPPC   C20 7920   3.875   9.332   4.714 -0.1053  0.0222 -0.5896
  159DPPC   C21 7921   3.894   9.477   4.670 -0.0554  0.1332 -0.2061
  159DPPC   C22 7922   4.045   9.505   4.674 -0.0281 -0.0324 -0.0814
  159DPPC   C23 7923   4.124   9.488   4.543 -0.4118 -0.2468 -0.2875
  159DPPC   C24 7924   4.272   9.513   4.569 -0.5712  0.3253  0.0904
  159DPPC   C25 7925   4.351   9.514   4.438 -0.7070  0.3600  0.0088
  159DPPC   C26 7926   4.348   9.374   4.376 -0.1674  0.2434  0.2470
  159DPPC   C27 7927   4.398   9.381   4.232  0.1094  0.0289  0.3310
  159DPPC   C28 7928   4.364   9.244   4.173 -0.1239  0.1764  0.1220
  159DPPC   C29 7929   4.446   9.205   4.050 -0.2075 -0.4205  0.2513
  159DPPC   C30 7930   4.433   9.306   3.935 -0.4193  0.2468  0.8542
  159DPPC   C31 7931   4.299   9.320   3.863 -0.1425 -0.2427  0.2401
  159DPPC   C32 7932   3.551   8.663   4.759 -0.5284 -0.5027 -0.0249
  159DPPC   O33 7933   3.461   8.675   4.649 -0.5662 -0.3474  0.0225
  159DPPC   C34 7934   3.496   8.595   4.545 -0.0149  0.2148 -0.2271
  159DPPC   O35 7935   3.592   8.518   4.546  0.0633  0.3134  0.2989
  159DPPC   C36 7936   3.403   8.616   4.425 -0.4675  0.2067  0.1215
  159DPPC   C37 7937   3.484   8.667   4.306 -0.2150 -0.4463  0.0072
  159DPPC   C38 7938   3.386   8.748   4.221  0.6370  0.3186 -0.2577
  159DPPC   C39 7939   3.459   8.803   4.098  0.7048  0.5856 -0.0991
  159DPPC   C40 7940   3.368   8.810   3.975  0.1597 -0.6154  0.2205
  159DPPC   C41 7941   3.450   8.873   3.862 -0.5436  0.0679  0.0845
  159DPPC   C42 7942   3.552   8.779   3.799 -0.6503 -0.0036  0.0170
  159DPPC   C43 7943   3.612   8.859   3.683  0.1361 -0.3881  0.1470
  159DPPC   C44 7944   3.714   8.774   3.608  0.0210 -0.1947 -0.2278
  159DPPC   C45 7945   3.761   8.838   3.477 -0.3014  0.2230 -0.1416
  159DPPC   C46 7946   3.645   8.888   3.392 -0.4687 -0.8156 -0.5420
  159DPPC   C47 7947   3.710   8.999   3.309  0.2925 -0.3208  0.6983
  159DPPC   C48 7948   3.843   8.944   3.256  0.1112  0.1324 -0.2474
  159DPPC   C49 7949   3.911   9.065   3.193 -0.1598  0.4047 -0.0239
  159DPPC   C50 7950   3.831   9.125   3.077 -0.4224 -0.1224 -0.1223
  160DPPC    C1 7951   0.974   3.532   5.719  0.1454  0.0833  0.0056
  160DPPC    C2 7952   0.879   3.434   5.526 -0.0637  0.4153  0.4920
  160DPPC    C3 7953   0.977   3.637   5.500  0.5289 -0.1119 -0.3039
  160DPPC    N4 7954   0.994   3.511   5.575  0.3677  0.0700  0.0366
  160DPPC    C5 7955   1.118   3.436   5.548  0.4052  0.1344  0.0291
  160DPPC    C6 7956   1.253   3.493   5.592  0.4827  0.0833 -0.1400
  160DPPC    O7 7957   1.368   3.424   5.544  0.2071 -0.3474 -0.1905
  160DPPC    P8 7958   1.507   3.501   5.571 -0.0950  0.2663 -0.3561
  160DPPC    O9 7959   1.610   3.401   5.610  0.0357  0.5086 -0.0746
  160DPPC   O10 7960   1.464   3.615   5.655 -0.3644  0.2820 -0.5163
  160DPPC   O11 7961   1.520   3.546   5.417 -0.3731  0.5977 -0.2822
  160DPPC   C12 7962   1.562   3.431   5.343 -0.6847  0.1995  0.1427
  160DPPC   C13 7963   1.583   3.447   5.192 -0.0513 -0.0762  0.1957
  160DPPC   O14 7964   1.715   3.410   5.151 -0.0266  0.0124  0.1941
  160DPPC   C15 7965   1.730   3.290   5.088  0.2242  0.3242 -0.3441
  160DPPC   O16 7966   1.667   3.197   5.138  0.1150  0.8397  0.5046
  160DPPC   C17 7967   1.860   3.278   5.008  0.2956  0.2693 -0.2207
  160DPPC   C18 7968   1.832   3.214   4.872  0.0630 -0.4949  0.1786
  160DPPC   C19 7969   1.966   3.216   4.799  0.0426 -0.0004  0.1488
  160DPPC   C20 7970   1.972   3.123   4.678 -0.7436 -0.2564  0.3009
  160DPPC   C21 7971   1.981   2.975   4.715  0.5003 -0.3387 -0.2728
  160DPPC   C22 7972   1.972   2.890   4.587  0.1788 -0.1377 -0.3860
  160DPPC   C23 7973   1.843   2.919   4.509 -0.1120  0.3972  0.2793
  160DPPC   C24 7974   1.805   2.797   4.425 -0.4444  0.6912  0.0004
  160DPPC   C25 7975   1.674   2.817   4.350 -0.3660 -0.2271 -0.3887
  160DPPC   C26 7976   1.638   2.715   4.241 -0.0960 -0.3720 -0.3418
  160DPPC   C27 7977   1.733   2.712   4.121  0.3840 -0.7807  0.0430
  160DPPC   C28 7978   1.673   2.623   4.012 -0.0897 -0.2972 -0.0953
  160DPPC   C29 7979   1.774   2.637   3.898  0.2354  0.2891  0.2615
  160DPPC   C30 7980   1.714   2.556   3.783  0.0559 -0.0510  0.5907
  160DPPC   C31 7981   1.794   2.533   3.654 -0.4355  0.0161  0.2733
  160DPPC   C32 7982   1.538   3.592   5.168 -0.6136 -0.3750 -0.6340
  160DPPC   O33 7983   1.518   3.634   5.033  0.0769 -0.2546 -0.7043
  160DPPC   C34 7984   1.535   3.769   5.032  0.5153 -0.3002 -0.0863
  160DPPC   O35 7985   1.570   3.828   5.134  0.2236  0.7836 -0.5944
  160DPPC   C36 7986   1.502   3.840   4.900  0.0827 -0.1829  0.0833
  160DPPC   C37 7987   1.491   3.733   4.792 -0.8418 -0.0255  0.0171
  160DPPC   C38 7988   1.469   3.789   4.651  0.2382 -0.0760 -0.1817
  160DPPC   C39 7989   1.415   3.676   4.563 -0.2053 -0.2995  0.3710
  160DPPC   C40 7990   1.405   3.708   4.414 -0.3649 -0.0539  0.4324
  160DPPC   C41 7991   1.320   3.603   4.342  0.1536 -0.0563 -0.1892
  160DPPC   C42 7992   1.276   3.650   4.203 -0.5483  0.7225  0.2839
  160DPPC   C43 7993   1.190   3.547   4.131  0.2403 -0.0968  0.4925
  160DPPC   C44 7994   1.112   3.607   4.013  0.7177  0.4654  0.4593
  160DPPC   C45 7995   1.162   3.562   3.875 -0.0465  0.5262  0.1615
  160DPPC   C46 7996   1.084   3.611   3.753  0.3046 -0.0886 -0.3181
  160DPPC   C47 7997   1.144   3.542   3.631 -0.0662 -0.3456 -0.3575
  160DPPC   C48 7998   1.078   3.599   3.506  0.6233  0.2965 -0.4326
  160DPPC   C49 7999   1.128   3.541   3.373 -0.1910 -0.4256 -0.4311
  160DPPC   C50 8000   1.280   3.555   3.360 -0.1887 -0.0048  0.0060
  161DPPC    C1 8001   4.623   5.722   5.721  0.7367  0.1476  0.4715
  161DPPC    C2 8002   4.400   5.663   5.748  0.1828 -0.1207  0.1160
  161DPPC    C3 8003   4.494   5.858   5.870  0.3334  0.4206 -0.3489
  161DPPC    N4 8004   4.490   5.779   5.746  0.4600 -0.3315  0.1183
  161DPPC    C5 8005   4.476   5.858   5.623 -0.2406 -0.3225  0.2006
  161DPPC    C6 8006   4.370   5.969   5.625 -0.5019 -0.5619 -0.1621
  161DPPC    O7 8007   4.377   6.038   5.500 -0.2773  0.1255  0.2298
  161DPPC    P8 8008   4.235   6.108   5.470 -0.1365  0.3024 -0.0345
  161DPPC    O9 8009   4.241   6.255   5.473  0.3382  0.2899 -0.2875
  161DPPC   O10 8010   4.130   6.024   5.532  0.7049 -0.3259  0.5710
  161DPPC   O11 8011   4.252   6.080   5.313  0.1369  0.0688  0.0333
  161DPPC   C12 8012   4.345   6.167   5.247  0.4255 -0.1066  0.2099
  161DPPC   C13 8013   4.379   6.116   5.107 -0.5144 -0.1472 -0.0117
  161DPPC   O14 8014   4.292   6.146   4.997  0.0587 -0.1532 -0.4732
  161DPPC   C15 8015   4.261   6.274   4.965 -0.0018  0.0390  0.3279
  161DPPC   O16 8016   4.283   6.372   5.037  0.0197  0.0765  0.2708
  161DPPC   C17 8017   4.175   6.304   4.842  0.7384  0.2554 -0.1457
  161DPPC   C18 8018   4.152   6.454   4.818  0.0252  0.1807  0.0227
  161DPPC   C19 8019   4.080   6.471   4.684  0.2413 -0.2600 -0.1538
  161DPPC   C20 8020   3.951   6.390   4.691  0.2359 -0.1909  0.5952
  161DPPC   C21 8021   3.896   6.391   4.548  0.4722  0.7594  0.5089
  161DPPC   C22 8022   4.007   6.337   4.458 -0.1667 -0.7611  0.6010
  161DPPC   C23 8023   3.960   6.273   4.328  0.0124  0.7858 -0.2522
  161DPPC   C24 8024   4.064   6.183   4.261 -0.4556  0.1178 -0.0984
  161DPPC   C25 8025   4.017   6.147   4.120  0.2737  0.2976 -0.3929
  161DPPC   C26 8026   4.123   6.066   4.044  0.0412 -0.2610 -0.1296
  161DPPC   C27 8027   4.054   6.011   3.919  0.0638  0.3100 -0.3971
  161DPPC   C28 8028   4.044   6.102   3.796 -0.0985  0.7100 -0.0883
  161DPPC   C29 8029   4.014   6.021   3.670 -0.1363  0.1661  0.2670
  161DPPC   C30 8030   3.887   5.941   3.699 -0.4124  0.2990 -0.5644
  161DPPC   C31 8031   3.763   6.027   3.672 -0.9143 -0.1685  0.2272
  161DPPC   C32 8032   4.413   5.969   5.134  1.0712  0.2778  0.4375
  161DPPC   O33 8033   4.505   5.899   5.050  0.0558 -0.5887  0.0121
  161DPPC   C34 8034   4.512   5.765   5.073  0.0024 -0.6097 -0.0967
  161DPPC   O35 8035   4.447   5.713   5.164 -0.5577  0.5869  0.2071
  161DPPC   C36 8036   4.585   5.679   4.969 -0.0146 -0.6632 -0.0640
  161DPPC   C37 8037   4.542   5.721   4.828  0.0197 -0.2785  0.0374
  161DPPC   C38 8038   4.650   5.675   4.730  0.1407 -0.1025  0.0872
  161DPPC   C39 8039   4.621   5.744   4.597  0.2068 -0.1200  0.0633
  161DPPC   C40 8040   4.706   5.691   4.482  0.5951  0.1492  0.2246
  161DPPC   C41 8041   4.698   5.769   4.350 -0.3882  0.0508  0.2167
  161DPPC   C42 8042   4.808   5.711   4.260 -0.5695 -0.0157  0.0386
  161DPPC   C43 8043   4.806   5.772   4.120 -0.4464 -0.0582  0.0188
  161DPPC   C44 8044   4.921   5.718   4.034 -0.2808 -0.0502  0.2332
  161DPPC   C45 8045   5.049   5.795   4.064 -0.3573  0.1253  0.1104
  161DPPC   C46 8046   5.153   5.751   3.962 -0.1267  0.4308  0.2124
  161DPPC   C47 8047   5.288   5.822   3.980  0.1781 -0.2464  0.6362
  161DPPC   C48 8048   5.389   5.756   3.887  0.2617  0.6745  0.0585
  161DPPC   C49 8049   5.531   5.806   3.917  0.4574  0.2431 -0.1380
  161DPPC   C50 8050   5.527   5.958   3.914 -0.2020  0.2559  0.8550
  162DPPC    C1 8051   6.154   6.167   5.144 -0.4694 -0.4546  0.0187
  162DPPC    C2 8052   6.387   6.129   5.173 -0.5159 -0.4748 -1.0725
  162DPPC    C3 8053   6.266   6.225   5.354 -0.3726 -0.3987 -0.0458
  162DPPC    N4 8054   6.258   6.131   5.242 -0.0911 -0.1573 -0.2689
  162DPPC    C5 8055   6.247   5.997   5.302  0.3165 -0.0597  0.0219
  162DPPC    C6 8056   6.196   5.883   5.214  0.4580  0.1861 -0.3846
  162DPPC    O7 8057   6.272   5.852   5.097  0.1412 -0.0388 -0.5313
  162DPPC    P8 8058   6.200   5.734   5.013 -0.2431 -0.0972 -0.1238
  162DPPC    O9 8059   6.086   5.822   4.978 -0.0361  0.0333 -0.4819
  162DPPC   O10 8060   6.198   5.620   5.107  0.4408 -0.7547 -0.9010
  162DPPC   O11 8061   6.319   5.729   4.904  0.2411  0.0625  0.3915
  162DPPC   C12 8062   6.292   5.841   4.819  0.5261 -0.1074  0.0772
  162DPPC   C13 8063   6.404   5.885   4.725  0.3109  0.2850  0.0011
  162DPPC   O14 8064   6.381   5.838   4.592  0.3329  0.0959  0.0646
  162DPPC   C15 8065   6.291   5.911   4.520  0.6778  0.2457 -0.2129
  162DPPC   O16 8066   6.210   5.985   4.574  0.7001 -0.1897  0.4300
  162DPPC   C17 8067   6.304   5.913   4.368  0.3024  0.4515 -0.2434
  162DPPC   C18 8068   6.422   5.826   4.323  0.0340 -0.0836  0.0821
  162DPPC   C19 8069   6.451   5.847   4.174 -0.1874 -0.1308  0.0324
  162DPPC   C20 8070   6.332   5.822   4.081 -0.0064 -0.1222 -0.2013
  162DPPC   C21 8071   6.371   5.832   3.934  0.2663 -0.4064 -0.1481
  162DPPC   C22 8072   6.398   5.978   3.896 -0.4550 -0.1347  0.3754
  162DPPC   C23 8073   6.443   5.979   3.750  0.0208 -0.2636  0.5187
  162DPPC   C24 8074   6.448   6.120   3.691 -0.2300 -0.2557  0.5153
  162DPPC   C25 8075   6.531   6.130   3.563 -0.0550  0.1529  0.6597
  162DPPC   C26 8076   6.666   6.060   3.585 -0.1194 -0.0499  0.4140
  162DPPC   C27 8077   6.735   6.084   3.450 -0.4969  0.1951  0.2614
  162DPPC   C28 8078   6.662   6.009   3.339  0.6005 -0.1197 -0.2607
  162DPPC   C29 8079   6.634   5.859   3.356  0.1100  0.0173  0.1628
  162DPPC   C30 8080   6.495   5.831   3.299 -0.0090  0.5452  0.1876
  162DPPC   C31 8081   6.490   5.836   3.146  0.2462  0.0322  0.1613
  162DPPC   C32 8082   6.531   5.831   4.791  0.0649 -0.2601  0.0302
  162DPPC   O33 8083   6.651   5.885   4.735 -0.1541  0.2068  0.0040
  162DPPC   C34 8084   6.767   5.815   4.755 -0.3244 -0.0929 -0.0514
  162DPPC   O35 8085   6.761   5.721   4.834  0.4573 -0.4310 -0.3912
  162DPPC   C36 8086   6.890   5.869   4.683 -0.1763  0.1129  0.3507
  162DPPC   C37 8087   6.930   5.785   4.561 -0.1516  0.5784  0.0353
  162DPPC   C38 8088   6.844   5.815   4.438 -0.3198  0.4707  0.1273
  162DPPC   C39 8089   6.909   5.753   4.314 -0.6719 -0.1523  0.2481
  162DPPC   C40 8090   6.828   5.768   4.185 -0.4479  0.3648  0.1627
  162DPPC   C41 8091   6.908   5.717   4.065 -0.5097 -0.1544  0.3389
  162DPPC   C42 8092   6.819   5.722   3.940  0.0873  0.2279 -0.0743
  162DPPC   C43 8093   6.889   5.669   3.815 -0.3394 -0.0049 -0.2158
  162DPPC   C44 8094   6.823   5.685   3.678  0.2023  0.8409 -0.3831
  162DPPC   C45 8095   6.912   5.638   3.562 -0.0297  0.0579 -0.2505
  162DPPC   C46 8096   7.023   5.737   3.524  0.4137 -0.0732  0.6743
  162DPPC   C47 8097   7.107   5.679   3.411  0.3903  0.1229  0.5560
  162DPPC   C48 8098   7.223   5.774   3.382  0.1449  0.1384 -0.4093
  162DPPC   C49 8099   7.175   5.865   3.268 -0.1639  0.5746  0.0648
  162DPPC   C50 8100   7.290   5.964   3.248  0.4049 -0.0435  0.2423
  163DPPC    C1 8101   6.131   5.129   1.301 -0.2707 -0.5080  0.0667
  163DPPC    C2 8102   6.114   5.199   1.529 -0.1613  0.1439  0.0975
  163DPPC    C3 8103   5.960   5.041   1.428 -0.6906  0.0798 -0.0771
  163DPPC    N4 8104   6.100   5.084   1.438 -0.7297  0.1491  0.1803
  163DPPC    C5 8105   6.195   4.981   1.480 -0.4609  0.2095 -0.2743
  163DPPC    C6 8106   6.177   4.896   1.606  0.3984 -0.1864 -0.4106
  163DPPC    O7 8107   6.291   4.816   1.639  0.5168 -0.0173 -0.4040
  163DPPC    P8 8108   6.242   4.699   1.739 -0.2550  0.4015 -0.2825
  163DPPC    O9 8109   6.355   4.615   1.785 -0.5032  0.1094 -0.2027
  163DPPC   O10 8110   6.124   4.629   1.684  0.0173 -0.0296 -0.3257
  163DPPC   O11 8111   6.178   4.789   1.856 -0.2735 -0.0183  0.0310
  163DPPC   C12 8112   6.278   4.815   1.955 -0.0763 -0.0536 -0.1575
  163DPPC   C13 8113   6.230   4.932   2.040  0.1611 -0.2786  0.2883
  163DPPC   O14 8114   6.336   4.987   2.120  0.3727 -0.4659  0.1380
  163DPPC   C15 8115   6.435   5.058   2.060  0.4118 -0.2823  0.4184
  163DPPC   O16 8116   6.446   5.056   1.938 -0.2513  0.2160  0.3437
  163DPPC   C17 8117   6.553   5.107   2.145  0.6420 -0.1298  0.0107
  163DPPC   C18 8118   6.514   5.239   2.211  0.3448 -0.0121 -0.3940
  163DPPC   C19 8119   6.633   5.288   2.294 -0.1459 -0.6834  0.7288
  163DPPC   C20 8120   6.603   5.418   2.370  0.0794 -0.0986 -0.1725
  163DPPC   C21 8121   6.708   5.423   2.481 -0.2769  0.3329  0.1470
  163DPPC   C22 8122   6.704   5.562   2.545  0.4499  0.2107  0.4695
  163DPPC   C23 8123   6.567   5.612   2.590  0.2570  0.2650 -0.1704
  163DPPC   C24 8124   6.594   5.743   2.663  0.8935 -0.0129  0.0982
  163DPPC   C25 8125   6.642   5.853   2.568 -0.9052  0.4752 -0.2770
  163DPPC   C26 8126   6.659   5.982   2.650 -0.3841  0.0096  0.3584
  163DPPC   C27 8127   6.750   5.953   2.769  0.0348  0.5833  0.1784
  163DPPC   C28 8128   6.753   6.072   2.865  0.2216  0.5468  0.2195
  163DPPC   C29 8129   6.862   6.064   2.972  0.5050 -0.5383 -0.1348
  163DPPC   C30 8130   6.902   6.201   3.028 -0.2934 -0.3301 -0.0487
  163DPPC   C31 8131   7.007   6.201   3.139  0.4410 -0.2933 -0.7291
  163DPPC   C32 8132   6.111   4.877   2.118  0.3099  0.4162  1.0312
  163DPPC   O33 8133   6.036   4.990   2.164 -0.3412  0.4079  0.0306
  163DPPC   C34 8134   5.926   4.948   2.232 -0.1149 -0.0773  0.1037
  163DPPC   O35 8135   5.904   4.827   2.231 -0.2303 -0.0524 -0.2192
  163DPPC   C36 8136   5.844   5.046   2.316  0.1395 -0.1313  0.4198
  163DPPC   C37 8137   5.867   5.046   2.467  0.1271  0.1073  0.4234
  163DPPC   C38 8138   5.775   5.150   2.530 -0.6055 -0.3217  0.0806
  163DPPC   C39 8139   5.801   5.159   2.681 -0.0787 -0.2665 -0.0127
  163DPPC   C40 8140   5.693   5.246   2.745  0.2160  0.1696 -0.1083
  163DPPC   C41 8141   5.692   5.224   2.896  0.1965 -0.0717 -0.1438
  163DPPC   C42 8142   5.592   5.323   2.956  0.2472  0.0562 -0.2717
  163DPPC   C43 8143   5.590   5.330   3.108  0.1873  0.2354 -0.2806
  163DPPC   C44 8144   5.545   5.465   3.167 -0.4009 -0.0635 -0.0355
  163DPPC   C45 8145   5.580   5.471   3.315  0.0302 -0.0592 -0.1338
  163DPPC   C46 8146   5.554   5.616   3.356 -0.2114 -0.1586  0.0746
  163DPPC   C47 8147   5.579   5.644   3.504  0.8080 -0.0413 -0.1107
  163DPPC   C48 8148   5.585   5.795   3.526  0.6700 -0.0386 -0.0934
  163DPPC   C49 8149   5.682   5.848   3.420  0.3259  0.1434 -0.3207
  163DPPC   C50 8150   5.698   5.998   3.395  0.4396  0.2882  0.5900
  164DPPC    C1 8151   2.542   2.248   2.287  0.2538  0.4578  0.2833
  164DPPC    C2 8152   2.735   2.244   2.429  0.6614  0.3530 -0.3601
  164DPPC    C3 8153   2.647   2.041   2.356  0.7517 -0.1973 -0.2266
  164DPPC    N4 8154   2.670   2.180   2.314  0.0587  0.0363  0.1530
  164DPPC    C5 8155   2.754   2.174   2.194 -0.5763 -0.0424 -0.2926
  164DPPC    C6 8156   2.794   2.288   2.100  0.0238 -0.2221 -0.2636
  164DPPC    O7 8157   2.884   2.374   2.169  0.3889 -0.8654  0.0717
  164DPPC    P8 8158   2.915   2.492   2.063 -0.2153 -0.4189  0.3832
  164DPPC    O9 8159   2.779   2.526   2.016 -0.0189 -0.1739 -0.0053
  164DPPC   O10 8160   3.019   2.423   1.984 -0.2168 -0.1052  0.1079
  164DPPC   O11 8161   2.985   2.595   2.165 -0.2628 -0.3663  0.3627
  164DPPC   C12 8162   2.898   2.615   2.277 -0.0313 -0.3448  0.5407
  164DPPC   C13 8163   2.981   2.682   2.387  0.2305 -0.5465  0.4672
  164DPPC   O14 8164   2.916   2.707   2.512 -0.8513 -0.0692 -0.1734
  164DPPC   C15 8165   2.921   2.601   2.597  0.5541  0.1770  0.0752
  164DPPC   O16 8166   2.959   2.487   2.569  0.5123  0.2004 -0.0762
  164DPPC   C17 8167   2.847   2.608   2.731  0.5020  0.5485  0.0281
  164DPPC   C18 8168   2.904   2.518   2.841  0.2548  0.1453 -0.1686
  164DPPC   C19 8169   2.829   2.526   2.974 -0.3338  0.5480 -0.5211
  164DPPC   C20 8170   2.707   2.434   2.972 -0.2139  0.3831 -0.2385
  164DPPC   C21 8171   2.609   2.472   3.083 -0.1622 -0.1221 -0.0146
  164DPPC   C22 8172   2.563   2.618   3.081 -0.4948 -0.2236 -0.0051
  164DPPC   C23 8173   2.422   2.613   3.138 -0.2165  0.7317  0.8100
  164DPPC   C24 8174   2.456   2.604   3.286  0.6130 -0.2065  0.5762
  164DPPC   C25 8175   2.330   2.617   3.373  0.2442 -0.5164  0.0940
  164DPPC   C26 8176   2.350   2.608   3.525  0.0598  0.1488  0.1611
  164DPPC   C27 8177   2.220   2.612   3.605  0.0546  0.5123  0.1328
  164DPPC   C28 8178   2.229   2.591   3.756 -0.1245  0.4377  0.1325
  164DPPC   C29 8179   2.319   2.695   3.822  0.7431 -0.0001 -0.3502
  164DPPC   C30 8180   2.251   2.831   3.810  0.8949  0.0885 -0.2179
  164DPPC   C31 8181   2.337   2.946   3.863  0.3307  0.0087  0.9005
  164DPPC   C32 8182   3.045   2.802   2.317 -0.1225 -0.5090  0.2065
  164DPPC   O33 8183   2.953   2.907   2.285  0.0706 -0.2871  0.3768
  164DPPC   C34 8184   3.002   3.010   2.211  0.1970 -0.4196  0.2756
  164DPPC   O35 8185   3.120   3.011   2.176  0.0821 -0.2067 -0.1206
  164DPPC   C36 8186   2.919   3.138   2.204  0.2361 -0.3934  0.2845
  164DPPC   C37 8187   2.922   3.202   2.343  0.3281 -0.0845  0.1427
  164DPPC   C38 8188   2.787   3.272   2.357  0.6296  0.4742  0.2573
  164DPPC   C39 8189   2.771   3.361   2.481  0.8190  0.1704  0.4996
  164DPPC   C40 8190   2.751   3.256   2.591  0.0285 -0.0041  0.1946
  164DPPC   C41 8191   2.726   3.330   2.722  0.3665 -0.1883  0.3650
  164DPPC   C42 8192   2.748   3.233   2.838  0.2428 -0.2463  0.3400
  164DPPC   C43 8193   2.723   3.297   2.974  0.1438  0.4078  0.0167
  164DPPC   C44 8194   2.745   3.190   3.082 -0.3077  0.0122 -0.2837
  164DPPC   C45 8195   2.741   3.250   3.223 -0.0446 -0.1245 -0.2187
  164DPPC   C46 8196   2.787   3.140   3.318  0.1661 -0.0637 -0.2484
  164DPPC   C47 8197   2.818   3.205   3.453  0.6124 -0.0238 -0.3713
  164DPPC   C48 8198   2.849   3.105   3.564  0.0099 -0.5708 -0.6889
  164DPPC   C49 8199   2.741   3.014   3.622 -0.0702 -0.0985 -0.0882
  164DPPC   C50 8200   2.794   2.978   3.761  0.4165  0.3609 -0.1510
  165DPPC    C1 8201   0.109   3.380   1.297  0.3780 -0.6481  0.1927
  165DPPC    C2 8202   0.290   3.502   1.422 -0.4343  0.6152  0.6165
  165DPPC    C3 8203   0.076   3.589   1.399 -0.5677  0.1240  0.0333
  165DPPC    N4 8204   0.149   3.462   1.412 -0.2861  0.2609 -0.2072
  165DPPC    C5 8205   0.100   3.387   1.529  0.4685  0.5785  0.3260
  165DPPC    C6 8206   0.163   3.250   1.555  0.4761  0.3853 -0.6586
  165DPPC    O7 8207   0.084   3.140   1.508  0.3935 -0.0009  0.3459
  165DPPC    P8 8208   0.168   3.005   1.484 -0.0529 -0.2226  0.0273
  165DPPC    O9 8209   0.272   3.061   1.394  0.2444  0.0530  0.5439
  165DPPC   O10 8210   0.065   2.903   1.452  0.0066 -0.0538 -0.7341
  165DPPC   O11 8211   0.220   2.990   1.635 -0.1535  0.2127  0.1041
  165DPPC   C12 8212   0.108   2.947   1.714 -0.1966  0.2517  0.0645
  165DPPC   C13 8213   0.111   2.999   1.858  0.1559 -0.2108  0.2256
  165DPPC   O14 8214   0.107   3.141   1.879  0.2181 -0.1182 -0.3584
  165DPPC   C15 8215  -0.014   3.196   1.909  0.2437  0.0390 -0.5392
  165DPPC   O16 8216  -0.121   3.141   1.884 -0.2342  0.4715  0.4682
  165DPPC   C17 8217  -0.007   3.346   1.937 -0.3395 -0.1306  0.5944
  165DPPC   C18 8218   0.064   3.383   2.067 -0.1976  0.0927  0.4550
  165DPPC   C19 8219  -0.018   3.352   2.193 -0.5224  0.1160  0.2478
  165DPPC   C20 8220   0.040   3.400   2.326  0.2677 -0.1067 -0.0135
  165DPPC   C21 8221  -0.061   3.391   2.440 -0.0652  0.2029 -0.2840
  165DPPC   C22 8222  -0.007   3.396   2.583  0.1717 -0.1246 -0.3631
  165DPPC   C23 8223  -0.123   3.378   2.681  0.0145  0.4678 -0.4368
  165DPPC   C24 8224  -0.046   3.379   2.813 -0.5814 -0.2088 -0.0760
  165DPPC   C25 8225  -0.135   3.317   2.920 -0.3663 -0.0079  0.2219
  165DPPC   C26 8226  -0.085   3.385   3.048 -0.1994  0.0084  0.1472
  165DPPC   C27 8227  -0.147   3.305   3.163  0.2856 -0.3608  0.1596
  165DPPC   C28 8228  -0.300   3.296   3.153  0.2542  0.3243 -0.0376
  165DPPC   C29 8229  -0.363   3.240   3.281 -0.0973 -0.0600 -0.3770
  165DPPC   C30 8230  -0.427   3.348   3.368  0.1721 -0.1971 -0.0044
  165DPPC   C31 8231  -0.485   3.277   3.491 -0.4512 -0.2317 -0.3147
  165DPPC   C32 8232   0.240   2.940   1.917  0.1293 -0.0320  0.4668
  165DPPC   O33 8233   0.236   2.887   2.050  0.9241 -0.0737  0.4757
  165DPPC   C34 8234   0.192   2.760   2.066  0.2964  0.1001  0.1786
  165DPPC   O35 8235   0.210   2.680   1.974 -0.6801  0.4693 -0.3415
  165DPPC   C36 8236   0.201   2.715   2.212  0.1760 -0.3512  0.0511
  165DPPC   C37 8237   0.148   2.574   2.237  0.0580 -0.3768 -0.3384
  165DPPC   C38 8238   0.189   2.551   2.383 -0.3905 -0.1580 -0.1760
  165DPPC   C39 8239   0.061   2.512   2.458 -0.6525  0.6434 -0.2003
  165DPPC   C40 8240   0.079   2.525   2.609 -0.2528  0.0934 -0.1988
  165DPPC   C41 8241  -0.044   2.484   2.690  0.5337 -0.7717  0.5801
  165DPPC   C42 8242  -0.027   2.515   2.839  0.1451  0.3865  0.3918
  165DPPC   C43 8243  -0.145   2.485   2.931 -0.1650  0.4184  0.0044
  165DPPC   C44 8244  -0.133   2.579   3.051 -0.4395 -0.2112  0.5371
  165DPPC   C45 8245  -0.246   2.541   3.147 -0.7625 -0.1873  0.1714
  165DPPC   C46 8246  -0.237   2.630   3.271  0.3308  0.2187 -0.1887
  165DPPC   C47 8247  -0.343   2.578   3.367  0.1083 -0.2819 -0.7005
  165DPPC   C48 8248  -0.321   2.436   3.420 -0.0699 -0.1337 -0.2142
  165DPPC   C49 8249  -0.427   2.375   3.512 -0.1722 -0.0104 -0.2508
  165DPPC   C50 8250  -0.372   2.247   3.575 -0.4787 -0.5798 -1.1299
  166DPPC    C1 8251   2.272   3.434   1.301 -0.5600 -0.3355 -0.1937
  166DPPC    C2 8252   2.495   3.460   1.400  0.0118 -0.0735 -0.0590
  166DPPC    C3 8253   2.317   3.362   1.523 -0.4332 -0.1915 -0.3771
  166DPPC    N4 8254   2.374   3.376   1.388 -0.1933  0.2428 -0.2325
  166DPPC    C5 8255   2.430   3.248   1.340 -0.0793  0.0237  0.4631
  166DPPC    C6 8256   2.370   3.112   1.374 -0.1870  0.0871  0.5301
  166DPPC    O7 8257   2.242   3.106   1.310  0.2811 -0.3502 -0.3856
  166DPPC    P8 8258   2.162   2.972   1.348 -0.5062  0.1604 -0.2238
  166DPPC    O9 8259   2.254   2.857   1.330 -0.5984  0.1058 -0.3360
  166DPPC   O10 8260   2.030   2.974   1.282 -0.0786 -0.7411 -1.1383
  166DPPC   O11 8261   2.132   3.015   1.501  0.4983  0.0985 -0.0024
  166DPPC   C12 8262   2.038   2.918   1.548 -0.1520  0.6910 -0.0701
  166DPPC   C13 8263   1.978   2.950   1.685 -0.3980  0.2574 -0.0757
  166DPPC   O14 8264   1.861   2.874   1.719 -0.0603 -0.0523  0.4120
  166DPPC   C15 8265   1.870   2.744   1.756 -0.0168 -0.1895 -0.0731
  166DPPC   O16 8266   1.976   2.682   1.768  0.3219  0.3457 -0.2954
  166DPPC   C17 8267   1.742   2.693   1.823  0.1749 -0.3558  0.1713
  166DPPC   C18 8268   1.772   2.656   1.968  0.2189  0.0738  0.2720
  166DPPC   C19 8269   1.655   2.582   2.032  0.3034 -0.0154  0.3219
  166DPPC   C20 8270   1.669   2.601   2.183  0.0469 -0.4613  0.4070
  166DPPC   C21 8271   1.598   2.498   2.271 -0.4517 -0.2963  0.1976
  166DPPC   C22 8272   1.627   2.523   2.419  0.0698 -0.0952  0.0613
  166DPPC   C23 8273   1.601   2.666   2.469  0.1227 -0.2926  0.6540
  166DPPC   C24 8274   1.599   2.667   2.622 -1.1983  0.1262  0.6395
  166DPPC   C25 8275   1.645   2.806   2.666 -0.7826  0.2516 -0.1724
  166DPPC   C26 8276   1.665   2.811   2.818  0.3031 -1.1019 -0.2440
  166DPPC   C27 8277   1.534   2.766   2.883 -0.2823  0.8041 -0.0410
  166DPPC   C28 8278   1.556   2.758   3.034  0.3230  0.1893 -0.1590
  166DPPC   C29 8279   1.440   2.673   3.084  0.1527  0.2473 -0.4509
  166DPPC   C30 8280   1.423   2.675   3.236 -0.1565  0.0371 -0.4821
  166DPPC   C31 8281   1.311   2.574   3.264 -0.3000  0.1420 -0.6785
  166DPPC   C32 8282   1.966   3.103   1.681 -0.1197  0.2690 -0.5315
  166DPPC   O33 8283   1.932   3.172   1.801  0.5602 -0.0221 -0.1617
  166DPPC   C34 8284   1.940   3.308   1.792  0.0867  0.0555  0.4693
  166DPPC   O35 8285   2.010   3.367   1.710 -0.2803  0.2171  0.2671
  166DPPC   C36 8286   1.863   3.392   1.894  0.2091  0.4474  0.2417
  166DPPC   C37 8287   1.956   3.426   2.011  0.3739 -0.2685  0.3235
  166DPPC   C38 8288   1.896   3.516   2.118  0.1162 -0.0491 -0.0026
  166DPPC   C39 8289   2.004   3.522   2.227  0.3256 -0.5107 -0.1821
  166DPPC   C40 8290   1.943   3.620   2.328 -0.0882 -0.4334 -0.5013
  166DPPC   C41 8291   2.027   3.618   2.456 -0.6229  0.5801 -0.1262
  166DPPC   C42 8292   1.926   3.602   2.570 -0.0384  0.0074  0.3188
  166DPPC   C43 8293   1.983   3.607   2.712  0.3521 -0.3464  0.1768
  166DPPC   C44 8294   1.875   3.560   2.810 -0.1758  0.2187 -0.1291
  166DPPC   C45 8295   1.843   3.670   2.912 -0.3468 -0.1957  0.2665
  166DPPC   C46 8296   1.817   3.807   2.850  0.6220 -0.1753 -0.1110
  166DPPC   C47 8297   1.797   3.908   2.963  0.1838 -0.2290 -0.1373
  166DPPC   C48 8298   1.918   3.930   3.055  0.4236 -0.4952 -0.3839
  166DPPC   C49 8299   1.885   4.030   3.167  0.4928  0.0136 -0.8162
  166DPPC   C50 8300   2.003   4.041   3.263 -0.2899  1.0147  0.0444
  167DPPC    C1 8301   2.241   2.330   1.436  0.0931  0.1862  0.2892
  167DPPC    C2 8302   2.417   2.188   1.514  0.6315  0.0912  0.2846
  167DPPC    C3 8303   2.393   2.412   1.588  0.3047  0.1450 -0.1140
  167DPPC    N4 8304   2.318   2.290   1.554  0.4478  0.0252  0.0049
  167DPPC    C5 8305   2.235   2.247   1.668 -0.1334  0.0852 -0.3965
  167DPPC    C6 8306   2.133   2.134   1.655 -0.9126  0.7096  0.2041
  167DPPC    O7 8307   2.202   2.011   1.676 -0.3844  0.8272 -0.7885
  167DPPC    P8 8308   2.095   1.897   1.638  0.1938 -0.0361  0.1050
  167DPPC    O9 8309   2.180   1.779   1.612  0.1425  0.0229 -0.3478
  167DPPC   O10 8310   2.015   1.963   1.532  0.3000 -0.1823 -0.0663
  167DPPC   O11 8311   2.033   1.926   1.784  0.4531  0.1390  0.1801
  167DPPC   C12 8312   2.105   1.876   1.897  0.1638  0.2842  0.4309
  167DPPC   C13 8313   2.033   1.911   2.027 -0.2372 -0.1488  0.3289
  167DPPC   O14 8314   1.918   1.831   2.056 -0.3130 -0.1039  0.1558
  167DPPC   C15 8315   1.938   1.703   2.098  0.5188  0.0943  0.3725
  167DPPC   O16 8316   2.033   1.637   2.058 -0.1221 -0.3305 -0.4605
  167DPPC   C17 8317   1.835   1.655   2.200  0.3659 -0.4690 -0.0448
  167DPPC   C18 8318   1.889   1.672   2.342 -0.1790 -0.3321  0.1495
  167DPPC   C19 8319   1.806   1.617   2.459 -0.4932  0.1959  0.1735
  167DPPC   C20 8320   1.857   1.658   2.597  0.2717 -0.0565 -0.0284
  167DPPC   C21 8321   2.005   1.625   2.616  0.2800  0.1266  0.2327
  167DPPC   C22 8322   2.062   1.711   2.729 -0.1259  0.2732  0.3297
  167DPPC   C23 8323   2.200   1.643   2.726 -0.3988 -0.2612 -0.3057
  167DPPC   C24 8324   2.279   1.740   2.813 -0.1231 -0.1586 -0.6687
  167DPPC   C25 8325   2.395   1.672   2.886 -0.3511  0.1091 -0.0502
  167DPPC   C26 8326   2.336   1.588   2.999  0.0748 -0.5269 -0.2981
  167DPPC   C27 8327   2.435   1.512   3.088  0.0857  0.0010  0.1430
  167DPPC   C28 8328   2.391   1.377   3.145 -0.2275 -0.0411 -0.1947
  167DPPC   C29 8329   2.511   1.323   3.223  0.2436  0.4707 -0.5616
  167DPPC   C30 8330   2.471   1.202   3.307 -0.5102  0.6754 -0.6241
  167DPPC   C31 8331   2.352   1.245   3.392 -0.3092 -0.6873  0.3761
  167DPPC   C32 8332   2.020   2.063   2.012  0.4245 -0.1039  0.1786
  167DPPC   O33 8333   2.022   2.134   2.136  0.2107  0.2282 -0.0071
  167DPPC   C34 8334   1.955   2.253   2.138 -0.0642  0.0788 -0.3953
  167DPPC   O35 8335   1.880   2.294   2.050 -0.0471 -0.2311 -0.5573
  167DPPC   C36 8336   1.954   2.330   2.270 -0.7103  0.1846 -0.4577
  167DPPC   C37 8337   2.068   2.431   2.280 -0.9402  0.3947  0.0908
  167DPPC   C38 8338   2.034   2.531   2.390 -0.6367  0.4318  0.1509
  167DPPC   C39 8339   2.018   2.462   2.525  0.3895  0.0729  0.0968
  167DPPC   C40 8340   2.016   2.577   2.626  0.4133  0.0113  0.1683
  167DPPC   C41 8341   2.020   2.541   2.775 -0.0881 -0.1726  0.1383
  167DPPC   C42 8342   2.016   2.668   2.861  0.1214 -0.0237 -0.0689
  167DPPC   C43 8343   1.975   2.634   3.005  0.3911  0.4259  0.1139
  167DPPC   C44 8344   1.952   2.756   3.095  0.0068  0.2831  0.2081
  167DPPC   C45 8345   1.922   2.720   3.241 -0.3929 -0.3751 -0.0315
  167DPPC   C46 8346   1.921   2.851   3.319  0.0046 -0.2039 -0.3106
  167DPPC   C47 8347   1.854   2.839   3.456  0.0423 -0.2315 -0.2948
  167DPPC   C48 8348   1.890   2.966   3.534  0.3014 -0.3201 -0.2673
  167DPPC   C49 8349   1.817   2.959   3.668  0.0028  0.0386 -0.4071
  167DPPC   C50 8350   1.876   3.053   3.772 -0.1247 -0.1460 -0.1656
  168DPPC    C1 8351   2.750   8.043   1.394  0.4551 -0.1598  0.4618
  168DPPC    C2 8352   2.529   8.004   1.316  0.2666  0.2648 -0.0533
  168DPPC    C3 8353   2.591   7.949   1.539  0.4572 -0.2682 -0.4507
  168DPPC    N4 8354   2.608   8.048   1.432  0.3248  0.1805 -0.0616
  168DPPC    C5 8355   2.575   8.184   1.474  0.6053  0.3560 -0.4055
  168DPPC    C6 8356   2.640   8.258   1.591  1.1161 -0.0758 -0.4123
  168DPPC    O7 8357   2.609   8.398   1.598 -0.0650 -0.3548  0.1927
  168DPPC    P8 8358   2.697   8.467   1.713  0.3098 -0.3143 -0.1144
  168DPPC    O9 8359   2.680   8.614   1.715  0.3801 -0.3083  0.2348
  168DPPC   O10 8360   2.826   8.399   1.687  0.4275 -0.1916  0.1455
  168DPPC   O11 8361   2.654   8.386   1.846  0.3667  0.0963  0.1563
  168DPPC   C12 8362   2.532   8.439   1.900  0.1373 -0.2579 -0.0099
  168DPPC   C13 8363   2.501   8.392   2.042  0.3509  0.3938  0.2588
  168DPPC   O14 8364   2.374   8.443   2.086 -0.0903 -0.3529 -0.1154
  168DPPC   C15 8365   2.265   8.364   2.072 -0.1372 -0.3396  0.1589
  168DPPC   O16 8366   2.251   8.303   1.966 -0.4478 -0.3453  0.2010
  168DPPC   C17 8367   2.146   8.380   2.166 -0.0267 -0.0583  0.2503
  168DPPC   C18 8368   2.132   8.527   2.206  0.3926 -0.0527  0.3785
  168DPPC   C19 8369   2.061   8.537   2.342 -0.9474 -0.1199 -0.2977
  168DPPC   C20 8370   2.038   8.686   2.367 -0.2348 -0.0812  0.1681
  168DPPC   C21 8371   1.977   8.726   2.502  0.2037 -0.2099  0.4053
  168DPPC   C22 8372   1.895   8.854   2.483  0.3816 -0.0405  0.7735
  168DPPC   C23 8373   1.842   8.907   2.616  0.3590  0.2044  0.6681
  168DPPC   C24 8374   1.725   8.827   2.674 -0.0547  0.1275 -0.2580
  168DPPC   C25 8375   1.675   8.893   2.802 -0.0745 -0.3743 -0.0034
  168DPPC   C26 8376   1.597   8.796   2.891  0.0249 -0.0988  0.3907
  168DPPC   C27 8377   1.681   8.670   2.914  0.1643 -0.1972 -0.5917
  168DPPC   C28 8378   1.631   8.556   3.004  0.6118  0.5342  0.6013
  168DPPC   C29 8379   1.481   8.530   3.001  0.6753  0.1771  0.5072
  168DPPC   C30 8380   1.459   8.423   3.108 -0.2854  0.2767  0.4253
  168DPPC   C31 8381   1.309   8.396   3.116 -0.3887  0.7810  0.1966
  168DPPC   C32 8382   2.622   8.440   2.121  0.1367  0.1556  0.7366
  168DPPC   O33 8383   2.648   8.581   2.111 -0.0640  0.1246 -0.3596
  168DPPC   C34 8384   2.777   8.623   2.120 -0.0487 -0.0450  0.2741
  168DPPC   O35 8385   2.866   8.547   2.156 -0.1759 -0.5330 -0.4220
  168DPPC   C36 8386   2.789   8.774   2.102  0.3425 -0.1156 -0.0653
  168DPPC   C37 8387   2.751   8.855   2.226  0.6034  0.0801 -0.1118
  168DPPC   C38 8388   2.755   8.998   2.172 -0.0072  0.0249 -0.3151
  168DPPC   C39 8389   2.726   9.102   2.280  0.2929  0.3458 -0.5406
  168DPPC   C40 8390   2.810   9.079   2.405 -0.2212  0.3554 -0.1907
  168DPPC   C41 8391   2.779   9.184   2.513 -0.1399  0.0489  0.1332
  168DPPC   C42 8392   2.863   9.156   2.637  0.1028 -0.4047 -0.1314
  168DPPC   C43 8393   2.860   9.275   2.733 -0.1263 -0.4187 -0.1200
  168DPPC   C44 8394   2.946   9.254   2.858  0.0447 -0.5489 -0.2572
  168DPPC   C45 8395   3.094   9.225   2.836  0.1632 -0.3751  0.2966
  168DPPC   C46 8396   3.168   9.231   2.970  0.1042  0.3579  0.2958
  168DPPC   C47 8397   3.313   9.183   2.963 -0.0858 -0.1565 -0.1804
  168DPPC   C48 8398   3.379   9.283   2.868  0.2139 -0.2604 -0.0823
  168DPPC   C49 8399   3.529   9.253   2.865  0.2122 -0.3854  0.8560
  168DPPC   C50 8400   3.573   9.150   2.761  0.4565  0.2628  0.3113
  169DPPC    C1 8401   0.091   2.570   1.676  0.0427  0.3423 -0.3073
  169DPPC    C2 8402   0.309   2.512   1.660  0.4018 -0.3052  0.0378
  169DPPC    C3 8403   0.151   2.358   1.561  0.3138 -0.0868 -0.0498
  169DPPC    N4 8404   0.183   2.500   1.585  0.2520 -0.1225  0.2577
  169DPPC    C5 8405   0.185   2.582   1.463  0.4988 -0.4766  0.0200
  169DPPC    C6 8406   0.279   2.557   1.345  0.2892  0.4363 -0.3542
  169DPPC    O7 8407   0.411   2.611   1.358  0.3726  0.1271  0.1325
  169DPPC    P8 8408   0.432   2.757   1.293  0.0055  0.1668  0.0990
  169DPPC    O9 8409   0.319   2.801   1.209 -0.2565 -0.8338 -0.0814
  169DPPC   O10 8410   0.566   2.736   1.233 -0.1399 -0.4124 -0.0258
  169DPPC   O11 8411   0.452   2.818   1.441 -0.4254  0.4742  0.0329
  169DPPC   C12 8412   0.580   2.789   1.499 -0.7714  0.1103  0.6199
  169DPPC   C13 8413   0.602   2.862   1.632 -0.1609  0.5374  0.2862
  169DPPC   O14 8414   0.550   2.801   1.750  0.3032  0.0522  0.2450
  169DPPC   C15 8415   0.637   2.742   1.837  0.2860 -0.3425 -0.0038
  169DPPC   O16 8416   0.740   2.690   1.795 -0.1186 -0.6731 -0.6103
  169DPPC   C17 8417   0.581   2.695   1.971 -0.7957 -0.5614 -0.5226
  169DPPC   C18 8418   0.648   2.567   2.021 -0.4505 -0.0682  0.2849
  169DPPC   C19 8419   0.644   2.553   2.174 -0.0534 -0.3158  0.2765
  169DPPC   C20 8420   0.717   2.428   2.221 -0.2349 -0.5819 -0.1438
  169DPPC   C21 8421   0.629   2.303   2.208 -0.2173 -0.5925 -0.1597
  169DPPC   C22 8422   0.514   2.322   2.307 -0.1592 -0.4182 -0.1242
  169DPPC   C23 8423   0.572   2.312   2.449  0.0010 -0.1048 -0.1682
  169DPPC   C24 8424   0.462   2.339   2.552  0.2301  0.0213  0.0457
  169DPPC   C25 8425   0.515   2.332   2.695  0.2604  0.2833  0.0472
  169DPPC   C26 8426   0.408   2.347   2.803  0.1897 -0.3627  0.0727
  169DPPC   C27 8427   0.350   2.206   2.812 -0.7561  0.0276  0.2511
  169DPPC   C28 8428   0.237   2.205   2.914 -0.5131  0.0912  0.5236
  169DPPC   C29 8429   0.282   2.213   3.060  0.3219  0.2749  0.2579
  169DPPC   C30 8430   0.161   2.213   3.153  0.1767  0.2656  0.0684
  169DPPC   C31 8431   0.080   2.092   3.104  0.2212  0.3367 -0.1780
  169DPPC   C32 8432   0.564   3.008   1.603 -0.1125  0.5760  0.4195
  169DPPC   O33 8433   0.587   3.097   1.712  0.2584  0.2197  0.6402
  169DPPC   C34 8434   0.544   3.226   1.701 -0.3762 -0.0288  0.1813
  169DPPC   O35 8435   0.510   3.279   1.595  0.4014 -0.0805 -0.0999
  169DPPC   C36 8436   0.565   3.306   1.829 -0.1589  0.2581 -0.0336
  169DPPC   C37 8437   0.487   3.257   1.951  0.3097  0.2266  0.2576
  169DPPC   C38 8438   0.488   3.376   2.047  0.2788  0.3256  0.1357
  169DPPC   C39 8439   0.414   3.334   2.174  0.1523 -0.0393 -0.0568
  169DPPC   C40 8440   0.393   3.453   2.267 -0.0842 -0.1087 -0.0218
  169DPPC   C41 8441   0.523   3.532   2.284 -0.0282 -0.2819  0.3676
  169DPPC   C42 8442   0.604   3.481   2.403  0.3317 -0.1362  0.1884
  169DPPC   C43 8443   0.751   3.520   2.394  0.2489  0.1168 -0.0558
  169DPPC   C44 8444   0.832   3.492   2.521  0.0255 -0.4812 -0.0456
  169DPPC   C45 8445   0.982   3.490   2.492  0.1507  0.2719  0.5232
  169DPPC   C46 8446   1.031   3.628   2.448 -0.1033  0.1805 -0.0582
  169DPPC   C47 8447   1.181   3.654   2.455 -0.0669  0.0732 -0.3975
  169DPPC   C48 8448   1.220   3.791   2.401 -0.4664  0.2935 -0.1305
  169DPPC   C49 8449   1.185   3.782   2.252 -0.3292  0.0852 -0.1507
  169DPPC   C50 8450   1.165   3.911   2.172 -0.2707  0.1100 -0.1254
  170DPPC    C1 8451   6.837   8.436   1.492 -0.0369  0.1996 -0.1977
  170DPPC    C2 8452   7.013   8.323   1.426 -0.3493 -0.1494 -0.0208
  170DPPC    C3 8453   7.028   8.483   1.613  0.5172  0.1659 -0.0020
  170DPPC    N4 8454   6.954   8.371   1.552  0.0648  0.4965 -0.0683
  170DPPC    C5 8455   6.904   8.260   1.634  0.2494  0.2772 -0.2496
  170DPPC    C6 8456   7.002   8.170   1.710  0.1911  0.2104 -0.2531
  170DPPC    O7 8457   6.928   8.060   1.763  0.2568  0.1921 -0.2010
  170DPPC    P8 8458   7.015   7.925   1.752  0.1862  0.1239  0.0582
  170DPPC    O9 8459   7.105   7.941   1.636  0.0549  0.1653 -0.0373
  170DPPC   O10 8460   6.925   7.808   1.763  0.2331  0.0531 -0.2985
  170DPPC   O11 8461   7.117   7.935   1.876  0.3913 -0.8419 -0.0212
  170DPPC   C12 8462   7.030   7.904   1.985 -0.3955 -0.0004 -0.3981
  170DPPC   C13 8463   7.103   7.896   2.119 -1.0051  0.4446 -0.0339
  170DPPC   O14 8464   7.032   7.820   2.219 -0.4264  0.1478  0.1588
  170DPPC   C15 8465   7.039   7.684   2.219 -0.3277  0.1520  0.0287
  170DPPC   O16 8466   7.075   7.622   2.119 -0.7085  0.2174 -0.1506
  170DPPC   C17 8467   6.964   7.610   2.330 -0.4910 -0.0924 -0.2451
  170DPPC   C18 8468   6.931   7.688   2.457  0.4030  0.1693 -0.1693
  170DPPC   C19 8469   6.881   7.598   2.570  0.4434  0.4944  0.1094
  170DPPC   C20 8470   6.822   7.681   2.685 -0.8481  0.2812 -0.3870
  170DPPC   C21 8471   6.751   7.596   2.791 -0.0132 -0.0258 -0.0687
  170DPPC   C22 8472   6.702   7.677   2.911  0.0534  0.0202 -0.0717
  170DPPC   C23 8473   6.815   7.765   2.965 -0.1068 -0.2767  0.7698
  170DPPC   C24 8474   6.758   7.858   3.072 -0.8421  0.1121  0.0493
  170DPPC   C25 8475   6.636   7.937   3.023 -0.3523  0.6388 -0.3343
  170DPPC   C26 8476   6.572   8.019   3.136  0.1661  0.3574  0.1705
  170DPPC   C27 8477   6.529   7.908   3.231  0.4153 -0.0757 -0.2159
  170DPPC   C28 8478   6.453   7.965   3.351  0.3039 -0.1911 -0.2313
  170DPPC   C29 8479   6.389   7.848   3.427  0.1480 -0.0735 -0.1808
  170DPPC   C30 8480   6.497   7.750   3.471  0.2819  0.0152 -0.3074
  170DPPC   C31 8481   6.417   7.626   3.513  0.3933 -0.0199 -0.1969
  170DPPC   C32 8482   7.142   8.036   2.166  0.3229  0.1241 -0.1305
  170DPPC   O33 8483   7.228   8.043   2.280 -0.4240 -0.0626  0.4611
  170DPPC   C34 8484   7.254   8.165   2.333 -0.3735 -0.1757  0.7021
  170DPPC   O35 8485   7.182   8.262   2.305  0.8429  0.4163 -0.4851
  170DPPC   C36 8486   7.374   8.179   2.426  0.2582 -0.3579 -0.0740
  170DPPC   C37 8487   7.490   8.221   2.335  0.5125 -0.3535  0.2477
  170DPPC   C38 8488   7.622   8.223   2.411  0.1948 -0.4413  0.8099
  170DPPC   C39 8489   7.617   8.330   2.521  0.4533  0.6842 -0.2562
  170DPPC   C40 8490   7.751   8.351   2.592  0.1763 -0.1869  0.5366
  170DPPC   C41 8491   7.746   8.477   2.677  0.5125 -0.0474  0.3525
  170DPPC   C42 8492   7.893   8.504   2.709  0.4270 -0.1003  0.7966
  170DPPC   C43 8493   7.921   8.618   2.808  0.2872  0.5673  0.0750
  170DPPC   C44 8494   8.066   8.605   2.854  0.4504  0.3196 -0.4964
  170DPPC   C45 8495   8.084   8.700   2.972  0.5976 -0.3030 -0.0120
  170DPPC   C46 8496   8.217   8.690   3.047  0.6028 -0.1309  0.0029
  170DPPC   C47 8497   8.213   8.758   3.184 -0.2724  0.0161 -0.0947
  170DPPC   C48 8498   8.336   8.705   3.258 -0.0161  0.2604 -0.3476
  170DPPC   C49 8499   8.325   8.761   3.400  0.2242 -0.2017 -0.1468
  170DPPC   C50 8500   8.442   8.734   3.495  0.2317 -0.6010 -0.2678
  171DPPC    C1 8501   5.774   7.430   1.396 -0.0205 -0.1758  0.1045
  171DPPC    C2 8502   5.710   7.225   1.325  0.0355  0.4251 -0.3229
  171DPPC    C3 8503   5.933   7.255   1.431  0.0269 -0.0296 -0.1436
  171DPPC    N4 8504   5.790   7.288   1.432 -0.0085 -0.1817  0.0751
  171DPPC    C5 8505   5.738   7.245   1.562  0.0919  0.4525  0.3247
  171DPPC    C6 8506   5.618   7.322   1.617 -0.1807  0.0400  0.3091
  171DPPC    O7 8507   5.572   7.254   1.734  0.0745  0.4084  0.6230
  171DPPC    P8 8508   5.445   7.304   1.819 -0.2739  0.4768  0.0619
  171DPPC    O9 8509   5.418   7.198   1.918  0.1196 -0.1522 -0.4962
  171DPPC   O10 8510   5.343   7.323   1.713 -0.0264  0.2297 -0.2235
  171DPPC   O11 8511   5.517   7.442   1.859  0.4632  0.0252  0.3062
  171DPPC   C12 8512   5.582   7.418   1.984 -0.3627  0.0572  0.7430
  171DPPC   C13 8513   5.695   7.517   2.010 -0.0205 -0.0996 -0.1221
  171DPPC   O14 8514   5.789   7.477   2.111  0.0666  0.2378 -0.0668
  171DPPC   C15 8515   5.908   7.535   2.141  0.3565 -0.3083 -0.1456
  171DPPC   O16 8516   5.962   7.620   2.071  0.2332  0.1889  0.3465
  171DPPC   C17 8517   6.001   7.459   2.236  0.6159  0.3072  0.1023
  171DPPC   C18 8518   6.129   7.539   2.259  0.4393  0.5018  0.4126
  171DPPC   C19 8519   6.236   7.481   2.351  0.6350  0.1649 -0.0232
  171DPPC   C20 8520   6.195   7.527   2.491  0.2072 -0.3775  0.0340
  171DPPC   C21 8521   6.296   7.498   2.602  0.4513  0.2837 -0.0107
  171DPPC   C22 8522   6.252   7.576   2.726  0.7138  0.3654  0.0312
  171DPPC   C23 8523   6.325   7.522   2.849  0.3720 -0.2342 -0.0244
  171DPPC   C24 8524   6.302   7.374   2.878 -0.4801 -0.0776  0.1079
  171DPPC   C25 8525   6.338   7.333   3.021 -0.3139  0.1811  0.1409
  171DPPC   C26 8526   6.228   7.359   3.124 -0.4014  0.3223  0.0127
  171DPPC   C27 8527   6.293   7.326   3.259  0.6735  1.1018 -0.2996
  171DPPC   C28 8528   6.190   7.328   3.372  0.1764  0.2787 -0.7303
  171DPPC   C29 8529   6.227   7.218   3.472  0.3697  0.8120 -0.2152
  171DPPC   C30 8530   6.101   7.166   3.540  0.6652  0.3954  0.0180
  171DPPC   C31 8531   6.124   7.059   3.648  0.0833 -0.6796 -0.9047
  171DPPC   C32 8532   5.638   7.653   2.051 -0.6338 -0.4315  0.1371
  171DPPC   O33 8533   5.545   7.645   2.159 -0.4785 -0.3309  0.2793
  171DPPC   C34 8534   5.492   7.763   2.201  0.3082  0.1456 -0.0515
  171DPPC   O35 8535   5.524   7.872   2.155 -0.4284  0.2758 -0.2673
  171DPPC   C36 8536   5.407   7.768   2.328  0.1519  0.2065 -0.1586
  171DPPC   C37 8537   5.465   7.859   2.437 -0.0979  0.0022  0.1475
  171DPPC   C38 8538   5.374   7.861   2.560 -0.0445  0.1457  0.1853
  171DPPC   C39 8539   5.436   7.949   2.668  0.6708  0.1655 -0.2373
  171DPPC   C40 8540   5.452   8.092   2.618  0.5169  0.3139  0.1306
  171DPPC   C41 8541   5.535   8.185   2.707  0.4163  0.0947  0.4516
  171DPPC   C42 8542   5.520   8.327   2.654  0.0147 -0.1345 -0.0558
  171DPPC   C43 8543   5.497   8.426   2.768  0.5659  0.2044 -0.2299
  171DPPC   C44 8544   5.620   8.429   2.860  0.1425 -0.6621  0.3875
  171DPPC   C45 8545   5.573   8.468   3.000  0.7338 -0.2976  0.4880
  171DPPC   C46 8546   5.457   8.376   3.041  0.3118 -0.1633 -0.3757
  171DPPC   C47 8547   5.391   8.423   3.170  0.2920 -0.5283 -0.2526
  171DPPC   C48 8548   5.249   8.369   3.190  0.0042  0.1901 -0.3245
  171DPPC   C49 8549   5.185   8.455   3.299 -0.3654  0.2361 -0.5741
  171DPPC   C50 8550   5.035   8.437   3.278 -0.4680 -0.1106  0.3862
  172DPPC    C1 8551   2.984   5.043   1.680  0.2286  1.0245 -0.3539
  172DPPC    C2 8552   2.971   5.036   1.933 -0.3396 -0.1654  0.2870
  172DPPC    C3 8553   3.084   4.888   1.810 -0.2171 -0.4117  0.0176
  172DPPC    N4 8554   3.052   5.031   1.810 -0.7412 -0.5283  0.0325
  172DPPC    C5 8555   3.181   5.098   1.830 -0.9215 -0.2508  0.2932
  172DPPC    C6 8556   3.178   5.250   1.821  0.7038 -0.2144  0.0349
  172DPPC    O7 8557   3.302   5.321   1.825  0.5306  0.1271 -0.5183
  172DPPC    P8 8558   3.273   5.469   1.768 -0.5287  0.1452  0.0481
  172DPPC    O9 8559   3.131   5.485   1.731 -0.3626 -0.0390 -0.7031
  172DPPC   O10 8560   3.382   5.539   1.696 -0.0166 -0.0892  0.5944
  172DPPC   O11 8561   3.261   5.546   1.908 -0.3465 -0.2802  0.3002
  172DPPC   C12 8562   3.395   5.519   1.951 -0.0232  0.6167 -0.1205
  172DPPC   C13 8563   3.428   5.551   2.097  0.1772 -0.1522  0.0070
  172DPPC   O14 8564   3.404   5.440   2.184 -0.8090  0.1413  0.1224
  172DPPC   C15 8565   3.514   5.417   2.261 -0.6707  0.6346  0.0786
  172DPPC   O16 8566   3.623   5.411   2.204 -0.5430  0.1849  0.3629
  172DPPC   C17 8567   3.493   5.319   2.377  0.6138  0.2100 -0.0291
  172DPPC   C18 8568   3.448   5.388   2.505  0.8271  0.1942  0.0544
  172DPPC   C19 8569   3.544   5.496   2.556 -0.4150  1.3298  0.0450
  172DPPC   C20 8570   3.503   5.547   2.694 -0.5689  0.2342  0.4135
  172DPPC   C21 8571   3.590   5.664   2.738  0.6191 -0.5303  0.1418
  172DPPC   C22 8572   3.546   5.726   2.871 -0.6617 -0.2443 -0.3960
  172DPPC   C23 8573   3.625   5.853   2.901 -0.3251 -0.6558  0.5001
  172DPPC   C24 8574   3.547   5.936   3.003 -0.0110  0.1933  0.0605
  172DPPC   C25 8575   3.637   6.058   3.026 -0.3031  0.3436  0.4265
  172DPPC   C26 8576   3.582   6.144   3.139 -0.3823  0.4112  0.3368
  172DPPC   C27 8577   3.637   6.286   3.124  0.9863 -0.1449 -0.0869
  172DPPC   C28 8578   3.590   6.368   3.245 -0.0127 -0.5319 -0.2026
  172DPPC   C29 8579   3.604   6.288   3.375 -0.6600  0.0149  0.2025
  172DPPC   C30 8580   3.620   6.367   3.505  0.1762  0.1427  0.0283
  172DPPC   C31 8581   3.497   6.459   3.513 -0.1460 -0.2977  0.1877
  172DPPC   C32 8582   3.352   5.681   2.127  0.3372 -0.0080 -0.2055
  172DPPC   O33 8583   3.354   5.718   2.265  0.1760  0.5791 -0.3575
  172DPPC   C34 8584   3.275   5.816   2.316 -0.4041  0.2659 -0.6476
  172DPPC   O35 8585   3.233   5.901   2.238 -0.2861  0.9873  0.0696
  172DPPC   C36 8586   3.273   5.848   2.466 -0.3351 -0.0309 -0.5831
  172DPPC   C37 8587   3.211   5.740   2.555 -0.3605  0.3546 -0.1350
  172DPPC   C38 8588   3.192   5.790   2.699 -0.6242  0.0496 -0.0630
  172DPPC   C39 8589   3.105   5.704   2.790 -0.3342 -0.3548 -0.1628
  172DPPC   C40 8590   3.107   5.757   2.933 -0.6416  0.0365 -0.3026
  172DPPC   C41 8591   3.033   5.665   3.030 -0.0160  0.0532  0.1925
  172DPPC   C42 8592   3.053   5.703   3.177  0.0205  0.8930 -0.0276
  172DPPC   C43 8593   3.198   5.664   3.207 -0.1765  0.1654  0.0017
  172DPPC   C44 8594   3.246   5.731   3.336  0.1055 -0.5181  0.2538
  172DPPC   C45 8595   3.213   5.651   3.462 -0.1699 -0.5742  0.1468
  172DPPC   C46 8596   3.259   5.727   3.587  0.2121  0.1246 -0.4157
  172DPPC   C47 8597   3.408   5.759   3.574  0.1072  0.5659 -0.5580
  172DPPC   C48 8598   3.463   5.836   3.694  0.3434  0.0326 -0.3212
  172DPPC   C49 8599   3.473   5.747   3.818  0.1519  0.3340 -0.0860
  172DPPC   C50 8600   3.564   5.624   3.802  0.1779  0.2829  0.4248
  173DPPC    C1 8601   6.056   2.041   2.247 -0.0757  0.2412  0.6451
  173DPPC    C2 8602   5.923   2.056   2.056  0.6878 -0.2967  0.6065
  173DPPC    C3 8603   5.931   2.248   2.207 -0.6172  0.5076 -0.7860
  173DPPC    N4 8604   6.007   2.137   2.147  0.1739  0.2903  0.5677
  173DPPC    C5 8605   6.132   2.188   2.090  0.0165 -0.2964 -0.3243
  173DPPC    C6 8606   6.135   2.294   1.979 -0.0693 -0.3634 -0.3914
  173DPPC    O7 8607   6.257   2.348   1.928  0.1564  0.7063  1.2012
  173DPPC    P8 8608   6.248   2.493   1.859 -0.0369  0.0311 -0.2248
  173DPPC    O9 8609   6.126   2.469   1.778 -0.4806  0.2662  0.3629
  173DPPC   O10 8610   6.374   2.549   1.806  0.2881 -0.1787  0.3240
  173DPPC   O11 8611   6.205   2.572   1.993 -0.2385 -0.0423 -0.2452
  173DPPC   C12 8612   6.324   2.631   2.046 -0.1661 -0.2977 -0.1252
  173DPPC   C13 8613   6.303   2.706   2.178  0.2943  0.0548 -0.2481
  173DPPC   O14 8614   6.424   2.752   2.240  0.1741 -0.0874  0.0929
  173DPPC   C15 8615   6.404   2.865   2.313  0.2031 -0.1084  0.1333
  173DPPC   O16 8616   6.317   2.940   2.270 -0.0180 -0.3454  0.1656
  173DPPC   C17 8617   6.530   2.926   2.376  0.0279  0.3083  0.0784
  173DPPC   C18 8618   6.501   3.012   2.499  0.0007  0.3179  0.0652
  173DPPC   C19 8619   6.591   2.981   2.618 -0.5713 -0.1429  0.3854
  173DPPC   C20 8620   6.576   2.843   2.682 -0.0053 -0.4248 -0.0870
  173DPPC   C21 8621   6.671   2.831   2.802  0.2569  0.2356 -0.2228
  173DPPC   C22 8622   6.642   2.700   2.875  0.2196  0.2361 -0.2361
  173DPPC   C23 8623   6.729   2.663   2.996  0.0168 -0.2138 -0.2243
  173DPPC   C24 8624   6.674   2.756   3.104  0.0468 -0.1668 -0.2494
  173DPPC   C25 8625   6.745   2.733   3.238 -0.3079  0.1307 -0.0086
  173DPPC   C26 8626   6.654   2.810   3.334  0.0461  0.8397 -0.2296
  173DPPC   C27 8627   6.723   2.830   3.469 -0.1413 -0.6712  0.1111
  173DPPC   C28 8628   6.752   2.702   3.548 -0.2900 -0.7812 -0.0113
  173DPPC   C29 8629   6.803   2.749   3.685 -0.6339 -0.4110 -0.0083
  173DPPC   C30 8630   6.693   2.833   3.749 -0.1910 -0.0633  0.2983
  173DPPC   C31 8631   6.729   2.889   3.887  0.1241 -0.1692  0.2576
  173DPPC   C32 8632   6.248   2.587   2.257  0.5361  0.2747  0.2520
  173DPPC   O33 8633   6.211   2.601   2.395 -0.5772 -0.2432  0.0170
  173DPPC   C34 8634   6.189   2.490   2.470  0.4822 -0.4826 -0.0198
  173DPPC   O35 8635   6.164   2.384   2.413 -0.4576 -0.0675 -0.3946
  173DPPC   C36 8636   6.155   2.511   2.618 -0.2559 -0.1711 -0.2325
  173DPPC   C37 8637   6.263   2.528   2.725  0.0339  0.6827 -0.6495
  173DPPC   C38 8638   6.207   2.602   2.847  0.1876  0.0171 -0.1708
  173DPPC   C39 8639   6.291   2.608   2.975 -0.7263 -1.0273  0.4935
  173DPPC   C40 8640   6.244   2.712   3.076  0.0665  0.0334 -0.1997
  173DPPC   C41 8641   6.288   2.681   3.220 -0.6876 -0.0841  0.0143
  173DPPC   C42 8642   6.223   2.782   3.314  0.0640  0.0247  0.4264
  173DPPC   C43 8643   6.287   2.786   3.453  0.1879 -0.1617  0.3741
  173DPPC   C44 8644   6.274   2.643   3.506 -0.2959 -0.1987  0.1589
  173DPPC   C45 8645   6.320   2.649   3.652 -0.2012 -0.3587  0.1352
  173DPPC   C46 8646   6.242   2.754   3.731  0.6809  0.2837  0.1727
  173DPPC   C47 8647   6.287   2.763   3.877 -0.0031  0.3237  0.3832
  173DPPC   C48 8648   6.240   2.897   3.935  0.2467  0.5024  0.1773
  173DPPC   C49 8649   6.330   3.019   3.915 -0.1053  0.5908 -0.9338
  173DPPC   C50 8650   6.259   3.153   3.929 -0.0699  0.5530 -0.3830
  174DPPC    C1 8651   8.975   4.946   1.164 -0.0618  0.4399  0.5480
  174DPPC    C2 8652   9.121   4.888   1.324 -0.0601 -0.6562  0.7675
  174DPPC    C3 8653   8.982   4.709   1.246 -0.0563 -0.1150 -0.6949
  174DPPC    N4 8654   9.055   4.831   1.206 -0.1616  0.2971  0.3516
  174DPPC    C5 8655   9.140   4.817   1.087 -0.1867  0.2189  0.3428
  174DPPC    C6 8656   9.228   4.692   1.086 -0.2752  0.1585 -0.1925
  174DPPC    O7 8657   9.303   4.681   1.208 -0.3745 -0.1416 -0.1577
  174DPPC    P8 8658   9.373   4.537   1.188 -0.2678 -0.1693  0.4063
  174DPPC    O9 8659   9.459   4.542   1.067 -0.3801 -0.7063  0.3042
  174DPPC   O10 8660   9.258   4.444   1.189 -0.0939 -0.3915 -0.0286
  174DPPC   O11 8661   9.459   4.545   1.324  0.1134  0.0437  0.1575
  174DPPC   C12 8662   9.375   4.508   1.434 -0.1221 -0.0350 -0.0492
  174DPPC   C13 8663   9.445   4.525   1.568  0.3382 -0.3271 -0.2517
  174DPPC   O14 8664   9.365   4.491   1.682  0.2904  0.2097 -0.1228
  174DPPC   C15 8665   9.376   4.359   1.714  0.1173  0.1474 -0.3158
  174DPPC   O16 8666   9.425   4.276   1.637  0.3700 -0.1674  0.1820
  174DPPC   C17 8667   9.315   4.309   1.845  0.2985  0.4708 -0.1071
  174DPPC   C18 8668   9.309   4.415   1.955 -0.5224  0.6622 -0.3327
  174DPPC   C19 8669   9.250   4.353   2.082  0.0848  0.2327 -0.2608
  174DPPC   C20 8670   9.242   4.449   2.201  0.2902 -0.3110  0.1945
  174DPPC   C21 8671   9.158   4.403   2.320 -0.3534 -0.8978 -0.4759
  174DPPC   C22 8672   9.159   4.493   2.444  0.2743 -1.0807 -0.3430
  174DPPC   C23 8673   9.098   4.410   2.557 -0.5757 -0.3089 -0.2224
  174DPPC   C24 8674   9.099   4.475   2.696 -0.0338 -0.1756 -0.2871
  174DPPC   C25 8675   9.087   4.368   2.805  0.5935  0.0718  0.0294
  174DPPC   C26 8676   9.061   4.422   2.946  0.0020  0.0496 -0.0697
  174DPPC   C27 8677   9.022   4.311   3.044 -0.1228  0.3021  0.1682
  174DPPC   C28 8678   8.893   4.242   2.999  0.1767 -0.1410 -0.0165
  174DPPC   C29 8679   8.859   4.148   3.115 -0.6249  0.6031  0.3657
  174DPPC   C30 8680   8.740   4.057   3.082 -0.1526  0.1273 -0.0308
  174DPPC   C31 8681   8.656   4.025   3.205 -0.4458 -0.3061 -0.3402
  174DPPC   C32 8682   9.514   4.662   1.569  0.3863 -0.3512 -0.1075
  174DPPC   O33 8683   9.427   4.772   1.542  0.4367 -0.2505  0.1428
  174DPPC   C34 8684   9.489   4.893   1.548  0.0227 -0.0401  0.3077
  174DPPC   O35 8685   9.612   4.898   1.542  0.0296 -0.0286  0.4520
  174DPPC   C36 8686   9.393   5.012   1.543  0.5253  0.3448 -0.3821
  174DPPC   C37 8687   9.433   5.112   1.651  0.5730  0.0260 -0.1035
  174DPPC   C38 8688   9.339   5.233   1.648  0.6613  0.0949 -0.0982
  174DPPC   C39 8689   9.350   5.335   1.761 -0.3902  0.0874  0.0218
  174DPPC   C40 8690   9.341   5.273   1.901  0.2767 -0.0805 -0.0068
  174DPPC   C41 8691   9.324   5.383   2.007 -0.6211 -0.1541 -0.0667
  174DPPC   C42 8692   9.306   5.314   2.142  0.4627  0.4021  0.3783
  174DPPC   C43 8693   9.336   5.413   2.255  0.7450  0.1975  0.4826
  174DPPC   C44 8694   9.300   5.350   2.390  1.1142  0.0350  0.5063
  174DPPC   C45 8695   9.339   5.446   2.503  0.1527  0.7938  0.2134
  174DPPC   C46 8696   9.281   5.402   2.638  0.1013  0.5330  0.1073
  174DPPC   C47 8697   9.323   5.511   2.737 -1.2279  0.7430  0.4494
  174DPPC   C48 8698   9.251   5.478   2.868  0.1983 -0.3025  0.9945
  174DPPC   C49 8699   9.101   5.489   2.838  0.3344  0.4104  0.5508
  174DPPC   C50 8700   9.008   5.442   2.950  0.1987  0.0701  0.2941
  175DPPC    C1 8701   3.744   1.778   1.947  0.0184  0.2575 -0.0190
  175DPPC    C2 8702   3.934   1.894   2.024 -0.0660 -0.1188 -0.6270
  175DPPC    C3 8703   3.728   1.988   2.063 -0.2287  0.1785 -0.6262
  175DPPC    N4 8704   3.796   1.858   2.059 -0.0156  0.2706 -0.0124
  175DPPC    C5 8705   3.804   1.793   2.191  0.4767  0.2307 -0.0606
  175DPPC    C6 8706   3.673   1.724   2.233  0.3166  0.3992 -0.2821
  175DPPC    O7 8707   3.560   1.809   2.251  0.0783  0.0722 -0.2352
  175DPPC    P8 8708   3.422   1.728   2.270  0.1438  0.0258  0.0588
  175DPPC    O9 8709   3.462   1.588   2.296  0.0131 -0.0750 -0.2698
  175DPPC   O10 8710   3.322   1.780   2.173 -0.0810  0.2200  0.3951
  175DPPC   O11 8711   3.401   1.799   2.413  0.3206  0.2380 -0.0202
  175DPPC   C12 8712   3.434   1.704   2.515 -0.5499  0.2834  0.3075
  175DPPC   C13 8713   3.458   1.770   2.651  0.6678  0.0419  0.2198
  175DPPC   O14 8714   3.541   1.702   2.746  0.2043  0.2947  0.8070
  175DPPC   C15 8715   3.674   1.687   2.723 -0.0909 -0.2887 -0.6015
  175DPPC   O16 8716   3.734   1.755   2.640 -0.0462 -0.0524 -0.3781
  175DPPC   C17 8717   3.744   1.608   2.834  0.0044 -0.1340 -0.5512
  175DPPC   C18 8718   3.728   1.692   2.961 -0.0374 -0.2299 -0.4930
  175DPPC   C19 8719   3.777   1.636   3.095  0.3051  0.8138 -0.1740
  175DPPC   C20 8720   3.790   1.746   3.201 -0.2852  0.7111  0.0098
  175DPPC   C21 8721   3.828   1.695   3.340 -0.0837  0.0784 -0.2703
  175DPPC   C22 8722   3.960   1.620   3.358 -0.2951 -0.1313  0.4490
  175DPPC   C23 8723   3.987   1.587   3.505 -0.1998 -0.9802  0.2474
  175DPPC   C24 8724   3.999   1.701   3.606  0.1060 -0.7472 -0.0512
  175DPPC   C25 8725   4.019   1.657   3.751  0.1236  0.3313  0.2806
  175DPPC   C26 8726   4.047   1.783   3.834  0.0104  0.5419 -0.0001
  175DPPC   C27 8727   4.090   1.742   3.975 -0.4467 -0.1747 -0.0663
  175DPPC   C28 8728   4.159   1.856   4.051 -0.4548  0.0344 -0.3691
  175DPPC   C29 8729   4.178   1.831   4.201 -0.2781  0.1405 -0.3739
  175DPPC   C30 8730   4.270   1.709   4.204 -0.5561 -0.0696 -0.3598
  175DPPC   C31 8731   4.408   1.732   4.143 -0.7294  0.2466 -0.6316
  175DPPC   C32 8732   3.323   1.827   2.696  0.0683 -0.6245 -0.6966
  175DPPC   O33 8733   3.229   1.720   2.707 -0.0190 -0.4819 -0.0297
  175DPPC   C34 8734   3.113   1.739   2.776 -0.0582 -0.1615 -0.1810
  175DPPC   O35 8735   3.040   1.825   2.726  0.1724  0.2002  0.1098
  175DPPC   C36 8736   3.058   1.601   2.813 -0.0425 -0.0744  0.1636
  175DPPC   C37 8737   2.918   1.624   2.870 -0.1467  0.6072 -0.3543
  175DPPC   C38 8738   2.853   1.489   2.903  0.2769  0.4090 -0.3286
  175DPPC   C39 8739   2.938   1.398   2.992 -0.0795  0.3664 -0.0285
  175DPPC   C40 8740   2.861   1.267   3.006 -0.0833  0.4026  0.3007
  175DPPC   C41 8741   2.942   1.173   3.096 -0.1780 -0.1841 -0.2209
  175DPPC   C42 8742   2.967   1.238   3.232  0.6138  0.2725 -0.5775
  175DPPC   C43 8743   3.079   1.171   3.311  0.2364 -0.1135 -0.3678
  175DPPC   C44 8744   3.136   1.248   3.430 -0.2842 -0.3175  0.0157
  175DPPC   C45 8745   3.250   1.152   3.464  0.0224 -0.0881 -0.3714
  175DPPC   C46 8746   3.338   1.208   3.575  0.0551 -0.2157 -0.3328
  175DPPC   C47 8747   3.272   1.245   3.708  0.4876  0.3045 -0.2584
  175DPPC   C48 8748   3.388   1.245   3.808  0.1277 -0.1003  0.1696
  175DPPC   C49 8749   3.339   1.293   3.945  0.1485  0.1308  0.0968
  175DPPC   C50 8750   3.433   1.265   4.062 -0.0250  0.1630  0.2447
  176DPPC    C1 8751   8.316   4.771   1.224 -0.8475 -0.1567 -0.0309
  176DPPC    C2 8752   8.385   4.798   0.993 -0.0717 -0.0369 -0.2736
  176DPPC    C3 8753   8.152   4.777   1.057  0.2318 -0.0317 -0.0115
  176DPPC    N4 8754   8.284   4.832   1.094  0.1629  0.2121 -0.1211
  176DPPC    C5 8755   8.269   4.978   1.105 -0.5238  0.1953 -0.7352
  176DPPC    C6 8756   8.399   5.059   1.117 -0.0971 -0.5968  0.1720
  176DPPC    O7 8757   8.443   5.074   1.252 -0.1757  0.6666  0.0663
  176DPPC    P8 8758   8.599   5.113   1.261 -0.0369  0.0867  0.1999
  176DPPC    O9 8759   8.608   5.245   1.326 -0.0704 -0.0302  0.4422
  176DPPC   O10 8760   8.655   5.105   1.124 -0.1154  0.6402  0.1344
  176DPPC   O11 8761   8.650   4.986   1.346 -0.4376 -0.2921 -0.1183
  176DPPC   C12 8762   8.579   4.964   1.469 -0.5330 -0.6891 -0.2428
  176DPPC   C13 8763   8.643   4.860   1.561 -0.1623 -0.0676  0.2147
  176DPPC   O14 8764   8.561   4.827   1.674 -0.1720  0.4591  0.3648
  176DPPC   C15 8765   8.587   4.705   1.730 -0.2845  0.0802 -0.3953
  176DPPC   O16 8766   8.646   4.620   1.665  0.1026  0.2829 -0.3088
  176DPPC   C17 8767   8.510   4.671   1.858 -0.8683  0.0398 -0.7544
  176DPPC   C18 8768   8.369   4.613   1.842 -1.0670  0.2964  0.0356
  176DPPC   C19 8769   8.305   4.589   1.979 -0.1659  0.4942  0.5004
  176DPPC   C20 8770   8.160   4.540   1.989 -0.0908  0.2638  0.4572
  176DPPC   C21 8771   8.135   4.480   2.128 -0.4495 -0.0337  0.2654
  176DPPC   C22 8772   7.992   4.428   2.137 -0.3792 -0.3277 -0.2650
  176DPPC   C23 8773   7.956   4.368   2.274  0.8783 -0.6459 -0.0661
  176DPPC   C24 8774   7.923   4.480   2.373 -0.4029 -0.7474 -0.3641
  176DPPC   C25 8775   7.897   4.431   2.516  0.2364  0.1930  0.0814
  176DPPC   C26 8776   7.825   4.532   2.605 -0.1819 -0.1778  0.1601
  176DPPC   C27 8777   7.805   4.486   2.750 -0.1426 -0.3897  0.0985
  176DPPC   C28 8778   7.726   4.591   2.828  0.2063  0.0117 -0.0858
  176DPPC   C29 8779   7.743   4.561   2.977 -0.2409  0.5013  0.0651
  176DPPC   C30 8780   7.894   4.581   2.988 -0.0630 -0.6876 -0.1717
  176DPPC   C31 8781   7.948   4.508   3.112 -0.0212 -0.3469  0.0108
  176DPPC   C32 8782   8.786   4.905   1.589 -0.2581  0.0753  0.4840
  176DPPC   O33 8783   8.790   5.036   1.648 -0.1658  0.2893  0.0097
  176DPPC   C34 8784   8.914   5.086   1.675 -0.0414  0.2561 -0.4806
  176DPPC   O35 8785   9.013   5.020   1.644  0.1412  0.1909  0.2148
  176DPPC   C36 8786   8.904   5.209   1.765  0.0823 -0.1202  0.0503
  176DPPC   C37 8787   8.900   5.178   1.915  0.5923  0.1019  0.1119
  176DPPC   C38 8788   8.914   5.313   1.984  0.5572  0.3613 -0.3853
  176DPPC   C39 8789   8.884   5.297   2.133  0.3655 -0.0103 -0.4648
  176DPPC   C40 8790   8.918   5.420   2.218  0.0872 -0.0411 -0.3080
  176DPPC   C41 8791   8.866   5.407   2.361  0.4097  0.2303 -0.1656
  176DPPC   C42 8792   8.853   5.538   2.438 -0.2893  0.1220 -0.0931
  176DPPC   C43 8793   8.798   5.503   2.576 -0.3065  0.0015 -0.1309
  176DPPC   C44 8794   8.762   5.640   2.634 -0.0731 -0.0549  0.1481
  176DPPC   C45 8795   8.701   5.630   2.774  0.3432  0.1063  0.3442
  176DPPC   C46 8796   8.575   5.543   2.780  0.3953  0.0356  0.4102
  176DPPC   C47 8797   8.449   5.620   2.742 -0.2180 -0.7292  0.8590
  176DPPC   C48 8798   8.326   5.529   2.732 -0.5592 -0.1701 -0.1454
  176DPPC   C49 8799   8.228   5.607   2.644 -0.0353  0.1438 -0.4615
  176DPPC   C50 8800   8.188   5.727   2.730  0.6286 -0.3986  0.6234
  177DPPC    C1 8801   9.158   2.625   1.656 -0.5653  0.0215  0.0032
  177DPPC    C2 8802   8.969   2.630   1.503 -0.1798 -0.3509 -0.4762
  177DPPC    C3 8803   8.963   2.707   1.725  0.0483  0.1360 -0.4586
  177DPPC    N4 8804   9.046   2.704   1.603 -0.2656  0.0087 -0.6719
  177DPPC    C5 8805   9.100   2.834   1.561  0.0733 -0.0353 -0.3782
  177DPPC    C6 8806   9.038   2.906   1.442 -0.4890  0.6246  0.3033
  177DPPC    O7 8807   8.906   2.953   1.473 -0.6390  0.3043  0.1596
  177DPPC    P8 8808   8.918   3.110   1.507 -0.0631  0.2837  0.0663
  177DPPC    O9 8809   8.838   3.197   1.418 -0.4509 -0.8920 -0.7595
  177DPPC   O10 8810   9.055   3.139   1.555  0.2340  0.2981 -0.7643
  177DPPC   O11 8811   8.834   3.104   1.644 -0.0612  0.3591  0.0704
  177DPPC   C12 8812   8.918   3.109   1.760 -0.1045  0.1036  0.1134
  177DPPC   C13 8813   8.855   3.140   1.896  0.3756  0.3938  0.2732
  177DPPC   O14 8814   8.800   3.024   1.959 -0.0999  0.4491 -0.0337
  177DPPC   C15 8815   8.872   2.937   2.035  0.1353  0.1616 -0.5768
  177DPPC   O16 8816   8.995   2.930   2.033  0.1682  0.6212 -0.3692
  177DPPC   C17 8817   8.792   2.829   2.108 -0.0675  0.4048 -0.4376
  177DPPC   C18 8818   8.772   2.864   2.256  0.0037 -0.2047 -0.2838
  177DPPC   C19 8819   8.689   2.767   2.341 -0.6320  0.1430 -0.5079
  177DPPC   C20 8820   8.662   2.824   2.480  0.1884 -0.5585 -0.0522
  177DPPC   C21 8821   8.570   2.726   2.554 -0.4185 -0.0486 -0.1181
  177DPPC   C22 8822   8.583   2.731   2.706  0.7130 -1.3824 -0.1494
  177DPPC   C23 8823   8.495   2.627   2.775 -0.2759 -0.5243 -0.0939
  177DPPC   C24 8824   8.482   2.632   2.928  0.3855 -0.4238 -0.0390
  177DPPC   C25 8825   8.433   2.767   2.980  0.3814 -0.3227 -0.3050
  177DPPC   C26 8826   8.398   2.758   3.129  0.0724  0.1599 -0.3472
  177DPPC   C27 8827   8.295   2.651   3.164  0.4386 -0.1041 -0.0631
  177DPPC   C28 8828   8.274   2.633   3.314  0.2992  0.3164 -0.0301
  177DPPC   C29 8829   8.156   2.537   3.329  0.2916  0.3837  0.3476
  177DPPC   C30 8830   8.141   2.511   3.479 -0.0735  0.2998  0.2978
  177DPPC   C31 8831   8.011   2.445   3.527  0.1208 -0.1988  0.1338
  177DPPC   C32 8832   8.750   3.250   1.879  0.4903  0.4554 -0.0538
  177DPPC   O33 8833   8.668   3.280   1.992  0.3846 -0.1229  0.0287
  177DPPC   C34 8834   8.565   3.204   2.036  0.4089  0.0356  0.3706
  177DPPC   O35 8835   8.521   3.107   1.973  0.2029  0.2542  0.1728
  177DPPC   C36 8836   8.488   3.249   2.160 -0.4383 -0.5663  0.0794
  177DPPC   C37 8837   8.585   3.308   2.263 -0.3776 -0.3642 -0.0923
  177DPPC   C38 8838   8.507   3.362   2.384 -0.0939 -0.5772  0.1861
  177DPPC   C39 8839   8.612   3.419   2.480  0.1111  0.0039 -0.3775
  177DPPC   C40 8840   8.705   3.306   2.524  0.1622 -0.1243 -0.8119
  177DPPC   C41 8841   8.796   3.360   2.635 -0.7043 -0.6231  0.1575
  177DPPC   C42 8842   8.905   3.253   2.644  0.0826  0.1850  0.4098
  177DPPC   C43 8843   8.846   3.130   2.714  0.1786 -0.2062 -0.1875
  177DPPC   C44 8844   8.946   3.024   2.757 -0.1964 -0.4433  0.1042
  177DPPC   C45 8845   8.894   2.902   2.834  0.1906 -0.2309  0.7104
  177DPPC   C46 8846   9.002   2.830   2.914  0.7480  0.5818  0.7061
  177DPPC   C47 8847   8.961   2.737   3.029 -0.2416  0.0798 -0.0400
  177DPPC   C48 8848   8.859   2.630   2.991 -0.1842  0.2331 -0.6306
  177DPPC   C49 8849   8.785   2.561   3.105 -0.1182  0.4407 -0.4625
  177DPPC   C50 8850   8.870   2.457   3.178  0.2413  0.5152 -0.7730
  178DPPC    C1 8851   8.009   2.264   1.807  0.2780 -0.3629 -0.1953
  178DPPC    C2 8852   8.111   2.477   1.868  0.1885  0.5315 -0.1332
  178DPPC    C3 8853   8.187   2.264   1.957  0.1035  0.2646 -0.1763
  178DPPC    N4 8854   8.133   2.334   1.840 -0.2347  0.4250  0.0753
  178DPPC    C5 8855   8.220   2.320   1.722 -0.1042 -0.7345  0.2980
  178DPPC    C6 8856   8.371   2.329   1.746  0.0377  0.1413 -0.8235
  178DPPC    O7 8857   8.417   2.461   1.772  0.0272 -0.0326  0.1373
  178DPPC    P8 8858   8.566   2.463   1.833  0.0264  0.2434  0.1309
  178DPPC    O9 8859   8.604   2.605   1.854 -0.4106  0.3913 -0.0740
  178DPPC   O10 8860   8.655   2.387   1.743 -0.9311  0.5289 -1.0844
  178DPPC   O11 8861   8.521   2.387   1.968  0.5499  0.3158  0.3494
  178DPPC   C12 8862   8.484   2.473   2.076 -0.1528  0.5092 -0.0362
  178DPPC   C13 8863   8.449   2.392   2.201 -0.5798  0.0898 -0.4268
  178DPPC   O14 8864   8.420   2.471   2.317 -0.0345  0.3735 -0.4808
  178DPPC   C15 8865   8.287   2.492   2.339  0.0733  0.7970 -0.2165
  178DPPC   O16 8866   8.210   2.492   2.243  0.2355 -1.0913 -0.3978
  178DPPC   C17 8867   8.237   2.517   2.481  0.0470  0.0954 -0.0958
  178DPPC   C18 8868   8.085   2.508   2.494  0.0917 -0.3594  0.1388
  178DPPC   C19 8869   8.062   2.543   2.642  0.2571 -0.1372  0.1124
  178DPPC   C20 8870   8.103   2.688   2.671  0.0315 -0.0344 -0.0691
  178DPPC   C21 8871   8.064   2.700   2.819  0.0814  0.3515 -0.0860
  178DPPC   C22 8872   8.042   2.848   2.851 -0.0073  0.3714 -0.2360
  178DPPC   C23 8873   8.015   2.856   3.002 -0.0368 -0.0934 -0.2122
  178DPPC   C24 8874   8.003   3.005   3.036 -0.1930 -0.2881  0.6022
  178DPPC   C25 8875   8.066   3.037   3.171 -0.1889  0.3040  0.4633
  178DPPC   C26 8876   8.099   3.185   3.189  0.4544  0.2643 -0.3563
  178DPPC   C27 8877   8.126   3.234   3.331  0.5528  0.0335 -0.2968
  178DPPC   C28 8878   8.259   3.171   3.374  0.4780  0.0775  0.0051
  178DPPC   C29 8879   8.303   3.221   3.511  0.2070  0.1967  0.0482
  178DPPC   C30 8880   8.441   3.160   3.535 -0.0079 -0.5267 -0.5116
  178DPPC   C31 8881   8.498   3.203   3.671  0.1711 -0.2763 -0.6664
  178DPPC   C32 8882   8.572   2.304   2.222 -0.6626  0.1322  0.2611
  178DPPC   O33 8883   8.563   2.191   2.310 -0.3795  0.3072  0.5150
  178DPPC   C34 8884   8.492   2.077   2.292  0.8141 -0.3744 -0.0293
  178DPPC   O35 8885   8.443   2.051   2.183 -0.3168  0.5151  0.2484
  178DPPC   C36 8886   8.486   1.987   2.416  0.3325  0.2411  0.3991
  178DPPC   C37 8887   8.377   2.034   2.513 -0.3083  0.2499 -0.3162
  178DPPC   C38 8888   8.383   1.963   2.649  0.5770  0.1256 -0.4138
  178DPPC   C39 8889   8.258   2.012   2.722  0.7618 -0.5038  0.3403
  178DPPC   C40 8890   8.239   1.941   2.856  0.4029  0.1399  0.6385
  178DPPC   C41 8891   8.118   2.004   2.925  0.0526 -0.3823  0.5086
  178DPPC   C42 8892   8.101   1.926   3.055 -0.1137 -0.6397  0.3346
  178DPPC   C43 8893   7.974   1.983   3.117 -0.1891 -0.4214 -0.0207
  178DPPC   C44 8894   7.944   1.929   3.257 -0.1431 -0.3811  0.0051
  178DPPC   C45 8895   7.840   2.026   3.313 -0.4193 -0.2476 -0.7146
  178DPPC   C46 8896   7.757   1.969   3.429 -0.2110  0.3777 -0.2493
  178DPPC   C47 8897   7.670   1.852   3.381  0.1510 -0.1918  0.4641
  178DPPC   C48 8898   7.588   1.792   3.495  0.0265 -0.1642  0.3887
  178DPPC   C49 8899   7.484   1.888   3.553  0.1122  0.1824 -0.0242
  178DPPC   C50 8900   7.349   1.816   3.564  0.0610  0.1387 -0.8658
  179DPPC    C1 8901   5.276   6.445   1.973  0.1487  0.2499  0.0206
  179DPPC    C2 8902   5.393   6.345   2.155 -0.0284  0.5940 -0.0885
  179DPPC    C3 8903   5.165   6.340   2.149  0.4048  0.4496  0.3615
  179DPPC    N4 8904   5.282   6.327   2.060  0.0371  0.1646 -0.0867
  179DPPC    C5 8905   5.305   6.193   2.005  0.5118  0.3346 -0.3090
  179DPPC    C6 8906   5.185   6.136   1.928  0.9194 -0.3104 -0.4734
  179DPPC    O7 8907   5.152   6.191   1.800  0.0109 -0.0088 -0.1141
  179DPPC    P8 8908   4.993   6.185   1.778  0.0380 -0.2452 -0.2508
  179DPPC    O9 8909   4.939   6.051   1.812 -0.3835 -0.0565 -0.1651
  179DPPC   O10 8910   4.950   6.266   1.662 -0.5063 -0.0162  0.1056
  179DPPC   O11 8911   4.951   6.271   1.908  0.2641  0.4518 -0.6365
  179DPPC   C12 8912   4.835   6.354   1.900  0.2020  0.4287  0.0042
  179DPPC   C13 8913   4.780   6.418   2.028 -0.3361  0.2859 -0.1543
  179DPPC   O14 8914   4.870   6.516   2.082  0.0436 -0.2668  0.2206
  179DPPC   C15 8915   4.816   6.605   2.169 -0.0657  0.0326 -0.1522
  179DPPC   O16 8916   4.708   6.658   2.141 -0.3077 -0.5552 -0.3502
  179DPPC   C17 8917   4.899   6.649   2.289 -0.1682 -0.1266 -0.0217
  179DPPC   C18 8918   4.867   6.568   2.414 -0.0300  0.7774  0.6081
  179DPPC   C19 8919   4.958   6.590   2.536  0.2886  0.0607  0.5060
  179DPPC   C20 8920   5.104   6.578   2.492  0.2194  0.0011  0.2876
  179DPPC   C21 8921   5.206   6.579   2.606  0.2171  0.3300  0.2896
  179DPPC   C22 8922   5.187   6.440   2.668 -0.2872  0.2009 -0.1475
  179DPPC   C23 8923   5.269   6.423   2.796 -0.4646  0.1066 -0.0472
  179DPPC   C24 8924   5.205   6.514   2.901  0.0916  0.0289  0.3639
  179DPPC   C25 8925   5.277   6.503   3.035  0.5324 -0.0708  0.1196
  179DPPC   C26 8926   5.269   6.360   3.091 -0.5289 -0.0840 -0.0451
  179DPPC   C27 8927   5.347   6.364   3.223  0.0022  0.2299 -0.3623
  179DPPC   C28 8928   5.315   6.246   3.315  0.0679  0.1305 -0.4647
  179DPPC   C29 8929   5.368   6.278   3.455 -0.5263  0.1900 -0.2461
  179DPPC   C30 8930   5.367   6.156   3.548 -0.2590  0.2009 -0.2254
  179DPPC   C31 8931   5.228   6.139   3.609 -0.0627  0.3729  0.2709
  179DPPC   C32 8932   4.750   6.288   2.103  0.0598  0.3563  0.1286
  179DPPC   O33 8933   4.742   6.289   2.245  0.3100  0.8312  0.1413
  179DPPC   C34 8934   4.712   6.176   2.315 -1.0014  0.8170 -0.4181
  179DPPC   O35 8935   4.701   6.072   2.251 -0.2190  0.2811  0.2983
  179DPPC   C36 8936   4.721   6.176   2.468 -0.1886 -0.0183 -0.4591
  179DPPC   C37 8937   4.854   6.175   2.544 -0.3542 -0.8025 -0.1783
  179DPPC   C38 8938   4.830   6.167   2.695  0.1701 -0.3537 -0.0707
  179DPPC   C39 8939   4.960   6.135   2.769  0.2014 -0.2497 -0.0798
  179DPPC   C40 8940   4.951   6.157   2.920 -0.7585  0.6822 -0.2640
  179DPPC   C41 8941   4.829   6.072   2.954  0.0423 -0.1021  0.7298
  179DPPC   C42 8942   4.809   6.044   3.103 -0.0731  0.2671  0.7841
  179DPPC   C43 8943   4.686   5.960   3.136  0.2327 -0.3143  0.4581
  179DPPC   C44 8944   4.642   5.980   3.281  0.1483 -0.2052  0.4175
  179DPPC   C45 8945   4.525   5.887   3.315 -0.1524  0.1959  0.4864
  179DPPC   C46 8946   4.472   5.902   3.458 -0.1868  0.0012  0.4945
  179DPPC   C47 8947   4.335   5.835   3.463 -0.1146 -0.2074 -0.1476
  179DPPC   C48 8948   4.344   5.683   3.443  0.3335 -0.2077  0.0402
  179DPPC   C49 8949   4.241   5.604   3.523 -0.4772  0.0997 -0.6810
  179DPPC   C50 8950   4.094   5.645   3.514 -0.6118 -0.0739  0.5611
  180DPPC    C1 8951   5.976   2.670   1.339  0.0538  0.1505  0.1962
  180DPPC    C2 8952   6.199   2.653   1.408 -0.2191 -0.3915 -0.0831
  180DPPC    C3 8953   6.088   2.866   1.405 -0.6211  0.2105  0.4100
  180DPPC    N4 8954   6.073   2.723   1.436  0.1011  0.0834  0.1863
  180DPPC    C5 8955   6.020   2.718   1.573  0.3547  0.0453  0.2832
  180DPPC    C6 8956   6.098   2.791   1.681  0.5864  0.0143  0.1369
  180DPPC    O7 8957   6.014   2.807   1.796  0.0755 -0.1299 -0.2152
  180DPPC    P8 8958   6.087   2.902   1.904 -0.1045 -0.3339  0.0874
  180DPPC    O9 8959   6.006   3.026   1.905  0.0641 -0.2206 -0.0577
  180DPPC   O10 8960   6.234   2.903   1.887 -0.1545  0.3396 -0.3659
  180DPPC   O11 8961   6.052   2.815   2.035  0.3575 -0.4349  0.1450
  180DPPC   C12 8962   5.948   2.884   2.105  0.4586 -0.0940 -0.0383
  180DPPC   C13 8963   5.932   2.815   2.240  0.1749  0.0347 -0.0045
  180DPPC   O14 8964   5.796   2.783   2.271  0.0938  0.2156 -0.1676
  180DPPC   C15 8965   5.765   2.663   2.329 -0.0726  0.1681 -0.3541
  180DPPC   O16 8966   5.788   2.562   2.262 -0.4737  0.0020 -0.2404
  180DPPC   C17 8967   5.682   2.652   2.457 -0.4532 -0.4650 -0.6537
  180DPPC   C18 8968   5.755   2.551   2.546 -0.2430  0.0563 -0.2344
  180DPPC   C19 8969   5.731   2.549   2.697 -0.1423 -0.2588 -0.2223
  180DPPC   C20 8970   5.796   2.424   2.756  0.1686  0.0503  0.0944
  180DPPC   C21 8971   5.773   2.404   2.906  0.3054 -0.4242  0.0535
  180DPPC   C22 8972   5.832   2.267   2.942 -0.1546 -0.5143  0.4892
  180DPPC   C23 8973   5.985   2.266   2.927 -0.1665 -0.2716  0.3426
  180DPPC   C24 8974   6.031   2.122   2.949 -0.1430 -0.3082  0.0612
  180DPPC   C25 8975   6.163   2.099   2.876 -0.0719  0.2691  0.0049
  180DPPC   C26 8976   6.258   2.203   2.935 -0.1514  0.2703  0.1290
  180DPPC   C27 8977   6.397   2.186   2.873  0.0430  0.1840  0.5845
  180DPPC   C28 8978   6.503   2.279   2.935  0.2960  0.0939  0.2885
  180DPPC   C29 8979   6.495   2.268   3.087 -0.2954 -0.3188  0.2333
  180DPPC   C30 8980   6.578   2.376   3.156 -0.1481 -0.1889 -0.1458
  180DPPC   C31 8981   6.581   2.348   3.307  0.0870 -0.4793 -0.2032
  180DPPC   C32 8982   6.025   2.893   2.333 -0.0017  0.0135  0.1885
  180DPPC   O33 8983   5.985   2.908   2.470 -0.3129  0.2359  0.0772
  180DPPC   C34 8984   6.052   2.999   2.547  0.1769 -0.1742  0.1441
  180DPPC   O35 8985   6.108   3.093   2.493  0.2268 -0.2073  0.1388
  180DPPC   C36 8986   6.013   3.007   2.695  0.0915 -0.8144  0.1587
  180DPPC   C37 8987   5.866   2.977   2.724 -0.1338  0.1175 -0.0032
  180DPPC   C38 8988   5.835   3.002   2.871  0.2802  0.5523  0.0107
  180DPPC   C39 8989   5.699   2.949   2.914  0.2830  0.7292  0.2476
  180DPPC   C40 8990   5.675   2.963   3.064  0.0109 -0.0440  0.2847
  180DPPC   C41 8991   5.555   2.894   3.130 -0.4321  0.4447  0.0008
  180DPPC   C42 8992   5.564   2.895   3.283  0.5427  0.2365 -0.0472
  180DPPC   C43 8993   5.431   2.839   3.333  0.3725  0.5492 -0.1443
  180DPPC   C44 8994   5.411   2.845   3.485  0.0499 -0.6942 -0.1198
  180DPPC   C45 8995   5.276   2.784   3.518 -0.3364  0.0987 -0.1992
  180DPPC   C46 8996   5.175   2.872   3.445 -0.1930 -0.0164 -0.5393
  180DPPC   C47 8997   5.150   2.994   3.534 -0.2631 -0.1193 -0.4169
  180DPPC   C48 8998   5.032   3.076   3.482 -0.2853  0.2247  0.1606
  180DPPC   C49 8999   4.951   3.134   3.598 -0.0078 -0.2933  0.6150
  180DPPC   C50 9000   5.041   3.193   3.707 -0.4182  0.1937  0.6929
  181DPPC    C1 9001   5.639   5.903   1.526  0.1957 -0.1194 -0.3289
  181DPPC    C2 9002   5.799   5.867   1.711 -0.1744 -0.3519 -0.2915
  181DPPC    C3 9003   5.586   5.972   1.734  0.2993 -0.1524 -0.1368
  181DPPC    N4 9004   5.660   5.865   1.666 -0.1604 -0.3454 -0.3352
  181DPPC    C5 9005   5.597   5.737   1.704  0.6142 -0.5470  0.3001
  181DPPC    C6 9006   5.618   5.604   1.633 -0.1140 -0.3140 -0.3763
  181DPPC    O7 9007   5.588   5.489   1.713  0.0629 -0.0425  0.0878
  181DPPC    P8 9008   5.670   5.357   1.672  0.0003 -0.0378 -0.0566
  181DPPC    O9 9009   5.750   5.401   1.556  0.2201 -0.1602  0.0474
  181DPPC   O10 9010   5.570   5.250   1.650  0.0056 -0.1223  0.3162
  181DPPC   O11 9011   5.749   5.339   1.812  0.1037  0.4235 -0.0568
  181DPPC   C12 9012   5.652   5.343   1.917  0.3409 -0.0701  0.1830
  181DPPC   C13 9013   5.709   5.321   2.058  0.3051 -0.4639  0.1357
  181DPPC   O14 9014   5.619   5.372   2.158 -0.7808 -0.3568 -0.8657
  181DPPC   C15 9015   5.529   5.285   2.211 -0.9763 -0.1523 -0.8628
  181DPPC   O16 9016   5.521   5.166   2.184  0.3625 -0.5288  0.2998
  181DPPC   C17 9017   5.485   5.344   2.345  0.1548  0.5295 -0.7801
  181DPPC   C18 9018   5.350   5.412   2.325 -0.2688 -0.0350  0.0597
  181DPPC   C19 9019   5.312   5.500   2.444  0.1023  0.5217 -0.2233
  181DPPC   C20 9020   5.252   5.417   2.558  0.2349  0.3749 -0.2588
  181DPPC   C21 9021   5.268   5.491   2.691 -0.3153  0.2384 -0.1109
  181DPPC   C22 9022   5.200   5.424   2.810 -0.2250  0.4261  0.0478
  181DPPC   C23 9023   5.206   5.518   2.931  0.0359  0.1173  0.2761
  181DPPC   C24 9024   5.172   5.451   3.065 -0.5766  0.7074  0.4192
  181DPPC   C25 9025   5.033   5.387   3.065 -0.0550 -0.4455 -0.0921
  181DPPC   C26 9026   4.922   5.491   3.078  0.2210 -0.2266  0.5118
  181DPPC   C27 9027   4.790   5.437   3.025  0.2642  0.0218  0.1488
  181DPPC   C28 9028   4.669   5.511   3.084 -0.2199 -0.7227  0.1121
  181DPPC   C29 9029   4.545   5.466   3.008 -0.0117 -0.2821 -0.5036
  181DPPC   C30 9030   4.424   5.554   3.042  0.2513 -0.1459  0.1003
  181DPPC   C31 9031   4.441   5.691   2.974  0.2017 -0.0596  0.2622
  181DPPC   C32 9032   5.850   5.380   2.068  0.1666 -0.0925 -0.0570
  181DPPC   O33 9033   5.927   5.321   2.173  0.1352  0.0621  0.0529
  181DPPC   C34 9034   6.061   5.342   2.175  0.1449  0.0080 -0.0315
  181DPPC   O35 9035   6.109   5.430   2.103 -0.2947  0.2633 -0.0145
  181DPPC   C36 9036   6.142   5.262   2.277 -0.2680 -0.2719  0.0752
  181DPPC   C37 9037   6.161   5.356   2.396  0.0908 -0.2887  0.0326
  181DPPC   C38 9038   6.215   5.296   2.526 -0.2714 -0.6511  0.0208
  181DPPC   C39 9039   6.207   5.395   2.643  0.2774  0.2389 -0.6785
  181DPPC   C40 9040   6.272   5.333   2.767 -0.1616  1.1464  0.0147
  181DPPC   C41 9041   6.423   5.306   2.759 -0.4741 -0.4395 -1.1633
  181DPPC   C42 9042   6.470   5.244   2.891 -0.0949  0.1786 -1.0027
  181DPPC   C43 9043   6.617   5.200   2.896 -0.2068 -0.1568 -0.6543
  181DPPC   C44 9044   6.634   5.092   3.003  0.6929 -0.1344 -0.7694
  181DPPC   C45 9045   6.541   4.971   2.989  0.1494  0.1534  0.2272
  181DPPC   C46 9046   6.597   4.845   3.055 -0.5730 -0.3061 -0.0376
  181DPPC   C47 9047   6.620   4.880   3.202 -0.7303 -0.0085 -0.0828
  181DPPC   C48 9048   6.698   4.777   3.284 -0.2135 -0.0424 -0.6073
  181DPPC   C49 9049   6.646   4.634   3.278 -0.3671 -0.0136 -0.0680
  181DPPC   C50 9050   6.732   4.527   3.344  0.0232  0.3804  0.0647
  182DPPC    C1 9051   8.078   0.613   1.439 -0.0605 -0.0216 -0.4498
  182DPPC    C2 9052   8.299   0.706   1.416  0.1646 -0.3563  0.0331
  182DPPC    C3 9053   8.175   0.667   1.224 -0.3277 -0.1383 -0.2195
  182DPPC    N4 9054   8.162   0.708   1.364  0.2477 -0.0805 -0.1780
  182DPPC    C5 9055   8.113   0.847   1.374 -0.2446 -0.2627 -0.0238
  182DPPC    C6 9056   7.969   0.880   1.335 -0.4161 -0.5155  0.3889
  182DPPC    O7 9057   7.950   1.021   1.319  0.0751 -0.5098 -0.1497
  182DPPC    P8 9058   7.809   1.033   1.242 -0.1395  0.3231  0.3623
  182DPPC    O9 9059   7.802   0.914   1.155 -0.0521  0.3435  0.3261
  182DPPC   O10 9060   7.794   1.174   1.200 -0.3004  0.0540 -0.5078
  182DPPC   O11 9061   7.738   0.992   1.380  0.5262 -0.3588  0.5045
  182DPPC   C12 9062   7.725   1.111   1.458  0.0520  0.0320 -0.1577
  182DPPC   C13 9063   7.663   1.068   1.592  0.4761 -0.4443 -0.1079
  182DPPC   O14 9064   7.633   1.184   1.670  0.0399 -0.1207 -0.7429
  182DPPC   C15 9065   7.517   1.254   1.655  0.2141  0.2486 -0.3747
  182DPPC   O16 9066   7.429   1.225   1.575  0.2444  0.1133 -0.3593
  182DPPC   C17 9067   7.497   1.379   1.742  0.3989 -0.1666  0.2756
  182DPPC   C18 9068   7.380   1.363   1.839  0.1840  0.0417  0.0513
  182DPPC   C19 9069   7.349   1.501   1.897 -0.2986  0.2295 -0.6373
  182DPPC   C20 9070   7.244   1.492   2.007  0.3979 -0.0352  0.0177
  182DPPC   C21 9071   7.193   1.629   2.054 -0.0118 -0.2098  0.0898
  182DPPC   C22 9072   7.094   1.608   2.169  0.2413 -0.0565  0.3386
  182DPPC   C23 9073   7.153   1.545   2.295  0.0231 -0.9072  0.0186
  182DPPC   C24 9074   7.045   1.521   2.400 -0.0047 -0.1466  0.1669
  182DPPC   C25 9075   7.112   1.484   2.533 -0.2152 -0.2248  0.2519
  182DPPC   C26 9076   7.015   1.471   2.651 -0.1955 -0.3319  0.2569
  182DPPC   C27 9077   7.081   1.467   2.789  0.5079 -0.0209 -0.0640
  182DPPC   C28 9078   6.996   1.408   2.901  0.3757 -0.3357 -0.3269
  182DPPC   C29 9079   7.074   1.419   3.032  0.0519  0.1921 -0.1757
  182DPPC   C30 9080   6.990   1.341   3.134  0.3144  0.2195  0.0662
  182DPPC   C31 9081   7.043   1.340   3.277 -0.2074 -0.1284  0.2608
  182DPPC   C32 9082   7.762   0.964   1.646  0.2434 -0.3224  0.5605
  182DPPC   O33 9083   7.882   1.034   1.678  0.6199 -0.2805 -0.8704
  182DPPC   C34 9084   7.986   0.959   1.723  0.3605 -0.3801 -0.4357
  182DPPC   O35 9085   7.993   0.837   1.712 -0.0140 -0.4125 -0.3341
  182DPPC   C36 9086   8.083   1.045   1.804 -0.8628  0.9059 -0.2926
  182DPPC   C37 9087   8.039   1.082   1.946  0.0213 -0.1918  0.2900
  182DPPC   C38 9088   8.141   1.172   2.016 -0.6308  0.3523  0.5516
  182DPPC   C39 9089   8.111   1.186   2.165 -0.3710 -0.2274  0.6585
  182DPPC   C40 9090   8.222   1.270   2.228  0.3617 -0.6716 -0.0308
  182DPPC   C41 9091   8.189   1.309   2.372 -0.5435 -0.5726 -0.2636
  182DPPC   C42 9092   8.094   1.429   2.366 -0.0062 -0.1423 -0.1392
  182DPPC   C43 9093   8.067   1.502   2.498 -0.2120 -0.0659 -0.2233
  182DPPC   C44 9094   8.002   1.635   2.459 -0.2894 -0.0356  0.0047
  182DPPC   C45 9095   7.962   1.714   2.584 -0.2320 -0.0374  0.0240
  182DPPC   C46 9096   7.836   1.641   2.630  0.0051 -0.4920 -0.0441
  182DPPC   C47 9097   7.781   1.711   2.754  0.2974 -0.0123 -0.1811
  182DPPC   C48 9098   7.648   1.649   2.800  0.4004  0.1043  0.2773
  182DPPC   C49 9099   7.602   1.697   2.938 -0.1728  0.1239  0.0783
  182DPPC   C50 9100   7.700   1.672   3.052  0.2692 -0.6760 -0.4623
  183DPPC    C1 9101   7.527   3.547   1.798  0.4097  0.0151  0.2532
  183DPPC    C2 9102   7.560   3.738   1.675  0.1868 -0.6287 -0.4528
  183DPPC    C3 9103   7.465   3.539   1.569 -0.6586  0.1263 -0.0527
  183DPPC    N4 9104   7.467   3.625   1.689 -0.0769 -0.3298  0.2706
  183DPPC    C5 9105   7.336   3.684   1.718 -0.0382  0.3957 -0.9440
  183DPPC    C6 9106   7.207   3.602   1.722  0.3166 -0.1392  0.4148
  183DPPC    O7 9107   7.194   3.493   1.813  0.0342 -0.4488  0.0109
  183DPPC    P8 9108   7.054   3.414   1.811 -0.2137 -0.0102 -0.1161
  183DPPC    O9 9109   7.065   3.309   1.915  0.1037  0.1368 -0.0000
  183DPPC   O10 9110   7.020   3.389   1.670 -0.4040  0.3167 -0.1288
  183DPPC   O11 9111   6.970   3.536   1.874  0.0879 -0.0110  0.2964
  183DPPC   C12 9112   6.943   3.508   2.012 -0.4016 -0.1473  0.1765
  183DPPC   C13 9113   7.020   3.607   2.100 -0.1737 -0.0532 -0.1269
  183DPPC   O14 9114   7.036   3.552   2.231 -0.1507  0.0310 -0.0946
  183DPPC   C15 9115   7.140   3.614   2.295  0.2975 -0.9941  0.1933
  183DPPC   O16 9116   7.244   3.648   2.239  0.1170 -0.2577  0.2952
  183DPPC   C17 9117   7.137   3.595   2.446  0.6756  0.1224  0.3518
  183DPPC   C18 9118   7.248   3.504   2.500  0.3479 -0.6171 -0.2015
  183DPPC   C19 9119   7.222   3.484   2.649  0.0739 -0.1430 -0.1834
  183DPPC   C20 9120   7.318   3.398   2.732 -0.1805 -0.2604 -0.0079
  183DPPC   C21 9121   7.257   3.403   2.873  0.0635  0.2614  0.0833
  183DPPC   C22 9122   7.354   3.327   2.964 -0.1909 -0.0027  0.1340
  183DPPC   C23 9123   7.298   3.343   3.105 -0.0702 -0.2559  0.2112
  183DPPC   C24 9124   7.388   3.297   3.220 -0.0721 -0.0693  0.2886
  183DPPC   C25 9125   7.309   3.283   3.350  0.0874  0.3377  0.4282
  183DPPC   C26 9126   7.380   3.233   3.476 -0.1559  0.0546  0.4537
  183DPPC   C27 9127   7.509   3.310   3.508  0.1233  0.0052 -0.5187
  183DPPC   C28 9128   7.567   3.277   3.646  0.0580  0.3236 -0.4137
  183DPPC   C29 9129   7.467   3.268   3.761  0.0457  0.1775 -0.4348
  183DPPC   C30 9130   7.539   3.214   3.885 -0.1295  0.1982 -0.3248
  183DPPC   C31 9131   7.604   3.077   3.867 -0.2458  0.1177 -0.1360
  183DPPC   C32 9132   6.945   3.739   2.086  0.0874  0.0817 -0.2692
  183DPPC   O33 9133   7.009   3.851   2.149  0.1823 -0.2730  0.2666
  183DPPC   C34 9134   7.117   3.906   2.088 -0.0827 -0.1251 -0.0739
  183DPPC   O35 9135   7.175   3.852   1.994  0.0396  0.0667 -0.1089
  183DPPC   C36 9136   7.178   4.029   2.155 -0.0262 -0.1086 -0.1550
  183DPPC   C37 9137   7.269   3.991   2.272 -0.1828  0.6401  0.2140
  183DPPC   C38 9138   7.181   3.978   2.396 -0.0497 -0.3652  0.2091
  183DPPC   C39 9139   7.274   3.960   2.516  0.1871  0.9562  0.2327
  183DPPC   C40 9140   7.183   3.948   2.639 -0.2636 -0.2041 -0.2095
  183DPPC   C41 9141   7.232   3.843   2.739  0.1108  0.2039  0.0360
  183DPPC   C42 9142   7.366   3.899   2.789  0.0042  0.4299  0.0696
  183DPPC   C43 9143   7.425   3.824   2.908 -0.1705  0.0107 -0.1036
  183DPPC   C44 9144   7.325   3.832   3.024  0.2137  0.2967  0.2130
  183DPPC   C45 9145   7.375   3.782   3.160  0.1559  0.0649  0.1497
  183DPPC   C46 9146   7.274   3.818   3.269  0.1917  0.0709  0.1805
  183DPPC   C47 9147   7.149   3.736   3.238  0.6929 -0.5333 -0.2586
  183DPPC   C48 9148   7.039   3.748   3.343  0.1781 -0.1901 -0.8336
  183DPPC   C49 9149   6.946   3.628   3.324 -0.1544 -0.1175  0.2626
  183DPPC   C50 9150   6.865   3.643   3.195 -0.5394 -0.3455  0.4734
  184DPPC    C1 9151   1.650   1.780   1.642 -0.2103  0.1095  0.0842
  184DPPC    C2 9152   1.440   1.807   1.750 -0.0290  0.2151  0.0906
  184DPPC    C3 9153   1.634   1.777   1.872 -0.9549 -0.4755  0.3938
  184DPPC    N4 9154   1.582   1.847   1.753  0.0153  0.0459  0.2622
  184DPPC    C5 9155   1.608   1.990   1.772 -0.2022  0.0721  0.3682
  184DPPC    C6 9156   1.552   2.076   1.658  0.3663  0.1517  0.1459
  184DPPC    O7 9157   1.598   2.211   1.670  0.1220  0.2577 -0.0965
  184DPPC    P8 9158   1.525   2.276   1.543  0.0892  0.3317 -0.0397
  184DPPC    O9 9159   1.488   2.184   1.433  0.2273 -0.0854  0.2649
  184DPPC   O10 9160   1.576   2.415   1.535  0.3914  0.2187 -0.0830
  184DPPC   O11 9161   1.396   2.297   1.637  0.4048 -0.4659  0.5791
  184DPPC   C12 9162   1.419   2.397   1.737  0.1722  0.6093 -0.4122
  184DPPC   C13 9163   1.308   2.410   1.842  0.1336  0.0083 -0.3723
  184DPPC   O14 9164   1.326   2.530   1.919  0.2614 -0.0508 -0.3098
  184DPPC   C15 9165   1.215   2.606   1.942  0.6108  0.2999  0.2430
  184DPPC   O16 9166   1.121   2.584   1.866  0.6092  0.5503  0.1709
  184DPPC   C17 9167   1.235   2.728   2.032 -0.5698  0.4772  0.2798
  184DPPC   C18 9168   1.266   2.675   2.172  0.2723  0.0711 -0.0547
  184DPPC   C19 9169   1.135   2.624   2.232  0.1434  0.7281  0.2275
  184DPPC   C20 9170   1.152   2.603   2.383  0.7213 -0.3254  0.0228
  184DPPC   C21 9171   1.023   2.565   2.456  0.5395 -0.0470 -0.1518
  184DPPC   C22 9172   1.045   2.580   2.606  0.4291 -0.4956 -0.0903
  184DPPC   C23 9173   0.920   2.512   2.663 -0.0611  0.2646 -0.2515
  184DPPC   C24 9174   0.900   2.560   2.807 -0.0057 -0.2398 -0.0755
  184DPPC   C25 9175   0.790   2.502   2.895 -0.0145  0.0426  0.1020
  184DPPC   C26 9176   0.777   2.558   3.037  0.3367  0.2844  0.0372
  184DPPC   C27 9177   0.648   2.495   3.089  0.0847  0.9647  0.2505
  184DPPC   C28 9178   0.616   2.521   3.237 -0.4599 -0.0855  0.3274
  184DPPC   C29 9179   0.722   2.448   3.320 -0.0923  0.1418  0.0655
  184DPPC   C30 9180   0.696   2.297   3.314  0.4222  0.0587 -0.1239
  184DPPC   C31 9181   0.801   2.234   3.405  0.1819  0.0024  0.1188
  184DPPC   C32 9182   1.297   2.274   1.911 -0.1982  0.3252  0.2088
  184DPPC   O33 9183   1.420   2.245   1.977 -0.0384 -0.0048 -0.2255
  184DPPC   C34 9184   1.429   2.126   2.043  0.0054 -0.1153 -0.4313
  184DPPC   O35 9185   1.391   2.026   1.982  0.2164 -0.1962 -0.4298
  184DPPC   C36 9186   1.554   2.114   2.131 -0.2623 -0.3093 -0.0758
  184DPPC   C37 9187   1.544   2.019   2.251  0.0306 -0.8490 -0.4726
  184DPPC   C38 9188   1.670   2.033   2.337 -0.1593 -0.4608 -0.2543
  184DPPC   C39 9189   1.646   1.965   2.472  0.4507  0.0274  0.1027
  184DPPC   C40 9190   1.776   1.994   2.547 -0.0227 -0.0929  0.9923
  184DPPC   C41 9191   1.793   2.146   2.540 -0.1206 -0.1082  0.2993
  184DPPC   C42 9192   1.710   2.214   2.649  0.3979  0.3063  0.4429
  184DPPC   C43 9193   1.749   2.146   2.781  0.1468 -0.4918  0.1139
  184DPPC   C44 9194   1.711   2.226   2.906  0.3987  0.0492 -0.1513
  184DPPC   C45 9195   1.776   2.155   3.025  0.1722  0.0907 -0.0031
  184DPPC   C46 9196   1.755   2.005   3.003  0.3130  0.1240 -0.3776
  184DPPC   C47 9197   1.834   1.915   3.097 -0.6290 -0.3023  0.0246
  184DPPC   C48 9198   1.808   1.766   3.077 -0.1934 -0.3109 -0.4949
  184DPPC   C49 9199   1.871   1.687   3.192 -0.0787  0.2423 -0.1785
  184DPPC   C50 9200   1.822   1.542   3.195 -0.1475  0.2780  0.7084
  185DPPC    C1 9201   6.606   7.269   1.545  0.0101  0.0061  0.1577
  185DPPC    C2 9202   6.556   7.356   1.780 -0.6032  0.7193 -0.1130
  185DPPC    C3 9203   6.430   7.415   1.590 -0.9301 -0.0581  0.3784
  185DPPC    N4 9204   6.510   7.308   1.650 -0.1674  0.2464 -0.0933
  185DPPC    C5 9205   6.410   7.203   1.673  0.1102  0.0423  0.1910
  185DPPC    C6 9206   6.443   7.057   1.703  0.3300  0.0543 -0.0009
  185DPPC    O7 9207   6.551   7.051   1.796  0.2763 -0.3876  0.0330
  185DPPC    P8 9208   6.657   6.937   1.755  0.1134 -0.4705 -0.1571
  185DPPC    O9 9209   6.782   6.979   1.823  0.2137 -0.0744 -0.5842
  185DPPC   O10 9210   6.653   6.923   1.608 -0.3400 -0.0439 -0.1862
  185DPPC   O11 9211   6.596   6.820   1.848  0.2348 -0.1138  0.3724
  185DPPC   C12 9212   6.611   6.861   1.984  0.4270 -0.5565  0.4839
  185DPPC   C13 9213   6.515   6.777   2.069 -0.5686  0.0622 -0.0140
  185DPPC   O14 9214   6.506   6.802   2.210  0.3277 -1.0331  0.2523
  185DPPC   C15 9215   6.394   6.755   2.271 -0.7698  1.0742 -0.0474
  185DPPC   O16 9216   6.303   6.703   2.206 -0.2262 -0.3437  0.2754
  185DPPC   C17 9217   6.379   6.790   2.419  0.3097  0.1943  0.2846
  185DPPC   C18 9218   6.244   6.856   2.446  0.1408 -0.0622  0.0713
  185DPPC   C19 9219   6.195   6.830   2.589  0.3137 -0.2968  0.0887
  185DPPC   C20 9220   6.277   6.895   2.701  0.1766 -0.2701  0.1748
  185DPPC   C21 9221   6.228   6.866   2.843 -0.0085 -0.4702  0.0709
  185DPPC   C22 9222   6.323   6.937   2.939 -0.4807  0.2454  0.0161
  185DPPC   C23 9223   6.297   6.901   3.086 -0.2018 -0.3117 -0.0680
  185DPPC   C24 9224   6.394   6.965   3.186 -0.2339 -0.0066 -0.2283
  185DPPC   C25 9225   6.383   6.897   3.323  0.3154 -0.0854 -0.2221
  185DPPC   C26 9226   6.466   6.985   3.417  0.4506 -0.8072  0.3415
  185DPPC   C27 9227   6.504   6.912   3.547  0.0969 -0.9031  0.3905
  185DPPC   C28 9228   6.584   6.990   3.651 -0.1311  0.2615 -0.2779
  185DPPC   C29 9229   6.638   6.892   3.756 -0.3027  0.6878  0.2158
  185DPPC   C30 9230   6.533   6.863   3.863 -0.3431 -0.6780 -0.1651
  185DPPC   C31 9231   6.588   6.771   3.972 -0.4184 -0.4106  0.1005
  185DPPC   C32 9232   6.580   6.640   2.046  0.2419  0.3293  0.6566
  185DPPC   O33 9233   6.722   6.633   2.059  0.2018 -0.4971  0.7025
  185DPPC   C34 9234   6.774   6.522   2.000  0.0869  0.0673 -0.4873
  185DPPC   O35 9235   6.704   6.444   1.936  0.2792 -0.1925 -0.3834
  185DPPC   C36 9236   6.925   6.521   2.028 -0.0380  0.3641  0.2018
  185DPPC   C37 9237   6.975   6.418   2.129  0.2718  0.0912 -0.2318
  185DPPC   C38 9238   6.978   6.470   2.272  0.0633  0.2393 -0.2804
  185DPPC   C39 9239   7.012   6.357   2.370 -0.0910  0.3188 -0.1341
  185DPPC   C40 9240   7.023   6.409   2.513 -0.0297  0.1377 -0.0726
  185DPPC   C41 9241   7.061   6.302   2.615 -0.2721 -0.0520 -0.1801
  185DPPC   C42 9242   7.191   6.222   2.598  0.0241  0.3384  0.2274
  185DPPC   C43 9243   7.187   6.099   2.690  0.2435  0.3232  0.2158
  185DPPC   C44 9244   7.308   6.010   2.662  0.2086  0.3126  0.1004
  185DPPC   C45 9245   7.312   5.895   2.762  0.4474  0.0596 -0.1951
  185DPPC   C46 9246   7.438   5.808   2.765  0.3048 -0.1439 -0.0930
  185DPPC   C47 9247   7.430   5.711   2.647  0.1036  0.1830 -0.3496
  185DPPC   C48 9248   7.550   5.617   2.639 -0.1540 -0.1741 -0.0627
  185DPPC   C49 9249   7.686   5.687   2.635 -0.4118  0.3046 -0.5449
  185DPPC   C50 9250   7.795   5.585   2.603  0.0597  0.4052  0.6847
  186DPPC    C1 9251   6.759   2.197   1.810 -0.0949  0.1208  0.1646
  186DPPC    C2 9252   6.756   2.426   1.804  0.6338 -0.6544 -0.5771
  186DPPC    C3 9253   6.563   2.309   1.720 -0.1885  0.4591 -0.0540
  186DPPC    N4 9254   6.667   2.311   1.824 -0.1958  0.0648 -0.0387
  186DPPC    C5 9255   6.605   2.328   1.956 -0.4571  1.0978 -0.2886
  186DPPC    C6 9256   6.505   2.222   2.002  0.5603  0.2099 -0.0857
  186DPPC    O7 9257   6.559   2.090   2.016  0.1775  0.0568 -0.0286
  186DPPC    P8 9258   6.450   1.973   2.028  0.3408 -0.1030 -0.1091
  186DPPC    O9 9259   6.531   1.850   2.042 -0.0705 -0.3907 -0.2356
  186DPPC   O10 9260   6.366   1.996   1.908  0.5012 -0.4625 -0.2919
  186DPPC   O11 9261   6.395   2.022   2.171  0.5514  0.1150 -0.1017
  186DPPC   C12 9262   6.480   1.947   2.258  0.2448 -0.3270 -0.1794
  186DPPC   C13 9263   6.445   1.974   2.405 -0.3657 -0.0667 -0.3664
  186DPPC   O14 9264   6.329   1.906   2.453 -0.2122  0.2370  0.4367
  186DPPC   C15 9265   6.336   1.770   2.460 -0.2731  0.1972 -0.2284
  186DPPC   O16 9266   6.426   1.715   2.398 -0.4082 -0.4746  0.1592
  186DPPC   C17 9267   6.232   1.693   2.543  0.0459  0.1113  0.0945
  186DPPC   C18 9268   6.281   1.631   2.674 -0.1410 -0.2627 -0.0100
  186DPPC   C19 9269   6.286   1.721   2.797  0.6015 -0.1204 -0.1342
  186DPPC   C20 9270   6.302   1.635   2.923  0.1927  0.1155  0.0856
  186DPPC   C21 9271   6.346   1.731   3.033 -0.4750 -0.0669  0.5187
  186DPPC   C22 9272   6.330   1.681   3.176  0.0367  0.1643  0.6592
  186DPPC   C23 9273   6.361   1.781   3.288 -0.0543  0.4475  0.4329
  186DPPC   C24 9274   6.257   1.893   3.298 -0.2372  0.3107  0.0720
  186DPPC   C25 9275   6.290   2.016   3.381  0.0560 -0.0300  0.4642
  186DPPC   C26 9276   6.213   2.141   3.339  0.1141 -0.2006 -0.1551
  186DPPC   C27 9277   6.245   2.249   3.442  0.2847 -0.1575 -0.2523
  186DPPC   C28 9278   6.169   2.218   3.571  0.2156  0.5123 -0.1248
  186DPPC   C29 9279   6.224   2.302   3.687 -0.1311  0.5300  0.0294
  186DPPC   C30 9280   6.152   2.267   3.817 -0.6829  0.7006 -0.2251
  186DPPC   C31 9281   6.211   2.342   3.937 -0.8185  0.6371 -0.1179
  186DPPC   C32 9282   6.447   2.125   2.427  0.4361 -0.1570  0.2506
  186DPPC   O33 9283   6.576   2.171   2.468  0.3168  0.4988 -0.0995
  186DPPC   C34 9284   6.586   2.306   2.480 -0.2471  0.6040 -0.6904
  186DPPC   O35 9285   6.486   2.377   2.482 -0.5797  0.1320  0.1785
  186DPPC   C36 9286   6.719   2.364   2.529 -0.2782  0.0937  0.0176
  186DPPC   C37 9287   6.737   2.329   2.677  0.8277 -0.1021 -0.1536
  186DPPC   C38 9288   6.877   2.356   2.731  0.8497  0.1426 -0.3349
  186DPPC   C39 9289   6.879   2.288   2.868  0.5693 -0.0170 -0.4099
  186DPPC   C40 9290   7.027   2.280   2.907  0.3292  0.0714  0.5392
  186DPPC   C41 9291   7.045   2.220   3.047  0.4091 -0.1582  0.4298
  186DPPC   C42 9292   7.005   2.313   3.161  0.3675 -0.1693  0.4243
  186DPPC   C43 9293   7.007   2.248   3.299  0.2103 -0.1164  0.4524
  186DPPC   C44 9294   7.008   2.352   3.411  0.9796  0.3060  0.0634
  186DPPC   C45 9295   7.019   2.294   3.551 -0.1916 -0.5179 -0.1685
  186DPPC   C46 9296   6.966   2.400   3.648  0.2148 -0.2519 -0.2351
  186DPPC   C47 9297   6.927   2.356   3.789  0.1614 -1.0581 -0.4964
  186DPPC   C48 9298   6.817   2.249   3.791 -0.0260 -0.8591  0.3759
  186DPPC   C49 9299   6.679   2.295   3.745  0.3071  0.3493  0.5517
  186DPPC   C50 9300   6.578   2.205   3.817  0.0690  0.1073 -0.0753
  187DPPC    C1 9301   9.209   1.287   0.677  0.3841 -0.6889 -0.3697
  187DPPC    C2 9302   8.986   1.258   0.697  0.2031  0.2655  0.1238
  187DPPC    C3 9303   9.129   1.079   0.613  0.1392 -0.1660  0.2411
  187DPPC    N4 9304   9.112   1.184   0.715 -0.0260 -0.1162  0.1613
  187DPPC    C5 9305   9.139   1.149   0.855  0.1733  0.1555  0.1915
  187DPPC    C6 9306   9.060   1.031   0.911 -0.3756  0.3356 -0.1926
  187DPPC    O7 9307   8.935   1.076   0.964 -0.1870  0.3348  0.2608
  187DPPC    P8 9308   8.883   0.944   1.041 -0.1297  0.1480 -0.0173
  187DPPC    O9 9309   8.970   0.827   1.019 -0.5299 -0.0883 -0.3340
  187DPPC   O10 9310   8.737   0.920   1.034 -0.0682 -0.0735 -0.5867
  187DPPC   O11 9311   8.936   0.988   1.187 -0.1535 -0.8608  0.3017
  187DPPC   C12 9312   8.836   1.002   1.288 -0.3778 -0.3014  0.0033
  187DPPC   C13 9313   8.876   1.026   1.433  0.2269  0.0977 -0.2231
  187DPPC   O14 9314   8.784   1.005   1.542  0.2025  0.3657 -0.1924
  187DPPC   C15 9315   8.743   0.880   1.578  0.2902  0.4567  0.2302
  187DPPC   O16 9316   8.800   0.785   1.526  0.3776  0.8660 -0.4438
  187DPPC   C17 9317   8.638   0.861   1.688  0.0484 -0.4144 -0.1429
  187DPPC   C18 9318   8.655   0.740   1.779 -0.2907 -0.3780 -0.0305
  187DPPC   C19 9319   8.545   0.721   1.883 -0.1696 -0.1789  0.1335
  187DPPC   C20 9320   8.407   0.695   1.821  0.0400  0.2075 -0.5066
  187DPPC   C21 9321   8.318   0.667   1.942  0.3400  0.8612 -0.1274
  187DPPC   C22 9322   8.311   0.801   2.015  0.5700  0.6125  0.3570
  187DPPC   C23 9323   8.296   0.746   2.158 -0.2667 -0.9173 -0.2905
  187DPPC   C24 9324   8.298   0.874   2.242  0.5280 -0.9128 -0.3053
  187DPPC   C25 9325   8.307   0.854   2.394 -0.1004 -0.0479 -0.1419
  187DPPC   C26 9326   8.323   0.992   2.456 -0.7240 -0.2160  0.3998
  187DPPC   C27 9327   8.342   0.984   2.608  0.7068  0.1969  0.2639
  187DPPC   C28 9328   8.319   1.116   2.682  0.2925  0.3924 -0.2117
  187DPPC   C29 9329   8.338   1.084   2.830  0.1220  0.4023 -0.1864
  187DPPC   C30 9330   8.489   1.074   2.855  0.1924  0.9521 -0.3615
  187DPPC   C31 9331   8.510   1.071   3.007 -0.0411  0.3300 -0.3377
  187DPPC   C32 9332   8.923   1.171   1.429  0.4169  0.0414 -0.0602
  187DPPC   O33 9333   9.001   1.223   1.537 -0.5038  0.2544  0.5205
  187DPPC   C34 9334   9.126   1.169   1.544 -0.2170  0.8167 -0.0713
  187DPPC   O35 9335   9.179   1.124   1.443 -0.2263  0.4651  0.0779
  187DPPC   C36 9336   9.191   1.171   1.683  0.5020 -0.8825 -0.3570
  187DPPC   C37 9337   9.236   1.033   1.732  0.6780 -0.7254 -0.0763
  187DPPC   C38 9338   9.124   0.959   1.803 -0.2570  0.3137 -0.4381
  187DPPC   C39 9339   9.084   1.020   1.938  0.0286 -0.0814 -0.1692
  187DPPC   C40 9340   8.973   0.932   1.995 -0.1295  0.3332  0.1678
  187DPPC   C41 9341   9.023   0.788   2.000 -0.6381  0.1531  0.1884
  187DPPC   C42 9342   8.913   0.690   2.041 -0.1481 -0.5149 -0.0571
  187DPPC   C43 9343   8.845   0.736   2.170 -0.2228  0.5500 -0.4615
  187DPPC   C44 9344   8.743   0.635   2.223  0.3951  0.4196  0.5161
  187DPPC   C45 9345   8.673   0.694   2.345 -0.2442  0.5588  0.0885
  187DPPC   C46 9346   8.618   0.592   2.445  0.9327 -0.0481  0.1383
  187DPPC   C47 9347   8.567   0.674   2.563 -0.2208 -0.4881 -0.0408
  187DPPC   C48 9348   8.551   0.586   2.687 -0.2679 -0.4618 -0.0282
  187DPPC   C49 9349   8.499   0.676   2.799  0.3517 -0.2440  0.0845
  187DPPC   C50 9350   8.427   0.604   2.913  0.1806  0.2884  0.3207
  188DPPC    C1 9351   7.422   2.403   1.741  0.4368 -0.3865  0.1366
  188DPPC    C2 9352   7.526   2.197   1.675  0.2020  0.2205 -0.4388
  188DPPC    C3 9353   7.296   2.241   1.617 -0.3434 -0.0671  0.0759
  188DPPC    N4 9354   7.429   2.301   1.635 -0.2813 -0.1248 -0.1765
  188DPPC    C5 9355   7.466   2.366   1.509 -0.0287 -0.3539 -0.2213
  188DPPC    C6 9356   7.602   2.425   1.470 -0.1722 -0.1876 -0.4706
  188DPPC    O7 9357   7.714   2.338   1.484  0.0706  0.2218  0.1911
  188DPPC    P8 9358   7.843   2.434   1.473 -0.0093  0.2870 -0.2190
  188DPPC    O9 9359   7.816   2.534   1.367  0.2320  0.5969  0.0098
  188DPPC   O10 9360   7.968   2.355   1.480 -0.1339  0.1435  0.4916
  188DPPC   O11 9361   7.826   2.515   1.612  0.1022 -0.4357  0.2216
  188DPPC   C12 9362   7.845   2.653   1.579 -0.3580 -0.2525  0.7063
  188DPPC   C13 9363   7.879   2.742   1.699 -0.1015 -0.3719  0.7229
  188DPPC   O14 9364   8.021   2.749   1.717 -0.0435  0.3951  0.0481
  188DPPC   C15 9365   8.070   2.872   1.748  0.0732  0.3933 -0.1313
  188DPPC   O16 9366   8.041   2.969   1.679 -0.1082  0.5437  0.1546
  188DPPC   C17 9367   8.205   2.862   1.820 -0.0988 -0.1458  0.1182
  188DPPC   C18 9368   8.203   2.815   1.966  0.1406 -0.4737  0.0189
  188DPPC   C19 9369   8.131   2.910   2.063  0.0068 -0.6149  0.0581
  188DPPC   C20 9370   8.181   2.890   2.207 -0.0195 -0.1960  0.1258
  188DPPC   C21 9371   8.157   3.007   2.303 -0.0090 -0.0138 -0.0933
  188DPPC   C22 9372   8.234   2.961   2.426  0.1916  0.1843 -0.1446
  188DPPC   C23 9373   8.215   3.076   2.525  0.1601  0.2452 -0.2217
  188DPPC   C24 9374   8.301   3.039   2.646  0.1063  0.1843 -0.2025
  188DPPC   C25 9375   8.321   3.163   2.732 -0.3780  0.3090 -0.2669
  188DPPC   C26 9376   8.399   3.138   2.861 -0.2947 -0.4332 -0.4560
  188DPPC   C27 9377   8.402   3.269   2.941  0.1216 -0.6830 -0.0547
  188DPPC   C28 9378   8.472   3.237   3.073  0.0630 -0.6142 -0.0074
  188DPPC   C29 9379   8.611   3.178   3.052  0.2703 -0.0694 -0.1872
  188DPPC   C30 9380   8.662   3.146   3.193  0.5604 -0.3488 -0.3542
  188DPPC   C31 9381   8.674   2.994   3.208  0.7083 -0.2933  0.1066
  188DPPC   C32 9382   7.792   2.684   1.811 -1.1056  0.2551  0.2795
  188DPPC   O33 9383   7.776   2.765   1.928 -0.1016 -0.3921  0.8746
  188DPPC   C34 9384   7.671   2.730   2.007 -0.5170 -0.6768  0.2047
  188DPPC   O35 9385   7.587   2.651   1.963 -0.8543 -0.2505  0.0769
  188DPPC   C36 9386   7.641   2.814   2.131 -0.3334 -0.2973 -0.0052
  188DPPC   C37 9387   7.765   2.839   2.216 -0.3680 -0.2966  0.0451
  188DPPC   C38 9388   7.768   2.942   2.330  0.3840 -0.7396  0.4407
  188DPPC   C39 9389   7.661   2.896   2.430  0.1927 -0.4417  0.3742
  188DPPC   C40 9390   7.667   2.997   2.544  0.3687  0.0612 -0.0730
  188DPPC   C41 9391   7.568   2.969   2.658  0.6611 -0.2549  0.1046
  188DPPC   C42 9392   7.626   3.004   2.795  0.5581  0.8071 -0.1129
  188DPPC   C43 9393   7.534   2.967   2.912  0.1454  0.6017 -0.5010
  188DPPC   C44 9394   7.623   2.990   3.034 -0.4330  0.0720  0.0303
  188DPPC   C45 9395   7.582   2.917   3.162  0.1870 -0.0204  0.1800
  188DPPC   C46 9396   7.687   2.947   3.269  0.3431 -0.4564  0.1497
  188DPPC   C47 9397   7.668   2.875   3.402 -0.8213  0.5102  0.5179
  188DPPC   C48 9398   7.799   2.884   3.479 -0.0873  0.4683 -0.7006
  188DPPC   C49 9399   7.784   2.823   3.619  0.5373  0.0378 -0.8136
  188DPPC   C50 9400   7.899   2.851   3.715 -0.0015  0.5468 -0.3049
  189DPPC    C1 9401   8.963   3.732   1.322  0.0748  0.0348 -0.0408
  189DPPC    C2 9402   8.842   3.542   1.412 -0.2033  0.6502  0.3104
  189DPPC    C3 9403   8.882   3.742   1.545  0.4021 -0.1442  0.2237
  189DPPC    N4 9404   8.854   3.689   1.411 -0.1308  0.6418  0.0119
  189DPPC    C5 9405   8.721   3.728   1.364 -0.2527 -0.3856 -0.5343
  189DPPC    C6 9406   8.673   3.872   1.384  0.2233 -0.1901 -0.7921
  189DPPC    O7 9407   8.774   3.966   1.346  0.6585 -0.1351  0.4455
  189DPPC    P8 9408   8.733   4.121   1.335  0.3377 -0.2401  0.1621
  189DPPC    O9 9409   8.588   4.121   1.306  0.5289 -0.3219 -0.8263
  189DPPC   O10 9410   8.830   4.189   1.246 -0.5154  0.1109 -0.5235
  189DPPC   O11 9411   8.754   4.154   1.491 -0.3588 -0.4111  0.2952
  189DPPC   C12 9412   8.895   4.146   1.515 -0.2429  0.0990 -0.1975
  189DPPC   C13 9413   8.952   4.222   1.634 -0.3829 -0.0317 -0.0460
  189DPPC   O14 9414   8.925   4.171   1.765 -0.3102  0.1912  0.0565
  189DPPC   C15 9415   8.985   4.056   1.807  0.0100  0.3094 -0.0720
  189DPPC   O16 9416   9.040   3.983   1.725 -0.4199  0.0849 -0.1632
  189DPPC   C17 9417   8.949   4.014   1.949 -0.3772 -0.2132 -0.3196
  189DPPC   C18 9418   8.990   4.120   2.052 -0.0929 -0.2276 -0.4179
  189DPPC   C19 9419   8.901   4.110   2.176 -0.0903 -0.0109 -0.3984
  189DPPC   C20 9420   8.756   4.143   2.142 -0.1720 -0.2788 -0.3071
  189DPPC   C21 9421   8.688   4.198   2.268 -0.2736 -0.1134 -0.4334
  189DPPC   C22 9422   8.539   4.222   2.245 -0.2359  0.3821 -0.1809
  189DPPC   C23 9423   8.489   4.257   2.386  0.4127 -0.3584  0.2413
  189DPPC   C24 9424   8.348   4.315   2.372  0.5701 -0.0854 -0.2425
  189DPPC   C25 9425   8.298   4.376   2.503 -0.9441  0.1030 -0.8845
  189DPPC   C26 9426   8.296   4.290   2.630 -0.6240  0.3918 -0.6811
  189DPPC   C27 9427   8.244   4.361   2.755  0.4593 -0.3042  0.1828
  189DPPC   C28 9428   8.223   4.272   2.878 -0.5025  0.0318  0.2694
  189DPPC   C29 9429   8.353   4.255   2.955 -0.6230 -1.0067  0.2635
  189DPPC   C30 9430   8.351   4.289   3.104 -0.1845  0.5497 -0.0609
  189DPPC   C31 9431   8.246   4.206   3.180  0.8901 -0.0812  0.7689
  189DPPC   C32 9432   8.928   4.372   1.613 -0.4655 -0.0009  0.2678
  189DPPC   O33 9433   9.013   4.458   1.689 -0.0850 -0.0582 -0.0904
  189DPPC   C34 9434   9.030   4.586   1.648  0.2905 -0.1037 -0.0860
  189DPPC   O35 9435   9.001   4.622   1.533  0.1493 -0.1634 -0.0693
  189DPPC   C36 9436   9.111   4.678   1.740 -0.1334  0.8625 -0.6570
  189DPPC   C37 9437   9.019   4.750   1.839 -0.4001  0.0640 -0.3171
  189DPPC   C38 9438   8.975   4.669   1.962 -0.4006  0.2231 -0.2129
  189DPPC   C39 9439   8.852   4.738   2.020 -0.1130  0.3183  0.2903
  189DPPC   C40 9440   8.829   4.709   2.168 -0.2633  0.3573  0.2751
  189DPPC   C41 9441   8.709   4.779   2.233  0.2275  1.4036  0.0857
  189DPPC   C42 9442   8.738   4.772   2.382  0.4062 -0.3865 -0.0013
  189DPPC   C43 9443   8.719   4.628   2.428  0.5860 -0.4170 -0.0220
  189DPPC   C44 9444   8.696   4.627   2.579 -0.0525  0.6116 -0.1068
  189DPPC   C45 9445   8.668   4.490   2.642 -0.2088  0.4773 -0.4621
  189DPPC   C46 9446   8.621   4.524   2.784 -0.0242 -0.5895 -0.1383
  189DPPC   C47 9447   8.725   4.618   2.846  0.2406 -0.9945  0.0382
  189DPPC   C48 9448   8.662   4.676   2.972  0.8519 -0.9596  0.3352
  189DPPC   C49 9449   8.595   4.566   3.054 -0.7242 -0.2284  0.0790
  189DPPC   C50 9450   8.533   4.636   3.175 -0.6306  1.0011 -0.5702
  190DPPC    C1 9451   5.043   7.192   1.739  0.0546 -0.0528 -0.7551
  190DPPC    C2 9452   4.810   7.259   1.698 -0.1858  0.2030  0.0963
  190DPPC    C3 9453   4.913   7.295   1.912  0.5244 -0.0174 -0.0289
  190DPPC    N4 9454   4.936   7.288   1.767  0.0341 -0.2656 -0.0986
  190DPPC    C5 9455   4.974   7.428   1.738  0.5332 -0.2165  0.7584
  190DPPC    C6 9456   5.105   7.479   1.798  0.9028 -0.0031 -0.2208
  190DPPC    O7 9457   5.083   7.573   1.903  0.0877 -0.4502  0.0135
  190DPPC    P8 9458   5.229   7.627   1.942 -0.0387 -0.0051 -0.1323
  190DPPC    O9 9459   5.188   7.716   2.052  0.0728 -0.4993  0.3103
  190DPPC   O10 9460   5.306   7.665   1.821 -0.2799 -0.0487 -0.2989
  190DPPC   O11 9461   5.270   7.484   2.002 -0.2498 -0.1356 -0.2987
  190DPPC   C12 9462   5.209   7.472   2.130  0.6715  0.6733  0.2330
  190DPPC   C13 9463   5.192   7.323   2.161 -0.1078  0.6825 -0.1086
  190DPPC   O14 9464   5.075   7.277   2.231 -0.1323  0.2081 -0.4590
  190DPPC   C15 9465   5.046   7.146   2.212 -0.4693  0.2407 -0.1741
  190DPPC   O16 9466   5.096   7.068   2.131  0.8005  0.5727  0.2585
  190DPPC   C17 9467   4.932   7.102   2.304  0.0423 -0.3030  0.2151
  190DPPC   C18 9468   4.990   7.009   2.410 -0.2501 -0.6182  0.1032
  190DPPC   C19 9469   5.104   7.077   2.486 -0.7940 -0.1714  0.5257
  190DPPC   C20 9470   5.189   6.961   2.536  0.0408  0.2102  0.0120
  190DPPC   C21 9471   5.341   6.982   2.538  0.0381  0.1873  0.9169
  190DPPC   C22 9472   5.400   6.903   2.655  0.6762 -0.2830  0.2905
  190DPPC   C23 9473   5.548   6.938   2.677  0.6214 -0.0614  0.3146
  190DPPC   C24 9474   5.583   6.894   2.819 -0.4914 -0.3401  0.5156
  190DPPC   C25 9475   5.578   6.741   2.828 -0.2457 -0.3857 -0.0798
  190DPPC   C26 9476   5.676   6.664   2.739  0.0945  0.0837 -0.1168
  190DPPC   C27 9477   5.631   6.518   2.743 -0.2852  0.2150  0.6201
  190DPPC   C28 9478   5.662   6.456   2.879  0.2262  0.2078  0.4992
  190DPPC   C29 9479   5.648   6.303   2.881 -0.8939  0.2988  0.2737
  190DPPC   C30 9480   5.708   6.254   3.013 -0.0455 -0.2885 -0.3199
  190DPPC   C31 9481   5.667   6.111   3.046  0.0888 -0.2234  0.1515
  190DPPC   C32 9482   5.329   7.287   2.218 -0.2007  0.4330 -0.0411
  190DPPC   O33 9483   5.372   7.355   2.337 -0.4283 -0.0830  0.3402
  190DPPC   C34 9484   5.504   7.320   2.343 -0.5865 -0.6810  0.4827
  190DPPC   O35 9485   5.533   7.209   2.301 -0.3144 -0.2311 -0.5730
  190DPPC   C36 9486   5.600   7.431   2.387  0.0170 -0.9923 -0.0402
  190DPPC   C37 9487   5.597   7.447   2.539 -0.4105  0.6781 -0.2047
  190DPPC   C38 9488   5.665   7.577   2.582  0.4503 -0.1237  0.8954
  190DPPC   C39 9489   5.816   7.558   2.597  0.5117 -0.1771  0.2542
  190DPPC   C40 9490   5.880   7.675   2.672  0.4777 -0.0436  0.0742
  190DPPC   C41 9491   5.856   7.804   2.594  0.2120 -0.1278  0.0153
  190DPPC   C42 9492   5.901   7.928   2.672 -0.4336 -0.0144  0.2079
  190DPPC   C43 9493   5.816   7.940   2.799 -0.3247  0.2501  0.2553
  190DPPC   C44 9494   5.867   8.046   2.897  0.4115  0.2337 -0.1013
  190DPPC   C45 9495   5.785   8.065   3.025  0.0504 -0.0561 -0.2891
  190DPPC   C46 9496   5.851   8.165   3.120 -0.7360  0.1337  0.0680
  190DPPC   C47 9497   5.774   8.190   3.250 -0.0801 -0.0410  0.4964
  190DPPC   C48 9498   5.853   8.280   3.345  0.2349  0.2041  0.0074
  190DPPC   C49 9499   5.777   8.294   3.477  0.1743 -0.3014  0.0281
  190DPPC   C50 9500   5.854   8.340   3.601  0.4205 -0.1145 -0.1924
  191DPPC    C1 9501   0.994   2.281   1.363  0.0602  0.2155 -0.6332
  191DPPC    C2 9502   1.179   2.161   1.257  0.4160  0.3447  0.0057
  191DPPC    C3 9503   1.137   2.142   1.495  0.6906 -0.4746 -0.3576
  191DPPC    N4 9504   1.076   2.159   1.362  0.3230  0.3831 -0.0848
  191DPPC    C5 9505   0.996   2.044   1.317  0.7736  0.2176 -0.4818
  191DPPC    C6 9506   0.903   1.974   1.416  0.2053  0.4097 -0.8692
  191DPPC    O7 9507   0.805   2.055   1.481  0.1042 -0.1315 -0.3416
  191DPPC    P8 9508   0.710   1.966   1.576  0.0829  0.1157 -0.1297
  191DPPC    O9 9509   0.814   1.886   1.646  0.2453  0.4775  0.0476
  191DPPC   O10 9510   0.630   1.916   1.463 -0.2733  0.0620  0.1430
  191DPPC   O11 9511   0.644   2.098   1.639  0.3440  0.3810 -0.4117
  191DPPC   C12 9512   0.705   2.102   1.768 -0.4551 -0.1943 -0.0079
  191DPPC   C13 9513   0.719   2.244   1.822  0.1971 -0.3166  0.1615
  191DPPC   O14 9514   0.800   2.270   1.938  0.3497 -0.4665  0.0870
  191DPPC   C15 9515   0.928   2.227   1.955  0.4586 -0.2711 -0.2224
  191DPPC   O16 9516   0.999   2.210   1.856  0.5366  0.0089 -0.2177
  191DPPC   C17 9517   0.988   2.239   2.096 -0.1243 -0.1354  0.0157
  191DPPC   C18 9518   0.998   2.101   2.160  0.1284 -0.2486 -0.2662
  191DPPC   C19 9519   1.050   2.126   2.302 -0.4988  0.2702 -0.1214
  191DPPC   C20 9520   1.180   2.207   2.309  0.0047 -0.4986 -0.3850
  191DPPC   C21 9521   1.235   2.165   2.446 -0.0079  0.1744 -0.1676
  191DPPC   C22 9522   1.294   2.282   2.523 -0.1511  0.0694  0.1025
  191DPPC   C23 9523   1.304   2.245   2.671 -0.3515 -0.1311  0.0651
  191DPPC   C24 9524   1.364   2.358   2.754 -0.0208 -0.3061  0.0685
  191DPPC   C25 9525   1.327   2.332   2.900 -0.0563 -0.2643  0.0670
  191DPPC   C26 9526   1.176   2.317   2.923 -0.1823  0.3123 -0.3791
  191DPPC   C27 9527   1.145   2.266   3.064  0.0179 -0.0177 -0.4531
  191DPPC   C28 9528   1.230   2.142   3.093  0.0231  0.0745 -0.0678
  191DPPC   C29 9529   1.184   2.089   3.229  0.1273  0.0407 -0.0464
  191DPPC   C30 9530   1.248   1.957   3.275  0.0895 -0.0112 -0.1422
  191DPPC   C31 9531   1.194   1.908   3.409  0.2808 -0.2843 -0.1642
  191DPPC   C32 9532   0.572   2.283   1.841  0.2731  0.0694 -0.0276
  191DPPC   O33 9533   0.496   2.202   1.931  0.0714  0.1856 -0.0933
  191DPPC   C34 9534   0.360   2.205   1.924  0.0549 -0.3892 -0.0684
  191DPPC   O35 9535   0.299   2.273   1.842  0.3687 -0.0349 -0.0107
  191DPPC   C36 9536   0.292   2.093   2.003  0.3425 -0.3893  0.1820
  191DPPC   C37 9537   0.216   2.136   2.128 -0.2901 -0.2765 -0.2388
  191DPPC   C38 9538   0.178   2.008   2.203 -0.4408 -0.5342 -0.7511
  191DPPC   C39 9539   0.138   2.046   2.346  0.4966  0.0460 -0.6318
  191DPPC   C40 9540   0.012   2.132   2.343  0.1631 -0.3941  0.2787
  191DPPC   C41 9541  -0.035   2.129   2.488  0.5701  0.6227  0.4382
  191DPPC   C42 9542  -0.055   1.981   2.519 -0.4116  0.6642  0.0219
  191DPPC   C43 9543  -0.076   1.957   2.669  0.6377  0.1998  0.1012
  191DPPC   C44 9544  -0.188   2.040   2.731  0.0990 -0.4772  0.0399
  191DPPC   C45 9545  -0.222   1.949   2.849  0.0802 -0.3215  0.1546
  191DPPC   C46 9546  -0.337   2.018   2.923  0.3845  0.1157  0.2215
  191DPPC   C47 9547  -0.307   2.138   3.013 -0.2043  0.3531  0.1119
  191DPPC   C48 9548  -0.434   2.184   3.085 -0.6083 -0.1090 -0.2989
  191DPPC   C49 9549  -0.486   2.059   3.156 -0.1669  0.0326  0.2782
  191DPPC   C50 9550  -0.616   2.058   3.236  0.1899  0.3421  0.8709
  192DPPC    C1 9551   4.809   1.083   1.749  0.0977 -0.3271  0.1045
  192DPPC    C2 9552   4.799   0.844   1.756 -0.3584 -0.0678  0.4356
  192DPPC    C3 9553   5.011   0.952   1.733  0.3474 -0.7774 -0.0071
  192DPPC    N4 9554   4.878   0.962   1.795  0.3081 -0.3086 -0.1609
  192DPPC    C5 9555   4.892   0.948   1.941 -0.4413  0.2498 -0.0334
  192DPPC    C6 9556   4.945   1.052   2.039 -0.4489 -0.1664  0.4110
  192DPPC    O7 9557   4.879   1.178   2.027 -0.0956 -0.0134  0.0504
  192DPPC    P8 9558   4.965   1.286   2.110  0.1027 -0.0455 -0.1147
  192DPPC    O9 9559   4.903   1.415   2.074  0.2077  0.1700  0.4723
  192DPPC   O10 9560   5.105   1.253   2.076  0.2417  0.0462  0.3585
  192DPPC   O11 9561   4.928   1.261   2.264  0.2548  0.5479  0.0197
  192DPPC   C12 9562   4.812   1.326   2.316 -0.6498 -0.8844 -0.1536
  192DPPC   C13 9563   4.818   1.318   2.468  0.0812  0.1735 -0.1133
  192DPPC   O14 9564   4.697   1.363   2.530  0.1182 -0.2463  0.2710
  192DPPC   C15 9565   4.590   1.280   2.516 -0.2387  0.3582 -0.7216
  192DPPC   O16 9566   4.589   1.176   2.449 -0.3193 -0.3029  0.2826
  192DPPC   C17 9567   4.458   1.333   2.573 -0.2098 -0.1049 -0.2149
  192DPPC   C18 9568   4.474   1.457   2.661 -0.0970 -0.7901  0.7376
  192DPPC   C19 9569   4.344   1.509   2.722  0.0003  0.0305  0.2426
  192DPPC   C20 9570   4.294   1.430   2.843 -0.3323  0.1106  0.1592
  192DPPC   C21 9571   4.174   1.496   2.912 -0.3006  0.3139  0.0213
  192DPPC   C22 9572   4.120   1.399   3.017  0.3114 -0.2635 -0.1866
  192DPPC   C23 9573   4.203   1.389   3.145 -0.0747  0.2661  0.1101
  192DPPC   C24 9574   4.139   1.298   3.249  0.3194  0.3244  0.4090
  192DPPC   C25 9575   4.237   1.279   3.364  0.3459  0.0865  0.3487
  192DPPC   C26 9576   4.372   1.251   3.296  0.4469 -0.0121  0.5875
  192DPPC   C27 9577   4.448   1.164   3.397 -0.0962 -0.9930  0.1639
  192DPPC   C28 9578   4.544   1.083   3.310  0.6518  0.3497 -0.2921
  192DPPC   C29 9579   4.620   0.983   3.398  0.3234  0.2316 -0.1407
  192DPPC   C30 9580   4.710   0.900   3.305 -0.1388 -0.6365  0.1773
  192DPPC   C31 9581   4.845   0.963   3.272 -0.2607 -0.1794  0.5329
  192DPPC   C32 9582   4.948   1.384   2.516 -0.3571  0.6384  0.4533
  192DPPC   O33 9583   4.987   1.338   2.645  0.1686  0.1506  0.1247
  192DPPC   C34 9584   5.115   1.365   2.683  0.0239  1.1615 -0.0701
  192DPPC   O35 9585   5.207   1.355   2.602  0.0200  0.6738 -0.0154
  192DPPC   C36 9586   5.131   1.336   2.833 -0.5362 -0.3674 -0.2840
  192DPPC   C37 9587   5.189   1.195   2.842  0.3212 -0.0011  0.0277
  192DPPC   C38 9588   5.204   1.185   2.994  0.4359  0.0902  0.0230
  192DPPC   C39 9589   5.169   1.043   3.039  0.1821  0.0543 -0.2779
  192DPPC   C40 9590   5.237   1.022   3.175 -0.1702  0.1875 -0.0810
  192DPPC   C41 9591   5.273   0.878   3.209 -0.1402  0.2456  0.1293
  192DPPC   C42 9592   5.330   0.871   3.351 -0.1033  0.1502  0.1101
  192DPPC   C43 9593   5.369   0.730   3.395 -0.1716  0.0532 -0.1413
  192DPPC   C44 9594   5.408   0.710   3.542  0.2832 -0.2581 -0.3048
  192DPPC   C45 9595   5.395   0.564   3.585  0.0092 -0.2684 -0.4251
  192DPPC   C46 9596   5.473   0.482   3.481  0.9949  0.0089  0.0892
  192DPPC   C47 9597   5.472   0.336   3.526  0.0229 -0.1174 -0.3204
  192DPPC   C48 9598   5.552   0.254   3.426 -0.5004 -0.0843 -0.7713
  192DPPC   C49 9599   5.586   0.114   3.477 -0.5601  0.1272 -0.1427
  192DPPC   C50 9600   5.465   0.038   3.531 -0.3464 -0.2205 -0.1507
  193DPPC    C1 9601   5.432   5.740   6.110 -0.0603 -0.6772  0.8428
  193DPPC    C2 9602   5.297   5.552   6.105  0.1689 -0.0227 -0.3969
  193DPPC    C3 9603   5.255   5.741   5.971  0.2607  0.5909 -0.1608
  193DPPC    N4 9604   5.361   5.651   6.018  0.0082  0.2887 -0.1650
  193DPPC    C5 9605   5.454   5.592   5.920  0.4773 -0.2758  0.6061
  193DPPC    C6 9606   5.407   5.466   5.848  0.1578  0.1620  0.0360
  193DPPC    O7 9607   5.475   5.448   5.723 -0.0864  0.3580 -0.1260
  193DPPC    P8 9608   5.444   5.292   5.694  0.2666  0.2078  0.2932
  193DPPC    O9 9609   5.410   5.228   5.823  0.0117  0.0783  0.1617
  193DPPC   O10 9610   5.551   5.233   5.611 -0.1230 -0.2960  0.1476
  193DPPC   O11 9611   5.316   5.304   5.597  0.5934  0.1887 -0.1428
  193DPPC   C12 9612   5.340   5.267   5.461  0.2796 -0.3153 -0.0606
  193DPPC   C13 9613   5.227   5.313   5.368  0.4087  0.1926  0.0318
  193DPPC   O14 9614   5.218   5.218   5.261 -0.0034  0.1363  0.1155
  193DPPC   C15 9615   5.133   5.112   5.274  0.3384 -0.0845  0.6271
  193DPPC   O16 9616   5.044   5.119   5.358 -0.2109  0.1358  0.0402
  193DPPC   C17 9617   5.129   5.020   5.152  0.3299 -0.1023  0.6411
  193DPPC   C18 9618   5.269   5.004   5.093  0.1466 -0.0235  0.1753
  193DPPC   C19 9619   5.263   4.889   4.994  0.5229  0.0341  0.0831
  193DPPC   C20 9620   5.363   4.910   4.880  0.0183  0.5768 -0.2614
  193DPPC   C21 9621   5.361   4.785   4.791 -0.0959  0.6420 -0.3519
  193DPPC   C22 9622   5.477   4.797   4.692  0.3170 -0.4200 -0.0119
  193DPPC   C23 9623   5.479   4.669   4.607  0.5933 -0.3776 -0.0690
  193DPPC   C24 9624   5.564   4.714   4.488  0.0911  0.1472 -0.2358
  193DPPC   C25 9625   5.578   4.602   4.384  0.6146 -0.0467  0.0420
  193DPPC   C26 9626   5.638   4.666   4.258  0.4897 -0.5536 -0.2770
  193DPPC   C27 9627   5.781   4.713   4.285  0.1664  0.3455 -0.1061
  193DPPC   C28 9628   5.834   4.796   4.167  0.3786  0.1475 -0.1488
  193DPPC   C29 9629   5.838   4.714   4.038  0.2144  0.0483 -0.0912
  193DPPC   C30 9630   5.910   4.798   3.933 -0.0357 -0.4578 -0.6774
  193DPPC   C31 9631   5.818   4.901   3.867  0.0221  0.2809  0.3499
  193DPPC   C32 9632   5.248   5.459   5.328 -0.4360  0.2128 -0.3617
  193DPPC   O33 9633   5.364   5.484   5.248 -0.0241  0.0291  0.1748
  193DPPC   C34 9634   5.317   5.507   5.123 -0.0508 -0.9437 -0.0019
  193DPPC   O35 9635   5.208   5.558   5.101  0.1531 -0.3561  0.3355
  193DPPC   C36 9636   5.429   5.499   5.018 -0.8883  0.2350 -1.0116
  193DPPC   C37 9637   5.468   5.352   5.001  0.5294  0.4311  0.3578
  193DPPC   C38 9638   5.610   5.342   4.944  0.4880 -0.1326  0.3458
  193DPPC   C39 9639   5.615   5.193   4.913  0.1574  0.0149 -0.4526
  193DPPC   C40 9640   5.753   5.145   4.866  0.7277  0.7112  0.4611
  193DPPC   C41 9641   5.765   4.992   4.859  0.1578  0.6279  1.1775
  193DPPC   C42 9642   5.894   4.944   4.793 -0.6370 -0.1781  0.1683
  193DPPC   C43 9643   5.929   4.800   4.831 -0.2542 -0.0758  0.2132
  193DPPC   C44 9644   6.047   4.765   4.740 -0.4919 -0.5685  0.0907
  193DPPC   C45 9645   6.014   4.794   4.593  0.2109  0.5314  0.1396
  193DPPC   C46 9646   6.124   4.743   4.499 -0.0353 -0.0888  0.1847
  193DPPC   C47 9647   6.141   4.591   4.512 -0.3009 -0.1464 -0.1313
  193DPPC   C48 9648   6.256   4.542   4.425  0.0184 -0.2232  0.3322
  193DPPC   C49 9649   6.216   4.550   4.278 -0.0602 -0.2903  0.3495
  193DPPC   C50 9650   6.327   4.476   4.202  0.1839 -0.1027  0.5226
  194DPPC    C1 9651   8.004   5.527   0.982 -0.4800 -0.1370 -0.1573
  194DPPC    C2 9652   7.841   5.701   1.021  0.0273  0.3208 -0.6657
  194DPPC    C3 9653   7.828   5.553   0.832 -0.3073  0.2816 -0.3373
  194DPPC    N4 9654   7.862   5.563   0.975 -0.4050  0.1331 -0.3033
  194DPPC    C5 9655   7.761   5.479   1.041  0.0225  0.1547  0.3771
  194DPPC    C6 9656   7.770   5.326   1.043 -0.0320  0.1466  0.0146
  194DPPC    O7 9657   7.860   5.283   1.145  0.0217  0.1111 -0.0476
  194DPPC    P8 9658   7.857   5.123   1.161  0.2140  0.1137  0.0222
  194DPPC    O9 9659   7.883   5.080   1.021  0.4602 -0.0957  0.1305
  194DPPC   O10 9660   7.724   5.095   1.220 -0.1479 -0.3265 -0.9774
  194DPPC   O11 9661   7.979   5.094   1.262 -0.0437  0.0335  0.3110
  194DPPC   C12 9662   7.947   5.149   1.390 -0.1832 -0.1863  0.3720
  194DPPC   C13 9663   8.024   5.272   1.439  0.0037 -0.0222 -0.3262
  194DPPC   O14 9664   8.115   5.241   1.545 -0.2929 -0.1612 -0.1125
  194DPPC   C15 9665   8.199   5.326   1.609 -0.1116 -0.2122 -0.2820
  194DPPC   O16 9666   8.212   5.440   1.565 -0.0495  0.0833  0.4777
  194DPPC   C17 9667   8.290   5.279   1.723 -0.0153  0.5517 -0.0377
  194DPPC   C18 9668   8.235   5.172   1.817  0.0910  0.6164  0.0979
  194DPPC   C19 9669   8.348   5.075   1.852 -0.5347 -0.0797  0.1971
  194DPPC   C20 9670   8.405   5.059   1.993 -0.0778  0.3761  0.0652
  194DPPC   C21 9671   8.298   4.988   2.075  0.4093  0.0184  0.3995
  194DPPC   C22 9672   8.339   4.971   2.221  0.3226  0.2753  0.4542
  194DPPC   C23 9673   8.274   4.848   2.285  0.8869  0.0364  0.5747
  194DPPC   C24 9674   8.242   4.885   2.429  0.2003  0.2796  0.3632
  194DPPC   C25 9675   8.160   4.774   2.494 -0.0405  0.0820 -0.2704
  194DPPC   C26 9676   8.163   4.802   2.645  0.2632  0.5365 -0.3607
  194DPPC   C27 9677   8.302   4.788   2.707  0.0622  0.0327 -0.0187
  194DPPC   C28 9678   8.282   4.791   2.858 -0.3362 -0.1032 -0.0679
  194DPPC   C29 9679   8.191   4.898   2.920 -0.6958 -0.6856  0.4266
  194DPPC   C30 9680   8.208   4.909   3.072 -0.0436 -0.3024  0.3313
  194DPPC   C31 9681   8.126   5.030   3.118  0.0957 -0.1361  0.1449
  194DPPC   C32 9682   7.913   5.365   1.487 -0.2526 -0.3632 -0.2572
  194DPPC   O33 9683   7.829   5.325   1.596  0.5123 -0.1093  0.4326
  194DPPC   C34 9684   7.716   5.398   1.613  0.3897 -0.1706 -0.1084
  194DPPC   O35 9685   7.697   5.492   1.535  0.0504 -0.3630 -0.2571
  194DPPC   C36 9686   7.634   5.362   1.736  0.1970  0.3767 -0.0725
  194DPPC   C37 9687   7.498   5.431   1.738  0.1598  0.3048 -0.1181
  194DPPC   C38 9688   7.424   5.410   1.870 -0.1774 -0.2367 -0.3919
  194DPPC   C39 9689   7.295   5.492   1.873 -0.2452 -0.3123 -1.0775
  194DPPC   C40 9690   7.200   5.467   1.990  0.8950 -0.0051 -0.0557
  194DPPC   C41 9691   7.135   5.328   1.987  0.6430  0.1082  0.1594
  194DPPC   C42 9692   7.057   5.310   2.117  0.0575  0.7053 -0.0989
  194DPPC   C43 9693   7.151   5.317   2.238 -0.2291  0.0027  0.1731
  194DPPC   C44 9694   7.078   5.321   2.373 -0.6516  0.2358 -0.0589
  194DPPC   C45 9695   7.189   5.355   2.472  0.1458 -0.5634 -0.6534
  194DPPC   C46 9696   7.142   5.329   2.615  0.1598  0.5003 -0.4428
  194DPPC   C47 9697   7.241   5.364   2.726 -0.0773  0.0289 -0.0745
  194DPPC   C48 9698   7.176   5.328   2.859  0.1399  0.1233  0.0580
  194DPPC   C49 9699   7.277   5.356   2.970 -0.3141  0.3161  0.4277
  194DPPC   C50 9700   7.402   5.271   2.948 -0.4717  0.0137  0.7029
  195DPPC    C1 9701   2.510   3.569   5.518  0.1777  0.2820 -0.4409
  195DPPC    C2 9702   2.300   3.630   5.463  0.3478 -0.0043 -0.2723
  195DPPC    C3 9703   2.432   3.583   5.282 -0.1141 -0.2289 -0.0629
  195DPPC    N4 9704   2.406   3.537   5.419  0.0580 -0.4213 -0.0944
  195DPPC    C5 9705   2.350   3.402   5.434 -0.2661 -0.2111  0.6572
  195DPPC    C6 9706   2.411   3.283   5.360 -0.0502 -0.1649  0.7604
  195DPPC    O7 9707   2.536   3.240   5.415  0.6291  0.4555 -0.2573
  195DPPC    P8 9708   2.580   3.094   5.363  0.2315  0.0937  0.4164
  195DPPC    O9 9709   2.545   3.095   5.219  0.2998 -0.1199  0.3968
  195DPPC   O10 9710   2.526   2.996   5.461  0.4109 -0.1204  0.3019
  195DPPC   O11 9711   2.740   3.106   5.370  0.2915 -0.4652  0.0190
  195DPPC   C12 9712   2.771   3.213   5.281 -0.0947  0.1338  0.6002
  195DPPC   C13 9713   2.843   3.342   5.324 -0.0045  0.2674  0.0544
  195DPPC   O14 9714   2.823   3.440   5.221 -0.3847 -0.1185 -0.2450
  195DPPC   C15 9715   2.854   3.572   5.236 -0.3413 -0.1328 -0.2086
  195DPPC   O16 9716   2.836   3.617   5.349 -0.2635 -0.3585 -0.1066
  195DPPC   C17 9717   2.852   3.661   5.112 -0.3375  0.1461 -0.0074
  195DPPC   C18 9718   2.959   3.619   5.012  0.3685  1.0113  0.3711
  195DPPC   C19 9719   2.945   3.710   4.890 -0.3124  0.2192 -0.1509
  195DPPC   C20 9720   3.009   3.648   4.766  0.2280  0.2249  0.1227
  195DPPC   C21 9721   2.927   3.524   4.730  0.3214  0.3307 -0.4761
  195DPPC   C22 9722   2.958   3.468   4.592  0.3554  0.2873 -0.4505
  195DPPC   C23 9723   2.910   3.578   4.497 -0.6502 -0.3189 -0.6598
  195DPPC   C24 9724   2.940   3.558   4.348  0.5265  0.1027 -0.4912
  195DPPC   C25 9725   2.894   3.424   4.290 -0.5120  0.2429 -0.0009
  195DPPC   C26 9726   2.929   3.405   4.142  1.0463 -0.2030  0.4151
  195DPPC   C27 9727   3.080   3.421   4.125  1.0423 -0.1502  0.4293
  195DPPC   C28 9728   3.102   3.429   3.974  0.5832 -0.2048  0.3589
  195DPPC   C29 9729   3.072   3.291   3.914 -0.5593  0.2312 -0.0992
  195DPPC   C30 9730   3.166   3.196   3.988 -0.8817 -0.1764 -0.2095
  195DPPC   C31 9731   3.158   3.053   3.934  0.2749 -0.2563 -0.2047
  195DPPC   C32 9732   2.989   3.304   5.348  0.1710  0.7451 -0.2377
  195DPPC   O33 9733   3.042   3.212   5.252  0.3739  0.5317  0.0766
  195DPPC   C34 9734   3.173   3.180   5.270  0.2470 -0.0235  0.0483
  195DPPC   O35 9735   3.232   3.227   5.366  0.1212 -0.1886  0.2075
  195DPPC   C36 9736   3.240   3.082   5.174  0.4967 -0.1920  0.3950
  195DPPC   C37 9737   3.307   3.168   5.067 -0.1527  0.1747  0.2774
  195DPPC   C38 9738   3.325   3.086   4.938 -0.5876  0.4217  0.0574
  195DPPC   C39 9739   3.190   3.075   4.867 -0.3647 -0.2868 -0.2572
  195DPPC   C40 9740   3.224   3.019   4.728  0.1278 -0.5943 -0.0176
  195DPPC   C41 9741   3.119   3.052   4.621  0.1846  0.7259  0.3220
  195DPPC   C42 9742   3.181   3.010   4.488  0.3302  0.4678  0.4710
  195DPPC   C43 9743   3.087   3.027   4.368  0.3092 -0.5813  0.3257
  195DPPC   C44 9744   2.945   2.973   4.381  0.3413 -0.5764  0.7274
  195DPPC   C45 9745   2.868   2.991   4.250  0.1687 -0.1697  0.8823
  195DPPC   C46 9746   2.720   2.954   4.265  0.0323 -0.2775 -0.5172
  195DPPC   C47 9747   2.621   3.008   4.162 -0.2418  0.5326  0.1556
  195DPPC   C48 9748   2.621   3.160   4.144 -0.0681  0.4590 -0.5081
  195DPPC   C49 9749   2.588   3.213   4.005 -0.1045  0.6127 -0.4414
  195DPPC   C50 9750   2.590   3.364   4.030 -0.4324  0.6186 -0.4484
  196DPPC    C1 9751   0.644   0.144   1.569  0.2270 -0.1996  0.6129
  196DPPC    C2 9752   0.505   0.298   1.470 -0.3483 -0.0860  0.4595
  196DPPC    C3 9753   0.474   0.254   1.705  0.3923 -0.7565  0.3033
  196DPPC    N4 9754   0.573   0.269   1.597  0.1679 -0.1332  0.1797
  196DPPC    C5 9755   0.676   0.373   1.611 -0.0613  0.0557  0.4826
  196DPPC    C6 9756   0.637   0.521   1.617  0.1464  0.1605 -0.5270
  196DPPC    O7 9757   0.524   0.564   1.694  0.2755  0.2499 -0.3874
  196DPPC    P8 9758   0.522   0.725   1.689 -0.2449  0.2580 -0.0110
  196DPPC    O9 9759   0.387   0.776   1.656 -0.2159  0.1640 -0.2801
  196DPPC   O10 9760   0.637   0.772   1.607 -0.3704  0.3040 -0.1616
  196DPPC   O11 9761   0.584   0.764   1.832  0.4422 -0.2113 -0.1792
  196DPPC   C12 9762   0.471   0.749   1.917  0.4328  0.1723 -0.1259
  196DPPC   C13 9763   0.506   0.723   2.064 -0.2639  0.3890  0.0849
  196DPPC   O14 9764   0.394   0.679   2.142  0.1055  0.1953  0.5121
  196DPPC   C15 9765   0.348   0.553   2.120 -0.5389  0.5985 -0.5688
  196DPPC   O16 9766   0.413   0.471   2.056 -0.5320 -0.6876  0.9882
  196DPPC   C17 9767   0.212   0.508   2.175  0.0840 -0.0495  0.4865
  196DPPC   C18 9768   0.222   0.489   2.327  0.5552 -0.3064  0.4248
  196DPPC   C19 9769   0.099   0.437   2.402  0.1347 -0.4045 -0.3205
  196DPPC   C20 9770   0.142   0.434   2.549  0.2782  0.5256 -0.3429
  196DPPC   C21 9771   0.045   0.372   2.649  0.1051  0.6891 -0.4080
  196DPPC   C22 9772   0.146   0.305   2.743 -0.5306  0.4598  0.1229
  196DPPC   C23 9773   0.063   0.261   2.863  0.1624 -0.2386  0.3556
  196DPPC   C24 9774   0.155   0.207   2.972  0.7932  0.2060  0.0456
  196DPPC   C25 9775   0.062   0.147   3.078  0.2964 -0.1637 -0.5937
  196DPPC   C26 9776   0.131   0.049   3.173  0.3016  0.5129  0.1172
  196DPPC   C27 9777   0.164  -0.087   3.110 -0.0315  0.3708  0.2477
  196DPPC   C28 9778   0.217  -0.185   3.215  0.0722  0.3908  0.2133
  196DPPC   C29 9779   0.263  -0.320   3.158 -0.7252  0.2329 -0.0626
  196DPPC   C30 9780   0.278  -0.450   3.237 -0.4107  0.1319 -0.2857
  196DPPC   C31 9781   0.309  -0.567   3.144 -0.5791 -0.0244 -0.1484
  196DPPC   C32 9782   0.592   0.841   2.109 -0.6745  0.4644  0.6753
  196DPPC   O33 9783   0.528   0.965   2.076 -0.2724  0.5125  0.0673
  196DPPC   C34 9784   0.596   1.083   2.074  0.4578  0.1115  0.5778
  196DPPC   O35 9785   0.713   1.075   2.109  0.3929 -0.0695  0.7592
  196DPPC   C36 9786   0.516   1.208   2.038  0.1395 -0.3327 -0.2858
  196DPPC   C37 9787   0.445   1.286   2.149  0.5191 -0.2178 -0.1242
  196DPPC   C38 9788   0.348   1.389   2.092  0.2424 -0.2064  0.3626
  196DPPC   C39 9789   0.270   1.450   2.209 -0.1894 -0.0441 -0.0056
  196DPPC   C40 9790   0.200   1.343   2.292 -0.8722 -0.2774 -0.8596
  196DPPC   C41 9791   0.123   1.410   2.406  0.2954 -0.4137  0.0298
  196DPPC   C42 9792   0.058   1.304   2.495 -0.1441 -0.2608 -0.1078
  196DPPC   C43 9793  -0.015   1.373   2.611 -0.0847  0.4950 -0.5128
  196DPPC   C44 9794  -0.072   1.268   2.707 -0.2916  0.6946 -0.4186
  196DPPC   C45 9795  -0.098   1.317   2.850 -0.1930 -0.3645 -0.0353
  196DPPC   C46 9796  -0.172   1.217   2.939 -0.4398 -0.0937  0.0606
  196DPPC   C47 9797  -0.218   1.280   3.071 -0.0423  0.0703  0.1222
  196DPPC   C48 9798  -0.282   1.176   3.163  0.0023 -0.0150  0.0568
  196DPPC   C49 9799  -0.183   1.128   3.269  0.3339 -0.2275 -0.3469
  196DPPC   C50 9800  -0.251   1.057   3.386 -0.0563  0.2938 -0.2551
  197DPPC    C1 9801   8.829   2.064   5.720  0.4031 -0.1887 -0.0822
  197DPPC    C2 9802   8.878   1.828   5.736  0.5123 -0.4750 -0.0858
  197DPPC    C3 9803   8.718   1.914   5.586  0.6886 -0.5295  0.6697
  197DPPC    N4 9804   8.850   1.940   5.644  0.8812 -0.2231  0.1056
  197DPPC    C5 9805   8.964   1.955   5.553  0.0423 -0.2323 -0.9530
  197DPPC    C6 9806   9.004   1.836   5.464  0.1059 -1.3315  0.5128
  197DPPC    O7 9807   8.904   1.781   5.378 -0.5087  0.0366  0.3244
  197DPPC    P8 9808   8.975   1.687   5.268 -0.0054  0.2782  0.4377
  197DPPC    O9 9809   8.876   1.596   5.205  0.3166 -0.0366  0.3828
  197DPPC   O10 9810   9.109   1.645   5.316  0.0662 -0.0231 -0.0184
  197DPPC   O11 9811   9.004   1.807   5.166  0.2621 -0.2037 -0.0567
  197DPPC   C12 9812   8.878   1.855   5.118  0.1107  0.0022  0.5454
  197DPPC   C13 9813   8.879   2.000   5.067 -0.1956 -0.2556 -0.2076
  197DPPC   O14 9814   8.752   2.056   5.032  0.2006  0.3003 -0.7784
  197DPPC   C15 9815   8.734   2.189   5.055 -0.1597  0.1171  0.0582
  197DPPC   O16 9816   8.787   2.238   5.154  0.0174 -0.0544  0.0498
  197DPPC   C17 9817   8.622   2.259   4.979  0.2754  0.3200 -0.4036
  197DPPC   C18 9818   8.671   2.293   4.838  0.3730 -0.1997 -0.4971
  197DPPC   C19 9819   8.546   2.309   4.751  0.1155 -0.4004 -0.1630
  197DPPC   C20 9820   8.590   2.364   4.616 -0.2746  0.0529 -0.1102
  197DPPC   C21 9821   8.472   2.395   4.524 -0.2151 -0.1547 -0.2585
  197DPPC   C22 9822   8.513   2.418   4.378  0.2304 -0.4433 -0.1817
  197DPPC   C23 9823   8.388   2.458   4.300  0.2083  0.3472  0.2470
  197DPPC   C24 9824   8.294   2.544   4.385  0.0754  0.3347  0.1118
  197DPPC   C25 9825   8.181   2.591   4.293  0.0761  0.0068 -0.0571
  197DPPC   C26 9826   8.148   2.465   4.211  0.0056  0.0325 -0.0684
  197DPPC   C27 9827   8.030   2.509   4.124  0.1787  0.5570 -0.0398
  197DPPC   C28 9828   7.983   2.381   4.055  0.2429  0.2930  0.4041
  197DPPC   C29 9829   7.857   2.424   3.980  0.8227 -0.3034 -0.9302
  197DPPC   C30 9830   7.785   2.297   3.933 -0.1404 -0.0599 -0.1388
  197DPPC   C31 9831   7.866   2.199   3.848 -0.3077  0.1722 -0.5696
  197DPPC   C32 9832   8.978   1.989   4.951  0.1965  0.0941  0.0883
  197DPPC   O33 9833   9.013   2.110   4.884  0.2575  0.5223  0.8807
  197DPPC   C34 9834   9.111   2.105   4.789 -0.3238 -0.3532  0.3058
  197DPPC   O35 9835   9.194   2.014   4.785 -0.2180 -0.2446 -0.0104
  197DPPC   C36 9836   9.127   2.229   4.702  0.0688 -0.2295  0.5496
  197DPPC   C37 9837   9.005   2.246   4.610  0.8991  0.7431 -0.3969
  197DPPC   C38 9838   9.014   2.352   4.500  0.8955  0.5113 -0.6194
  197DPPC   C39 9839   8.899   2.360   4.400  0.1664 -0.5360  0.1165
  197DPPC   C40 9840   8.930   2.499   4.345  0.0462 -0.3570  0.4980
  197DPPC   C41 9841   8.900   2.613   4.442  0.0093  0.4197 -0.4078
  197DPPC   C42 9842   8.949   2.750   4.394 -0.0484  0.3310 -0.7210
  197DPPC   C43 9843   8.913   2.860   4.493  0.0866 -0.0408 -0.2540
  197DPPC   C44 9844   8.993   2.989   4.468 -0.6263  0.3036 -0.7845
  197DPPC   C45 9845   8.966   3.091   4.578  0.5457 -0.7701  0.5389
  197DPPC   C46 9846   9.080   3.192   4.595  0.1073 -0.2599  0.4915
  197DPPC   C47 9847   9.015   3.291   4.691  0.1978  0.4030 -0.1185
  197DPPC   C48 9848   9.106   3.407   4.735  0.5776 -0.0696  0.3642
  197DPPC   C49 9849   9.047   3.490   4.849 -0.1581 -0.0745 -0.0056
  197DPPC   C50 9850   9.029   3.406   4.975  0.9098  0.0165  0.2201
  198DPPC    C1 9851   3.957   4.857   5.306  0.3443  0.3895 -0.1920
  198DPPC    C2 9852   3.747   4.794   5.386  0.1779 -0.0987 -0.0219
  198DPPC    C3 9853   3.931   4.785   5.534  0.0533  0.2823 -0.3041
  198DPPC    N4 9854   3.871   4.863   5.425  0.0965  0.2391 -0.3602
  198DPPC    C5 9855   3.841   5.000   5.470 -0.6277 -0.2103  0.5630
  198DPPC    C6 9856   3.944   5.082   5.549 -0.0223 -0.2810 -0.1433
  198DPPC    O7 9857   4.045   5.134   5.463 -0.0681 -0.3558 -0.2430
  198DPPC    P8 9858   4.182   5.128   5.549 -0.2556  0.0925  0.0946
  198DPPC    O9 9859   4.207   4.983   5.528  0.3082  0.1789  0.1654
  198DPPC   O10 9860   4.166   5.194   5.680 -0.0811 -0.2385  0.2853
  198DPPC   O11 9861   4.268   5.213   5.443  0.1735 -0.3650  0.0700
  198DPPC   C12 9862   4.320   5.124   5.344  0.2314 -0.0977 -0.1403
  198DPPC   C13 9863   4.395   5.185   5.225 -0.1117 -0.6094 -0.6241
  198DPPC   O14 9864   4.518   5.257   5.237 -0.5038 -0.1213  0.5288
  198DPPC   C15 9865   4.625   5.174   5.254 -0.1246  0.3238  0.3544
  198DPPC   O16 9866   4.620   5.061   5.301 -0.6142  0.2784  0.2051
  198DPPC   C17 9867   4.766   5.227   5.228  0.0165 -0.2074  0.0224
  198DPPC   C18 9868   4.768   5.299   5.093 -0.1096  0.1070  0.1863
  198DPPC   C19 9869   4.897   5.348   5.027 -0.1654 -0.2544 -0.1958
  198DPPC   C20 9870   4.873   5.396   4.883 -0.1826  0.2672 -0.0224
  198DPPC   C21 9871   5.008   5.425   4.818  0.0387 -0.0025  0.3085
  198DPPC   C22 9872   5.083   5.296   4.785  0.0109  0.0384  0.0797
  198DPPC   C23 9873   5.197   5.338   4.692  0.3659 -0.1886  0.4033
  198DPPC   C24 9874   5.275   5.227   4.622 -0.4187 -0.1277 -0.5961
  198DPPC   C25 9875   5.419   5.267   4.589 -0.2693  0.2356  0.4609
  198DPPC   C26 9876   5.485   5.160   4.502  0.3108  0.0662  1.1020
  198DPPC   C27 9877   5.630   5.189   4.464 -0.0178 -0.2368 -0.4590
  198DPPC   C28 9878   5.663   5.112   4.336  0.1130  0.1786 -0.6780
  198DPPC   C29 9879   5.805   5.149   4.295  0.4212 -0.5724 -0.3103
  198DPPC   C30 9880   5.899   5.116   4.411 -0.0202  0.7053  0.4285
  198DPPC   C31 9881   6.052   5.115   4.402 -0.0664  0.2842 -0.4152
  198DPPC   C32 9882   4.282   5.255   5.149 -0.2896  0.4652  0.5953
  198DPPC   O33 9883   4.178   5.170   5.102  0.4877  0.1524 -0.6119
  198DPPC   C34 9884   4.074   5.233   5.040  0.0720  0.1079  0.0317
  198DPPC   O35 9885   4.077   5.353   5.013  0.2689  0.1476  0.2247
  198DPPC   C36 9886   3.947   5.156   5.006  0.0045  0.6506 -0.9711
  198DPPC   C37 9887   4.005   5.023   4.957  0.1539  0.1508  0.5132
  198DPPC   C38 9888   4.065   5.023   4.816 -0.3310 -0.1132  0.3012
  198DPPC   C39 9889   4.127   4.886   4.790  0.3517  0.2546 -0.0375
  198DPPC   C40 9890   4.186   4.886   4.649 -0.5367  0.0828 -0.4148
  198DPPC   C41 9891   4.243   4.749   4.614  0.1882  0.2074  0.2565
  198DPPC   C42 9892   4.351   4.765   4.507 -0.3256  0.1010 -0.2790
  198DPPC   C43 9893   4.448   4.648   4.494 -0.3808  0.0609 -0.3290
  198DPPC   C44 9894   4.549   4.672   4.382 -0.1236 -0.0675 -0.1255
  198DPPC   C45 9895   4.667   4.575   4.371 -0.3941 -0.4455  0.2930
  198DPPC   C46 9896   4.767   4.608   4.260 -0.5379 -0.1362  0.2552
  198DPPC   C47 9897   4.884   4.510   4.251 -0.0758  0.3649  0.7572
  198DPPC   C48 9898   4.845   4.365   4.224  0.0058  0.3237  0.8579
  198DPPC   C49 9899   4.966   4.279   4.187 -0.1925  0.3899  0.0334
  198DPPC   C50 9900   4.915   4.143   4.139  0.3388  0.3371 -0.3994
  199DPPC    C1 9901   6.945   6.320   5.348 -0.0779  0.2211  0.1325
  199DPPC    C2 9902   6.898   6.543   5.283  0.5515  0.3478  0.0915
  199DPPC    C3 9903   6.811   6.369   5.160 -0.3547  0.2080 -0.1150
  199DPPC    N4 9904   6.839   6.409   5.299  0.2835  0.4183 -0.2995
  199DPPC    C5 9905   6.722   6.399   5.388 -0.0001  0.8551 -0.6134
  199DPPC    C6 9906   6.613   6.505   5.377 -0.3880  0.5853  0.4515
  199DPPC    O7 9907   6.529   6.480   5.264 -0.0217  0.1000  0.2844
  199DPPC    P8 9908   6.407   6.585   5.261  0.1353  0.2840  0.3680
  199DPPC    O9 9909   6.480   6.714   5.249 -0.0778  0.3606 -0.1467
  199DPPC   O10 9910   6.314   6.547   5.369 -0.1257  0.0226  0.0521
  199DPPC   O11 9911   6.340   6.530   5.126 -0.2021  0.2833  0.5347
  199DPPC   C12 9912   6.439   6.473   5.039 -0.3634  0.2441  0.3766
  199DPPC   C13 9913   6.407   6.496   4.891 -0.2712 -0.4017  0.2518
  199DPPC   O14 9914   6.496   6.436   4.796  0.0736 -0.3064  0.5150
  199DPPC   C15 9915   6.480   6.305   4.764  0.3904 -0.1380 -0.3664
  199DPPC   O16 9916   6.410   6.237   4.839  0.4205 -0.2963 -0.4813
  199DPPC   C17 9917   6.547   6.245   4.641  0.0525 -0.3979 -0.4226
  199DPPC   C18 9918   6.503   6.296   4.503 -0.2998 -0.3134 -0.2803
  199DPPC   C19 9919   6.590   6.221   4.402  0.2388 -0.0004 -0.0549
  199DPPC   C20 9920   6.558   6.286   4.268  0.3570  0.0136 -0.0768
  199DPPC   C21 9921   6.640   6.203   4.169  0.6492  0.2597 -0.0421
  199DPPC   C22 9922   6.635   6.263   4.029 -0.4397  0.3476  0.0246
  199DPPC   C23 9923   6.734   6.379   4.020 -0.5998  0.4928  0.1446
  199DPPC   C24 9924   6.728   6.427   3.875  0.2185  0.2186  0.0131
  199DPPC   C25 9925   6.816   6.353   3.776 -0.0136  0.2300 -0.2033
  199DPPC   C26 9926   6.815   6.434   3.646 -0.3827  0.1347 -0.2608
  199DPPC   C27 9927   6.870   6.575   3.670 -0.4544  0.1304 -0.0689
  199DPPC   C28 9928   6.870   6.656   3.540  0.3635 -0.0893 -0.2151
  199DPPC   C29 9929   6.953   6.783   3.557 -0.2623  0.2766  0.1858
  199DPPC   C30 9930   6.983   6.864   3.430 -0.1626 -0.0112  0.0230
  199DPPC   C31 9931   7.057   6.992   3.467 -0.3079  0.0444  0.1250
  199DPPC   C32 9932   6.392   6.648   4.886  0.1752 -0.3661 -0.0974
  199DPPC   O33 9933   6.497   6.735   4.930 -0.2335  0.4789 -0.7574
  199DPPC   C34 9934   6.463   6.867   4.923  0.2000  0.6608  0.4249
  199DPPC   O35 9935   6.349   6.900   4.894 -0.0037 -0.2684  0.1307
  199DPPC   C36 9936   6.568   6.964   4.976  0.7430  0.4022 -0.1650
  199DPPC   C37 9937   6.568   7.094   4.895 -0.3891  0.0794 -0.6906
  199DPPC   C38 9938   6.483   7.205   4.956 -0.0567 -0.1916  0.2875
  199DPPC   C39 9939   6.455   7.324   4.863 -0.5991 -0.1453  0.5037
  199DPPC   C40 9940   6.388   7.276   4.735 -0.0547 -0.0086  0.1644
  199DPPC   C41 9941   6.369   7.398   4.645 -0.0859  0.0148  0.2034
  199DPPC   C42 9942   6.507   7.454   4.609  0.0264 -0.2175  0.2752
  199DPPC   C43 9943   6.583   7.368   4.508  0.2241  0.0581  0.1897
  199DPPC   C44 9944   6.715   7.439   4.479 -0.0018  0.1375 -0.6682
  199DPPC   C45 9945   6.703   7.579   4.418 -0.2638  0.1099 -0.6790
  199DPPC   C46 9946   6.839   7.621   4.363 -0.0944  0.9825  0.3661
  199DPPC   C47 9947   6.897   7.522   4.261 -0.1512  0.3525  0.9381
  199DPPC   C48 9948   7.037   7.564   4.214 -0.0156 -0.8537  0.2334
  199DPPC   C49 9949   7.127   7.575   4.337  0.1258  0.5554  0.0199
  199DPPC   C50 9950   7.272   7.613   4.303  0.1809 -0.2437 -0.6661
  200DPPC    C1 9951   2.643   7.581   5.073 -0.7248  1.2940  0.3687
  200DPPC    C2 9952   2.725   7.449   5.266 -0.0239 -0.1046  0.2763
  200DPPC    C3 9953   2.775   7.669   5.230  0.2366 -0.5189  0.1887
  200DPPC    N4 9954   2.664   7.574   5.218 -0.0818 -0.1532  0.2241
  200DPPC    C5 9955   2.560   7.637   5.302  0.1739 -0.1059  0.5064
  200DPPC    C6 9956   2.419   7.581   5.289  0.2101 -0.0703 -0.0819
  200DPPC    O7 9957   2.398   7.441   5.312 -0.1676 -0.0919 -0.5381
  200DPPC    P8 9958   2.248   7.389   5.290 -0.4084  0.2623  0.2322
  200DPPC    O9 9959   2.152   7.496   5.324 -0.7159 -0.0193  0.2614
  200DPPC   O10 9960   2.255   7.265   5.370 -0.5718  0.0932 -0.0103
  200DPPC   O11 9961   2.256   7.372   5.130 -0.5424 -0.0449  0.2575
  200DPPC   C12 9962   2.337   7.255   5.112  0.3671  0.6759 -0.4483
  200DPPC   C13 9963   2.318   7.196   4.972  0.1227 -0.1004 -0.0942
  200DPPC   O14 9964   2.400   7.243   4.863  0.4109 -0.3464  0.0139
  200DPPC   C15 9965   2.535   7.227   4.864  0.4603  0.0630  0.1790
  200DPPC   O16 9966   2.605   7.221   4.965  0.7967 -0.1232 -0.0638
  200DPPC   C17 9967   2.586   7.252   4.722 -0.6500  0.2550 -0.1974
  200DPPC   C18 9968   2.682   7.140   4.681 -0.0330  0.5974  0.2948
  200DPPC   C19 9969   2.731   7.179   4.541 -0.1814  0.1339  0.1116
  200DPPC   C20 9970   2.840   7.083   4.494 -0.4465 -0.1716  0.1193
  200DPPC   C21 9971   2.891   7.104   4.352 -0.6455 -0.2290  0.0399
  200DPPC   C22 9972   2.785   7.091   4.241 -0.2524  0.4574 -0.4256
  200DPPC   C23 9973   2.860   7.097   4.108  0.2577  0.3773 -0.1477
  200DPPC   C24 9974   2.775   7.094   3.980 -0.0856 -0.0291  0.0866
  200DPPC   C25 9975   2.851   7.107   3.849 -0.2491  0.4308  0.0324
  200DPPC   C26 9976   2.926   7.239   3.831 -0.3232  0.4812  0.0999
  200DPPC   C27 9977   3.001   7.249   3.697 -0.0368  0.0143  0.2198
  200DPPC   C28 9978   3.100   7.365   3.690 -0.1479  0.0800 -0.3033
  200DPPC   C29 9979   3.167   7.366   3.553 -0.0081  0.0690 -0.2355
  200DPPC   C30 9980   3.248   7.237   3.535  0.0760  0.0862  0.0204
  200DPPC   C31 9981   3.346   7.226   3.418  0.2445 -0.1774  0.1875
  200DPPC   C32 9982   2.166   7.184   4.964  0.1092  0.1937 -0.2854
  200DPPC   O33 9983   2.118   7.103   4.857 -0.0010 -0.3233  0.1505
  200DPPC   C34 9984   1.983   7.091   4.865 -0.0687  0.0317 -0.3799
  200DPPC   O35 9985   1.916   7.107   4.967 -0.1776 -0.3434 -0.3928
  200DPPC   C36 9986   1.928   7.018   4.742 -0.3289  0.2565 -0.4000
  200DPPC   C37 9987   1.888   7.103   4.622 -0.2197  0.5008 -0.2649
  200DPPC   C38 9988   1.851   7.013   4.503 -0.2424 -0.4450  0.4481
  200DPPC   C39 9989   1.979   6.959   4.439  0.0195  0.2368  0.3806
  200DPPC   C40 9990   1.960   6.847   4.336 -0.1877  0.3849  0.2563
  200DPPC   C41 9991   2.088   6.797   4.269 -0.4264  0.8552 -0.5617
  200DPPC   C42 9992   2.043   6.690   4.170  0.2269  0.0266  0.0210
  200DPPC   C43 9993   1.924   6.744   4.090  0.0600 -0.1778  0.1301
  200DPPC   C44 9994   1.852   6.633   4.014  0.1389 -0.1256 -0.0201
  200DPPC   C45 9995   1.704   6.668   3.993  0.0456 -0.6463 -0.2359
  200DPPC   C46 9996   1.675   6.803   3.927 -0.4001 -0.7069 -0.1628
  200DPPC   C47 9997   1.531   6.816   3.876 -0.2920  0.0927 -0.2749
  200DPPC   C48 9998   1.500   6.963   3.850  0.3829  0.3131  0.1253
  200DPPC   C49 9999   1.358   6.999   3.805  0.4091  0.3800  0.0965
  200DPPC   C5010000   1.339   7.150   3.787  0.0992  0.3970  0.5486
  201DPPC    C110001   7.794   1.518   5.700 -0.1884 -0.9180 -0.0224
  201DPPC    C210002   7.804   1.585   5.933 -0.4872  0.3234 -0.5104
  201DPPC    C310003   7.828   1.361   5.879  0.2979  0.1221  0.1013
  201DPPC    N410004   7.859   1.496   5.830  0.1444  0.1182 -0.0060
  201DPPC    C510005   8.005   1.508   5.843  0.1061  0.0258  0.5297
  201DPPC    C610006   8.079   1.619   5.767 -0.1065 -0.1551  0.0534
  201DPPC    O710007   8.034   1.743   5.823 -0.6925 -0.3807  0.0946
  201DPPC    P810008   8.087   1.866   5.734 -0.4305 -0.4372  0.1702
  201DPPC    O910009   8.229   1.833   5.707 -0.1064  0.6144  0.5408
  201DPPC   O1010010   8.053   2.003   5.778  0.3441 -0.2844  0.3070
  201DPPC   O1110011   8.000   1.831   5.603 -0.3855  0.1574 -0.0211
  201DPPC   C1210012   8.070   1.890   5.493 -0.0416 -0.2191 -0.0082
  201DPPC   C1310013   7.995   1.917   5.362  0.0356 -0.1898 -0.0467
  201DPPC   O1410014   7.896   2.021   5.359  0.0212 -0.2111 -0.3778
  201DPPC   C1510015   7.935   2.151   5.372 -0.5630 -0.0677 -0.0228
  201DPPC   O1610016   8.027   2.180   5.447 -0.4939 -0.5307  0.0743
  201DPPC   C1710017   7.843   2.251   5.302 -1.1786 -0.2471  0.5110
  201DPPC   C1810018   7.865   2.250   5.150  0.3579  0.4973  0.7135
  201DPPC   C1910019   7.783   2.362   5.085 -0.1926 -0.0968  0.3764
  201DPPC   C2010020   7.635   2.326   5.100 -0.1782 -0.2997  0.0345
  201DPPC   C2110021   7.545   2.432   5.036 -0.0734 -0.6085 -0.6303
  201DPPC   C2210022   7.401   2.386   5.015 -0.3126 -0.3338  0.3870
  201DPPC   C2310023   7.320   2.498   4.951 -0.2515 -0.3712  0.2443
  201DPPC   C2410024   7.358   2.512   4.803 -0.8475  0.0851  0.1314
  201DPPC   C2510025   7.266   2.615   4.737 -0.4274  0.5065  0.1985
  201DPPC   C2610026   7.289   2.616   4.586 -1.0502 -0.9155  0.0818
  201DPPC   C2710027   7.173   2.679   4.508 -0.5145 -0.4420 -0.3394
  201DPPC   C2810028   7.176   2.639   4.360  0.4365 -0.4431 -0.3259
  201DPPC   C2910029   7.050   2.660   4.276  0.1456 -0.4234  0.1100
  201DPPC   C3010030   7.058   2.603   4.134  0.1140  0.2273 -0.1568
  201DPPC   C3110031   6.941   2.506   4.117  0.1655  0.2572 -0.6948
  201DPPC   C3210032   7.941   1.777   5.330 -0.0693 -0.0266 -0.5899
  201DPPC   O3310033   8.051   1.688   5.311  0.2311  0.2488 -0.1419
  201DPPC   C3410034   8.017   1.559   5.334  0.0422  0.3272  0.0165
  201DPPC   O3510035   7.903   1.532   5.373 -0.2123  0.3047 -0.7342
  201DPPC   C3610036   8.125   1.455   5.305  0.6551  0.8953  0.2254
  201DPPC   C3710037   8.181   1.471   5.163  0.1653 -0.3049 -0.1216
  201DPPC   C3810038   8.261   1.350   5.115  0.3292 -0.1091 -0.3473
  201DPPC   C3910039   8.320   1.371   4.975  0.1671  0.0702 -0.3897
  201DPPC   C4010040   8.209   1.420   4.883 -0.1383  0.4025  0.1458
  201DPPC   C4110041   8.260   1.469   4.747  0.1636  0.3707  0.2464
  201DPPC   C4210042   8.146   1.554   4.689 -0.2083 -0.1425  0.2215
  201DPPC   C4310043   8.169   1.627   4.557  0.4648  0.0558  0.4462
  201DPPC   C4410044   8.037   1.689   4.511  0.2228 -0.3357  0.6058
  201DPPC   C4510045   7.919   1.594   4.488  0.3118 -0.3350  0.1248
  201DPPC   C4610046   7.796   1.672   4.442  0.5217  0.0423  0.1959
  201DPPC   C4710047   7.670   1.585   4.439  0.5233  0.0097  0.8074
  201DPPC   C4810048   7.553   1.680   4.412  0.6900 -0.1379 -0.4888
  201DPPC   C4910049   7.424   1.616   4.463  0.5878  0.3103 -0.1775
  201DPPC   C5010050   7.435   1.584   4.612 -0.0671 -0.6766 -0.3335
  202DPPC    C110051   0.670   2.612   5.615  0.1248  0.1958 -0.0819
  202DPPC    C210052   0.885   2.626   5.714 -0.2641  0.5417  0.1048
  202DPPC    C310053   0.683   2.697   5.817  0.0678  0.4930 -0.0550
  202DPPC    N410054   0.745   2.589   5.739 -0.1812  0.2274  0.1101
  202DPPC    C510055   0.723   2.459   5.804 -0.4386  0.5115  0.5903
  202DPPC    C610056   0.702   2.331   5.723 -0.4212  0.7361  0.2310
  202DPPC    O710057   0.574   2.324   5.660 -0.1290 -0.3298 -0.2694
  202DPPC    P810058   0.545   2.185   5.585  0.0961 -0.4521 -0.1285
  202DPPC    O910059   0.401   2.153   5.591  0.1302 -0.5631  0.1241
  202DPPC   O1010060   0.658   2.105   5.638  0.6925  0.4017 -0.0885
  202DPPC   O1110061   0.590   2.243   5.441  0.6112 -0.1424  0.1556
  202DPPC   C1210062   0.489   2.311   5.366  0.6136 -0.2518  0.0540
  202DPPC   C1310063   0.548   2.416   5.272  0.2784 -0.0749  0.0391
  202DPPC   O1410064   0.447   2.458   5.180  0.5034 -0.0223 -0.1861
  202DPPC   C1510065   0.443   2.585   5.132  0.3099 -0.0177 -0.1585
  202DPPC   O1610066   0.435   2.678   5.213  0.3904  0.1063 -0.2925
  202DPPC   C1710067   0.388   2.604   4.991  0.2592  0.1276 -0.1194
  202DPPC   C1810068   0.351   2.743   4.938 -0.6687 -0.0549  0.0383
  202DPPC   C1910069   0.325   2.737   4.787 -0.1497 -0.7637 -0.0271
  202DPPC   C2010070   0.266   2.876   4.763  0.4548 -0.5062 -0.0515
  202DPPC   C2110071   0.209   2.901   4.623 -0.1370 -0.1300  0.2508
  202DPPC   C2210072   0.319   2.900   4.516 -0.1417  0.6711  0.2323
  202DPPC   C2310073   0.253   2.940   4.384 -0.2233 -0.0638  0.0428
  202DPPC   C2410074   0.348   2.899   4.272 -0.0390  0.5581 -0.0342
  202DPPC   C2510075   0.288   2.908   4.131 -0.1330 -0.3443 -0.0610
  202DPPC   C2610076   0.384   2.843   4.032  0.2732  0.5375 -0.2619
  202DPPC   C2710077   0.341   2.862   3.886 -0.1812  0.4635 -0.1411
  202DPPC   C2810078   0.454   2.809   3.798 -0.4463 -0.0974 -0.1519
  202DPPC   C2910079   0.431   2.834   3.648  0.1032  0.4904 -0.1473
  202DPPC   C3010080   0.556   2.813   3.563  0.2515  0.2821  0.1202
  202DPPC   C3110081   0.550   2.882   3.427  0.6930  0.2595  0.0859
  202DPPC   C3210082   0.661   2.332   5.212  0.7915 -0.0191  0.9021
  202DPPC   O3310083   0.716   2.363   5.083 -0.2866 -1.2380  0.1280
  202DPPC   C3410084   0.803   2.274   5.029  0.0003 -0.7303 -0.2595
  202DPPC   O3510085   0.820   2.168   5.088  0.6472 -0.2555  0.4260
  202DPPC   C3610086   0.834   2.291   4.880 -0.3191 -0.7459 -0.3295
  202DPPC   C3710087   0.784   2.427   4.833 -0.1598 -0.5038  0.1994
  202DPPC   C3810088   0.778   2.443   4.681  0.6145 -0.1963  0.1968
  202DPPC   C3910089   0.768   2.595   4.669  0.4001 -0.2428 -0.2055
  202DPPC   C4010090   0.723   2.645   4.531 -0.2598 -0.0225  0.0860
  202DPPC   C4110091   0.694   2.796   4.534  0.2795  0.0908 -0.2143
  202DPPC   C4210092   0.684   2.839   4.388  0.4559  0.5462 -0.0943
  202DPPC   C4310093   0.811   2.800   4.313  0.0791 -0.3116 -0.3019
  202DPPC   C4410094   0.786   2.800   4.162  0.0177  0.7170 -0.2961
  202DPPC   C4510095   0.907   2.766   4.074 -0.2054 -0.4880 -0.1519
  202DPPC   C4610096   0.862   2.751   3.929  0.0042 -0.0519 -0.2632
  202DPPC   C4710097   0.987   2.758   3.840  0.2073  0.7243  0.0761
  202DPPC   C4810098   0.942   2.729   3.696 -0.0123 -0.5309  0.3823
  202DPPC   C4910099   1.045   2.740   3.583 -0.1774  0.5891  0.3264
  202DPPC   C5010100   0.978   2.688   3.455 -0.0584  0.2732  0.3935
  203DPPC    C110101   1.937   7.637   4.409 -0.2091  0.1376 -0.4120
  203DPPC    C210102   1.726   7.582   4.304  0.1564 -0.1076 -0.3796
  203DPPC    C310103   1.843   7.424   4.443  0.5468  0.0830 -0.4464
  203DPPC    N410104   1.809   7.566   4.424 -0.0896 -0.0316 -0.1974
  203DPPC    C510105   1.734   7.616   4.540  0.1651 -0.2471  0.0619
  203DPPC    C610106   1.758   7.578   4.686 -0.3053  0.5170  0.3457
  203DPPC    O710107   1.880   7.631   4.739 -0.1310  0.0216  0.4475
  203DPPC    P810108   1.949   7.516   4.828  0.0913  0.0395  0.3013
  203DPPC    O910109   1.856   7.405   4.859  0.0765 -0.1544 -0.4249
  203DPPC   O1010110   2.035   7.589   4.924 -0.1329  0.2931  0.3095
  203DPPC   O1110111   2.045   7.446   4.720 -0.0447  0.2778  0.0241
  203DPPC   C1210112   2.184   7.477   4.733 -0.0435  0.1816  0.2411
  203DPPC   C1310113   2.244   7.430   4.600  0.2083  0.0599  0.3970
  203DPPC   O1410114   2.233   7.527   4.495  0.3173  0.1256  0.4456
  203DPPC   C1510115   2.340   7.604   4.462  0.3852 -0.0711  0.2047
  203DPPC   O1610116   2.381   7.670   4.557 -0.0358 -0.3540  0.5869
  203DPPC   C1710117   2.349   7.646   4.315  0.6065  0.3227  0.3300
  203DPPC   C1810118   2.489   7.636   4.254  0.3058 -0.1320 -0.2914
  203DPPC   C1910119   2.485   7.636   4.101  0.2945 -0.1183 -0.2913
  203DPPC   C2010120   2.619   7.644   4.028  0.3849  0.1370 -0.0997
  203DPPC   C2110121   2.726   7.545   4.074  0.2853  0.1240  0.1056
  203DPPC   C2210122   2.853   7.555   3.989  0.0750  0.2444 -0.1967
  203DPPC   C2310123   2.876   7.700   3.948  0.2411  0.5533  0.9590
  203DPPC   C2410124   3.001   7.724   3.862 -0.0660 -0.4311  0.2252
  203DPPC   C2510125   3.022   7.873   3.838  0.5008 -0.4304  0.7032
  203DPPC   C2610126   3.126   7.897   3.727 -0.0561  0.3245  0.3323
  203DPPC   C2710127   3.161   8.042   3.696 -0.0402  0.2371 -0.0617
  203DPPC   C2810128   3.206   8.109   3.826 -0.6540  0.1250  0.2116
  203DPPC   C2910129   3.262   8.249   3.805  0.5011 -0.2474  0.7324
  203DPPC   C3010130   3.272   8.308   3.946  0.6422 -0.0447  0.6390
  203DPPC   C3110131   3.371   8.425   3.940  0.0669  0.4275  0.2979
  203DPPC   C3210132   2.209   7.284   4.572 -0.2292  0.1937  0.2420
  203DPPC   O3310133   2.265   7.225   4.454 -0.0274  0.1878  0.3409
  203DPPC   C3410134   2.218   7.266   4.334  0.0171 -0.3525  0.1378
  203DPPC   O3510135   2.113   7.330   4.327 -0.2750 -0.7729  0.5781
  203DPPC   C3610136   2.313   7.260   4.214 -0.0952  0.8489 -0.0279
  203DPPC   C3710137   2.275   7.147   4.117  0.6244 -0.0715  0.7390
  203DPPC   C3810138   2.385   7.139   4.010  0.0407  0.3088  0.1033
  203DPPC   C3910139   2.373   7.009   3.930 -0.3064 -0.0564  0.7370
  203DPPC   C4010140   2.265   7.023   3.822  0.5027 -0.0429 -0.0807
  203DPPC   C4110141   2.213   6.885   3.784  0.0049  0.2057 -0.3047
  203DPPC   C4210142   2.082   6.892   3.705 -0.1241  0.4546 -0.0685
  203DPPC   C4310143   2.021   6.754   3.677  0.6848  0.1966 -0.5707
  203DPPC   C4410144   1.894   6.779   3.597  0.0390 -0.4194  0.2457
  203DPPC   C4510145   1.821   6.657   3.540 -0.2037 -0.0655 -0.2109
  203DPPC   C4610146   1.691   6.706   3.477 -0.1221  0.1865 -0.1816
  203DPPC   C4710147   1.584   6.598   3.495  0.1869 -0.0696  0.1381
  203DPPC   C4810148   1.457   6.648   3.426 -0.0902 -0.6363  0.2352
  203DPPC   C4910149   1.381   6.752   3.508  0.2504  0.0293 -0.2856
  203DPPC   C5010150   1.246   6.797   3.450  0.1733  0.2151  0.0320
  204DPPC    C110151   9.424   7.704   4.655  0.0743  0.1413  0.3684
  204DPPC    C210152   9.614   7.682   4.506 -0.3152  0.1232 -0.6124
  204DPPC    C310153   9.627   7.608   4.728 -0.1564 -0.0527  0.0719
  204DPPC    N410154   9.536   7.618   4.613  0.1211  0.4287 -0.1079
  204DPPC    C510155   9.499   7.485   4.563  0.1707  0.1987  0.4584
  204DPPC    C610156   9.379   7.422   4.634  0.2532 -0.2808  0.1792
  204DPPC    O710157   9.328   7.310   4.562 -0.0779  0.0478 -0.1028
  204DPPC    P810158   9.236   7.241   4.674  0.2382 -0.6049 -0.2404
  204DPPC    O910159   9.197   7.337   4.779 -0.0566 -0.2652 -0.6569
  204DPPC   O1010160   9.302   7.111   4.703 -0.0828 -0.5560  0.7435
  204DPPC   O1110161   9.112   7.224   4.572  0.3882  0.1091 -0.5481
  204DPPC   C1210162   9.129   7.096   4.509  0.5497  0.1150 -0.5163
  204DPPC   C1310163   9.007   7.051   4.429  0.1369 -0.1068  0.2293
  204DPPC   O1410164   8.994   6.914   4.387 -0.1321  0.0061 -0.0573
  204DPPC   C1510165   8.966   6.818   4.479  0.3090  0.0662  0.1453
  204DPPC   O1610166   8.947   6.848   4.597  0.3488  0.4675  0.0525
  204DPPC   C1710167   8.952   6.676   4.423  0.1841  0.0424  0.2358
  204DPPC   C1810168   8.814   6.634   4.374  0.3316 -0.0881 -0.0701
  204DPPC   C1910169   8.815   6.496   4.308  0.0036  0.1385 -0.5598
  204DPPC   C2010170   8.907   6.495   4.186  0.2623  0.1340 -0.3674
  204DPPC   C2110171   8.869   6.374   4.099  0.2057 -0.0429 -0.0981
  204DPPC   C2210172   8.930   6.408   3.963 -0.5247  0.0805 -0.3982
  204DPPC   C2310173   8.834   6.371   3.849 -0.2160 -0.4160 -0.4977
  204DPPC   C2410174   8.902   6.424   3.722 -0.3656 -0.4589 -0.5954
  204DPPC   C2510175   9.036   6.352   3.707 -0.0504  0.0109 -0.0499
  204DPPC   C2610176   9.103   6.398   3.578 -0.1118  0.3524  0.0380
  204DPPC   C2710177   9.002   6.412   3.463  0.2666 -0.5312 -0.4152
  204DPPC   C2810178   9.062   6.475   3.337  0.6047  0.5158  0.2614
  204DPPC   C2910179   8.944   6.540   3.264  0.5290 -0.0489 -0.1209
  204DPPC   C3010180   8.880   6.444   3.163 -0.3456  0.8567 -0.4388
  204DPPC   C3110181   8.770   6.516   3.085 -0.2999  0.6733 -0.6703
  204DPPC   C3210182   8.982   7.160   4.326  0.5789 -0.2599 -0.0456
  204DPPC   O3310183   9.087   7.194   4.235  0.2578  0.3323 -0.2078
  204DPPC   C3410184   9.050   7.286   4.143 -0.4257  0.0784 -0.1930
  204DPPC   O3510185   8.939   7.338   4.137 -0.1806  0.5930 -0.3575
  204DPPC   C3610186   9.165   7.325   4.049 -0.3686  0.0659 -0.1284
  204DPPC   C3710187   9.120   7.369   3.909 -0.1563  0.2862 -0.1270
  204DPPC   C3810188   9.236   7.386   3.811 -0.1105  0.1161 -0.1030
  204DPPC   C3910189   9.289   7.246   3.778 -0.3012  0.2050 -0.8085
  204DPPC   C4010190   9.177   7.173   3.704 -0.6149 -0.2078  0.0548
  204DPPC   C4110191   9.236   7.044   3.648  0.2245 -0.1385  0.7617
  204DPPC   C4210192   9.134   6.969   3.561  0.4050  0.1148  0.3299
  204DPPC   C4310193   9.212   6.855   3.495  0.0465 -0.1379  0.3428
  204DPPC   C4410194   9.330   6.903   3.411  0.2855 -0.1504  0.6686
  204DPPC   C4510195   9.416   6.786   3.363  0.1718  0.0423 -0.0095
  204DPPC   C4610196   9.459   6.693   3.476 -0.8001 -0.1738  0.1912
  204DPPC   C4710197   9.538   6.580   3.412 -0.1975  0.5306 -0.3292
  204DPPC   C4810198   9.456   6.534   3.291 -0.0214  0.5105 -0.4419
  204DPPC   C4910199   9.529   6.433   3.203 -0.4712 -0.2335  0.0235
  204DPPC   C5010200   9.602   6.323   3.281 -0.2140 -0.6207 -0.7514
  205DPPC    C110201   2.161   8.139   5.560  0.1497  0.2354  0.2090
  205DPPC    C210202   2.381   8.035   5.554  0.5055  0.6433  0.1492
  205DPPC    C310203   2.197   7.927   5.468 -0.0379  0.3214 -0.0109
  205DPPC    N410204   2.257   8.061   5.480  0.2500  0.1564  0.4068
  205DPPC    C510205   2.279   8.135   5.355  0.4497 -0.2219  0.2159
  205DPPC    C610206   2.167   8.138   5.250  0.5429  0.2473  0.1268
  205DPPC    O710207   2.058   8.223   5.287  0.1510 -0.0858 -0.2617
  205DPPC    P810208   1.920   8.168   5.224  0.0364 -0.4530  0.3000
  205DPPC    O910209   1.806   8.248   5.274 -0.3597 -0.4650 -0.5759
  205DPPC   O1010210   1.923   8.022   5.249 -0.2174 -0.5726 -0.3501
  205DPPC   O1110211   1.953   8.198   5.069 -0.1037  0.1459  0.3826
  205DPPC   C1210212   1.893   8.324   5.040 -0.4581 -0.1102 -0.0203
  205DPPC   C1310213   1.976   8.452   5.052 -0.1843 -0.3077  0.2145
  205DPPC   O1410214   1.894   8.565   5.020  0.1053 -0.1514  0.0200
  205DPPC   C1510215   1.937   8.690   5.052 -0.0523 -0.0213 -0.2685
  205DPPC   O1610216   2.017   8.703   5.144  0.1960 -0.0512 -0.4793
  205DPPC   C1710217   1.841   8.798   5.002 -0.2566 -0.1434 -0.1408
  205DPPC   C1810218   1.850   8.814   4.850  0.0238 -0.6047 -0.1733
  205DPPC   C1910219   1.781   8.948   4.826  0.1969 -0.5092 -0.1377
  205DPPC   C2010220   1.751   8.976   4.679 -0.0746  0.2925  0.0611
  205DPPC   C2110221   1.648   8.871   4.634 -0.3440  0.7900 -0.4995
  205DPPC   C2210222   1.609   8.879   4.487 -0.0507 -0.4571 -0.6515
  205DPPC   C2310223   1.501   8.772   4.467 -0.7882  0.0255  0.6090
  205DPPC   C2410224   1.367   8.823   4.414 -0.4730  0.0478 -0.1780
  205DPPC   C2510225   1.385   8.894   4.280 -0.0493 -0.2536 -0.2842
  205DPPC   C2610226   1.259   8.951   4.214  0.0697 -0.0413 -0.3274
  205DPPC   C2710227   1.295   8.994   4.071  0.5936  0.5711 -0.0191
  205DPPC   C2810228   1.166   9.059   4.020  0.0588 -0.4864 -0.0350
  205DPPC   C2910229   1.206   9.114   3.883 -0.2974  0.4543  0.2363
  205DPPC   C3010230   1.090   9.159   3.793 -0.0530 -0.0270 -0.3233
  205DPPC   C3110231   1.144   9.227   3.667  0.3553  0.1420 -0.0590
  205DPPC   C3210232   2.102   8.442   4.965 -0.3182  0.1763 -0.0379
  205DPPC   O3310233   2.084   8.426   4.824  0.6054 -0.4438 -0.0922
  205DPPC   C3410234   2.164   8.498   4.742 -0.1902  0.1388 -0.3690
  205DPPC   O3510235   2.241   8.587   4.776  0.1796 -0.4606  0.3861
  205DPPC   C3610236   2.160   8.467   4.592 -0.0384  0.3382 -0.4147
  205DPPC   C3710237   2.249   8.351   4.547  0.0868  0.3821 -0.2807
  205DPPC   C3810238   2.229   8.333   4.396 -1.2745 -0.2606 -0.0427
  205DPPC   C3910239   2.306   8.211   4.348 -0.6312  0.1574 -0.0877
  205DPPC   C4010240   2.290   8.196   4.196  0.3541 -0.2759 -0.1600
  205DPPC   C4110241   2.345   8.065   4.139 -0.1124 -0.5159 -0.0701
  205DPPC   C4210242   2.323   8.077   3.988 -0.9715  0.1000  0.1013
  205DPPC   C4310243   2.346   7.942   3.920 -0.0716  0.3141 -0.0269
  205DPPC   C4410244   2.381   7.986   3.778  0.3820  0.1134  0.0218
  205DPPC   C4510245   2.424   7.875   3.683  0.0124 -0.1273  0.1361
  205DPPC   C4610246   2.452   7.927   3.542 -0.4989 -0.6011 -0.1435
  205DPPC   C4710247   2.527   7.829   3.451  0.3293 -0.2114  0.1074
  205DPPC   C4810248   2.648   7.778   3.530  0.5106 -0.1316 -0.1196
  205DPPC   C4910249   2.744   7.698   3.441  0.1640 -0.3040 -0.3412
  205DPPC   C5010250   2.861   7.636   3.517  0.1455  0.1191  0.0388
  206DPPC    C110251   2.005   5.384   4.908  0.2379  0.2725  0.3091
  206DPPC    C210252   1.932   5.213   4.761  0.4029  0.6442 -0.0160
  206DPPC    C310253   2.045   5.147   4.966  0.4229 -0.1889 -0.9562
  206DPPC    N410254   1.956   5.245   4.903  0.1966  0.2945  0.0988
  206DPPC    C510255   1.841   5.214   4.989  0.2672  0.0265  0.0965
  206DPPC    C610256   1.718   5.305   4.981  0.1711 -0.1088  0.0279
  206DPPC    O710257   1.650   5.314   4.856  0.1046  0.3599  0.0978
  206DPPC    P810258   1.505   5.383   4.866 -0.1352 -0.1243 -0.0327
  206DPPC    O910259   1.523   5.459   4.991 -0.4019 -0.1310  0.0094
  206DPPC   O1010260   1.387   5.293   4.858 -0.0670 -0.2260  0.0953
  206DPPC   O1110261   1.518   5.487   4.744  0.0369 -0.3223 -0.1837
  206DPPC   C1210262   1.474   5.416   4.627  0.0841 -0.2989 -0.2161
  206DPPC   C1310263   1.496   5.491   4.496  0.2659  0.0043 -0.0152
  206DPPC   O1410264   1.428   5.434   4.383  0.1016  0.1034  0.0333
  206DPPC   C1510265   1.292   5.444   4.374  0.1302  0.2187 -0.2904
  206DPPC   O1610266   1.224   5.508   4.453 -0.2044 -0.0704 -0.3422
  206DPPC   C1710267   1.224   5.368   4.260 -0.3858 -0.2520  0.3247
  206DPPC   C1810268   1.176   5.456   4.145  1.1637 -0.0597 -0.1969
  206DPPC   C1910269   1.148   5.354   4.034 -0.0831  0.6710 -0.5783
  206DPPC   C2010270   1.110   5.430   3.906 -0.4978  0.5841 -0.5085
  206DPPC   C2110271   1.083   5.333   3.791  0.2497  0.2030 -0.3741
  206DPPC   C2210272   1.048   5.422   3.671  0.4479  0.5474 -0.1766
  206DPPC   C2310273   1.014   5.345   3.544 -0.2810  0.2763  0.1814
  206DPPC   C2410274   0.988   5.441   3.428 -0.0084  0.0241 -0.0886
  206DPPC   C2510275   1.115   5.524   3.405 -0.1602  0.1777 -0.3817
  206DPPC   C2610276   1.100   5.631   3.297 -0.0107  0.4603 -0.1278
  206DPPC   C2710277   1.222   5.714   3.259  0.1219  0.2652 -0.1280
  206DPPC   C2810278   1.255   5.832   3.350 -0.0187  0.0681  0.1806
  206DPPC   C2910279   1.391   5.896   3.319 -0.2620  0.4530 -0.1057
  206DPPC   C3010280   1.440   5.986   3.433 -1.0922  0.3365  0.3556
  206DPPC   C3110281   1.483   5.905   3.555 -0.1437  0.4528  0.1088
  206DPPC   C3210282   1.648   5.475   4.486  0.2821 -0.0881  0.3909
  206DPPC   O3310283   1.696   5.356   4.422 -0.2098 -0.0588 -0.0405
  206DPPC   C3410284   1.832   5.348   4.419 -0.1701  0.3282  0.5604
  206DPPC   O3510285   1.910   5.408   4.494 -0.3270  1.0512  0.1566
  206DPPC   C3610286   1.883   5.221   4.352 -0.1141  0.5077  0.2602
  206DPPC   C3710287   1.931   5.254   4.211 -1.0032  0.2339 -0.1143
  206DPPC   C3810288   1.984   5.126   4.146  0.7516  0.8655  0.0142
  206DPPC   C3910289   2.083   5.056   4.239  0.0947  0.1449  0.1837
  206DPPC   C4010290   2.114   4.935   4.150 -0.7481 -0.0792  0.1872
  206DPPC   C4110291   2.217   4.837   4.207 -0.4996 -0.0559 -0.2181
  206DPPC   C4210292   2.243   4.740   4.091  0.2757  0.1184 -0.1927
  206DPPC   C4310293   2.311   4.811   3.974  0.4603 -0.1228 -0.2308
  206DPPC   C4410294   2.452   4.858   4.011  0.2322 -0.0616  0.5573
  206DPPC   C4510295   2.546   4.878   3.893  0.0698 -0.3507  0.3778
  206DPPC   C4610296   2.692   4.912   3.926 -0.1372  0.8631  0.1225
  206DPPC   C4710297   2.786   4.907   3.806  0.2782 -0.0446  0.4700
  206DPPC   C4810298   2.923   4.960   3.847  0.2809  0.3743 -0.0593
  206DPPC   C4910299   3.014   4.973   3.725  0.0213 -0.0119 -0.2935
  206DPPC   C5010300   3.159   4.993   3.770  0.0963  0.2325 -0.6411
  207DPPC    C110301   6.483   0.328   6.009 -1.1943  0.3492 -0.1961
  207DPPC    C210302   6.690   0.350   5.900  0.1394  0.5833  0.2313
  207DPPC    C310303   6.520   0.223   5.796  0.7788 -0.0875  0.5824
  207DPPC    N410304   6.545   0.343   5.877  0.1311  0.1820  0.3874
  207DPPC    C510305   6.486   0.454   5.800 -0.3236 -0.2805  0.0587
  207DPPC    C610306   6.532   0.599   5.823  0.4620 -0.4642 -0.3312
  207DPPC    O710307   6.450   0.688   5.746 -0.1009 -0.1688  0.5948
  207DPPC    P810308   6.510   0.837   5.756 -0.2036 -0.0825 -0.0473
  207DPPC    O910309   6.528   0.869   5.899  0.0103 -1.0864  0.1552
  207DPPC   O1010310   6.427   0.926   5.672 -0.1166 -0.2509 -0.3111
  207DPPC   O1110311   6.644   0.792   5.679  0.3294  0.5610  0.4870
  207DPPC   C1210312   6.674   0.853   5.553  0.2264  0.1155  0.2442
  207DPPC   C1310313   6.816   0.900   5.520  0.3311 -0.4986 -0.1991
  207DPPC   O1410314   6.829   1.013   5.433  0.2252 -0.0356  0.3765
  207DPPC   C1510315   6.946   1.083   5.432  0.2507 -0.0793  0.2523
  207DPPC   O1610316   7.024   1.066   5.525 -0.5230 -0.1570  0.9002
  207DPPC   C1710317   6.974   1.174   5.312 -0.3247 -0.0243  0.1525
  207DPPC   C1810318   6.914   1.313   5.332 -0.7766 -0.2130  0.1063
  207DPPC   C1910319   6.912   1.402   5.207 -0.2554 -0.1060  0.1753
  207DPPC   C2010320   6.830   1.349   5.090 -0.3525  0.2149  0.0955
  207DPPC   C2110321   6.827   1.440   4.967 -0.3037  0.2569  0.1249
  207DPPC   C2210322   6.955   1.419   4.886 -0.3177 -0.2802  0.2368
  207DPPC   C2310323   6.928   1.514   4.769 -0.0256  0.0188  0.4124
  207DPPC   C2410324   7.029   1.490   4.657 -0.2224 -0.5671  0.3552
  207DPPC   C2510325   6.980   1.566   4.533 -0.1757 -0.5711  0.3339
  207DPPC   C2610326   7.090   1.554   4.427 -0.4771  0.3074 -0.0893
  207DPPC   C2710327   7.054   1.597   4.285  0.8222 -0.0492 -0.5385
  207DPPC   C2810328   7.010   1.744   4.277  0.9462  0.0062 -0.2211
  207DPPC   C2910329   6.937   1.763   4.144  0.2767  0.1968  0.1742
  207DPPC   C3010330   6.972   1.905   4.097 -0.0406  0.2359  0.0524
  207DPPC   C3110331   6.922   1.934   3.956  0.4399 -0.0620 -0.1821
  207DPPC   C3210332   6.882   0.774   5.464  0.2796 -0.7414  0.2827
  207DPPC   O3310333   6.807   0.708   5.362 -0.1603 -0.3825  0.3748
  207DPPC   C3410334   6.878   0.612   5.297  0.0983  0.2673 -0.3292
  207DPPC   O3510335   6.989   0.573   5.331 -0.4010 -0.2897  0.7314
  207DPPC   C3610336   6.801   0.543   5.184  0.5012 -0.3368 -0.2379
  207DPPC   C3710337   6.685   0.623   5.125  0.4741 -0.0279  0.2304
  207DPPC   C3810338   6.607   0.548   5.017  0.0999  0.4621  0.1560
  207DPPC   C3910339   6.514   0.637   4.935 -0.2792  0.0134  0.0965
  207DPPC   C4010340   6.472   0.554   4.813 -0.4475  0.0143  0.1527
  207DPPC   C4110341   6.382   0.440   4.861 -0.4565 -0.0878 -0.1079
  207DPPC   C4210342   6.340   0.352   4.743  0.3366 -0.0743 -0.4060
  207DPPC   C4310343   6.296   0.210   4.776  0.0752  0.0360 -0.2827
  207DPPC   C4410344   6.287   0.122   4.651  0.0637 -0.5090  0.0953
  207DPPC   C4510345   6.419   0.125   4.572  0.3125 -0.9130  0.4932
  207DPPC   C4610346   6.385   0.062   4.437  0.2061  0.1379  0.0254
  207DPPC   C4710347   6.503   0.019   4.350 -0.0932 -0.4942 -0.0710
  207DPPC   C4810348   6.460  -0.019   4.208  0.4163  0.0262 -0.3680
  207DPPC   C4910349   6.590  -0.048   4.131  0.5685 -0.3829  0.0338
  207DPPC   C5010350   6.533  -0.115   4.006  0.3386 -0.2362  0.0585
  208DPPC    C110351   5.187   1.511   5.489 -0.3531 -0.5527 -0.2004
  208DPPC    C210352   5.334   1.412   5.335  0.3636  0.1712 -0.5575
  208DPPC    C310353   5.232   1.636   5.297  0.6998  0.1509 -0.3331
  208DPPC    N410354   5.292   1.541   5.391 -0.3180 -0.2508 -0.0710
  208DPPC    C510355   5.411   1.615   5.436 -0.7160  0.2491  0.1707
  208DPPC    C610356   5.499   1.557   5.547 -0.2014  0.4384 -0.1322
  208DPPC    O710357   5.636   1.594   5.528 -0.0760  0.0268 -0.0459
  208DPPC    P810358   5.744   1.555   5.640 -0.0059 -0.1994 -0.1943
  208DPPC    O910359   5.668   1.556   5.767  0.2420 -0.4728 -0.0405
  208DPPC   O1010360   5.875   1.615   5.606  0.1141 -0.3900 -0.0755
  208DPPC   O1110361   5.759   1.399   5.602 -0.3141 -0.1620 -0.4726
  208DPPC   C1210362   5.814   1.392   5.470 -0.2182 -0.2693 -0.4280
  208DPPC   C1310363   5.831   1.251   5.415 -0.0204 -0.3513 -0.1541
  208DPPC   O1410364   5.931   1.250   5.313  0.3932  0.3135  0.2361
  208DPPC   C1510365   6.040   1.170   5.330  0.2180  0.1256  0.4854
  208DPPC   O1610366   6.043   1.082   5.416 -0.3409 -0.4529 -0.0795
  208DPPC   C1710367   6.159   1.211   5.243 -0.6074 -0.2029 -0.8269
  208DPPC   C1810368   6.121   1.311   5.133 -0.2812  0.3744 -0.4247
  208DPPC   C1910369   6.247   1.388   5.092  0.1915  0.1717  0.6162
  208DPPC   C2010370   6.213   1.440   4.952 -0.2278 -0.6394  0.4145
  208DPPC   C2110371   6.316   1.533   4.888 -0.3198 -0.6784  0.2089
  208DPPC   C2210372   6.240   1.588   4.767  0.3420  0.1723  0.1722
  208DPPC   C2310373   6.163   1.712   4.814  0.0620  0.0706 -0.0182
  208DPPC   C2410374   6.102   1.783   4.693  0.2483 -0.2402 -0.2980
  208DPPC   C2510375   6.020   1.906   4.734  0.0648 -0.4719  0.0356
  208DPPC   C2610376   5.955   1.961   4.607  0.0979 -0.9664 -0.1995
  208DPPC   C2710377   5.838   1.877   4.556 -0.2063 -0.4287 -0.3973
  208DPPC   C2810378   5.800   1.938   4.421 -0.2058  0.1046 -0.1592
  208DPPC   C2910379   5.927   1.925   4.336 -0.0322  0.0527  0.1084
  208DPPC   C3010380   5.883   1.968   4.196 -0.2722 -0.1756  0.1130
  208DPPC   C3110381   5.980   1.920   4.088 -0.2415  0.1686 -0.0139
  208DPPC   C3210382   5.687   1.207   5.389 -0.4330  0.2715  0.9797
  208DPPC   O3310383   5.653   1.182   5.252  0.7094  0.2896  0.6835
  208DPPC   C3410384   5.661   1.285   5.164 -0.0136  0.0046  0.2705
  208DPPC   O3510385   5.632   1.398   5.204  0.4544 -0.0074  0.6542
  208DPPC   C3610386   5.655   1.250   5.015 -0.4201  0.2497  0.2285
  208DPPC   C3710387   5.777   1.304   4.941 -0.1306 -0.1431  0.4158
  208DPPC   C3810388   5.772   1.285   4.789  0.1703 -0.3073  0.4263
  208DPPC   C3910389   5.898   1.343   4.724 -0.3518 -0.0704 -0.3847
  208DPPC   C4010390   5.888   1.344   4.571  0.1031 -0.4682 -0.4208
  208DPPC   C4110391   5.984   1.450   4.516 -0.2064 -0.0943 -0.2511
  208DPPC   C4210392   5.982   1.425   4.365 -0.5631  0.1542 -0.2887
  208DPPC   C4310393   6.068   1.519   4.280 -0.1962  0.0996  0.0187
  208DPPC   C4410394   6.219   1.509   4.304 -0.2221 -0.3489  0.0009
  208DPPC   C4510395   6.275   1.617   4.213 -0.3840  0.2608  0.6183
  208DPPC   C4610396   6.412   1.641   4.277 -0.3987  0.2060  0.6705
  208DPPC   C4710397   6.479   1.504   4.279 -0.7319  0.0367  0.3501
  208DPPC   C4810398   6.625   1.499   4.325 -0.6716  0.1253  0.1688
  208DPPC   C4910399   6.632   1.536   4.473 -0.5931 -0.1089  0.2238
  208DPPC   C5010400   6.600   1.407   4.549 -0.1965 -0.7054 -0.6049
  209DPPC    C110401   4.744   3.865   6.007 -0.1158  0.1123  0.1246
  209DPPC    C210402   4.883   4.029   5.890 -0.7470  0.4041 -0.5013
  209DPPC    C310403   4.877   3.791   5.834 -0.0669 -0.4052 -0.1032
  209DPPC    N410404   4.800   3.909   5.878  0.1903 -0.3157  0.1088
  209DPPC    C510405   4.694   3.917   5.777  0.2358  0.1771  0.0994
  209DPPC    C610406   4.591   4.024   5.815 -0.0368  0.1494 -0.5503
  209DPPC    O710407   4.472   4.033   5.736 -0.3215  0.1160 -0.1247
  209DPPC    P810408   4.380   4.154   5.789  0.0166  0.5128 -0.4434
  209DPPC    O910409   4.431   4.181   5.926  0.4204 -0.5361 -0.3797
  209DPPC   O1010410   4.240   4.115   5.761 -0.0134  0.2704  0.0333
  209DPPC   O1110411   4.442   4.275   5.702 -0.2171  0.8316 -0.1688
  209DPPC   C1210412   4.459   4.237   5.566  0.0786  0.4467 -0.0285
  209DPPC   C1310413   4.327   4.216   5.492  0.1704 -0.0897 -0.0434
  209DPPC   O1410414   4.338   4.155   5.362  0.0844  0.6107 -0.3882
  209DPPC   C1510415   4.225   4.097   5.312  0.3617 -0.5767  0.3140
  209DPPC   O1610416   4.136   4.067   5.391 -0.6199  0.1347 -0.4970
  209DPPC   C1710417   4.236   4.033   5.174  0.2466 -0.3674  0.2073
  209DPPC   C1810418   4.099   4.001   5.115  0.0604  0.2309  0.3143
  209DPPC   C1910419   4.117   4.007   4.963  0.3488  0.6189  0.3635
  209DPPC   C2010420   4.225   3.906   4.924 -0.3308 -0.0420  0.1607
  209DPPC   C2110421   4.239   3.898   4.772 -0.1602  0.0042  0.1736
  209DPPC   C2210422   4.348   3.797   4.736 -0.6306 -0.4763  0.0811
  209DPPC   C2310423   4.381   3.779   4.588  0.2762 -0.0043  0.2178
  209DPPC   C2410424   4.503   3.687   4.589  0.5644  0.3623 -0.4670
  209DPPC   C2510425   4.498   3.551   4.658  0.6513  0.4820 -0.2235
  209DPPC   C2610426   4.623   3.462   4.658  0.1973 -0.1630  0.2666
  209DPPC   C2710427   4.669   3.425   4.516  0.1258  0.3032  0.1208
  209DPPC   C2810428   4.795   3.340   4.524 -0.2584 -0.2617  0.2860
  209DPPC   C2910429   4.837   3.305   4.381  0.0902  0.0186  0.3183
  209DPPC   C3010430   4.975   3.240   4.363  0.1112  0.2808 -0.4706
  209DPPC   C3110431   5.016   3.199   4.221 -0.4176  0.0269 -0.5524
  209DPPC   C3210432   4.245   4.344   5.504  0.0835 -0.1212 -0.2967
  209DPPC   O3310433   4.294   4.464   5.443  0.4718  0.0591  0.3609
  209DPPC   C3410434   4.237   4.585   5.470 -0.0849 -0.1081 -0.0566
  209DPPC   O3510435   4.199   4.614   5.583 -0.2147  0.2629 -0.1948
  209DPPC   C3610436   4.284   4.697   5.377 -0.3452  0.2540  0.2469
  209DPPC   C3710437   4.308   4.639   5.238 -0.2247  0.9598 -0.0333
  209DPPC   C3810438   4.391   4.734   5.152  0.5321  0.2432 -0.1111
  209DPPC   C3910439   4.401   4.675   5.011  0.1810  0.2742 -0.1492
  209DPPC   C4010440   4.523   4.725   4.933  0.1448 -0.1537 -0.4853
  209DPPC   C4110441   4.489   4.874   4.923 -0.3154 -0.2238 -0.0018
  209DPPC   C4210442   4.604   4.936   4.844  0.0675 -0.1547  0.5979
  209DPPC   C4310443   4.735   4.926   4.922  0.1957 -0.5421  0.3386
  209DPPC   C4410444   4.862   4.962   4.844  0.3689 -0.6957  0.5496
  209DPPC   C4510445   4.863   4.885   4.712  0.4417 -0.7185  0.5635
  209DPPC   C4610446   4.964   4.946   4.614 -0.5633  0.0754  0.0106
  209DPPC   C4710447   4.935   4.882   4.478 -0.7379  0.8413 -0.3226
  209DPPC   C4810448   5.011   4.940   4.359  0.1918  0.4705  0.0701
  209DPPC   C4910449   5.160   4.908   4.368  0.1425  0.0415 -0.5898
  209DPPC   C5010450   5.180   4.756   4.370 -0.3233 -0.0091  0.7621
  210DPPC    C110451   6.416   1.429   5.858  0.2573  0.1466  0.3714
  210DPPC    C210452   6.375   1.472   6.095 -0.1300 -0.0337  0.1147
  210DPPC    C310453   6.257   1.299   5.982 -0.0462 -0.5783 -0.0983
  210DPPC    N410454   6.386   1.370   5.990 -0.3286 -0.0829  0.1417
  210DPPC    C510455   6.488   1.273   6.033 -0.3027  0.1243  0.5463
  210DPPC    C610456   6.563   1.204   5.919 -0.2316  0.1895  0.5522
  210DPPC    O710457   6.677   1.279   5.876 -0.3998  0.1907  0.1070
  210DPPC    P810458   6.763   1.208   5.760 -0.5363 -0.0230  0.1350
  210DPPC    O910459   6.817   1.080   5.813 -0.6787 -0.0224  0.2830
  210DPPC   O1010460   6.839   1.325   5.710  0.5210 -0.2809  1.0936
  210DPPC   O1110461   6.643   1.181   5.656 -0.0408 -0.2060 -0.3972
  210DPPC   C1210462   6.632   1.299   5.576 -0.3516  0.0364 -0.0007
  210DPPC   C1310463   6.523   1.303   5.468 -0.0230 -0.4768 -0.3535
  210DPPC   O1410464   6.403   1.364   5.517  0.5799  0.2435  0.2677
  210DPPC   C1510465   6.398   1.496   5.483  0.1009  0.1043 -0.2246
  210DPPC   O1610466   6.503   1.559   5.488  0.1557 -0.0113  0.1446
  210DPPC   C1710467   6.266   1.574   5.491 -0.0131 -0.1300  0.2598
  210DPPC   C1810468   6.290   1.707   5.420  0.5842 -0.2725  0.1847
  210DPPC   C1910469   6.161   1.789   5.419  0.6765 -0.1271  0.1553
  210DPPC   C2010470   6.179   1.913   5.331 -0.3582 -0.2363 -0.2258
  210DPPC   C2110471   6.080   2.017   5.386  0.3710  0.2687  0.1545
  210DPPC   C2210472   6.114   2.154   5.329  0.0373  0.2277 -0.1499
  210DPPC   C2310473   6.124   2.151   5.176 -0.0261 -0.2429 -0.1456
  210DPPC   C2410474   6.168   2.284   5.114  0.1361 -0.1809  0.1019
  210DPPC   C2510475   6.170   2.261   4.963 -0.2599  0.1333  0.0450
  210DPPC   C2610476   6.239   2.369   4.880  0.5718 -0.2984  0.1584
  210DPPC   C2710477   6.237   2.341   4.729 -0.3785 -0.6926  0.2350
  210DPPC   C2810478   6.289   2.464   4.654  0.5838 -0.9984  0.3751
  210DPPC   C2910479   6.313   2.393   4.521  0.2996  0.2206 -0.3419
  210DPPC   C3010480   6.182   2.356   4.451  0.0789  0.4747 -0.0648
  210DPPC   C3110481   6.190   2.256   4.336  0.0137  0.5373 -0.1249
  210DPPC   C3210482   6.524   1.159   5.417  0.0950 -0.4708 -0.3696
  210DPPC   O3310483   6.551   1.144   5.277 -0.1119  0.6866 -0.5429
  210DPPC   C3410484   6.538   1.020   5.223  0.5141  0.2109  0.3740
  210DPPC   O3510485   6.451   0.947   5.271  0.1687  0.5000  0.1919
  210DPPC   C3610486   6.584   1.008   5.078 -0.1004  0.0075  0.1927
  210DPPC   C3710487   6.494   1.081   4.978 -0.2144  0.1590  0.4067
  210DPPC   C3810488   6.556   1.114   4.843 -0.3247  0.2417  0.3764
  210DPPC   C3910489   6.623   0.982   4.803 -0.1924  0.4473 -0.0824
  210DPPC   C4010490   6.693   0.992   4.666 -0.2671  0.0144 -0.1509
  210DPPC   C4110491   6.812   1.087   4.679  0.1134 -0.4817  0.0512
  210DPPC   C4210492   6.889   1.101   4.548  0.0128  0.1095  0.0542
  210DPPC   C4310493   6.803   1.135   4.426  0.1164  0.0896 -0.0246
  210DPPC   C4410494   6.895   1.166   4.308 -0.2315 -0.2043 -0.3734
  210DPPC   C4510495   6.926   1.035   4.235  0.6319 -0.0307 -0.3238
  210DPPC   C4610496   6.805   0.973   4.164  0.3077 -0.3800  0.5213
  210DPPC   C4710497   6.835   0.854   4.073  0.2789  0.3476 -0.4624
  210DPPC   C4810498   6.707   0.822   3.995  0.0165  0.0536  0.0831
  210DPPC   C4910499   6.671   0.936   3.899 -0.4797  0.4598  0.7414
  210DPPC   C5010500   6.547   0.903   3.815  0.5218  0.5963 -0.8295
  211DPPC    C110501   1.366   7.987   5.267 -0.0428 -0.2434 -0.0767
  211DPPC    C210502   1.503   8.184   5.260  0.0774 -0.2992  0.6223
  211DPPC    C310503   1.547   7.997   5.417 -0.4354  0.3597  0.8177
  211DPPC    N410504   1.503   8.038   5.283 -0.0757 -0.3215  0.4830
  211DPPC    C510505   1.596   7.996   5.177 -0.7572 -0.4213 -0.0790
  211DPPC    C610506   1.602   7.853   5.124  0.2892 -0.5881  0.4793
  211DPPC    O710507   1.500   7.827   5.028  0.2404  0.1222  0.3358
  211DPPC    P810508   1.522   7.692   4.944  0.0484  0.3327 -0.0574
  211DPPC    O910509   1.384   7.641   4.959 -0.0054  0.5877  0.3288
  211DPPC   O1010510   1.641   7.629   5.006  0.0869  0.0980 -0.3656
  211DPPC   O1110511   1.560   7.790   4.822  0.1478 -0.2775 -0.5277
  211DPPC   C1210512   1.440   7.844   4.766  0.2527  0.2932 -0.2155
  211DPPC   C1310513   1.467   7.947   4.656  0.0946  0.2634 -0.2829
  211DPPC   O1410514   1.485   7.894   4.524 -0.2308 -0.1035 -0.1844
  211DPPC   C1510515   1.373   7.862   4.455 -0.0311 -0.2588 -0.4411
  211DPPC   O1610516   1.266   7.855   4.516 -0.2159 -0.0206 -0.7338
  211DPPC   C1710517   1.398   7.789   4.323  0.5728 -0.2608 -0.3259
  211DPPC   C1810518   1.382   7.898   4.217 -0.0097 -0.2051 -0.1839
  211DPPC   C1910519   1.234   7.935   4.204  0.1204  0.3266 -0.1842
  211DPPC   C2010520   1.199   8.008   4.074 -0.2265 -0.0339 -0.2941
  211DPPC   C2110521   1.059   8.067   4.090 -0.1313  0.0102  0.4411
  211DPPC   C2210522   1.021   8.164   3.977  0.1869  0.3888  0.6594
  211DPPC   C2310523   1.062   8.096   3.846  0.0603  0.4398  0.5935
  211DPPC   C2410524   1.039   8.198   3.735  0.5175 -0.0991 -0.0037
  211DPPC   C2510525   1.053   8.141   3.594 -0.3784  0.0937 -0.1760
  211DPPC   C2610526   0.932   8.061   3.545 -0.6831 -0.1581  0.9667
  211DPPC   C2710527   0.840   8.150   3.460  0.6883  0.4503  0.0919
  211DPPC   C2810528   0.919   8.220   3.349  0.3799  0.1949 -0.2899
  211DPPC   C2910529   0.815   8.280   3.255  0.3555  0.2222 -0.2454
  211DPPC   C3010530   0.865   8.376   3.147  0.4880 -0.0015 -0.3835
  211DPPC   C3110531   0.962   8.313   3.047  0.5596 -0.7755  0.1628
  211DPPC   C3210532   1.578   8.037   4.710 -0.1769  0.2068  0.3861
  211DPPC   O3310533   1.599   8.152   4.629  0.8026  0.0860  0.4453
  211DPPC   C3410534   1.667   8.241   4.706 -0.1357  0.3813  0.9522
  211DPPC   O3510535   1.715   8.206   4.814  0.1748  0.1342  0.7355
  211DPPC   C3610536   1.681   8.384   4.652 -0.1605  0.0400  0.0265
  211DPPC   C3710537   1.800   8.393   4.556 -0.2918  0.4341 -0.0997
  211DPPC   C3810538   1.784   8.522   4.475 -0.5122  0.2079 -0.4180
  211DPPC   C3910539   1.883   8.525   4.358 -0.0114 -0.0324 -0.0065
  211DPPC   C4010540   1.843   8.656   4.291 -0.0958 -0.0666 -0.0235
  211DPPC   C4110541   1.808   8.630   4.144  0.5372 -0.0419 -0.1795
  211DPPC   C4210542   1.760   8.757   4.075 -0.3165 -0.2066  0.1054
  211DPPC   C4310543   1.725   8.732   3.929  0.2774 -0.1251 -0.0525
  211DPPC   C4410544   1.707   8.854   3.838 -0.1940 -0.2385 -0.1119
  211DPPC   C4510545   1.567   8.913   3.858 -0.3018 -0.4752 -0.1634
  211DPPC   C4610546   1.546   9.044   3.782 -0.4733 -0.3450  0.1097
  211DPPC   C4710547   1.588   9.021   3.637  0.1709  0.5228  0.1530
  211DPPC   C4810548   1.569   9.156   3.568 -0.5766  0.2354 -0.2134
  211DPPC   C4910549   1.666   9.268   3.609  0.3348 -0.4487 -0.4696
  211DPPC   C5010550   1.601   9.388   3.539 -0.3787 -0.3353  0.3679
  212DPPC    C110551   4.643   8.245   5.655 -0.1812  0.1185 -0.1314
  212DPPC    C210552   4.697   8.460   5.576 -0.3331  0.1764  0.1718
  212DPPC    C310553   4.852   8.288   5.533  0.1323  0.3651 -0.1678
  212DPPC    N410554   4.709   8.317   5.545  0.1260  0.2236  0.1178
  212DPPC    C510555   4.630   8.280   5.426  0.5166 -0.1530 -0.0244
  212DPPC    C610556   4.638   8.361   5.297  0.2114  0.1394  0.1400
  212DPPC    O710557   4.769   8.382   5.243  0.3702 -0.0149  0.4579
  212DPPC    P810558   4.755   8.528   5.175 -0.0559 -0.3047 -0.0825
  212DPPC    O910559   4.876   8.556   5.095 -0.1401  0.0129 -0.0999
  212DPPC   O1010560   4.697   8.612   5.282 -0.2734 -0.2405 -0.2503
  212DPPC   O1110561   4.644   8.510   5.060 -0.3272 -0.8033  0.2509
  212DPPC   C1210562   4.697   8.403   4.980  0.3063 -0.6117  0.4079
  212DPPC   C1310563   4.606   8.348   4.870  0.0955 -0.0533  0.2932
  212DPPC   O1410564   4.659   8.235   4.799 -0.2218  0.0112 -0.0474
  212DPPC   C1510565   4.674   8.113   4.857  0.0187  0.2783  0.4620
  212DPPC   O1610566   4.624   8.096   4.968  0.3175  0.2313  0.5897
  212DPPC   C1710567   4.729   8.006   4.762 -0.0964  0.4078  0.2471
  212DPPC   C1810568   4.663   8.026   4.626 -0.4061  0.3628  0.3894
  212DPPC   C1910569   4.713   7.935   4.513  0.0938  0.6702  0.3549
  212DPPC   C2010570   4.615   7.975   4.403  0.6441 -0.0414 -0.4022
  212DPPC   C2110571   4.659   7.904   4.274 -0.3843  0.1780 -0.8836
  212DPPC   C2210572   4.530   7.839   4.223 -0.6072 -0.0566 -0.0530
  212DPPC   C2310573   4.540   7.752   4.097  0.1907 -0.3405  0.2016
  212DPPC   C2410574   4.413   7.670   4.075  0.0920 -0.2240  0.3413
  212DPPC   C2510575   4.433   7.585   3.949 -0.3358 -0.6896  0.5847
  212DPPC   C2610576   4.443   7.661   3.817 -0.3450 -0.4261  0.7335
  212DPPC   C2710577   4.485   7.544   3.726 -0.2838 -0.0519  0.2758
  212DPPC   C2810578   4.532   7.578   3.585 -0.2949  0.0003  0.2846
  212DPPC   C2910579   4.571   7.456   3.502  0.4149  0.6088 -0.2888
  212DPPC   C3010580   4.604   7.484   3.355 -0.2209  0.2954 -0.4980
  212DPPC   C3110581   4.648   7.346   3.306  0.2193  0.3184 -0.1792
  212DPPC   C3210582   4.558   8.471   4.794 -0.1334 -0.0481  0.4475
  212DPPC   O3310583   4.670   8.536   4.733 -0.0070  0.0197  0.7472
  212DPPC   C3410584   4.649   8.652   4.666  0.5470 -0.2047  0.1765
  212DPPC   O3510585   4.543   8.714   4.671  0.4711 -0.2885 -0.2860
  212DPPC   C3610586   4.782   8.712   4.619  0.6833 -0.4095  0.3044
  212DPPC   C3710587   4.778   8.718   4.466  0.1087 -0.5826  0.3106
  212DPPC   C3810588   4.912   8.725   4.393 -0.2554  0.0926 -0.3045
  212DPPC   C3910589   4.875   8.752   4.247 -0.3946  0.9197 -0.1191
  212DPPC   C4010590   5.001   8.766   4.160 -0.1792  0.1349  0.0629
  212DPPC   C4110591   5.113   8.665   4.188 -0.2223  0.0678 -0.0049
  212DPPC   C4210592   5.235   8.687   4.098 -0.1313 -0.3095  0.0277
  212DPPC   C4310593   5.368   8.621   4.134 -0.0122  0.1522  0.4373
  212DPPC   C4410594   5.423   8.680   4.263 -0.0205  0.0683  0.4794
  212DPPC   C4510595   5.545   8.596   4.304 -0.1402 -0.1813  0.3188
  212DPPC   C4610596   5.645   8.597   4.189 -0.3704 -0.5620  0.1148
  212DPPC   C4710597   5.777   8.545   4.246  0.0424 -0.1019 -0.4116
  212DPPC   C4810598   5.884   8.515   4.141  0.3028 -0.0079 -0.1754
  212DPPC   C4910599   5.993   8.445   4.222 -0.4362 -0.4132  0.4776
  212DPPC   C5010600   6.086   8.399   4.110  0.2410 -0.0218  0.8672
  213DPPC    C110601   7.649   1.971   5.932 -0.3954  0.0451  0.2633
  213DPPC    C210602   7.712   2.178   5.855  0.4446 -0.1836  0.1449
  213DPPC    C310603   7.734   2.009   5.700  0.0583 -0.0340  0.1476
  213DPPC    N410604   7.648   2.053   5.811  0.1242 -0.0393  0.2010
  213DPPC    C510605   7.516   2.082   5.752  0.4916  0.3075 -0.4687
  213DPPC    C610606   7.411   1.972   5.747  0.2359  0.5292  0.0027
  213DPPC    O710607   7.459   1.852   5.685  0.2410  0.1317  0.7560
  213DPPC    P810608   7.391   1.728   5.760 -0.0666 -0.1097  0.0846
  213DPPC    O910609   7.311   1.775   5.876 -0.0691 -0.0070  0.0408
  213DPPC   O1010610   7.496   1.625   5.776  0.1294 -0.0564 -0.8228
  213DPPC   O1110611   7.294   1.673   5.643 -0.1546 -0.1215  0.1623
  213DPPC   C1210612   7.360   1.655   5.517 -0.3698 -0.5057  0.1046
  213DPPC   C1310613   7.271   1.629   5.395 -0.0404  0.0087 -0.2492
  213DPPC   O1410614   7.341   1.574   5.283  0.0459 -0.1086 -0.1381
  213DPPC   C1510615   7.377   1.443   5.295  0.0585 -0.0882  0.0554
  213DPPC   O1610616   7.354   1.377   5.396  0.1091 -0.1003  0.0588
  213DPPC   C1710617   7.438   1.377   5.171 -0.2373  0.2460 -0.2731
  213DPPC   C1810618   7.340   1.356   5.056 -0.2582 -0.3455 -0.1497
  213DPPC   C1910619   7.390   1.265   4.943  0.1345 -0.3489  0.0253
  213DPPC   C2010620   7.281   1.239   4.839  0.1031  0.3561 -0.1218
  213DPPC   C2110621   7.322   1.143   4.727  0.4601 -0.0024  0.3161
  213DPPC   C2210622   7.443   1.195   4.649 -0.0546 -0.0775 -0.5463
  213DPPC   C2310623   7.508   1.076   4.578  0.3011  0.0152 -0.3783
  213DPPC   C2410624   7.419   1.060   4.455  0.0850  0.2069 -0.2474
  213DPPC   C2510625   7.401   1.189   4.375 -0.3433  0.4692  0.2612
  213DPPC   C2610626   7.522   1.190   4.281 -0.5948 -0.5396 -0.0917
  213DPPC   C2710627   7.513   1.316   4.195 -0.3936 -0.4191  0.0612
  213DPPC   C2810628   7.395   1.296   4.100 -0.3995 -0.6046  0.1075
  213DPPC   C2910629   7.376   1.404   3.992 -0.1383 -0.0911  0.5706
  213DPPC   C3010630   7.234   1.410   3.936 -0.0111 -0.5735  0.1881
  213DPPC   C3110631   7.243   1.507   3.819 -0.0851 -0.4359  0.2955
  213DPPC   C3210632   7.177   1.750   5.385 -0.3362 -0.1748  0.2737
  213DPPC   O3310633   7.063   1.731   5.302  0.3188  0.3435 -0.7527
  213DPPC   C3410634   6.975   1.833   5.280 -0.0375  0.2017  0.0060
  213DPPC   O3510635   6.975   1.932   5.354 -0.1622  0.3365 -0.1742
  213DPPC   C3610636   6.862   1.812   5.180  0.1652 -0.2753 -0.1230
  213DPPC   C3710637   6.737   1.775   5.260  0.1751 -0.6147 -0.2611
  213DPPC   C3810638   6.614   1.790   5.169 -0.3455 -0.0424  0.5230
  213DPPC   C3910639   6.606   1.924   5.097 -0.0917 -0.2508  0.1037
  213DPPC   C4010640   6.570   2.028   5.203 -0.0566  0.3479 -0.4598
  213DPPC   C4110641   6.569   2.173   5.155  0.3199  0.2112 -0.8846
  213DPPC   C4210642   6.546   2.279   5.263 -0.7634 -0.3707 -0.5308
  213DPPC   C4310643   6.540   2.420   5.204  0.5107 -0.2223 -0.3201
  213DPPC   C4410644   6.659   2.475   5.124  0.2138 -0.1400 -0.7068
  213DPPC   C4510645   6.645   2.622   5.085 -0.3057 -0.0015 -0.0167
  213DPPC   C4610646   6.513   2.639   5.010 -0.1832  0.2264 -0.1808
  213DPPC   C4710647   6.500   2.780   4.952  0.1784  0.0987 -0.5823
  213DPPC   C4810648   6.373   2.808   4.870 -0.0541  0.4176 -0.1186
  213DPPC   C4910649   6.374   2.954   4.824 -0.5113  0.4718  0.0432
  213DPPC   C5010650   6.325   3.040   4.940  0.2305 -0.5580  1.1381
  214DPPC    C110651   5.491   7.927   5.569 -0.0970 -0.2508 -0.0101
  214DPPC    C210652   5.507   7.749   5.721  0.4347 -0.2698  0.3111
  214DPPC    C310653   5.459   7.690   5.493  0.0293  0.1770 -0.4362
  214DPPC    N410654   5.529   7.785   5.580 -0.1832 -0.2560  0.2152
  214DPPC    C510655   5.675   7.774   5.575 -0.1112  0.7626 -0.1272
  214DPPC    C610656   5.755   7.816   5.451  0.2922 -0.1039 -0.1709
  214DPPC    O710657   5.752   7.712   5.353 -0.0307 -0.0983 -0.1688
  214DPPC    P810658   5.838   7.757   5.224  0.0392  0.1647 -0.0320
  214DPPC    O910659   5.911   7.629   5.210 -0.2412  0.0377 -0.3330
  214DPPC   O1010660   5.903   7.884   5.262 -0.0736  0.2927 -0.2656
  214DPPC   O1110661   5.707   7.764   5.131  0.3597  0.3177 -0.4741
  214DPPC   C1210662   5.699   7.654   5.040 -0.2711  0.2064 -0.2923
  214DPPC   C1310663   5.553   7.639   4.998 -0.3617 -0.2884  0.1852
  214DPPC   O1410664   5.526   7.524   4.917 -0.0748 -0.2720  0.0671
  214DPPC   C1510665   5.544   7.402   4.976  0.6905 -0.0146  0.3788
  214DPPC   O1610666   5.565   7.380   5.095 -0.2115 -0.3371  0.4860
  214DPPC   C1710667   5.550   7.299   4.864  0.1855  0.4935 -0.1266
  214DPPC   C1810668   5.632   7.175   4.902 -0.4232 -0.0179 -0.4500
  214DPPC   C1910669   5.678   7.096   4.780 -0.1972  0.0512 -0.4098
  214DPPC   C2010670   5.760   6.968   4.800 -0.2090  0.1484  0.2911
  214DPPC   C2110671   5.752   6.876   4.678 -0.3884  0.1426  0.3069
  214DPPC   C2210672   5.846   6.757   4.698  0.0063  0.4142  0.0634
  214DPPC   C2310673   5.986   6.820   4.696  0.1014  0.2003 -0.0534
  214DPPC   C2410674   6.088   6.706   4.703  0.4959  0.5107 -0.7344
  214DPPC   C2510675   6.061   6.599   4.597  0.2400  0.0110 -0.1696
  214DPPC   C2610676   6.149   6.474   4.604 -0.2886 -0.3527 -0.0109
  214DPPC   C2710677   6.097   6.371   4.504 -0.3042 -0.1510 -0.2111
  214DPPC   C2810678   5.944   6.376   4.501 -0.3126 -0.4102 -0.2589
  214DPPC   C2910679   5.895   6.289   4.385 -0.7897  0.2154 -0.5343
  214DPPC   C3010680   5.894   6.138   4.411 -0.1706  0.3070  0.0232
  214DPPC   C3110681   5.883   6.048   4.289  0.6804  0.6451 -0.3143
  214DPPC   C3210682   5.533   7.770   4.921 -0.0112 -0.1854  0.2672
  214DPPC   O3310683   5.624   7.819   4.823  0.2013 -0.0480  0.5324
  214DPPC   C3410684   5.584   7.941   4.778  0.4792 -0.1587 -0.0403
  214DPPC   O3510685   5.502   8.005   4.845 -0.0033 -1.0490  0.2419
  214DPPC   C3610686   5.645   8.006   4.654  0.0992  0.2310 -0.0253
  214DPPC   C3710687   5.702   7.904   4.556 -0.0217 -0.2821  0.4306
  214DPPC   C3810688   5.797   7.962   4.451 -0.3514 -0.4402  0.0416
  214DPPC   C3910689   5.873   7.843   4.391  0.2365 -0.0621  0.0260
  214DPPC   C4010690   5.937   7.874   4.256  0.5064 -0.3801  0.0801
  214DPPC   C4110691   6.029   7.753   4.239  0.9264 -0.1354  0.5894
  214DPPC   C4210692   6.016   7.708   4.094 -0.3216 -0.3810  0.7691
  214DPPC   C4310693   6.109   7.590   4.065  0.0173  0.1432 -0.3361
  214DPPC   C4410694   6.251   7.616   4.116 -0.0091  0.1119 -0.2477
  214DPPC   C4510695   6.352   7.516   4.059  0.3324  0.5618 -0.4372
  214DPPC   C4610696   6.303   7.376   4.096  0.5827  0.6191  0.1166
  214DPPC   C4710697   6.391   7.258   4.053  0.0450  0.3453 -0.2419
  214DPPC   C4810698   6.530   7.273   4.115  0.0639 -0.3554 -0.1051
  214DPPC   C4910699   6.613   7.149   4.078  0.3180 -0.2417  0.0790
  214DPPC   C5010700   6.748   7.155   4.149  0.2762 -0.1760  0.1536
  215DPPC    C110701   8.056   0.314   5.208 -0.4071 -0.4311 -0.2325
  215DPPC    C210702   8.139   0.445   5.397 -0.3661  0.1850 -0.3235
  215DPPC    C310703   7.950   0.319   5.407 -0.0677 -0.6768 -0.0475
  215DPPC    N410704   8.086   0.315   5.352 -0.1379  0.0802 -0.2911
  215DPPC    C510705   8.148   0.194   5.409  0.4763  0.2891 -0.5036
  215DPPC    C610706   8.299   0.185   5.387  0.5255 -0.1802  0.0268
  215DPPC    O710707   8.342   0.117   5.269 -0.5586  0.3834 -0.7096
  215DPPC    P810708   8.484   0.165   5.211 -0.3340 -0.0522 -0.5252
  215DPPC    O910709   8.583   0.078   5.278 -0.4202 -0.0386 -0.3800
  215DPPC   O1010710   8.475   0.307   5.252 -0.3647 -0.2024 -0.0112
  215DPPC   O1110711   8.451   0.134   5.056 -0.5386  0.5274 -0.6015
  215DPPC   C1210712   8.391   0.249   4.998 -1.4650  0.3998  0.0754
  215DPPC   C1310713   8.372   0.224   4.848 -0.2054 -0.4462  0.0402
  215DPPC   O1410714   8.341   0.342   4.772  0.4961 -0.1753  0.1710
  215DPPC   C1510715   8.235   0.423   4.797  0.4872  0.0034 -0.4395
  215DPPC   O1610716   8.182   0.427   4.907  0.1893  0.8130 -0.6055
  215DPPC   C1710717   8.208   0.526   4.687 -0.3075  0.3827  0.1014
  215DPPC   C1810718   8.169   0.441   4.566  0.2403  0.1807  0.0618
  215DPPC   C1910719   8.147   0.514   4.433 -0.6313  0.4806  0.3645
  215DPPC   C2010720   8.109   0.409   4.329 -0.0860  0.3881  0.2584
  215DPPC   C2110721   8.069   0.467   4.193 -0.1835 -0.3032 -0.0177
  215DPPC   C2210722   8.188   0.547   4.142  0.0781 -0.7411 -0.0935
  215DPPC   C2310723   8.143   0.614   4.011  0.1213 -0.0420  0.2417
  215DPPC   C2410724   8.079   0.747   4.050 -0.3666 -0.3234  0.4179
  215DPPC   C2510725   8.027   0.821   3.926  0.0932 -0.0609  0.3779
  215DPPC   C2610726   7.962   0.952   3.971  0.2447  0.1848 -0.1133
  215DPPC   C2710727   7.901   1.003   3.840  0.5646 -0.1746 -0.4045
  215DPPC   C2810728   7.823   0.891   3.770 -0.3730  0.3329 -0.1832
  215DPPC   C2910729   7.740   0.927   3.647  0.0765  0.5389 -0.4269
  215DPPC   C3010730   7.613   0.995   3.696 -0.1755 -0.1538 -0.1037
  215DPPC   C3110731   7.546   0.926   3.815 -0.7232 -0.7208 -0.7380
  215DPPC   C3210732   8.259   0.121   4.841 -0.2423 -0.4099  0.1058
  215DPPC   O3310733   8.214   0.102   4.707  0.1781 -0.4204 -0.0323
  215DPPC   C3410734   8.290   0.063   4.600  0.4841 -0.0066  0.0332
  215DPPC   O3510735   8.388  -0.005   4.631  0.6770  0.3182  0.1506
  215DPPC   C3610736   8.227   0.080   4.462 -0.0022 -0.0017  0.2557
  215DPPC   C3710737   8.149  -0.043   4.415  0.1150  0.1489 -0.3369
  215DPPC   C3810738   8.079   0.004   4.287  0.2344  0.1302 -0.4088
  215DPPC   C3910739   7.975  -0.103   4.253 -0.2168  0.4599 -0.0928
  215DPPC   C4010740   7.881  -0.067   4.138 -0.3158 -0.0245 -0.1678
  215DPPC   C4110741   7.803  -0.191   4.095  0.0493 -0.2336 -0.2338
  215DPPC   C4210742   7.701  -0.153   3.987 -0.0153  0.1665 -0.0340
  215DPPC   C4310743   7.775  -0.110   3.860 -0.4911  0.2185 -0.2934
  215DPPC   C4410744   7.675  -0.103   3.744 -0.0106 -0.5965 -0.7607
  215DPPC   C4510745   7.568   0.006   3.750 -0.0048 -0.6207 -0.1229
  215DPPC   C4610746   7.470   0.000   3.632  0.8871 -0.0141 -0.9054
  215DPPC   C4710747   7.397  -0.134   3.626 -0.1680  0.4821  0.2290
  215DPPC   C4810748   7.333  -0.137   3.487 -0.2564  0.3411  0.2730
  215DPPC   C4910749   7.270  -0.273   3.453 -0.5554  0.4276  0.4740
  215DPPC   C5010750   7.287  -0.305   3.304  0.2799  0.9117  0.4585
  216DPPC    C110751   4.427   0.257   5.092  0.1926 -0.1244 -0.7815
  216DPPC    C210752   4.492   0.452   4.950  0.5181 -0.0352  0.4696
  216DPPC    C310753   4.332   0.479   5.117 -0.3847  0.4324 -0.0292
  216DPPC    N410754   4.452   0.401   5.082 -0.5446  0.0793  0.2014
  216DPPC    C510755   4.550   0.438   5.186 -0.1810 -0.3307  0.0058
  216DPPC    C610756   4.611   0.578   5.194  0.1074 -0.4385 -0.2802
  216DPPC    O710757   4.531   0.679   5.256 -0.0272 -0.2718 -0.7207
  216DPPC    P810758   4.615   0.815   5.239  0.3283 -0.3861  0.0778
  216DPPC    O910759   4.760   0.785   5.255  0.4200 -0.0847 -0.1723
  216DPPC   O1010760   4.530   0.883   5.339  0.1150 -0.3656 -0.1194
  216DPPC   O1110761   4.569   0.854   5.090 -0.0974 -0.1491  0.2710
  216DPPC   C1210762   4.431   0.892   5.083 -0.1149 -0.2239  0.1932
  216DPPC   C1310763   4.380   0.931   4.944  0.3660 -0.0722  0.0540
  216DPPC   O1410764   4.319   0.815   4.886  0.0506  0.2337 -0.2285
  216DPPC   C1510765   4.186   0.786   4.893  0.0291  0.3301 -0.2397
  216DPPC   O1610766   4.131   0.821   4.997 -1.0708 -0.0079 -0.6950
  216DPPC   C1710767   4.163   0.651   4.824  0.5482 -0.0557  0.3255
  216DPPC   C1810768   4.236   0.629   4.691  0.2960 -0.5607  0.2695
  216DPPC   C1910769   4.218   0.491   4.628  0.4791 -0.4362 -0.0597
  216DPPC   C2010770   4.255   0.490   4.480  0.1833 -0.2724 -0.1359
  216DPPC   C2110771   4.224   0.361   4.403 -0.3558 -0.1589 -0.1102
  216DPPC   C2210772   4.283   0.350   4.263  0.2331 -0.7959  0.1816
  216DPPC   C2310773   4.435   0.348   4.243  0.2461  0.1172  0.1394
  216DPPC   C2410774   4.484   0.357   4.098 -0.0687  0.5898  0.0610
  216DPPC   C2510775   4.531   0.216   4.062  0.2341  0.6938  0.0478
  216DPPC   C2610776   4.652   0.221   3.968 -0.1146 -0.3692 -0.4748
  216DPPC   C2710777   4.718   0.093   3.917  0.3818 -0.3247  0.0369
  216DPPC   C2810778   4.831   0.124   3.819  0.0638  0.5325 -0.0732
  216DPPC   C2910779   4.897  -0.003   3.763  0.1870  0.6015 -0.0849
  216DPPC   C3010780   4.810  -0.077   3.662  0.6123  0.1122 -0.0958
  216DPPC   C3110781   4.756   0.009   3.547  0.3750 -0.4326 -0.3943
  216DPPC   C3210782   4.485   1.004   4.861  0.4625 -0.1475  0.1088
  216DPPC   O3310783   4.503   1.145   4.879 -0.2019 -0.0809  0.2881
  216DPPC   C3410784   4.604   1.197   4.804 -0.3293 -0.4766 -0.1621
  216DPPC   O3510785   4.694   1.126   4.760  0.4841  0.2000  0.3863
  216DPPC   C3610786   4.583   1.341   4.756  0.4292 -0.0785  0.6651
  216DPPC   C3710787   4.492   1.355   4.634  0.0616 -0.3289  0.9053
  216DPPC   C3810788   4.427   1.494   4.644 -0.1757 -0.3035 -0.6711
  216DPPC   C3910789   4.308   1.511   4.550 -0.3704 -0.1155 -0.3907
  216DPPC   C4010790   4.216   1.398   4.596  0.1585 -0.7227 -0.8098
  216DPPC   C4110791   4.114   1.355   4.490 -0.3943 -0.3303 -0.4427
  216DPPC   C4210792   4.003   1.460   4.478  0.0755  0.2706  0.3440
  216DPPC   C4310793   3.897   1.406   4.381  0.1827  0.7210 -0.0264
  216DPPC   C4410794   3.945   1.380   4.238 -0.0662 -0.0467  0.0264
  216DPPC   C4510795   3.832   1.418   4.142  0.2140  0.2810 -0.1738
  216DPPC   C4610796   3.856   1.375   3.997 -0.1434 -0.0767 -0.1290
  216DPPC   C4710797   3.757   1.435   3.897 -0.6298  0.6680  0.7759
  216DPPC   C4810798   3.774   1.352   3.769  0.0382  0.8425  0.7483
  216DPPC   C4910799   3.686   1.404   3.655 -0.2062 -0.6519  0.2411
  216DPPC   C5010800   3.695   1.314   3.531 -0.3327 -0.1515 -0.1354
  217DPPC    C110801   5.499   6.888   5.475  0.0224 -0.2648 -0.2353
  217DPPC    C210802   5.518   7.057   5.317  0.1638 -0.0534  0.6197
  217DPPC    C310803   5.380   6.875   5.272 -0.0643 -0.0845  0.1081
  217DPPC    N410804   5.420   6.967   5.380 -0.1754 -0.0416  0.1122
  217DPPC    C510805   5.298   7.020   5.444  0.0219  0.5078  0.0385
  217DPPC    C610806   5.310   7.161   5.502  0.0412  0.4114  0.2698
  217DPPC    O710807   5.188   7.235   5.496 -0.0653  0.2037 -0.1663
  217DPPC    P810808   5.204   7.373   5.577 -0.0782  0.0923  0.0272
  217DPPC    O910809   5.326   7.387   5.659 -0.4837 -0.5972  0.7648
  217DPPC   O1010810   5.083   7.443   5.626 -0.1788 -0.0292 -0.0476
  217DPPC   O1110811   5.254   7.451   5.445  0.5354  0.0620  0.2377
  217DPPC   C1210812   5.149   7.469   5.350  0.6663 -0.0698  0.0689
  217DPPC   C1310813   5.189   7.527   5.214  0.0058  0.1373 -0.0384
  217DPPC   O1410814   5.096   7.622   5.159 -0.2767 -0.0907  0.0440
  217DPPC   C1510815   5.124   7.707   5.057 -0.0015 -0.3776 -0.1245
  217DPPC   O1610816   5.238   7.747   5.035  0.0529 -0.2354  0.3993
  217DPPC   C1710817   5.004   7.766   4.981  0.1083  0.2753  0.1952
  217DPPC   C1810818   5.037   7.787   4.833  0.3573  0.0424  0.2159
  217DPPC   C1910819   5.084   7.930   4.804  0.6239 -0.0865  0.0049
  217DPPC   C2010820   5.070   7.967   4.657 -0.0822 -0.1493  0.0478
  217DPPC   C2110821   5.139   7.874   4.557  0.1544 -0.3183  0.3669
  217DPPC   C2210822   5.121   7.920   4.412  0.7917 -0.4920  0.2278
  217DPPC   C2310823   5.198   7.821   4.324  0.2758 -0.5749 -0.1385
  217DPPC   C2410824   5.176   7.871   4.181 -0.4652 -0.1784  0.1067
  217DPPC   C2510825   5.026   7.856   4.154 -0.4465 -0.0740 -0.0524
  217DPPC   C2610826   5.010   7.880   4.003 -0.2546  0.3456 -0.0062
  217DPPC   C2710827   4.866   7.904   3.959 -0.3439 -0.0952  0.0456
  217DPPC   C2810828   4.861   7.990   3.833  0.3389  0.2784  0.2727
  217DPPC   C2910829   4.916   7.909   3.716 -0.0865  0.0838  0.2090
  217DPPC   C3010830   4.941   8.008   3.602  0.0035 -0.2471 -0.0588
  217DPPC   C3110831   5.014   7.934   3.489  0.5742 -0.7455  0.6240
  217DPPC   C3210832   5.232   7.409   5.126  0.0035 -0.2951  0.5358
  217DPPC   O3310833   5.122   7.317   5.126 -0.0675 -0.2121 -0.2485
  217DPPC   C3410834   5.163   7.197   5.075 -0.1554 -0.1582 -0.4494
  217DPPC   O3510835   5.278   7.168   5.044 -0.1041 -0.3077 -0.1194
  217DPPC   C3610836   5.049   7.096   5.065  0.0158 -0.3864 -0.1074
  217DPPC   C3710837   4.948   7.134   4.957  0.0337  0.3957  0.1439
  217DPPC   C3810838   5.010   7.106   4.819 -0.1310  0.5418  0.0401
  217DPPC   C3910839   4.902   7.046   4.729 -0.4537  0.3087  0.5737
  217DPPC   C4010840   4.892   7.097   4.585  0.3509  0.2503  0.4932
  217DPPC   C4110841   4.769   7.043   4.511  0.6453 -0.1142  0.2627
  217DPPC   C4210842   4.788   7.066   4.361  0.1435  0.4427  0.2796
  217DPPC   C4310843   4.917   7.014   4.297 -0.5154 -0.3509 -0.4350
  217DPPC   C4410844   4.897   7.063   4.153 -0.3980  0.4170 -0.1989
  217DPPC   C4510845   5.020   7.029   4.068 -0.1474 -0.5622  0.5279
  217DPPC   C4610846   4.989   7.051   3.920  0.3659  0.3173  0.5413
  217DPPC   C4710847   5.114   7.027   3.835  0.3936  0.7041  0.4735
  217DPPC   C4810848   5.195   7.140   3.901  0.6355  0.3804  0.7336
  217DPPC   C4910849   5.316   7.173   3.813  0.1260  0.1907 -0.0489
  217DPPC   C5010850   5.421   7.269   3.868  0.6010 -0.1917 -0.2872
  218DPPC    C110851   1.997   4.302   5.806  0.0354  0.7998  0.3168
  218DPPC    C210852   2.178   4.413   5.725 -0.3193 -0.9003 -0.4124
  218DPPC    C310853   2.201   4.277   5.923  0.8056  0.1241  0.3697
  218DPPC    N410854   2.142   4.285   5.788 -0.0480 -0.4407  0.7006
  218DPPC    C510855   2.159   4.172   5.696 -0.1601 -0.5743  0.8439
  218DPPC    C610856   2.299   4.150   5.638 -0.6210 -0.1166 -0.4570
  218DPPC    O710857   2.309   4.043   5.544 -0.2838 -0.1879 -0.3428
  218DPPC    P810858   2.458   4.033   5.485 -0.0612 -0.3876  0.2441
  218DPPC    O910859   2.483   3.888   5.469 -0.1413 -0.3461 -0.3084
  218DPPC   O1010860   2.559   4.109   5.562 -0.3440 -0.1574  0.3908
  218DPPC   O1110861   2.427   4.073   5.332  0.0122 -0.1985  0.2777
  218DPPC   C1210862   2.380   3.964   5.252 -0.0824 -0.0236  0.0921
  218DPPC   C1310863   2.227   3.971   5.242 -0.0619  0.0589 -0.1646
  218DPPC   O1410864   2.185   3.853   5.173 -0.0534 -0.1657  0.2095
  218DPPC   C1510865   2.055   3.814   5.183 -0.3196  0.5298 -0.3838
  218DPPC   O1610866   1.980   3.873   5.261 -0.0980  0.6764 -0.2806
  218DPPC   C1710867   2.006   3.699   5.094  0.3912 -0.0186 -0.0806
  218DPPC   C1810868   1.936   3.755   4.971  0.4270 -0.2538 -0.2087
  218DPPC   C1910869   1.890   3.636   4.886 -0.3936 -0.1305  0.0479
  218DPPC   C2010870   1.834   3.673   4.748 -0.0649 -0.1301 -0.0863
  218DPPC   C2110871   1.849   3.554   4.652  0.1477 -0.4440  0.3314
  218DPPC   C2210872   1.802   3.603   4.515 -0.6874  0.5179  0.9414
  218DPPC   C2310873   1.747   3.485   4.434 -0.2304  0.9201  0.0282
  218DPPC   C2410874   1.723   3.529   4.289  0.0522 -0.0278 -0.3084
  218DPPC   C2510875   1.638   3.430   4.210 -0.2060  0.0591 -0.1422
  218DPPC   C2610876   1.622   3.485   4.068  0.5860  0.1328 -0.2108
  218DPPC   C2710877   1.560   3.380   3.976 -0.1109  0.3821 -0.0328
  218DPPC   C2810878   1.528   3.441   3.840  0.3035 -0.2397 -0.4132
  218DPPC   C2910879   1.650   3.513   3.782  0.3688 -0.2372 -0.2741
  218DPPC   C3010880   1.636   3.541   3.632  0.1586 -0.0267 -0.2168
  218DPPC   C3110881   1.763   3.613   3.586  0.3036 -0.0335  0.1733
  218DPPC   C3210882   2.199   4.105   5.173  0.1527  0.1268 -0.1231
  218DPPC   O3310883   2.271   4.118   5.050  0.1511  0.3677 -0.0980
  218DPPC   C3410884   2.254   4.236   4.984 -0.1134  0.0649 -0.5725
  218DPPC   O3510885   2.149   4.298   4.987 -0.1357  0.0130 -0.1825
  218DPPC   C3610886   2.338   4.245   4.856  0.2472  0.1773 -0.3301
  218DPPC   C3710887   2.247   4.269   4.736 -0.3455 -0.3746  0.0014
  218DPPC   C3810888   2.321   4.254   4.603  0.1394  0.3358  0.1904
  218DPPC   C3910889   2.440   4.347   4.575  0.0458  0.2694 -0.4389
  218DPPC   C4010890   2.481   4.327   4.429  0.5230  0.3686 -0.3227
  218DPPC   C4110891   2.594   4.424   4.394  0.7016  0.3035  0.0786
  218DPPC   C4210892   2.605   4.456   4.245 -0.4984  1.0249  0.1262
  218DPPC   C4310893   2.737   4.531   4.224 -0.1138  0.1946 -0.4962
  218DPPC   C4410894   2.738   4.657   4.312  0.1931  0.5197 -0.9669
  218DPPC   C4510895   2.878   4.717   4.294  0.4038  0.2536 -0.2324
  218DPPC   C4610896   2.891   4.851   4.368 -0.0316  0.4917 -0.5834
  218DPPC   C4710897   3.036   4.900   4.365 -0.0147  0.4482 -0.5016
  218DPPC   C4810898   3.092   4.905   4.222 -0.1866 -0.0621 -0.5904
  218DPPC   C4910899   3.242   4.936   4.229 -0.3394  0.5455  0.2338
  218DPPC   C5010900   3.306   4.921   4.090  0.0527 -0.1752  0.4887
  219DPPC    C110901   8.930   6.814   5.026 -0.1332 -0.0263  0.2540
  219DPPC    C210902   9.108   6.920   4.940 -0.8760  0.1929 -0.1965
  219DPPC    C310903   9.140   6.809   5.145  0.4884 -0.1509  0.2222
  219DPPC    N410904   9.075   6.797   5.014 -0.0698  0.3550  0.4476
  219DPPC    C510905   9.119   6.698   4.914 -0.2323  0.5812  0.1506
  219DPPC    C610906   9.047   6.572   4.864  0.4985  0.1047  0.2760
  219DPPC    O710907   9.134   6.494   4.781 -0.0949 -0.1100 -0.1514
  219DPPC    P810908   9.036   6.374   4.740 -0.1944  0.0351 -0.3395
  219DPPC    O910909   8.924   6.443   4.672 -0.1323  0.4437 -0.0307
  219DPPC   O1010910   9.005   6.291   4.859 -0.7345  0.2665 -0.3170
  219DPPC   O1110911   9.121   6.272   4.649 -0.5410 -0.6027  0.0418
  219DPPC   C1210912   9.129   6.344   4.526  0.0043 -0.4657  0.1554
  219DPPC   C1310913   9.215   6.286   4.413  0.0672  0.2996 -0.1959
  219DPPC   O1410914   9.203   6.359   4.290 -0.2357 -0.1904 -0.4633
  219DPPC   C1510915   9.296   6.347   4.191  0.5699  0.6513  0.1754
  219DPPC   O1610916   9.397   6.282   4.218  0.3038  0.1019 -0.1543
  219DPPC   C1710917   9.287   6.432   4.064 -0.4230  0.1592 -0.0910
  219DPPC   C1810918   9.357   6.374   3.941 -0.6487 -0.2383 -0.0333
  219DPPC   C1910919   9.379   6.483   3.837 -0.2174 -0.2241  0.0733
  219DPPC   C2010920   9.502   6.458   3.749 -0.3089 -0.1583 -0.0748
  219DPPC   C2110921   9.483   6.325   3.676  0.4404  0.0422 -0.6541
  219DPPC   C2210922   9.626   6.270   3.673  0.2856 -0.4613  0.4455
  219DPPC   C2310923   9.629   6.124   3.629 -0.2238 -0.2060 -0.4832
  219DPPC   C2410924   9.775   6.092   3.600  0.0068 -0.2086  0.6176
  219DPPC   C2510925   9.770   5.951   3.540  0.0445  0.2475 -0.4772
  219DPPC   C2610926   9.680   5.864   3.627  0.2007  0.4475 -0.1132
  219DPPC   C2710927   9.619   5.746   3.550  0.0465  0.0461  0.6192
  219DPPC   C2810928   9.538   5.807   3.436 -0.3525 -0.6298  0.5338
  219DPPC   C2910929   9.418   5.890   3.481 -0.2302 -0.1496 -0.0068
  219DPPC   C3010930   9.400   5.998   3.374 -0.0874 -0.3550 -0.2406
  219DPPC   C3110931   9.266   6.070   3.398 -0.0798 -0.3556 -0.1966
  219DPPC   C3210932   9.185   6.137   4.395 -0.2082  0.2355  0.7503
  219DPPC   O3310933   9.051   6.092   4.378 -0.1833  0.3948  0.1410
  219DPPC   C3410934   9.040   5.957   4.378 -0.1176  0.3912  0.4917
  219DPPC   O3510935   9.127   5.895   4.441 -0.3029 -0.4403 -0.0517
  219DPPC   C3610936   8.918   5.890   4.316  0.0592  0.2185  0.3255
  219DPPC   C3710937   8.893   5.758   4.390  0.0991  0.0596  0.0557
  219DPPC   C3810938   8.756   5.708   4.344  0.1183 -0.0023  0.0693
  219DPPC   C3910939   8.755   5.668   4.197  0.4261 -0.0386  0.0766
  219DPPC   C4010940   8.624   5.610   4.143  0.3558  0.1665  0.0255
  219DPPC   C4110941   8.623   5.589   3.992 -0.3220 -0.5912  0.1312
  219DPPC   C4210942   8.489   5.523   3.957 -0.3456 -0.1592 -0.6139
  219DPPC   C4310943   8.482   5.486   3.809 -0.0600  0.0952 -0.6927
  219DPPC   C4410944   8.512   5.609   3.723 -0.3217  0.4548 -0.2682
  219DPPC   C4510945   8.529   5.573   3.576 -0.0796  0.8629 -0.3406
  219DPPC   C4610946   8.395   5.521   3.524 -0.0393  0.3929  0.0211
  219DPPC   C4710947   8.398   5.541   3.372 -0.3800  0.6360  0.0441
  219DPPC   C4810948   8.265   5.527   3.298 -0.4017 -0.0685  0.2090
  219DPPC   C4910949   8.290   5.494   3.151 -0.2311  0.3324  0.1452
  219DPPC   C5010950   8.152   5.480   3.085 -0.1434 -0.6069  0.1462
  220DPPC    C110951   4.559   6.735   5.261 -0.5686 -0.0289  0.2927
  220DPPC    C210952   4.400   6.572   5.272 -0.5299 -0.0037 -0.0291
  220DPPC    C310953   4.412   6.716   5.088  0.0892 -0.2760  0.2777
  220DPPC    N410954   4.494   6.633   5.178  0.0053 -0.3742  0.2634
  220DPPC    C510955   4.573   6.532   5.105  0.4251  0.1855 -0.0719
  220DPPC    C610956   4.684   6.465   5.186  0.0394 -0.3221  0.0463
  220DPPC    O710957   4.633   6.373   5.282 -0.5681  0.0274  0.0624
  220DPPC    P810958   4.727   6.250   5.327 -0.1940  0.2217 -0.1893
  220DPPC    O910959   4.654   6.200   5.446  0.1632 -0.4983 -0.2670
  220DPPC   O1010960   4.864   6.305   5.319  0.2428 -0.8002  0.2044
  220DPPC   O1110961   4.678   6.163   5.201 -0.4194  0.3721 -0.2084
  220DPPC   C1210962   4.785   6.125   5.113 -0.3031  0.5542 -0.1465
  220DPPC   C1310963   4.746   6.087   4.970 -0.2167  0.1884 -0.0728
  220DPPC   O1410964   4.863   6.061   4.890 -0.0523  0.1802  0.1709
  220DPPC   C1510965   4.902   5.930   4.891  0.1098  0.2255 -0.1378
  220DPPC   O1610966   4.854   5.849   4.969 -0.0178 -0.2027 -0.6589
  220DPPC   C1710967   5.029   5.908   4.808 -0.1266 -0.4086 -0.3388
  220DPPC   C1810968   5.014   5.914   4.656 -0.5017  0.7722 -0.2721
  220DPPC   C1910969   5.140   5.904   4.570 -0.2707 -0.1695  0.1542
  220DPPC   C2010970   5.210   5.769   4.584 -0.0305 -0.0660 -0.0294
  220DPPC   C2110971   5.321   5.729   4.487  0.3312  0.5503  0.1287
  220DPPC   C2210972   5.265   5.690   4.350 -0.1681  0.9389  0.2181
  220DPPC   C2310973   5.387   5.672   4.260 -0.0100  0.6403  0.4879
  220DPPC   C2410974   5.497   5.577   4.306 -0.2273 -0.1156 -0.5243
  220DPPC   C2510975   5.597   5.538   4.197  0.1724  0.0683 -0.2275
  220DPPC   C2610976   5.549   5.428   4.103 -0.2794  0.2179 -0.1714
  220DPPC   C2710977   5.661   5.388   4.007  0.2393 -0.2985  0.6365
  220DPPC   C2810978   5.600   5.295   3.902  0.3242  0.7135 -0.3328
  220DPPC   C2910979   5.708   5.253   3.802 -0.1350 -0.6306 -0.2881
  220DPPC   C3010980   5.671   5.298   3.661  0.3299  0.5106 -0.0557
  220DPPC   C3110981   5.799   5.304   3.577  0.1838  0.4739 -0.2841
  220DPPC   C3210982   4.669   6.206   4.914 -0.0202  0.5861  0.4998
  220DPPC   O3310983   4.616   6.202   4.781 -0.2662  0.3367  0.6049
  220DPPC   C3410984   4.551   6.313   4.737  0.0815  0.2398 -0.1561
  220DPPC   O3510985   4.548   6.419   4.798 -0.2745 -0.0164  0.2731
  220DPPC   C3610986   4.478   6.290   4.604 -0.4056  0.3553  0.0908
  220DPPC   C3710987   4.584   6.308   4.495 -1.1190 -0.1993 -0.7040
  220DPPC   C3810988   4.639   6.170   4.459  0.4229  0.0708  0.5437
  220DPPC   C3910989   4.739   6.189   4.345  0.2473 -0.3881  0.3134
  220DPPC   C4010990   4.706   6.124   4.210  0.0929  0.4874 -0.0751
  220DPPC   C4110991   4.565   6.159   4.162 -0.0736 -0.1912 -0.0853
  220DPPC   C4210992   4.538   6.068   4.042 -0.2299 -0.3108  0.0388
  220DPPC   C4310993   4.648   6.079   3.936  0.0425 -0.3023  0.3214
  220DPPC   C4410994   4.615   5.993   3.813 -0.1361 -0.0121  0.1657
  220DPPC   C4510995   4.742   5.972   3.731 -0.1652  0.0178  0.1135
  220DPPC   C4610996   4.814   6.104   3.704 -0.2697  0.0420 -0.0533
  220DPPC   C4710997   4.736   6.201   3.615  0.3773 -0.0419 -0.7206
  220DPPC   C4810998   4.816   6.330   3.598  0.0559  0.2853  0.1938
  220DPPC   C4910999   4.749   6.428   3.502  0.2165  0.1152 -0.0951
  220DPPC   C5011000   4.832   6.556   3.517  0.7972 -0.2630 -0.0580
  221DPPC    C111001   0.382   6.243   4.533 -0.1026 -0.1240  0.3771
  221DPPC    C211002   0.331   6.049   4.414  0.0529  0.4866  0.0165
  221DPPC    C311003   0.464   6.209   4.303 -0.4142 -0.3538 -0.0340
  221DPPC    N411004   0.437   6.149   4.435  0.3090  0.1473  0.3481
  221DPPC    C511005   0.558   6.086   4.489  0.5639 -0.5348 -0.9596
  221DPPC    C611006   0.683   6.164   4.531 -0.4648  0.7552 -0.2401
  221DPPC    O711007   0.779   6.110   4.622 -0.0206  0.5029 -0.8561
  221DPPC    P811008   0.888   6.226   4.647  0.2906  0.0886 -0.2589
  221DPPC    O911009   0.973   6.184   4.760 -0.0554 -0.5464 -0.2320
  221DPPC   O1011010   0.815   6.355   4.646  0.2472  0.0684  0.2839
  221DPPC   O1111011   0.960   6.211   4.504 -0.0419  0.2715 -0.4450
  221DPPC   C1211012   1.080   6.136   4.515 -0.6549 -0.6080  0.3518
  221DPPC   C1311013   1.150   6.103   4.383  0.0959  0.0535  0.5755
  221DPPC   O1411014   1.246   6.188   4.319  0.1870 -0.5010 -0.0452
  221DPPC   C1511015   1.371   6.207   4.370  0.1109 -0.4579  0.1269
  221DPPC   O1611016   1.412   6.129   4.455 -0.1435 -0.0470  0.6326
  221DPPC   C1711017   1.454   6.295   4.277 -0.3526  0.0681  0.2041
  221DPPC   C1811018   1.399   6.438   4.267 -0.2032  0.1147  0.0258
  221DPPC   C1911019   1.295   6.463   4.158 -0.7518  0.2640  0.5737
  221DPPC   C2011020   1.349   6.427   4.019 -0.4380 -0.0690  0.7801
  221DPPC   C2111021   1.243   6.426   3.909  0.1450 -0.0341  0.2070
  221DPPC   C2211022   1.314   6.373   3.785  0.0655 -0.2476  0.2512
  221DPPC   C2311023   1.222   6.376   3.663  0.2494  0.0993  0.1176
  221DPPC   C2411024   1.297   6.310   3.546 -0.0532  0.1405 -0.0993
  221DPPC   C2511025   1.210   6.323   3.420 -0.1192  0.3636 -0.0326
  221DPPC   C2611026   1.079   6.245   3.434  0.0913 -0.0204 -0.1571
  221DPPC   C2711027   0.989   6.248   3.311 -0.7672 -0.0433  0.4585
  221DPPC   C2811028   0.925   6.385   3.284  0.0895  0.4006  0.6691
  221DPPC   C2911029   0.887   6.416   3.139  0.0607 -0.1381  0.5619
  221DPPC   C3011030   0.988   6.514   3.080 -0.5190  0.1649  0.0656
  221DPPC   C3111031   0.991   6.630   3.180 -0.3698  0.2604 -0.0490
  221DPPC   C3211032   1.034   6.070   4.289 -0.2223  0.5872  0.7787
  221DPPC   O3311033   0.996   5.934   4.316 -0.1604  0.5052  0.4542
  221DPPC   C3411034   0.877   5.914   4.254  0.1453  0.4684 -0.1293
  221DPPC   O3511035   0.800   6.007   4.229  0.4130  0.6279 -0.3678
  221DPPC   C3611036   0.826   5.772   4.274  0.0184  0.5134 -0.1355
  221DPPC   C3711037   0.799   5.705   4.139  0.0010  0.0294  0.1049
  221DPPC   C3811038   0.726   5.571   4.154 -0.1261 -0.0043 -0.7513
  221DPPC   C3911039   0.730   5.462   4.048  0.8774 -0.1747 -0.5516
  221DPPC   C4011040   0.658   5.507   3.920  0.5886  1.1138  0.0499
  221DPPC   C4111041   0.709   5.407   3.816 -0.4696  0.4552  0.1598
  221DPPC   C4211042   0.651   5.448   3.681 -0.0712  0.8547  0.1104
  221DPPC   C4311043   0.498   5.436   3.674 -0.0484  0.1938  0.7103
  221DPPC   C4411044   0.438   5.434   3.533 -0.1101 -0.4345  0.7401
  221DPPC   C4511045   0.290   5.394   3.531 -0.1247 -0.3360 -0.3947
  221DPPC   C4611046   0.226   5.437   3.398 -0.5728 -0.2520 -0.1529
  221DPPC   C4711047   0.093   5.366   3.374 -0.4557 -0.5961  0.1954
  221DPPC   C4811048   0.035   5.397   3.235  0.0926 -0.4348 -0.0027
  221DPPC   C4911049  -0.095   5.319   3.212 -0.1024 -0.0311 -0.2641
  221DPPC   C5011050  -0.073   5.169   3.231 -0.1311 -0.0947 -0.7124
  222DPPC    C111051   5.846   4.117   6.381 -0.2179 -0.2012  0.7422
  222DPPC    C211052   5.664   3.986   6.390  0.4258  0.5366  0.1721
  222DPPC    C311053   5.705   4.105   6.183  0.0125  0.1072  0.3049
  222DPPC    N411054   5.767   4.029   6.294  0.4662 -0.0440 -0.0496
  222DPPC    C511055   5.871   3.941   6.241  0.6403  0.0327  0.1659
  222DPPC    C611056   5.852   3.793   6.206 -0.4087  0.1886  0.0596
  222DPPC    O711057   5.735   3.768   6.128 -0.2068  0.1509 -0.2328
  222DPPC    P811058   5.708   3.609   6.136  0.1726  0.0862 -0.2261
  222DPPC    O911059   5.561   3.603   6.153  0.2084  0.1512  0.1313
  222DPPC   O1011060   5.799   3.538   6.228  0.3277  0.4467 -0.1001
  222DPPC   O1111061   5.765   3.577   5.989  0.5801  0.2803 -0.1135
  222DPPC   C1211062   5.673   3.626   5.891  0.0610 -0.6447 -0.1087
  222DPPC   C1311063   5.711   3.623   5.743 -0.0583 -0.0084 -0.1571
  222DPPC   O1411064   5.596   3.638   5.657 -0.2996  0.7189  0.2906
  222DPPC   C1511065   5.560   3.753   5.593 -0.5550  0.4576 -0.0334
  222DPPC   O1611066   5.624   3.854   5.621  0.1651  0.2230 -0.8054
  222DPPC   C1711067   5.485   3.724   5.463  0.1138  0.1952 -0.3595
  222DPPC   C1811068   5.503   3.815   5.341 -0.1641 -0.0465 -0.5820
  222DPPC   C1911069   5.639   3.825   5.272  0.1291  0.2011  0.0265
  222DPPC   C2011070   5.624   3.931   5.164  0.4013 -0.2571 -0.4663
  222DPPC   C2111071   5.513   3.898   5.064 -0.1529  0.9294 -0.2621
  222DPPC   C2211072   5.551   3.966   4.932  0.2582  0.3554 -0.4413
  222DPPC   C2311073   5.441   3.965   4.826 -0.2547 -0.4594  0.0853
  222DPPC   C2411074   5.483   4.058   4.712 -0.4864  0.1005  0.4492
  222DPPC   C2511075   5.373   4.073   4.608 -0.2103  0.1241  0.1580
  222DPPC   C2611076   5.303   4.209   4.611 -0.4025  0.0378 -0.2826
  222DPPC   C2711077   5.230   4.230   4.478  0.0036  0.0322 -0.5089
  222DPPC   C2811078   5.158   4.365   4.481  0.0800  0.0631  0.0246
  222DPPC   C2911079   5.084   4.369   4.615  0.3479 -0.4753  0.1920
  222DPPC   C3011080   5.011   4.498   4.651  0.1125 -0.4873 -0.2281
  222DPPC   C3111081   5.013   4.497   4.804  0.3129 -0.1944 -0.2280
  222DPPC   C3211082   5.792   3.494   5.725  0.3247  0.2441 -0.2365
  222DPPC   O3311083   5.887   3.498   5.618  0.3326 -0.1769 -0.2473
  222DPPC   C3411084   5.929   3.382   5.562  0.2077 -0.1992 -0.2957
  222DPPC   O3511085   5.875   3.273   5.575  0.3865 -0.2332  0.1804
  222DPPC   C3611086   6.046   3.398   5.463  0.1696 -0.0041 -0.3098
  222DPPC   C3711087   5.994   3.396   5.320  0.2085  0.7321 -0.3384
  222DPPC   C3811088   5.878   3.485   5.276 -0.8445 -0.4928 -0.1050
  222DPPC   C3911089   5.852   3.459   5.127 -0.0750 -0.3765 -0.2614
  222DPPC   C4011090   5.753   3.553   5.059  0.1573  0.2599  0.2724
  222DPPC   C4111091   5.760   3.534   4.908 -0.5452  0.2341  0.2392
  222DPPC   C4211092   5.668   3.630   4.832 -0.0770  0.6687  0.2246
  222DPPC   C4311093   5.674   3.607   4.681 -0.4973 -0.4416  0.3730
  222DPPC   C4411094   5.583   3.716   4.624  0.0528 -0.1996 -0.0575
  222DPPC   C4511095   5.582   3.707   4.472  0.1715 -0.0525 -0.0675
  222DPPC   C4611096   5.481   3.794   4.397  0.1611 -0.2429 -0.2777
  222DPPC   C4711097   5.516   3.798   4.248  0.3698  0.1952 -0.2189
  222DPPC   C4811098   5.423   3.888   4.166  0.3202  0.3377 -0.0080
  222DPPC   C4911099   5.271   3.871   4.178  0.3557  0.0606  0.0609
  222DPPC   C5011100   5.197   3.933   4.060  0.4029 -0.5586 -0.2960
  223DPPC    C111101   3.440   7.435   5.866  0.4384 -0.0170 -0.4774
  223DPPC    C211102   3.522   7.213   5.887  0.1814  0.1684 -0.3585
  223DPPC    C311103   3.293   7.252   5.833 -0.2021 -0.3718 -0.2569
  223DPPC    N411104   3.431   7.299   5.811 -0.2729 -0.1103 -0.1352
  223DPPC    C511105   3.492   7.293   5.677 -0.2919  0.2829 -0.1635
  223DPPC    C611106   3.437   7.385   5.567 -0.4523  0.3214 -0.0508
  223DPPC    O711107   3.479   7.350   5.435 -0.5151 -0.0992  0.0384
  223DPPC    P811108   3.396   7.432   5.325 -0.3186  0.0836  0.0240
  223DPPC    O911109   3.474   7.554   5.297 -0.1415  0.0005  0.1592
  223DPPC   O1011110   3.260   7.430   5.382 -0.3503 -0.0482 -0.0548
  223DPPC   O1111111   3.421   7.312   5.220 -0.0475  0.5626 -0.4644
  223DPPC   C1211112   3.541   7.338   5.147  0.1533  0.2357 -0.2517
  223DPPC   C1311113   3.605   7.219   5.074 -0.1114  0.2899 -0.5767
  223DPPC   O1411114   3.713   7.271   4.996  0.0559  0.5827 -0.1550
  223DPPC   C1511115   3.828   7.198   4.995 -0.2443  0.0976  0.1955
  223DPPC   O1611116   3.835   7.095   5.061  0.5038  0.5804  0.8936
  223DPPC   C1711117   3.947   7.248   4.913 -0.4855  0.6674  0.1854
  223DPPC   C1811118   3.902   7.308   4.780  0.0577  0.4176 -0.1176
  223DPPC   C1911119   3.844   7.201   4.687  0.2766  0.2168 -0.0236
  223DPPC   C2011120   3.819   7.253   4.545 -0.6027 -0.5533 -0.1604
  223DPPC   C2111121   3.780   7.156   4.434  0.4378 -0.2105 -0.8459
  223DPPC   C2211122   3.909   7.107   4.368  0.5704  0.0684 -0.7917
  223DPPC   C2311123   3.894   7.020   4.243  0.2669 -0.7198 -0.2112
  223DPPC   C2411124   3.862   7.115   4.127  0.3304  0.4145  0.6827
  223DPPC   C2511125   3.877   7.048   3.991  0.0121  0.4510  0.6295
  223DPPC   C2611126   4.022   7.031   3.943 -0.2168  0.4083 -0.0648
  223DPPC   C2711127   4.022   6.974   3.801  0.1342  0.0632  0.0731
  223DPPC   C2811128   3.974   6.828   3.801  0.5420 -0.0735  0.2176
  223DPPC   C2911129   4.016   6.757   3.672  0.3962  0.3476 -0.0648
  223DPPC   C3011130   3.943   6.623   3.663  0.6351  0.2097  0.0512
  223DPPC   C3111131   3.991   6.553   3.535  0.5209 -0.4259  0.3506
  223DPPC   C3211132   3.490   7.149   5.001 -0.0390 -0.3539 -0.0772
  223DPPC   O3311133   3.416   7.215   4.898  0.0523  0.4627  0.3726
  223DPPC   C3411134   3.314   7.146   4.839  0.4843  0.2744 -0.1672
  223DPPC   O3511135   3.281   7.040   4.892  0.5164  0.5082  0.3338
  223DPPC   C3611136   3.250   7.201   4.711  0.0284  0.3049  0.0708
  223DPPC   C3711137   3.348   7.206   4.594 -0.1556 -0.1294 -0.1043
  223DPPC   C3811138   3.284   7.237   4.458  0.1404 -0.9216 -0.4295
  223DPPC   C3911139   3.387   7.267   4.350  0.1371  0.4594 -0.0710
  223DPPC   C4011140   3.339   7.296   4.207 -0.3017  0.2444  0.0299
  223DPPC   C4111141   3.461   7.327   4.120 -0.2489 -0.1256 -0.0294
  223DPPC   C4211142   3.416   7.391   3.988 -0.3979 -0.3850 -0.1064
  223DPPC   C4311143   3.544   7.409   3.906 -0.2672  0.2651  0.2280
  223DPPC   C4411144   3.505   7.446   3.763 -0.2097 -0.3633  0.0470
  223DPPC   C4511145   3.622   7.472   3.668 -0.5274  0.5186 -0.1124
  223DPPC   C4611146   3.573   7.489   3.524 -0.2459  0.2313 -0.2449
  223DPPC   C4711147   3.691   7.530   3.436  0.1109 -0.5998 -0.1620
  223DPPC   C4811148   3.646   7.544   3.291  0.4476 -0.0443 -0.2160
  223DPPC   C4911149   3.769   7.517   3.203  0.4365 -1.0223  0.0600
  223DPPC   C5011150   3.735   7.542   3.056  0.0245 -0.1899  0.2851
  224DPPC    C111151   3.544   3.481   6.052 -0.1727 -0.4474 -0.0237
  224DPPC    C211152   3.327   3.396   5.979 -0.6444  0.5868 -1.1064
  224DPPC    C311153   3.342   3.609   6.065 -0.2263 -0.2861 -0.0250
  224DPPC    N411154   3.417   3.512   5.984  0.0291  0.0404 -0.1853
  224DPPC    C511155   3.437   3.581   5.856  0.0336  0.4326  0.0267
  224DPPC    C611156   3.543   3.528   5.759  0.0673 -0.1988  0.3999
  224DPPC    O711157   3.530   3.392   5.719  0.1339 -0.0126 -0.2807
  224DPPC    P811158   3.671   3.330   5.671  0.0072 -0.3777 -0.1889
  224DPPC    O911159   3.618   3.192   5.674  0.2970 -0.5074 -0.8517
  224DPPC   O1011160   3.769   3.386   5.766  0.0530 -0.0833 -0.4086
  224DPPC   O1111161   3.669   3.397   5.525 -0.1203  0.0708  0.0168
  224DPPC   C1211162   3.657   3.290   5.431  0.6615 -0.0301  0.0288
  224DPPC   C1311163   3.656   3.330   5.283 -0.0138 -0.1622 -0.0031
  224DPPC   O1411164   3.648   3.220   5.192 -0.4740 -0.1163 -0.0218
  224DPPC   C1511165   3.740   3.120   5.184  0.1285  0.4289 -0.0082
  224DPPC   O1611166   3.838   3.122   5.258  0.1031  0.0811  0.0403
  224DPPC   C1711167   3.748   3.047   5.050 -0.2201 -0.2004  0.3083
  224DPPC   C1811168   3.732   3.146   4.935  0.2710 -0.1840  0.2538
  224DPPC   C1911169   3.735   3.069   4.802  0.3087  0.3329 -0.0473
  224DPPC   C2011170   3.729   3.163   4.681  0.6444  0.3438 -0.0557
  224DPPC   C2111171   3.732   3.109   4.538  0.3047  0.8493 -0.2570
  224DPPC   C2211172   3.616   3.016   4.500  0.2054  0.9514 -0.2044
  224DPPC   C2311173   3.637   2.970   4.356 -0.4307 -0.1265  0.0361
  224DPPC   C2411174   3.523   2.886   4.299 -0.7364  0.3381 -0.0383
  224DPPC   C2511175   3.541   2.871   4.148  0.1768  0.1045  0.0870
  224DPPC   C2611176   3.668   2.792   4.116  0.1443  0.1554 -0.1733
  224DPPC   C2711177   3.656   2.712   3.986 -0.3484 -0.0302 -0.0173
  224DPPC   C2811178   3.631   2.796   3.860  0.4762 -0.0522 -0.1974
  224DPPC   C2911179   3.648   2.718   3.730 -0.4141 -0.6230  0.0250
  224DPPC   C3011180   3.631   2.806   3.606  0.7021  0.0557  0.3442
  224DPPC   C3111181   3.647   2.727   3.476 -0.3293 -0.0390  0.2679
  224DPPC   C3211182   3.784   3.413   5.271 -0.1248 -0.0057 -0.1120
  224DPPC   O3311183   3.770   3.514   5.171 -0.0052 -0.1642 -0.2903
  224DPPC   C3411184   3.886   3.578   5.139  0.2517 -0.6778 -0.4008
  224DPPC   O3511185   3.988   3.570   5.207 -0.2521  0.3017  0.4957
  224DPPC   C3611186   3.876   3.667   5.015 -0.1173 -0.0412  0.0769
  224DPPC   C3711187   3.793   3.613   4.897 -0.5854  0.1986  0.2931
  224DPPC   C3811188   3.807   3.713   4.782 -0.1496  0.1979  0.3402
  224DPPC   C3911189   3.740   3.661   4.654  0.5963 -0.7983  0.3519
  224DPPC   C4011190   3.749   3.760   4.538 -0.0703 -0.3902  0.6449
  224DPPC   C4111191   3.705   3.693   4.407  0.1061  0.0846  0.3412
  224DPPC   C4211192   3.751   3.759   4.277 -0.2130  0.4620  0.4190
  224DPPC   C4311193   3.672   3.699   4.161 -1.0204  0.6439  0.8624
  224DPPC   C4411194   3.703   3.780   4.035  0.5435 -0.0813  0.7480
  224DPPC   C4511195   3.648   3.704   3.914 -0.1104  0.4614  0.6917
  224DPPC   C4611196   3.635   3.800   3.796  0.6701  0.0736  0.2814
  224DPPC   C4711197   3.635   3.721   3.665 -0.0088  0.1321  0.2468
  224DPPC   C4811198   3.754   3.626   3.655  0.0616  0.2680 -0.2102
  224DPPC   C4911199   3.726   3.548   3.527 -0.2532 -0.0051  0.0233
  224DPPC   C5011200   3.819   3.430   3.495  0.3325  0.3471  0.4130
  225DPPC    C111201   8.951   3.125   5.300  0.2825  0.4062 -0.6826
  225DPPC    C211202   9.139   3.256   5.300 -0.1587  0.6676  0.0872
  225DPPC    C311203   9.037   3.189   5.508 -0.3538 -0.1457 -0.2750
  225DPPC    N411204   9.077   3.145   5.374  0.0746  0.2839 -0.2903
  225DPPC    C511205   9.161   3.025   5.381 -0.0520  0.1716 -0.6760
  225DPPC    C611206   9.291   3.029   5.462 -0.6061  0.3137  0.2156
  225DPPC    O711207   9.385   3.133   5.433 -0.0719 -0.2042  0.0588
  225DPPC    P811208   9.511   3.106   5.529 -0.0857 -0.3139  0.0466
  225DPPC    O911209   9.477   3.003   5.630 -0.3778 -0.4383 -0.1768
  225DPPC   O1011210   9.571   3.239   5.556 -0.5674 -0.1243  0.1873
  225DPPC   O1111211   9.596   3.029   5.416 -0.1559 -0.5207  0.1333
  225DPPC   C1211212   9.672   3.119   5.335  0.1648 -0.2478  0.7317
  225DPPC   C1311213   9.658   3.097   5.185 -0.3449 -0.1572  0.7630
  225DPPC   O1411214   9.738   3.196   5.118 -0.4617 -0.4272  0.2124
  225DPPC   C1511215   9.872   3.187   5.096 -0.4820 -0.2929  0.0313
  225DPPC   O1611216   9.942   3.154   5.191 -0.2967 -0.4749 -0.1665
  225DPPC   C1711217   9.919   3.293   4.997  0.2846 -0.5613  0.1032
  225DPPC   C1811218   9.915   3.228   4.858 -0.1221 -0.2582 -0.0289
  225DPPC   C1911219   9.952   3.330   4.751 -0.4673  0.1947  0.2792
  225DPPC   C2011220   9.912   3.274   4.614  0.7590  0.4042 -0.1757
  225DPPC   C2111221   9.964   3.358   4.497  0.2874  0.0981 -0.6110
  225DPPC   C2211222   9.887   3.314   4.373 -0.0944 -0.0333 -0.3284
  225DPPC   C2311223   9.937   3.376   4.242 -0.2830  0.3447 -0.2242
  225DPPC   C2411224   9.841   3.341   4.128  0.2636 -0.2058 -0.5216
  225DPPC   C2511225   9.892   3.390   3.992  0.3035  0.1012 -0.3958
  225DPPC   C2611226   9.793   3.370   3.877 -0.0171 -0.7576  0.0212
  225DPPC   C2711227   9.847   3.426   3.746  0.0595  0.2364  0.4650
  225DPPC   C2811228   9.770   3.364   3.629  0.3022  0.2303  0.3051
  225DPPC   C2911229   9.858   3.375   3.505  0.0596  0.0968  0.1201
  225DPPC   C3011230   9.789   3.316   3.382  0.0716 -0.4615  0.3793
  225DPPC   C3111231   9.870   3.347   3.256  0.2077 -0.4327  0.4746
  225DPPC   C3211232   9.508   3.099   5.159 -0.1930  0.1685 -0.1295
  225DPPC   O3311233   9.471   3.000   5.062  0.1279  0.3868 -0.4778
  225DPPC   C3411234   9.350   3.013   5.001 -0.1689 -0.5563 -0.1157
  225DPPC   O3511235   9.274   3.102   5.039  0.4587  0.1785 -0.5307
  225DPPC   C3611236   9.316   2.896   4.909  0.0654 -0.7578  0.0535
  225DPPC   C3711237   9.353   2.942   4.768 -0.5010  0.0322  0.1581
  225DPPC   C3811238   9.308   2.817   4.691 -0.0947  0.2008 -0.3613
  225DPPC   C3911239   9.343   2.831   4.543  0.2267  0.1817 -0.2871
  225DPPC   C4011240   9.350   2.695   4.473 -0.5654 -0.0689  0.1150
  225DPPC   C4111241   9.373   2.708   4.323  0.3666  0.5219  0.3061
  225DPPC   C4211242   9.390   2.570   4.259 -0.7125  0.5827 -0.1209
  225DPPC   C4311243   9.372   2.595   4.109  0.0492  0.2738 -0.2650
  225DPPC   C4411244   9.411   2.470   4.029  0.2021  0.1905 -0.0616
  225DPPC   C4511245   9.400   2.490   3.877 -0.2141  0.4707  0.0028
  225DPPC   C4611246   9.522   2.573   3.837 -0.2389  0.4582 -0.0972
  225DPPC   C4711247   9.516   2.606   3.687  0.1468 -0.1608 -0.2516
  225DPPC   C4811248   9.521   2.481   3.599  0.2755 -0.3229 -0.0174
  225DPPC   C4911249   9.541   2.506   3.449 -0.2755  0.5817  0.0554
  225DPPC   C5011250   9.673   2.583   3.435  0.3952 -0.6263 -0.3975
  226DPPC    C111251   3.823   7.963   5.562  0.6216 -0.2056 -0.0945
  226DPPC    C211252   3.794   8.193   5.539  0.3450 -0.0541  0.3497
  226DPPC    C311253   4.011   8.119   5.521  0.0780 -1.0963  0.6405
  226DPPC    N411254   3.873   8.080   5.489 -0.0255 -0.0383 -0.2729
  226DPPC    C511255   3.839   8.061   5.347 -0.2233  0.0756 -0.2424
  226DPPC    C611256   3.922   7.966   5.259 -0.7470  0.2069 -0.8853
  226DPPC    O711257   4.029   8.035   5.194 -0.0246 -0.0979 -0.0460
  226DPPC    P811258   4.118   7.921   5.124  0.0453 -0.1248  0.0872
  226DPPC    O911259   4.011   7.866   5.039  0.4267 -0.7678  0.0182
  226DPPC   O1011260   4.163   7.852   5.248  0.5025 -0.0373 -0.0276
  226DPPC   O1111261   4.204   8.048   5.077  0.2081 -0.3109 -0.1153
  226DPPC   C1211262   4.163   8.114   4.957 -0.0778 -0.2859 -0.0045
  226DPPC   C1311263   4.263   8.128   4.842 -0.0011  0.0886  0.1060
  226DPPC   O1411264   4.218   8.202   4.727  0.2535  0.0371 -0.0276
  226DPPC   C1511265   4.241   8.336   4.718 -0.2064  0.0959 -0.3735
  226DPPC   O1611266   4.275   8.397   4.819  0.0917 -0.4019 -0.1664
  226DPPC   C1711267   4.194   8.402   4.589 -0.1467  0.1284 -0.3789
  226DPPC   C1811268   4.303   8.471   4.506  0.3377  0.1619  0.2827
  226DPPC   C1911269   4.431   8.389   4.484  0.1364 -0.0562 -0.0717
  226DPPC   C2011270   4.521   8.431   4.368  0.0531 -0.7751 -0.4025
  226DPPC   C2111271   4.660   8.367   4.380  0.2301 -0.3786 -0.3037
  226DPPC   C2211272   4.734   8.383   4.247 -0.3323 -0.0619 -0.5843
  226DPPC   C2311273   4.876   8.329   4.260 -0.2583  0.1903 -0.3331
  226DPPC   C2411274   4.936   8.318   4.120  0.2095  0.5033 -0.1637
  226DPPC   C2511275   5.081   8.271   4.113  0.0883  0.1422 -0.3298
  226DPPC   C2611276   5.141   8.272   3.972 -0.5661 -1.0240 -0.6269
  226DPPC   C2711277   5.280   8.210   3.982 -0.2964 -0.2728  0.4340
  226DPPC   C2811278   5.358   8.235   3.854  0.1333 -0.3586  0.6767
  226DPPC   C2911279   5.285   8.168   3.737  0.1463  0.2050  0.3378
  226DPPC   C3011280   5.385   8.146   3.624  0.1280 -0.2432  0.4047
  226DPPC   C3111281   5.494   8.049   3.668  0.4459  0.1066  0.3942
  226DPPC   C3211282   4.326   7.992   4.813 -0.1979 -0.0637  0.3844
  226DPPC   O3311283   4.229   7.888   4.802 -0.2538 -0.0214  0.4827
  226DPPC   C3411284   4.282   7.763   4.803  0.0506  0.1051  0.3168
  226DPPC   O3511285   4.400   7.738   4.825  0.1889 -0.1671 -0.6873
  226DPPC   C3611286   4.186   7.646   4.777  0.3046 -0.0178 -0.0731
  226DPPC   C3711287   4.156   7.620   4.629 -0.2003 -0.5602  0.1227
  226DPPC   C3811288   4.267   7.554   4.548  0.1408 -0.1782  0.2782
  226DPPC   C3911289   4.215   7.428   4.479 -0.2891  0.2840 -0.2515
  226DPPC   C4011290   4.335   7.385   4.395 -0.4765  0.0430 -0.3983
  226DPPC   C4111291   4.300   7.294   4.277  0.3887 -0.4300 -0.2983
  226DPPC   C4211292   4.422   7.274   4.188  0.4932 -0.3321 -0.1768
  226DPPC   C4311293   4.377   7.207   4.058 -0.0248 -0.0620 -0.1388
  226DPPC   C4411294   4.496   7.201   3.963  0.1624  0.6791  0.0460
  226DPPC   C4511295   4.441   7.164   3.825  0.0201  0.1085  0.2567
  226DPPC   C4611296   4.554   7.100   3.745 -0.1563 -0.5701  0.5445
  226DPPC   C4711297   4.512   7.053   3.605  0.1964  0.2840  0.1451
  226DPPC   C4811298   4.636   6.996   3.536  0.2456  0.6006 -0.0271
  226DPPC   C4911299   4.611   6.957   3.391 -0.0193  0.4242  0.0653
  226DPPC   C5011300   4.741   6.925   3.315  0.4604  0.4409  0.8691
  227DPPC    C111301   4.694   4.141   1.521  0.3796  0.4989 -0.5167
  227DPPC    C211302   4.750   4.356   1.475 -0.2581  0.4986  0.2682
  227DPPC    C311303   4.521   4.304   1.459 -0.6037 -0.3222  0.5642
  227DPPC    N411304   4.642   4.277   1.537 -0.1686  0.2256  0.0800
  227DPPC    C511305   4.624   4.320   1.677  0.3582 -0.4619  0.3659
  227DPPC    C611306   4.607   4.470   1.703 -1.0116 -0.4713 -0.3835
  227DPPC    O711307   4.580   4.498   1.840  0.2034 -0.0791 -0.2054
  227DPPC    P811308   4.639   4.640   1.888 -0.1428 -0.0661  0.1936
  227DPPC    O911309   4.567   4.682   2.010 -0.1300  0.7047 -0.0605
  227DPPC   O1011310   4.654   4.725   1.767 -0.2824 -0.1272  0.1331
  227DPPC   O1111311   4.791   4.602   1.926 -0.1581 -0.7028 -0.3567
  227DPPC   C1211312   4.796   4.592   2.068 -0.0885  0.0755 -0.2991
  227DPPC   C1311313   4.932   4.535   2.107 -0.1708 -0.3832 -0.6769
  227DPPC   O1411314   4.941   4.460   2.228 -0.4133  0.0489 -0.3889
  227DPPC   C1511315   4.874   4.342   2.242 -0.1678 -0.0445  0.0187
  227DPPC   O1611316   4.815   4.298   2.144 -0.2626 -0.5315  0.2894
  227DPPC   C1711317   4.866   4.278   2.381  0.1162  0.1056  0.1070
  227DPPC   C1811318   4.982   4.184   2.415  0.2545  0.3438  0.2917
  227DPPC   C1911319   4.982   4.161   2.567 -0.0868 -0.0072  0.2411
  227DPPC   C2011320   5.086   4.065   2.624  0.1998 -0.1138 -0.4526
  227DPPC   C2111321   5.059   4.039   2.772  0.3267 -0.4647 -0.4885
  227DPPC   C2211322   5.167   3.960   2.846 -0.1630 -0.3736  0.3430
  227DPPC   C2311323   5.139   3.912   2.988  0.0516 -0.6876  0.2814
  227DPPC   C2411324   5.276   3.919   3.055  0.1981 -0.1214 -0.0719
  227DPPC   C2511325   5.227   3.866   3.190  0.0571 -0.5302 -0.2854
  227DPPC   C2611326   5.336   3.846   3.296  0.0045  0.1670 -0.0952
  227DPPC   C2711327   5.268   3.825   3.431  0.5300 -0.6990  0.0426
  227DPPC   C2811328   5.366   3.814   3.549  0.0060 -0.5585  0.4968
  227DPPC   C2911329   5.304   3.766   3.680  0.2306 -0.3761  0.6699
  227DPPC   C3011330   5.254   3.623   3.661  0.1977 -0.2698 -0.0819
  227DPPC   C3111331   5.204   3.583   3.800 -0.2264 -0.5064 -0.3000
  227DPPC   C3211332   5.035   4.646   2.084  0.0429 -0.3622  0.3458
  227DPPC   O3311333   5.025   4.741   2.191 -0.2786 -0.1645  0.1429
  227DPPC   C3411334   5.135   4.820   2.204 -0.5187  0.1947  0.0300
  227DPPC   O3511335   5.208   4.838   2.107 -0.6061  0.4950  0.0217
  227DPPC   C3611336   5.151   4.914   2.324  0.5580  0.3535 -0.2277
  227DPPC   C3711337   5.275   4.873   2.403 -0.2255 -0.5808  0.5389
  227DPPC   C3811338   5.310   4.961   2.524 -0.1814  0.3301 -0.1272
  227DPPC   C3911339   5.230   4.932   2.651  0.0625 -0.1606 -0.0817
  227DPPC   C4011340   5.271   5.024   2.766 -0.0273 -0.1332 -0.0720
  227DPPC   C4111341   5.212   5.001   2.905  0.0591 -0.2596 -0.0567
  227DPPC   C4211342   5.308   5.062   3.007  0.1545 -0.0682 -0.2603
  227DPPC   C4311343   5.232   5.059   3.140  0.6318 -0.6273  0.0028
  227DPPC   C4411344   5.300   5.122   3.262  0.3944 -0.3885  0.0123
  227DPPC   C4511345   5.236   5.064   3.389 -0.4595  0.1536 -0.1620
  227DPPC   C4611346   5.334   5.097   3.502 -0.5411 -0.5713  0.1282
  227DPPC   C4711347   5.298   5.009   3.622  0.1789 -0.8931  0.1100
  227DPPC   C4811348   5.404   5.036   3.730 -0.0527 -0.1882  0.1653
  227DPPC   C4911349   5.357   4.942   3.840 -0.0800 -0.0090  0.3080
  227DPPC   C5011350   5.440   4.953   3.968  0.5390  0.2967 -0.1134
  228DPPC    C111351   5.525   2.760   2.049  0.2581 -0.7980  0.0617
  228DPPC    C211352   5.687   2.683   1.879 -0.2986  0.0563  0.1574
  228DPPC    C311353   5.491   2.577   1.895 -0.6026 -0.0438 -0.0448
  228DPPC    N411354   5.547   2.712   1.912 -0.4368 -0.0780 -0.3062
  228DPPC    C511355   5.470   2.787   1.812 -0.4190  0.2301 -0.0896
  228DPPC    C611356   5.475   2.940   1.813 -0.1062  0.2211 -0.1048
  228DPPC    O711357   5.599   2.984   1.758  0.2201 -0.2076  0.2845
  228DPPC    P811358   5.587   3.140   1.722  0.5449 -0.2775 -0.1308
  228DPPC    O911359   5.451   3.161   1.669  0.4679 -0.1721  0.1101
  228DPPC   O1011360   5.706   3.174   1.640  0.4649  0.0839 -0.1007
  228DPPC   O1111361   5.588   3.213   1.865  0.3614 -0.6181  0.0430
  228DPPC   C1211362   5.713   3.183   1.927  0.4692  0.3158  0.2882
  228DPPC   C1311363   5.719   3.201   2.079  0.3363  0.1689  0.3107
  228DPPC   O1411364   5.648   3.100   2.151 -0.0486  0.0910 -0.1728
  228DPPC   C1511365   5.666   3.106   2.286  0.2791 -0.4563 -0.1867
  228DPPC   O1611366   5.764   3.153   2.343  0.3355 -0.2931 -0.4165
  228DPPC   C1711367   5.572   3.010   2.360 -0.1776  0.1018 -0.0282
  228DPPC   C1811368   5.521   3.084   2.484 -0.0590  0.1135  0.0137
  228DPPC   C1911369   5.440   2.987   2.569  0.2125 -0.0180  0.1238
  228DPPC   C2011370   5.388   3.072   2.684  0.4215 -0.0050  0.2095
  228DPPC   C2111371   5.301   2.992   2.782 -0.1173 -0.0137 -0.2675
  228DPPC   C2211372   5.257   3.101   2.880 -0.2100 -0.2700 -0.0232
  228DPPC   C2311373   5.194   3.044   3.008 -0.2324 -0.5818 -0.1727
  228DPPC   C2411374   5.061   2.979   2.968 -0.0533 -1.0746  0.0244
  228DPPC   C2511375   4.968   2.960   3.088  0.0979 -0.1313  0.3006
  228DPPC   C2611376   4.854   2.861   3.061 -0.2689  0.3611  0.0278
  228DPPC   C2711377   4.817   2.780   3.186 -0.2188 -0.2981 -0.3827
  228DPPC   C2811378   4.935   2.696   3.235 -0.2944 -0.0795  0.1828
  228DPPC   C2911379   4.883   2.629   3.362  0.1292 -0.0237  0.3837
  228DPPC   C3011380   4.993   2.531   3.405  0.1898 -0.4866 -0.8045
  228DPPC   C3111381   4.944   2.427   3.506  0.3015 -0.0597 -0.3073
  228DPPC   C3211382   5.678   3.344   2.114  0.0600  0.1490  0.0720
  228DPPC   O3311383   5.783   3.441   2.116 -0.0127  0.2247  0.3520
  228DPPC   C3411384   5.742   3.568   2.143  0.0287  0.4531 -0.6073
  228DPPC   O3511385   5.629   3.602   2.107 -0.5973 -0.7501  0.1342
  228DPPC   C3611386   5.859   3.654   2.190  0.0952 -0.0625  0.1919
  228DPPC   C3711387   5.837   3.746   2.310 -0.2430 -0.0185  0.0982
  228DPPC   C3811388   5.860   3.675   2.444  0.8064 -0.1505 -0.1369
  228DPPC   C3911389   5.854   3.788   2.547  0.0501 -0.1415 -0.1813
  228DPPC   C4011390   5.852   3.728   2.687  0.5095  0.2276 -0.0119
  228DPPC   C4111391   5.847   3.845   2.785 -0.1960  0.1205  0.0850
  228DPPC   C4211392   5.844   3.765   2.916  0.5883  0.1003  0.0966
  228DPPC   C4311393   5.825   3.863   3.032 -0.3970  0.3833 -0.2893
  228DPPC   C4411394   5.805   3.781   3.159  0.7131  0.2950 -0.1634
  228DPPC   C4511395   5.756   3.881   3.265  1.0783  0.4625 -0.1485
  228DPPC   C4611396   5.790   3.843   3.409 -0.7141 -0.1013  0.1513
  228DPPC   C4711397   5.925   3.906   3.442 -0.4143 -0.6551 -0.0104
  228DPPC   C4811398   6.046   3.834   3.381  0.0317 -0.1473  0.2642
  228DPPC   C4911399   6.166   3.915   3.431 -0.3739  0.5657  0.0973
  228DPPC   C5011400   6.295   3.867   3.365 -0.7272  0.5868 -0.6244
  229DPPC    C111401   3.275   3.956   2.115 -0.4168 -1.1097 -0.3102
  229DPPC    C211402   3.507   3.997   2.104 -0.6137  0.3871 -0.0757
  229DPPC    C311403   3.414   3.872   2.293  0.0232  0.2755  0.0118
  229DPPC    N411404   3.406   3.900   2.148 -0.0726 -0.1795 -0.0731
  229DPPC    C511405   3.432   3.773   2.079  0.8491 -0.2052  0.2927
  229DPPC    C611406   3.331   3.660   2.103  0.3766  0.1657  0.0906
  229DPPC    O711407   3.388   3.533   2.068 -0.1219 -0.1638  0.4677
  229DPPC    P811408   3.301   3.402   2.101 -0.2024 -0.2174  0.0557
  229DPPC    O911409   3.387   3.304   2.030 -0.3314 -0.1803 -0.1513
  229DPPC   O1011410   3.162   3.433   2.060 -0.2263 -0.4609 -0.0528
  229DPPC   O1111411   3.333   3.412   2.259 -0.1041 -0.0675  0.0255
  229DPPC   C1211412   3.355   3.282   2.314 -0.2074 -0.0311  0.1523
  229DPPC   C1311413   3.384   3.278   2.464  0.4204 -0.0394  0.0327
  229DPPC   O1411414   3.266   3.251   2.541  0.4104  0.1018  0.0660
  229DPPC   C1511415   3.236   3.121   2.570  0.3421  0.0783 -0.1126
  229DPPC   O1611416   3.294   3.030   2.511 -0.6167 -0.7528  0.2215
  229DPPC   C1711417   3.122   3.090   2.667  0.5809 -0.6051 -0.0479
  229DPPC   C1811418   3.174   2.990   2.771  0.5301 -0.0231  0.5403
  229DPPC   C1911419   3.075   2.966   2.885  0.1146  0.0188  0.1935
  229DPPC   C2011420   3.131   2.868   2.988  0.1920 -0.2084 -0.0650
  229DPPC   C2111421   3.071   2.891   3.127  0.8377 -0.3368  0.2370
  229DPPC   C2211422   3.025   2.758   3.188 -0.2721 -0.1531 -0.1833
  229DPPC   C2311423   2.956   2.786   3.321  0.1634 -0.3501  0.0881
  229DPPC   C2411424   2.880   2.661   3.365 -0.3292 -0.2105 -0.3511
  229DPPC   C2511425   2.845   2.654   3.514 -0.2443  0.4257 -0.3013
  229DPPC   C2611426   2.761   2.530   3.543 -0.7910  0.8517 -0.0553
  229DPPC   C2711427   2.766   2.477   3.686 -0.1595 -0.2216 -0.4637
  229DPPC   C2811428   2.745   2.594   3.783  0.3298 -0.1932 -0.3862
  229DPPC   C2911429   2.749   2.534   3.924  0.7285  0.0685 -0.2838
  229DPPC   C3011430   2.801   2.609   4.046 -0.0812  0.1048  0.0486
  229DPPC   C3111431   2.805   2.511   4.164 -0.5470  0.4235  0.3304
  229DPPC   C3211432   3.453   3.405   2.513 -0.0048  0.5832 -0.9646
  229DPPC   O3311433   3.575   3.437   2.444  0.4172 -0.1354 -0.5654
  229DPPC   C3411434   3.630   3.559   2.464 -0.2485  0.1797 -0.6036
  229DPPC   O3511435   3.571   3.660   2.502 -0.2317 -0.0863  0.1456
  229DPPC   C3611436   3.771   3.565   2.403  0.1719 -0.2747  0.3038
  229DPPC   C3711437   3.889   3.540   2.497  0.2413  0.2563  0.3597
  229DPPC   C3811438   3.866   3.618   2.627 -0.4090 -0.3266  0.6021
  229DPPC   C3911439   3.994   3.607   2.711 -0.0306 -0.3192  0.0310
  229DPPC   C4011440   3.984   3.693   2.837  0.4977 -0.1741 -0.0232
  229DPPC   C4111441   4.109   3.671   2.923  0.2209 -0.4053  0.3260
  229DPPC   C4211442   4.073   3.719   3.064  0.2677  0.1064  0.1674
  229DPPC   C4311443   4.188   3.751   3.160  0.5575 -1.0547  0.2312
  229DPPC   C4411444   4.125   3.786   3.295 -0.0058  0.0217 -0.2957
  229DPPC   C4511445   4.233   3.818   3.398 -0.1392 -0.2867 -0.0571
  229DPPC   C4611446   4.180   3.844   3.539 -0.0313 -0.4977  0.0225
  229DPPC   C4711447   4.128   3.988   3.549 -0.3628 -0.6339  0.2904
  229DPPC   C4811448   4.089   4.019   3.693 -0.8403 -0.2810  0.0874
  229DPPC   C4911449   4.073   4.170   3.708 -0.5166 -0.1437 -0.9125
  229DPPC   C5011450   4.025   4.195   3.851  0.8256 -0.7596 -0.3408
  230DPPC    C111451   5.529   1.120   2.260 -0.2661  0.3389  0.2438
  230DPPC    C211452   5.368   1.108   2.445 -0.2132  0.4934  0.7745
  230DPPC    C311453   5.350   1.265   2.264 -0.3254 -0.4632 -0.0042
  230DPPC    N411454   5.388   1.128   2.300 -0.1825 -0.2481  0.6736
  230DPPC    C511455   5.316   1.016   2.238  0.6653 -0.3216 -0.1971
  230DPPC    C611456   5.339   0.966   2.095 -0.1114  0.4024 -0.5846
  230DPPC    O711457   5.228   0.911   2.025 -0.3131  0.0909 -0.0297
  230DPPC    P811458   5.263   0.764   1.971  0.3114  0.1937  0.0829
  230DPPC    O911459   5.391   0.781   1.900  0.1977 -0.6548 -0.3425
  230DPPC   O1011460   5.150   0.715   1.888  0.1349  0.2132  0.3120
  230DPPC   O1111461   5.278   0.699   2.117 -0.3713 -0.1719 -0.0023
  230DPPC   C1211462   5.148   0.652   2.155 -0.2614 -0.5660 -0.1162
  230DPPC   C1311463   5.111   0.667   2.303  0.1264  0.3767 -0.1089
  230DPPC   O1411464   5.070   0.796   2.349 -0.2435  0.1328  0.2476
  230DPPC   C1511465   4.945   0.845   2.324 -0.1448  0.1482 -0.2277
  230DPPC   O1611466   4.871   0.806   2.234  0.2168 -0.0498 -0.4410
  230DPPC   C1711467   4.890   0.954   2.416  0.0613 -0.0030  0.0765
  230DPPC   C1811468   4.875   0.898   2.558 -0.1120 -0.1676 -0.0069
  230DPPC   C1911469   4.833   1.018   2.642 -0.5237 -0.6361  0.4668
  230DPPC   C2011470   4.833   0.978   2.790 -0.3767 -0.1090  0.6115
  230DPPC   C2111471   4.797   1.105   2.868  0.1516  0.6734 -0.3972
  230DPPC   C2211472   4.647   1.135   2.873  0.0276 -0.0043  0.0083
  230DPPC   C2311473   4.638   1.247   2.977  0.1130 -0.3921  0.4353
  230DPPC   C2411474   4.739   1.357   2.944 -0.5324  0.0821  0.0337
  230DPPC   C2511475   4.718   1.464   3.051 -0.3632 -0.2366  0.3845
  230DPPC   C2611476   4.765   1.407   3.186 -0.0815  0.0698  0.4164
  230DPPC   C2711477   4.747   1.491   3.312 -0.7113  0.1830  0.2545
  230DPPC   C2811478   4.780   1.393   3.425 -0.1982  0.1292  0.0606
  230DPPC   C2911479   4.914   1.321   3.414 -0.1300  0.1980  0.4029
  230DPPC   C3011480   4.929   1.248   3.547  0.0719 -0.2026  0.1644
  230DPPC   C3111481   5.048   1.153   3.560  0.3116  0.0698 -0.0416
  230DPPC   C3211482   5.232   0.609   2.377 -0.2824 -0.8510 -0.3851
  230DPPC   O3311483   5.237   0.592   2.518 -0.7035  0.7220 -0.1615
  230DPPC   C3411484   5.283   0.705   2.577  0.1530  0.3905 -0.1762
  230DPPC   O3511485   5.334   0.799   2.516 -0.0369  0.4706 -0.2152
  230DPPC   C3611486   5.270   0.714   2.729 -0.6152  0.1705 -0.2238
  230DPPC   C3711487   5.278   0.575   2.792  0.8501  0.2892 -0.1155
  230DPPC   C3811488   5.301   0.586   2.943  0.6793  0.1335 -0.0775
  230DPPC   C3911489   5.274   0.451   3.008 -0.0931  0.3602  0.0860
  230DPPC   C4011490   5.294   0.450   3.160 -0.1968  0.1267  0.0989
  230DPPC   C4111491   5.258   0.307   3.203 -1.0408  0.4071  0.3587
  230DPPC   C4211492   5.111   0.270   3.189 -0.7173 -0.6167 -0.4492
  230DPPC   C4311493   5.040   0.339   3.306  0.4909  0.3275 -0.2599
  230DPPC   C4411494   4.889   0.317   3.305  0.5566 -0.1582  0.2057
  230DPPC   C4511495   4.811   0.388   3.417  0.0772 -0.1572 -0.1229
  230DPPC   C4611496   4.659   0.375   3.410  0.0898  0.1358 -1.1808
  230DPPC   C4711497   4.592   0.457   3.521  1.0096  0.1620 -0.6306
  230DPPC   C4811498   4.600   0.605   3.486  0.1155  0.4915  0.5113
  230DPPC   C4911499   4.461   0.658   3.449  0.2192  0.2774 -0.1973
  230DPPC   C5011500   4.354   0.627   3.554  0.6177 -0.3653  0.0251
  231DPPC    C111501   1.072   0.230   1.747  0.0318 -0.3093  0.3245
  231DPPC    C211502   1.153   0.410   1.649 -0.2282 -0.7239 -0.4666
  231DPPC    C311503   1.322   0.282   1.762  0.0081  0.4568  0.0113
  231DPPC    N411504   1.197   0.274   1.684 -0.0037 -0.5016  0.1173
  231DPPC    C511505   1.224   0.199   1.561  0.2088  0.2099 -0.2714
  231DPPC    C611506   1.306   0.070   1.558 -0.4492 -0.2095 -0.3505
  231DPPC    O711507   1.240  -0.037   1.627 -0.3154  0.0428  0.1772
  231DPPC    P811508   1.346  -0.154   1.660 -0.1343  0.1708  0.0506
  231DPPC    O911509   1.441  -0.111   1.765 -0.3201  0.1534  0.2244
  231DPPC   O1011510   1.368  -0.235   1.538  0.1020  0.0387  0.1802
  231DPPC   O1111511   1.230  -0.234   1.737  0.0514 -0.0067  0.1480
  231DPPC   C1211512   1.219  -0.179   1.869  0.1446 -0.2019  0.2380
  231DPPC   C1311513   1.083  -0.201   1.935 -0.1243 -0.0325 -0.2534
  231DPPC   O1411514   1.063  -0.131   2.059 -0.0955  0.5025 -0.5492
  231DPPC   C1511515   0.962  -0.040   2.063  0.2694  0.8982 -0.2924
  231DPPC   O1611516   0.887  -0.027   1.966 -0.2574  0.1034  0.0039
  231DPPC   C1711517   0.952   0.054   2.184 -0.5105  0.3774  0.0522
  231DPPC   C1811518   0.988   0.198   2.148  0.7414  0.1180  0.2114
  231DPPC   C1911519   0.939   0.301   2.251  0.2717  0.3067 -0.1968
  231DPPC   C2011520   0.787   0.318   2.249  0.2349  0.0163  0.0169
  231DPPC   C2111521   0.750   0.435   2.340  0.0289 -0.0724  0.0472
  231DPPC   C2211522   0.803   0.418   2.482  0.2911 -0.2941 -0.0780
  231DPPC   C2311523   0.770   0.537   2.571  0.7994  0.3185 -0.7020
  231DPPC   C2411524   0.803   0.498   2.715  0.2239  0.2711 -0.5827
  231DPPC   C2511525   0.762   0.621   2.796 -0.3713 -0.5852  0.4474
  231DPPC   C2611526   0.798   0.607   2.944  0.6209  0.4284  0.3067
  231DPPC   C2711527   0.758   0.729   3.028 -0.1250  0.4026 -0.0100
  231DPPC   C2811528   0.764   0.691   3.176  0.1702 -0.4553 -0.2350
  231DPPC   C2911529   0.767   0.819   3.261 -0.0320 -0.2466 -0.5384
  231DPPC   C3011530   0.783   0.789   3.410  0.1695 -0.2768 -0.5650
  231DPPC   C3111531   0.665   0.710   3.466  0.2113 -0.1938 -0.3596
  231DPPC   C3211532   1.064  -0.353   1.930  0.2601 -0.0761 -0.4519
  231DPPC   O3311533   1.185  -0.421   1.964  0.2125  0.1477  0.1830
  231DPPC   C3411534   1.169  -0.554   1.989 -0.2008  0.2665  0.5787
  231DPPC   O3511535   1.103  -0.621   1.910 -0.1481 -0.0571  0.8077
  231DPPC   C3611536   1.274  -0.612   2.084 -0.4250 -0.1311  0.5877
  231DPPC   C3711537   1.203  -0.649   2.214 -0.6712 -0.1862  0.4369
  231DPPC   C3811538   1.318  -0.718   2.286 -0.4210  0.3189  0.5231
  231DPPC   C3911539   1.290  -0.793   2.417  0.0467  0.4347  0.6947
  231DPPC   C4011540   1.423  -0.850   2.467 -0.2350 -0.5484  0.3548
  231DPPC   C4111541   1.407  -0.931   2.596 -0.1558 -0.3281  0.5036
  231DPPC   C4211542   1.548  -0.971   2.639 -0.0687 -0.2152  0.3246
  231DPPC   C4311543   1.618  -0.839   2.673  0.1536 -0.1764 -0.2663
  231DPPC   C4411544   1.740  -0.849   2.764 -0.5051  0.3229  0.6934
  231DPPC   C4511545   1.804  -0.710   2.767  0.6937 -0.2125  0.5859
  231DPPC   C4611546   1.946  -0.723   2.711  0.4921 -0.0676  0.0319
  231DPPC   C4711547   2.029  -0.595   2.726 -0.3157  0.4605  0.1083
  231DPPC   C4811548   2.163  -0.632   2.790 -0.3969  0.0076  0.0196
  231DPPC   C4911549   2.283  -0.571   2.718 -0.0670  0.0538  0.6009
  231DPPC   C5011550   2.407  -0.647   2.767  0.2976 -0.0357 -0.4288
  232DPPC    C111551   7.702   6.907   1.228 -0.0859 -0.3249  0.0731
  232DPPC    C211552   7.806   7.034   1.409 -0.3557  0.1633  0.2198
  232DPPC    C311553   7.583   7.068   1.353  0.1812  0.5445  0.6870
  232DPPC    N411554   7.686   6.963   1.363 -0.1883  0.0955 -0.1104
  232DPPC    C511555   7.654   6.852   1.454 -0.0199  0.0790 -0.0723
  232DPPC    C611556   7.765   6.751   1.486 -0.2433 -0.0517  0.2944
  232DPPC    O711557   7.715   6.632   1.548  0.3157 -0.3169  0.2419
  232DPPC    P811558   7.787   6.496   1.500  0.3918 -0.1922  0.0038
  232DPPC    O911559   7.833   6.510   1.360  0.1245  0.3909 -0.0313
  232DPPC   O1011560   7.698   6.386   1.543 -0.1358  0.0151 -0.5407
  232DPPC   O1111561   7.910   6.498   1.604  0.5421  0.1537 -0.1769
  232DPPC   C1211562   7.869   6.458   1.735 -0.0840  0.1349 -0.3726
  232DPPC   C1311563   7.950   6.524   1.847  0.0452 -0.3230 -0.1929
  232DPPC   O1411564   7.953   6.447   1.968  0.1527  0.2516  0.1735
  232DPPC   C1511565   8.061   6.366   1.985 -0.1746 -0.1501  0.3318
  232DPPC   O1611566   8.152   6.370   1.903 -0.6979  0.1820 -0.2478
  232DPPC   C1711567   8.066   6.285   2.115  0.2757 -0.7555 -0.0566
  232DPPC   C1811568   8.194   6.309   2.195  0.5166 -0.0206 -0.6536
  232DPPC   C1911569   8.184   6.220   2.319  0.5959 -0.1551 -0.7435
  232DPPC   C2011570   8.291   6.245   2.427 -0.4177  0.1410  0.2094
  232DPPC   C2111571   8.258   6.156   2.547 -0.0863 -0.2803 -0.0081
  232DPPC   C2211572   8.358   6.160   2.663 -0.2875 -0.0646  0.1591
  232DPPC   C2311573   8.308   6.080   2.783 -0.6297 -0.2022 -0.0756
  232DPPC   C2411574   8.395   6.115   2.904 -0.1678 -0.2313 -0.3969
  232DPPC   C2511575   8.546   6.112   2.883 -0.0607  0.3062  0.2710
  232DPPC   C2611576   8.615   6.143   3.016 -0.4322 -0.0585  0.5509
  232DPPC   C2711577   8.614   6.018   3.104 -0.3853 -0.3709  0.1106
  232DPPC   C2811578   8.677   6.045   3.242 -0.2522 -0.1214  0.0021
  232DPPC   C2911579   8.605   6.159   3.314  0.3777  0.3373 -0.0857
  232DPPC   C3011580   8.654   6.179   3.458  0.1284  0.6033 -0.0371
  232DPPC   C3111581   8.574   6.290   3.527  0.2209  0.8863 -0.3801
  232DPPC   C3211582   7.900   6.669   1.851  0.2566 -0.2449 -0.3398
  232DPPC   O3311583   7.760   6.686   1.875  0.3346 -0.0954  0.0174
  232DPPC   C3411584   7.719   6.815   1.864  0.4171 -0.0639  0.0829
  232DPPC   O3511585   7.783   6.895   1.795  0.2010 -0.1973 -0.2768
  232DPPC   C3611586   7.581   6.843   1.923  0.3222  0.2491 -0.2824
  232DPPC   C3711587   7.589   6.938   2.043  0.1500  0.1507 -0.1924
  232DPPC   C3811588   7.621   6.853   2.166  0.2326  0.1352 -0.2239
  232DPPC   C3911589   7.630   6.956   2.279 -0.1599  0.5440 -0.5625
  232DPPC   C4011590   7.495   7.026   2.297 -0.6058 -0.3888 -0.2168
  232DPPC   C4111591   7.500   7.122   2.416  0.1559 -0.0712 -0.5016
  232DPPC   C4211592   7.550   7.041   2.535  0.4510  0.6408 -0.1337
  232DPPC   C4311593   7.556   7.122   2.665 -0.3964  0.2385  0.1646
  232DPPC   C4411594   7.602   7.041   2.786  0.2481  0.1729 -0.1223
  232DPPC   C4511595   7.729   6.960   2.760  0.3224  0.1492  0.2995
  232DPPC   C4611596   7.731   6.840   2.855  0.0231 -0.4664 -0.4622
  232DPPC   C4711597   7.875   6.789   2.860  0.0944 -0.2470 -0.2848
  232DPPC   C4811598   7.893   6.664   2.947  0.1901 -0.0992 -0.0893
  232DPPC   C4911599   7.786   6.565   2.900  0.5956 -0.5955  0.0361
  232DPPC   C5011600   7.781   6.448   2.999 -0.3618 -0.0015  0.7043
  233DPPC    C111601   0.413   5.384   1.194  0.7945 -0.3404  0.1477
  233DPPC    C211602   0.585   5.220   1.197  0.2543 -0.0202  0.2895
  233DPPC    C311603   0.621   5.437   1.136  0.7810 -0.1568  0.0952
  233DPPC    N411604   0.551   5.357   1.238  0.8262  0.1104  0.3373
  233DPPC    C511605   0.586   5.380   1.379  0.5653 -0.5237  0.5086
  233DPPC    C611606   0.572   5.524   1.427  0.1481 -0.2119 -0.5170
  233DPPC    O711607   0.694   5.579   1.478 -0.2843  0.1930  0.0991
  233DPPC    P811608   0.667   5.732   1.519 -0.4759  0.0789  0.4015
  233DPPC    O911609   0.578   5.777   1.409 -0.1735 -0.3428 -0.0164
  233DPPC   O1011610   0.792   5.805   1.549 -0.2664  0.0572 -0.3940
  233DPPC   O1111611   0.577   5.709   1.651  0.1049  0.0886  0.8070
  233DPPC   C1211612   0.532   5.826   1.720  0.1360  0.4921  0.1611
  233DPPC   C1311613   0.412   5.909   1.673 -0.6647 -0.1563  1.0189
  233DPPC   O1411614   0.394   6.029   1.750  0.2126  0.7020 -0.0817
  233DPPC   C1511615   0.458   6.143   1.713  0.5790  0.5436  0.0543
  233DPPC   O1611616   0.538   6.135   1.620  0.2459  0.5545 -0.2383
  233DPPC   C1711617   0.452   6.261   1.810 -0.0818 -0.0978  0.8118
  233DPPC   C1811618   0.587   6.301   1.869  0.1714  0.5816 -0.1923
  233DPPC   C1911619   0.555   6.406   1.975  0.4981  0.1947  0.2952
  233DPPC   C2011620   0.686   6.458   2.036  0.5674 -0.0328  0.3432
  233DPPC   C2111621   0.763   6.349   2.110  0.1751 -0.3670  0.2624
  233DPPC   C2211622   0.890   6.400   2.179  0.0958  0.0937  0.0693
  233DPPC   C2311623   0.956   6.279   2.245 -0.0193 -0.0639 -0.1026
  233DPPC   C2411624   1.102   6.309   2.277 -0.0335  0.1347 -0.2213
  233DPPC   C2511625   1.162   6.199   2.365 -0.5061  0.1300  0.0973
  233DPPC   C2611626   1.160   6.066   2.289 -0.1700  0.1146  0.1145
  233DPPC   C2711627   1.257   5.965   2.351 -0.3132 -0.2335 -0.2241
  233DPPC   C2811628   1.249   5.978   2.503 -0.1077  0.0245 -0.2340
  233DPPC   C2911629   1.353   5.885   2.567  0.2155 -0.1621 -1.0138
  233DPPC   C3011630   1.331   5.879   2.719 -0.3102 -0.2457 -1.0923
  233DPPC   C3111631   1.407   5.763   2.784 -0.8218 -0.2923 -0.5683
  233DPPC   C3211632   0.293   5.815   1.696 -0.6722 -0.4063  0.0155
  233DPPC   O3311633   0.307   5.737   1.815  0.3314 -0.0813  0.1236
  233DPPC   C3411634   0.198   5.660   1.841  0.1733  0.1868  0.2560
  233DPPC   O3511635   0.107   5.658   1.758  0.6025  0.3841 -0.2242
  233DPPC   C3611636   0.193   5.584   1.974  0.2803 -0.1647  0.0582
  233DPPC   C3711637   0.125   5.665   2.085  0.4824 -0.1600  0.1793
  233DPPC   C3811638   0.194   5.798   2.115  0.4848 -0.0819 -0.1682
  233DPPC   C3911639   0.120   5.886   2.215  0.3070 -0.0249 -0.3487
  233DPPC   C4011640   0.205   6.008   2.253  0.0776 -0.3304  1.2095
  233DPPC   C4111641   0.340   5.962   2.308  0.6474 -0.5989 -0.3838
  233DPPC   C4211642   0.431   6.080   2.344  0.1329 -0.3328  0.0469
  233DPPC   C4311643   0.563   6.023   2.394  0.3415 -0.3435 -0.5106
  233DPPC   C4411644   0.661   6.117   2.465  0.0650 -0.0660 -0.4954
  233DPPC   C4511645   0.759   6.040   2.554  0.3142  0.2290 -0.5133
  233DPPC   C4611646   0.810   6.129   2.667  0.2831 -0.4276  0.0239
  233DPPC   C4711647   0.934   6.067   2.732  0.7857  0.3026 -0.2290
  233DPPC   C4811648   0.990   6.156   2.844 -0.3185  0.5390  0.1465
  233DPPC   C4911649   1.081   6.073   2.935 -0.6983 -0.0789 -0.0348
  233DPPC   C5011650   0.986   5.963   2.984 -0.0432 -0.6608 -0.0495
  234DPPC    C111651   8.535   1.903   1.066  0.2039 -0.2107  0.2378
  234DPPC    C211652   8.464   1.682   1.115 -0.0196 -0.0686 -0.4705
  234DPPC    C311653   8.674   1.709   1.045  0.8726 -0.2649  0.6412
  234DPPC    N411654   8.575   1.777   1.130  0.1879 -0.3692 -0.0596
  234DPPC    C511655   8.624   1.789   1.268  0.0659 -0.6596  0.0088
  234DPPC    C611656   8.733   1.882   1.322 -0.3798 -0.0609 -0.1101
  234DPPC    O711657   8.862   1.866   1.262 -0.0497 -0.1001  0.5981
  234DPPC    P811658   8.958   1.991   1.293  0.1580 -0.0591 -0.1935
  234DPPC    O911659   8.861   2.099   1.264 -0.1333 -0.3787 -0.4081
  234DPPC   O1011660   9.076   1.961   1.208  0.3531  0.5143 -0.1369
  234DPPC   O1111661   8.979   1.942   1.445  0.2615  0.3313 -0.0801
  234DPPC   C1211662   8.933   2.040   1.539  0.2268  0.5580 -0.3313
  234DPPC   C1311663   8.904   1.966   1.670  0.6317  0.2717 -0.4026
  234DPPC   O1411664   8.880   2.058   1.777 -0.1808 -0.3460 -0.0505
  234DPPC   C1511665   8.780   2.020   1.862 -0.0261  0.5979  0.5593
  234DPPC   O1611666   8.671   1.983   1.819  0.3764 -0.0119  0.0480
  234DPPC   C1711667   8.791   2.078   2.003  0.2465  0.8524  0.4359
  234DPPC   C1811668   8.938   2.095   2.041  0.4142  0.2609  0.0518
  234DPPC   C1911669   8.966   2.107   2.191 -0.2281 -0.2739  0.2183
  234DPPC   C2011670   8.922   1.984   2.272 -0.3832 -0.2972  0.0995
  234DPPC   C2111671   8.952   1.998   2.421 -0.1187  0.0677  0.0151
  234DPPC   C2211672   8.894   1.873   2.488 -0.1792  0.1041  0.0302
  234DPPC   C2311673   8.886   1.906   2.638  0.0090  0.4539 -0.0343
  234DPPC   C2411674   8.774   1.828   2.706  0.4125 -0.0548  0.0584
  234DPPC   C2511675   8.771   1.862   2.856  0.6774  0.2200  0.0007
  234DPPC   C2611676   8.648   1.808   2.928  0.7454  0.0836  0.0154
  234DPPC   C2711677   8.643   1.833   3.079 -0.2112 -0.0169  0.0083
  234DPPC   C2811678   8.516   1.776   3.143  0.1824 -0.6618  0.2252
  234DPPC   C2911679   8.521   1.773   3.296  0.2701 -0.3239  0.2297
  234DPPC   C3011680   8.385   1.723   3.344  0.3159 -0.5677  0.1066
  234DPPC   C3111681   8.382   1.724   3.497 -0.9582 -0.1032  0.0842
  234DPPC   C3211682   9.035   1.894   1.701  0.5139  0.3388  0.2612
  234DPPC   O3311683   9.040   1.790   1.799  0.3045  0.0232 -0.0574
  234DPPC   C3411684   8.982   1.667   1.791 -0.1499  0.2498 -0.2943
  234DPPC   O3511685   8.961   1.625   1.678  0.3904 -0.4075 -0.1579
  234DPPC   C3611686   8.988   1.575   1.913 -0.5715 -0.2446 -0.6457
  234DPPC   C3711687   8.877   1.635   2.001 -0.4914 -0.4295 -0.4182
  234DPPC   C3811688   8.877   1.555   2.132  0.4926  0.0656 -0.1039
  234DPPC   C3911689   8.753   1.594   2.212  0.3976 -0.4779  0.0146
  234DPPC   C4011690   8.735   1.531   2.350 -0.4032  0.1031  0.1846
  234DPPC   C4111691   8.589   1.563   2.382 -0.3580  0.0067  0.5007
  234DPPC   C4211692   8.545   1.503   2.515 -0.0497  0.2968  0.7356
  234DPPC   C4311693   8.412   1.560   2.564 -0.5020  0.1885 -0.3399
  234DPPC   C4411694   8.383   1.488   2.696 -0.8218 -0.3689 -0.7076
  234DPPC   C4511695   8.279   1.576   2.766 -0.5559 -0.4739 -0.1765
  234DPPC   C4611696   8.253   1.508   2.901 -0.0096  0.5115  0.4409
  234DPPC   C4711697   8.375   1.472   2.986  0.1083  0.4055  0.2272
  234DPPC   C4811698   8.342   1.408   3.120  0.2074  0.2131  0.1598
  234DPPC   C4911699   8.465   1.368   3.202  0.1012 -0.0310  0.2014
  234DPPC   C5011700   8.425   1.271   3.314 -0.5943  0.0301  0.0141
  235DPPC    C111701   2.596   4.070   1.953  0.1072  0.2571  0.5783
  235DPPC    C211702   2.410   4.218   1.931  0.0079  0.1141 -0.0213
  235DPPC    C311703   2.500   4.168   2.144 -0.1704 -0.1769 -0.0580
  235DPPC    N411704   2.535   4.194   2.004 -0.0001  0.4071  0.0902
  235DPPC    C511705   2.629   4.307   2.009  0.4506  0.0299  0.2467
  235DPPC    C611706   2.677   4.357   1.873 -0.4836  0.3879  0.0409
  235DPPC    O711707   2.754   4.476   1.886 -0.4510  0.3722 -0.0082
  235DPPC    P811708   2.796   4.522   1.737  0.0448 -0.1581 -0.0354
  235DPPC    O911709   2.772   4.411   1.642 -0.7378 -0.2387  0.2523
  235DPPC   O1011710   2.929   4.585   1.724 -0.1804  0.2650 -0.2952
  235DPPC   O1111711   2.677   4.628   1.712 -0.0569 -0.1329  0.5461
  235DPPC   C1211712   2.700   4.729   1.810  0.6064 -0.1844  0.4521
  235DPPC   C1311713   2.583   4.821   1.847  0.4361 -0.1020 -0.2888
  235DPPC   O1411714   2.628   4.935   1.922  0.3371  0.2773 -0.7965
  235DPPC   C1511715   2.541   5.038   1.928  0.5183  0.3993 -0.2696
  235DPPC   O1611716   2.448   5.046   1.847 -0.0447 -0.2782  0.2947
  235DPPC   C1711717   2.557   5.136   2.045 -0.1294 -0.0849  0.2328
  235DPPC   C1811718   2.589   5.051   2.168 -0.4367  0.0499  0.4081
  235DPPC   C1911719   2.475   4.968   2.226 -0.6741  0.5463  0.6613
  235DPPC   C2011720   2.539   4.910   2.353 -0.7520  0.0057  0.4551
  235DPPC   C2111721   2.448   4.818   2.435 -0.3876 -0.1150  0.7261
  235DPPC   C2211722   2.508   4.816   2.576 -0.1551 -0.3095  0.6260
  235DPPC   C2311723   2.471   4.941   2.655 -0.2510 -0.1300  0.2984
  235DPPC   C2411724   2.545   4.933   2.788 -0.4356 -0.1220  0.4014
  235DPPC   C2511725   2.530   5.072   2.849  0.2525  0.0241  0.2514
  235DPPC   C2611726   2.382   5.112   2.859  0.3014  0.1465  0.4839
  235DPPC   C2711727   2.355   5.251   2.916 -0.6085  0.1311  0.0968
  235DPPC   C2811728   2.384   5.237   3.066  0.0344 -0.2160 -0.0571
  235DPPC   C2911729   2.357   5.359   3.153  1.5442  0.0187  0.1062
  235DPPC   C3011730   2.369   5.316   3.300 -0.4375  0.0946  0.3294
  235DPPC   C3111731   2.309   5.413   3.401 -0.3536  0.1296  0.3460
  235DPPC   C3211732   2.470   4.730   1.896  0.2103  0.2801 -0.0997
  235DPPC   O3311733   2.473   4.652   2.015 -0.2864  0.0578 -0.2305
  235DPPC   C3411734   2.359   4.588   2.052  0.1158 -0.7036 -0.2693
  235DPPC   O3511735   2.282   4.563   1.960  0.6107 -0.9260 -0.6244
  235DPPC   C3611736   2.365   4.522   2.190  0.2817 -0.2738 -0.0690
  235DPPC   C3711737   2.233   4.452   2.223  0.0923  0.1847  0.1589
  235DPPC   C3811738   2.241   4.370   2.352  0.2697 -0.5762 -0.3273
  235DPPC   C3911739   2.289   4.441   2.478 -0.1121 -0.3810 -0.2901
  235DPPC   C4011740   2.275   4.356   2.605 -0.0053 -0.4458 -0.3221
  235DPPC   C4111741   2.322   4.420   2.736 -0.4910 -0.4940 -0.1241
  235DPPC   C4211742   2.228   4.526   2.793 -0.0074 -0.2959  0.3101
  235DPPC   C4311743   2.308   4.588   2.908  0.0227 -0.1806  0.2268
  235DPPC   C4411744   2.202   4.674   2.976  0.0345  0.1096 -0.1144
  235DPPC   C4511745   2.252   4.730   3.110 -0.2684 -0.0975  0.0863
  235DPPC   C4611746   2.186   4.861   3.155 -0.2080 -0.0335 -0.0123
  235DPPC   C4711747   2.248   4.915   3.284  0.1923 -0.7536  0.1007
  235DPPC   C4811748   2.233   4.811   3.396 -0.0064 -0.3503  0.4488
  235DPPC   C4911749   2.295   4.872   3.522 -0.0692 -0.2158  0.4157
  235DPPC   C5011750   2.441   4.911   3.497 -0.2628  0.2481 -0.0177
  236DPPC    C111751   0.274   1.152   1.173  0.0900  0.1280 -0.2037
  236DPPC    C211752   0.141   1.278   1.015 -0.0663 -0.2094 -0.7648
  236DPPC    C311753   0.039   1.112   1.154  0.6687  0.0376  0.8625
  236DPPC    N411754   0.144   1.216   1.149  0.2717  0.3907 -0.4884
  236DPPC    C511755   0.118   1.308   1.260 -0.0782 -0.5281  0.2013
  236DPPC    C611756   0.184   1.446   1.267 -0.1228 -0.5316  0.7796
  236DPPC    O711757   0.327   1.440   1.278 -0.0344 -0.0564 -0.0463
  236DPPC    P811758   0.393   1.587   1.275 -0.2633  0.0562  0.3542
  236DPPC    O911759   0.315   1.662   1.174  0.4036  0.3119  0.0236
  236DPPC   O1011760   0.539   1.563   1.270 -0.2358  0.2430  0.2512
  236DPPC   O1111761   0.332   1.636   1.416  0.2573  0.0547  0.5814
  236DPPC   C1211762   0.401   1.577   1.526  0.5318 -0.5772  0.0777
  236DPPC   C1311763   0.378   1.662   1.651 -0.0453 -0.3217 -0.1969
  236DPPC   O1411764   0.475   1.645   1.756  0.5035 -0.2137 -0.6770
  236DPPC   C1511765   0.509   1.746   1.841  0.3317 -0.0651 -0.7830
  236DPPC   O1611766   0.484   1.861   1.807  0.0470  0.2463  0.4569
  236DPPC   C1711767   0.622   1.726   1.942 -0.2323  0.0773 -0.1190
  236DPPC   C1811768   0.592   1.820   2.059  0.5240 -0.1888  0.2973
  236DPPC   C1911769   0.700   1.800   2.165  0.7503  0.0694  0.1167
  236DPPC   C2011770   0.678   1.897   2.281  0.2157  0.1152 -0.0209
  236DPPC   C2111771   0.568   1.842   2.372  0.0638  0.6311  0.1136
  236DPPC   C2211772   0.578   1.896   2.514  0.5721 -0.1094  0.3656
  236DPPC   C2311773   0.481   1.816   2.602 -0.1424 -0.1055 -0.4042
  236DPPC   C2411774   0.339   1.815   2.546 -0.3496  0.1763  0.1146
  236DPPC   C2511775   0.244   1.788   2.663 -0.0655 -0.1464  0.2719
  236DPPC   C2611776   0.292   1.653   2.717 -0.3220 -0.4544 -0.2616
  236DPPC   C2711777   0.207   1.608   2.836 -0.3570  0.0373 -0.1016
  236DPPC   C2811778   0.194   1.706   2.954 -0.3289  0.2372 -0.2635
  236DPPC   C2911779   0.087   1.650   3.047  0.0621 -0.3010 -0.1317
  236DPPC   C3011780   0.086   1.726   3.180  0.1676 -0.1642 -0.2090
  236DPPC   C3111781  -0.036   1.700   3.269 -0.0299  0.1637 -0.3831
  236DPPC   C3211782   0.233   1.627   1.684 -0.2465  0.3641 -0.3351
  236DPPC   O3311783   0.220   1.486   1.702 -0.2509  0.4480  0.3361
  236DPPC   C3411784   0.093   1.437   1.695  0.0776 -0.3459 -0.2813
  236DPPC   O3511785   0.002   1.505   1.646 -0.1766 -0.2564  0.3013
  236DPPC   C3611786   0.064   1.297   1.748 -0.0697 -0.1249  0.2240
  236DPPC   C3711787   0.055   1.294   1.901  0.3520  0.0801  0.2540
  236DPPC   C3811788  -0.092   1.317   1.939  0.3854  0.2587  0.2727
  236DPPC   C3911789  -0.128   1.267   2.079  0.3755  0.3820  0.3149
  236DPPC   C4011790  -0.271   1.290   2.128  0.0089 -0.5510 -0.2806
  236DPPC   C4111791  -0.279   1.247   2.274  0.5399  0.0529 -0.0685
  236DPPC   C4211792  -0.259   1.096   2.289 -0.8517 -0.1061  0.3272
  236DPPC   C4311793  -0.264   1.053   2.436 -0.6048 -0.4362  0.2414
  236DPPC   C4411794  -0.254   0.902   2.454  0.0581 -0.4663 -0.3310
  236DPPC   C4511795  -0.253   0.886   2.607  0.1281 -0.5244 -0.3371
  236DPPC   C4611796  -0.220   0.745   2.655  0.2423 -0.2622  0.3594
  236DPPC   C4711797  -0.228   0.734   2.808  0.3196 -0.7826  0.3283
  236DPPC   C4811798  -0.101   0.795   2.869 -0.1514  0.2819  0.2595
  236DPPC   C4911799  -0.112   0.807   3.021  0.0018  0.2854  0.2696
  236DPPC   C5011800   0.012   0.877   3.077  0.3322  0.1707 -0.3199
  237DPPC    C111801   7.367   7.752   1.691  0.0290  0.2053  0.5197
  237DPPC    C211802   7.579   7.640   1.716 -0.1683  0.3119  0.5837
  237DPPC    C311803   7.424   7.569   1.569  0.5977  0.0402 -0.7913
  237DPPC    N411804   7.482   7.694   1.619 -0.1816 -0.0563  0.3910
  237DPPC    C511805   7.552   7.764   1.510 -0.6423 -0.4784 -0.1857
  237DPPC    C611806   7.594   7.910   1.530 -0.1917 -0.5208 -0.7779
  237DPPC    O711807   7.485   8.003   1.533  0.2169 -0.0589 -0.0036
  237DPPC    P811808   7.541   8.152   1.560 -0.2180  0.0183  0.4921
  237DPPC    O911809   7.444   8.253   1.514  0.6815  0.2893 -0.8704
  237DPPC   O1011810   7.684   8.151   1.524 -0.0414  0.0499  1.1728
  237DPPC   O1111811   7.521   8.136   1.719 -0.5673 -0.0609  0.4412
  237DPPC   C1211812   7.386   8.140   1.766 -0.8263 -0.3120 -0.2623
  237DPPC   C1311813   7.381   8.156   1.919  0.4176 -0.5064 -0.1892
  237DPPC   O1411814   7.381   8.290   1.969 -0.0024 -0.4812 -0.2540
  237DPPC   C1511815   7.270   8.368   1.954  0.4396  0.0591 -0.7545
  237DPPC   O1611816   7.170   8.316   1.904  0.4856 -0.3000 -0.4778
  237DPPC   C1711817   7.281   8.514   1.998  0.4924 -0.2559  0.3080
  237DPPC   C1811818   7.373   8.515   2.120  0.3713  0.1799  0.3955
  237DPPC   C1911819   7.382   8.654   2.184  0.5578  0.4809 -0.2763
  237DPPC   C2011820   7.446   8.643   2.322  0.5328  0.3936 -0.2717
  237DPPC   C2111821   7.339   8.613   2.427  0.7333  0.1419 -0.1373
  237DPPC   C2211822   7.405   8.629   2.564  0.3633 -0.5594  0.1285
  237DPPC   C2311823   7.309   8.614   2.682  0.2108 -0.5417  0.0065
  237DPPC   C2411824   7.371   8.673   2.808 -0.4234 -0.2454  0.1845
  237DPPC   C2511825   7.387   8.824   2.789 -0.1149 -0.2357  0.5007
  237DPPC   C2611826   7.483   8.872   2.898  0.3058  0.0550  0.0110
  237DPPC   C2711827   7.474   8.811   3.039  0.6066 -0.5756 -0.2386
  237DPPC   C2811828   7.580   8.863   3.136 -0.0774  1.0390 -0.3159
  237DPPC   C2911829   7.725   8.847   3.089 -0.1290  0.1988 -0.2146
  237DPPC   C3011830   7.813   8.912   3.196  0.0824 -0.1154 -0.1985
  237DPPC   C3111831   7.783   9.061   3.208  0.7701  0.0035  0.1289
  237DPPC   C3211832   7.476   8.049   1.973  0.1854 -0.3154  0.6007
  237DPPC   O3311833   7.402   7.930   1.997 -0.3081 -0.0621  0.3378
  237DPPC   C3411834   7.481   7.834   2.052  0.2317  0.4345  0.4366
  237DPPC   O3511835   7.599   7.817   2.020  0.0407  0.1468 -0.1259
  237DPPC   C3611836   7.420   7.722   2.136  0.6269 -0.6999 -0.7488
  237DPPC   C3711837   7.417   7.758   2.285  0.2951 -0.1181 -0.8941
  237DPPC   C3811838   7.385   7.641   2.379  1.4356  0.2113 -0.0731
  237DPPC   C3911839   7.366   7.684   2.524  0.2186 -0.1083 -0.1244
  237DPPC   C4011840   7.317   7.568   2.612 -0.8651 -0.0269 -0.6112
  237DPPC   C4111841   7.255   7.632   2.736  0.2725 -0.0181 -0.0308
  237DPPC   C4211842   7.196   7.521   2.823  0.4456  0.2186  0.3928
  237DPPC   C4311843   7.296   7.412   2.863  0.4867 -0.0953 -0.5299
  237DPPC   C4411844   7.406   7.480   2.945 -0.0459  0.5499 -0.3351
  237DPPC   C4511845   7.506   7.376   2.997  0.3817  0.9815 -0.2897
  237DPPC   C4611846   7.599   7.445   3.097  0.9296  0.5107 -0.4760
  237DPPC   C4711847   7.718   7.351   3.120  0.6645  0.3614  0.3148
  237DPPC   C4811848   7.678   7.211   3.167  0.0879  0.3716 -0.1393
  237DPPC   C4911849   7.806   7.137   3.129 -0.2044  0.3013 -1.0084
  237DPPC   C5011850   7.918   7.183   3.223 -0.8671  0.2513 -0.1804
  238DPPC    C111851   3.267   2.093   2.403 -0.5245 -0.0882 -0.8491
  238DPPC    C211852   3.344   2.151   2.187  0.3425 -0.2192 -0.3187
  238DPPC    C311853   3.112   2.104   2.214 -0.1334  0.4668 -0.2751
  238DPPC    N411854   3.230   2.163   2.279  0.0934  0.4928 -0.7086
  238DPPC    C511855   3.175   2.297   2.301 -0.0309  0.4449 -0.7259
  238DPPC    C611856   3.251   2.391   2.394  0.1917 -0.3456 -0.1002
  238DPPC    O711857   3.351   2.467   2.324 -0.3768  0.2495 -0.2709
  238DPPC    P811858   3.424   2.573   2.421 -0.1785 -0.1671  0.0358
  238DPPC    O911859   3.349   2.594   2.547 -0.5093  0.0667 -0.1983
  238DPPC   O1011860   3.490   2.684   2.349 -0.4899 -0.2124 -0.3252
  238DPPC   O1111861   3.540   2.464   2.448 -0.4128 -0.3512  0.3068
  238DPPC   C1211862   3.535   2.443   2.590 -0.9666 -0.4168  0.2826
  238DPPC   C1311863   3.585   2.313   2.652 -0.3866 -0.4428 -0.2245
  238DPPC   O1411864   3.536   2.299   2.786 -0.1110 -0.4102 -0.1187
  238DPPC   C1511865   3.524   2.175   2.841  0.6834 -0.2195  0.5004
  238DPPC   O1611866   3.521   2.074   2.770 -0.4883  0.4215 -0.4002
  238DPPC   C1711867   3.489   2.163   2.989 -0.2037  0.2750  0.3380
  238DPPC   C1811868   3.609   2.139   3.081 -0.0688 -0.1446  0.0510
  238DPPC   C1911869   3.586   2.143   3.232  0.1788  0.2405  0.0808
  238DPPC   C2011870   3.529   2.273   3.288  0.4892  0.2195  0.4471
  238DPPC   C2111871   3.507   2.252   3.438 -0.0009 -0.3651  0.2988
  238DPPC   C2211872   3.449   2.382   3.495 -0.4788 -0.0916 -0.7833
  238DPPC   C2311873   3.456   2.375   3.648  0.3355  1.0006 -0.7633
  238DPPC   C2411874   3.596   2.347   3.705  0.1602  0.5688 -0.5464
  238DPPC   C2511875   3.580   2.331   3.856  0.5912 -0.1075 -0.5673
  238DPPC   C2611876   3.526   2.205   3.924  0.5244  0.0900 -0.2483
  238DPPC   C2711877   3.556   2.207   4.074  0.6317  0.7196 -0.2736
  238DPPC   C2811878   3.461   2.298   4.152 -0.2820 -0.3495 -0.0999
  238DPPC   C2911879   3.485   2.279   4.301  0.5467  0.0415 -0.1815
  238DPPC   C3011880   3.444   2.138   4.342 -0.3367  0.3788  0.1118
  238DPPC   C3111881   3.450   2.098   4.490 -0.2950  0.0572  0.0247
  238DPPC   C3211882   3.737   2.318   2.637 -0.3583  0.2295  0.2565
  238DPPC   O3311883   3.803   2.444   2.652 -0.2969  0.2563 -0.2144
  238DPPC   C3411884   3.937   2.450   2.634 -0.2761  0.0062 -0.1411
  238DPPC   O3511885   4.000   2.347   2.610 -0.1881  0.2036 -0.7556
  238DPPC   C3611886   4.004   2.588   2.636 -0.2978  0.0197 -0.4085
  238DPPC   C3711887   4.077   2.622   2.766 -0.2507  0.0957 -0.4553
  238DPPC   C3811888   4.164   2.748   2.756 -0.2652  0.1597  0.2008
  238DPPC   C3911889   4.249   2.763   2.882  0.0067 -0.4656  0.0971
  238DPPC   C4011890   4.156   2.756   3.003 -0.0751 -0.3572  0.0419
  238DPPC   C4111891   4.223   2.761   3.141  0.6491 -0.8459 -0.2839
  238DPPC   C4211892   4.119   2.731   3.249  0.3212  0.0339 -0.3481
  238DPPC   C4311893   4.163   2.727   3.395 -0.4292 -0.2014 -0.1264
  238DPPC   C4411894   4.060   2.718   3.509  0.2015  0.1036  0.4731
  238DPPC   C4511895   3.982   2.587   3.504  0.2702  0.0686  0.3155
  238DPPC   C4611896   4.045   2.469   3.579 -0.2366 -0.2268  0.2789
  238DPPC   C4711897   3.956   2.345   3.566 -0.5829  0.0495 -0.0120
  238DPPC   C4811898   3.985   2.226   3.657  0.0147 -0.3403 -0.7009
  238DPPC   C4911899   4.093   2.138   3.594  0.3949  0.1024 -0.6790
  238DPPC   C5011900   4.038   2.104   3.455  0.1919 -0.5955 -0.4371
  239DPPC    C111901   3.297   2.653   2.066 -0.0141  0.0663  0.1162
  239DPPC    C211902   3.477   2.750   1.934 -0.0065  0.0651  0.2145
  239DPPC    C311903   3.311   2.606   1.839 -0.7221  0.2815  0.6220
  239DPPC    N411904   3.334   2.713   1.937 -0.1108  0.4701  0.2752
  239DPPC    C511905   3.266   2.838   1.901 -0.5225  0.0284 -0.5031
  239DPPC    C611906   3.114   2.822   1.886 -0.5445  0.2188 -0.4890
  239DPPC    O711907   3.046   2.916   1.803  0.0556  0.6809 -0.4670
  239DPPC    P811908   2.897   2.862   1.775  0.0964  0.0502  0.4960
  239DPPC    O911909   2.928   2.723   1.737  0.1117  0.1307  0.2073
  239DPPC   O1011910   2.846   2.960   1.676  0.0275 -0.4449  0.0409
  239DPPC   O1111911   2.848   2.885   1.927 -0.4467 -0.1495  0.3555
  239DPPC   C1211912   2.726   2.960   1.930  0.0360  0.6356  0.8906
  239DPPC   C1311913   2.613   2.858   1.942  0.2255  0.3110  0.0485
  239DPPC   O1411914   2.478   2.898   1.914  0.0488 -0.3739 -0.0964
  239DPPC   C1511915   2.374   2.811   1.914 -0.2817  0.0167 -0.2364
  239DPPC   O1611916   2.379   2.689   1.901 -0.3895  0.0323 -0.4359
  239DPPC   C1711917   2.236   2.875   1.934 -0.1393  0.2154  0.1007
  239DPPC   C1811918   2.182   2.844   2.074 -0.8515 -0.4398 -0.3185
  239DPPC   C1911919   2.058   2.930   2.098 -0.3826  0.0958  0.2072
  239DPPC   C2011920   1.991   2.916   2.234  0.4198 -0.1063  0.5865
  239DPPC   C2111921   2.083   2.976   2.341  0.2870  0.8731  0.1587
  239DPPC   C2211922   1.998   2.970   2.468 -0.2800  0.2227 -0.2411
  239DPPC   C2311923   2.060   3.064   2.572  0.3924 -1.0509  0.5323
  239DPPC   C2411924   1.987   3.063   2.706 -0.7795 -0.1596 -0.0816
  239DPPC   C2511925   1.860   3.148   2.704 -0.7064 -0.0553 -0.4362
  239DPPC   C2611926   1.795   3.172   2.841  0.0725 -0.3051 -0.0204
  239DPPC   C2711927   1.892   3.232   2.943 -0.1299  0.0084 -0.0118
  239DPPC   C2811928   1.809   3.243   3.071 -0.0836  0.0924  0.0107
  239DPPC   C2911929   1.886   3.343   3.158  0.2452 -0.3530  0.2331
  239DPPC   C3011930   1.795   3.381   3.274 -0.2938 -0.2698 -0.2157
  239DPPC   C3111931   1.693   3.484   3.223  0.5836  0.6943 -0.0417
  239DPPC   C3211932   2.642   2.824   2.088  0.4520  0.3014  0.0012
  239DPPC   O3311933   2.611   2.922   2.187 -0.0276 -0.1981  0.3508
  239DPPC   C3411934   2.605   2.875   2.315 -0.0890 -0.0159  0.4150
  239DPPC   O3511935   2.621   2.757   2.344 -0.1663 -0.0196  0.4423
  239DPPC   C3611936   2.564   2.980   2.419  0.3151  0.1555  0.4066
  239DPPC   C3711937   2.551   2.910   2.555 -0.4203 -0.5623 -0.0173
  239DPPC   C3811938   2.453   2.988   2.642  0.1923 -0.1076  0.2763
  239DPPC   C3911939   2.452   2.928   2.783  0.1253  0.3563  0.4754
  239DPPC   C4011940   2.376   3.017   2.882 -0.3058  0.2256  0.2639
  239DPPC   C4111941   2.432   2.986   3.021  0.5412  0.6123  0.0144
  239DPPC   C4211942   2.350   3.060   3.126  0.1262  0.0095  0.1209
  239DPPC   C4311943   2.389   3.039   3.272 -0.0696  0.9663  0.3179
  239DPPC   C4411944   2.296   3.095   3.381 -1.0859  0.0344 -0.0513
  239DPPC   C4511945   2.327   3.238   3.425 -0.2409 -0.2624  0.3479
  239DPPC   C4611946   2.208   3.310   3.488 -0.1838 -0.4408  0.6588
  239DPPC   C4711947   2.221   3.352   3.635  0.4461  0.7702  0.2681
  239DPPC   C4811948   2.087   3.389   3.698  0.0567  0.2886 -0.2657
  239DPPC   C4911949   2.114   3.444   3.838 -0.0885  0.3285 -0.2529
  239DPPC   C5011950   2.159   3.330   3.929  0.0702 -0.0432 -0.7902
  240DPPC    C111951   1.260   4.726   1.275  0.3766  0.1918  0.0008
  240DPPC    C211952   1.462   4.740   1.161  0.1685  0.4150 -0.2218
  240DPPC    C311953   1.244   4.779   1.053 -0.1422  0.1150  0.1561
  240DPPC    N411954   1.330   4.802   1.171  0.1291  0.3079 -0.0791
  240DPPC    C511955   1.341   4.947   1.193  0.0451  0.2580  0.2923
  240DPPC    C611956   1.401   4.983   1.329 -0.0469  0.3207  0.3166
  240DPPC    O711957   1.306   5.023   1.428 -0.5687 -0.0744 -0.0230
  240DPPC    P811958   1.396   5.050   1.559 -0.3479  0.1470 -0.2207
  240DPPC    O911959   1.305   5.127   1.647  0.4725 -0.1061  0.8557
  240DPPC   O1011960   1.517   5.115   1.503 -0.0957  0.0885  0.2561
  240DPPC   O1111961   1.410   4.893   1.590  0.4189  0.3523  0.4810
  240DPPC   C1211962   1.301   4.850   1.672  0.2449  0.4759  0.3130
  240DPPC   C1311963   1.261   4.703   1.684  0.3694  0.3970 -0.2037
  240DPPC   O1411964   1.140   4.679   1.757  0.2749 -0.0055 -0.4918
  240DPPC   C1511965   1.027   4.647   1.689  0.2435 -0.1087 -0.3925
  240DPPC   O1611966   1.041   4.635   1.567 -0.7106  0.0392 -0.5241
  240DPPC   C1711967   0.893   4.623   1.759  0.4640  0.0031  0.0728
  240DPPC   C1811968   0.836   4.742   1.836 -0.0258 -0.1728 -0.0135
  240DPPC   C1911969   0.691   4.708   1.871 -0.3110  0.3993 -0.6115
  240DPPC   C2011970   0.652   4.828   1.957  0.5893  0.2354  0.0404
  240DPPC   C2111971   0.580   4.770   2.079  0.7351 -0.1306 -0.0477
  240DPPC   C2211972   0.540   4.886   2.170 -0.2728 -0.3478 -0.1983
  240DPPC   C2311973   0.678   4.941   2.208 -0.4205  0.1824 -0.4288
  240DPPC   C2411974   0.657   5.046   2.318 -0.4646 -0.8786  0.6037
  240DPPC   C2511975   0.801   5.081   2.359 -0.4216 -0.2362 -0.0660
  240DPPC   C2611976   0.885   5.162   2.260 -0.1083  0.5483  0.8381
  240DPPC   C2711977   1.020   5.170   2.332  0.1065  0.7705  0.4163
  240DPPC   C2811978   0.986   5.221   2.472 -0.4652  0.1049  0.5280
  240DPPC   C2911979   1.110   5.273   2.546  0.3261 -0.2315 -0.5478
  240DPPC   C3011980   1.078   5.309   2.691 -0.3114 -0.0604 -0.7307
  240DPPC   C3111981   1.166   5.421   2.747 -0.1011 -0.4214 -0.3392
  240DPPC   C3211982   1.389   4.638   1.736  0.0852 -0.0232 -0.0237
  240DPPC   O3311983   1.431   4.679   1.867 -0.1011 -0.5677  0.2121
  240DPPC   C3411984   1.512   4.589   1.927  0.0311 -0.7031 -0.1632
  240DPPC   O3511985   1.562   4.497   1.862  0.5047 -0.3700 -0.2749
  240DPPC   C3611986   1.541   4.606   2.077 -0.3575 -0.6760 -0.0917
  240DPPC   C3711987   1.441   4.703   2.141  0.0278 -0.1068 -0.3481
  240DPPC   C3811988   1.469   4.684   2.290  0.0380 -0.4275 -0.3895
  240DPPC   C3911989   1.499   4.539   2.328 -0.1958 -0.4826 -0.4186
  240DPPC   C4011990   1.507   4.509   2.478 -0.4414  0.3588 -0.2349
  240DPPC   C4111991   1.377   4.524   2.558 -0.3933 -0.2402 -0.0439
  240DPPC   C4211992   1.411   4.513   2.707  0.3943  0.2135 -0.1801
  240DPPC   C4311993   1.291   4.566   2.785  0.6450  0.5622 -0.0314
  240DPPC   C4411994   1.307   4.575   2.937  0.2644  0.3546  0.0235
  240DPPC   C4511995   1.201   4.667   2.998 -0.4475 -0.2067 -0.3576
  240DPPC   C4611996   1.233   4.672   3.147  0.4371  0.5598 -0.5646
  240DPPC   C4711997   1.361   4.749   3.182  0.3396  0.4748  0.0004
  240DPPC   C4811998   1.376   4.757   3.334 -0.1819 -0.1169  0.0869
  240DPPC   C4911999   1.486   4.856   3.368 -0.3491  0.2540 -0.4288
  240DPPC   C5012000   1.483   4.906   3.513  0.0401  0.5771 -0.5285
  241DPPC    C112001   3.034   3.248   1.803 -0.1573  0.0680 -0.8154
  241DPPC    C212002   3.238   3.288   1.709 -0.2185  0.0696 -0.3408
  241DPPC    C312003   3.041   3.307   1.577  0.4681 -0.0782 -0.8623
  241DPPC    N412004   3.100   3.339   1.708 -0.1555  0.2374 -0.6534
  241DPPC    C512005   3.098   3.484   1.728 -0.0946  0.1468  0.0579
  241DPPC    C612006   2.957   3.534   1.759 -0.3448 -0.3575 -0.2534
  241DPPC    O712007   2.960   3.677   1.762  0.1208 -0.3727  0.1140
  241DPPC    P812008   2.808   3.714   1.801  0.2044 -0.0324  0.1168
  241DPPC    O912009   2.723   3.613   1.736 -0.1326 -0.0586  0.5949
  241DPPC   O1012010   2.774   3.857   1.782  0.1167 -0.0839 -0.1103
  241DPPC   O1112011   2.812   3.679   1.958  0.4682 -0.6101 -0.0177
  241DPPC   C1212012   2.893   3.787   2.005 -0.0931  0.0806 -0.6066
  241DPPC   C1312013   2.891   3.795   2.158 -0.2400  0.4149 -0.6258
  241DPPC   O1412014   2.972   3.905   2.201  0.1032 -0.0491 -0.0701
  241DPPC   C1512015   2.912   4.024   2.229 -0.2239 -0.3858  0.6818
  241DPPC   O1612016   2.837   4.071   2.144 -0.5486 -0.6083  0.8416
  241DPPC   C1712017   2.984   4.109   2.333 -0.4730 -0.0680  0.5972
  241DPPC   C1812018   3.073   4.044   2.440  0.3661 -0.1082 -0.1079
  241DPPC   C1912019   3.130   4.158   2.524  0.6304 -0.0016 -0.4311
  241DPPC   C2012020   3.248   4.116   2.611  0.0793 -0.1520  0.2551
  241DPPC   C2112021   3.210   4.021   2.725 -0.4971  0.1475  0.3156
  241DPPC   C2212022   3.331   4.012   2.819  0.0813  0.0639 -0.4270
  241DPPC   C2312023   3.357   3.866   2.856 -0.1899  0.1285  0.0224
  241DPPC   C2412024   3.476   3.872   2.952 -0.1522  0.0236 -0.0183
  241DPPC   C2512025   3.521   3.738   3.011 -0.4136  0.0339  0.2050
  241DPPC   C2612026   3.641   3.758   3.103 -0.3447 -0.3504  0.2015
  241DPPC   C2712027   3.688   3.620   3.150  0.0061 -0.4182 -0.3357
  241DPPC   C2812028   3.700   3.519   3.036  0.0863 -0.7969  0.0095
  241DPPC   C2912029   3.757   3.391   3.098  0.4459 -0.4386  0.4243
  241DPPC   C3012030   3.781   3.288   2.987  0.0669 -0.3019  0.2128
  241DPPC   C3112031   3.654   3.281   2.902 -0.0023  0.2980  0.2631
  241DPPC   C3212032   2.953   3.662   2.202 -0.2642  0.7025  0.2910
  241DPPC   O3312033   2.950   3.629   2.341 -0.1736  0.6411  0.2785
  241DPPC   C3412034   3.053   3.670   2.419  0.0432 -0.1949  0.4394
  241DPPC   O3512035   3.165   3.708   2.384 -0.3635 -0.2833 -0.9949
  241DPPC   C3612036   3.021   3.633   2.564  0.1666 -0.2705  0.4480
  241DPPC   C3712037   3.131   3.551   2.631  0.0912 -0.8229 -0.0969
  241DPPC   C3812038   3.093   3.513   2.774  0.3221  0.2932  0.2688
  241DPPC   C3912039   3.195   3.423   2.844  0.1322  0.2213  0.4538
  241DPPC   C4012040   3.140   3.397   2.984 -0.3859 -0.2980  0.1563
  241DPPC   C4112041   3.231   3.317   3.078 -0.2379 -0.5149 -0.1725
  241DPPC   C4212042   3.157   3.289   3.208 -0.5947 -0.4016 -0.3493
  241DPPC   C4312043   3.247   3.207   3.301 -0.7863  0.0940  0.2851
  241DPPC   C4412044   3.202   3.247   3.441 -0.2601  0.0889  0.4562
  241DPPC   C4512045   3.188   3.399   3.451 -0.2848  0.1299 -0.1872
  241DPPC   C4612046   3.091   3.420   3.567  0.4806  0.0042  0.4902
  241DPPC   C4712047   3.051   3.560   3.615  0.4052  0.1378  0.0428
  241DPPC   C4812048   2.926   3.555   3.703  0.5996 -0.0787  0.3091
  241DPPC   C4912049   2.889   3.696   3.750 -0.0477 -0.1289 -0.0392
  241DPPC   C5012050   2.761   3.697   3.833 -0.0484  0.4762 -0.0428
  242DPPC    C112051   5.222   5.196   1.897 -0.0496 -0.0996  0.3070
  242DPPC    C212052   5.217   5.179   1.667  0.4945  0.2686  0.2709
  242DPPC    C312053   5.043   5.298   1.773 -0.0080  0.9380  0.0135
  242DPPC    N412054   5.187   5.273   1.776 -0.1879 -0.0598  0.3721
  242DPPC    C512055   5.269   5.394   1.771  0.0280 -0.2111  0.2271
  242DPPC    C612056   5.241   5.501   1.877  0.0012 -0.1777  0.1861
  242DPPC    O712057   5.336   5.608   1.886 -0.5381  0.2499  0.8906
  242DPPC    P812058   5.264   5.752   1.886 -0.2473  0.4026  0.0244
  242DPPC    O912059   5.132   5.715   1.941 -0.2907 -0.4111 -0.6140
  242DPPC   O1012060   5.276   5.822   1.757 -0.0958  0.3027 -0.0167
  242DPPC   O1112061   5.368   5.827   1.984 -0.1748  0.4694 -0.1031
  242DPPC   C1212062   5.433   5.740   2.077 -0.1706  0.5378 -0.0421
  242DPPC   C1312063   5.528   5.825   2.162 -0.0059  0.2715  0.0418
  242DPPC   O1412064   5.618   5.764   2.256 -0.1713 -0.0148  0.0161
  242DPPC   C1512065   5.725   5.694   2.209 -0.3526 -0.3114  0.0468
  242DPPC   O1612066   5.760   5.699   2.092 -0.2591  0.1348  0.0955
  242DPPC   C1712067   5.799   5.607   2.311 -0.2065  0.1195  0.3106
  242DPPC   C1812068   5.730   5.597   2.447 -0.0366 -0.2550  0.3706
  242DPPC   C1912069   5.813   5.662   2.559  0.0657  0.5186 -0.1481
  242DPPC   C2012070   5.753   5.641   2.698  0.0356 -0.2489 -0.2690
  242DPPC   C2112071   5.864   5.665   2.800 -0.1962  0.5433 -0.1969
  242DPPC   C2212072   5.809   5.694   2.940 -0.1546  0.6917 -0.2106
  242DPPC   C2312073   5.905   5.715   3.058 -0.0367 -0.0400 -0.1711
  242DPPC   C2412074   5.991   5.589   3.074 -0.4336 -0.2849  0.0386
  242DPPC   C2512075   6.051   5.588   3.215 -0.5215  0.2533  0.0814
  242DPPC   C2612076   6.144   5.469   3.235 -0.6207  0.2089  0.2789
  242DPPC   C2712077   6.067   5.337   3.235 -0.3528  0.0536  0.1040
  242DPPC   C2812078   6.161   5.222   3.274 -0.7922 -0.1797  0.4790
  242DPPC   C2912079   6.085   5.089   3.279 -0.3957 -0.4148  0.2430
  242DPPC   C3012080   6.182   4.976   3.316 -0.1500 -0.4434 -0.4679
  242DPPC   C3112081   6.102   4.845   3.323  0.1007 -0.5743 -0.0493
  242DPPC   C3212082   5.426   5.927   2.213 -0.7597 -0.2995 -0.3179
  242DPPC   O3312083   5.320   5.872   2.292 -0.3910 -0.6412 -0.0567
  242DPPC   C3412084   5.227   5.964   2.330  0.4553 -0.0315  0.5594
  242DPPC   O3512085   5.254   6.079   2.294  0.1657 -0.2637 -0.4388
  242DPPC   C3612086   5.123   5.930   2.437 -0.4270 -0.5929 -0.4562
  242DPPC   C3712087   4.992   5.880   2.376 -0.5441 -0.1127 -0.6020
  242DPPC   C3812088   4.893   5.811   2.470  0.0442  0.1703  0.2439
  242DPPC   C3912089   4.950   5.684   2.534 -0.1518 -0.0017  0.0818
  242DPPC   C4012090   4.831   5.610   2.595 -0.2793 -0.1303 -0.3209
  242DPPC   C4112091   4.888   5.477   2.646 -0.0600  0.0311 -0.1447
  242DPPC   C4212092   4.771   5.379   2.651  0.1648 -0.2558 -0.4849
  242DPPC   C4312093   4.825   5.245   2.701 -0.1387 -0.1278  0.2069
  242DPPC   C4412094   4.722   5.133   2.712 -0.1495 -0.1543 -0.1428
  242DPPC   C4512095   4.599   5.181   2.790 -0.1172  0.2442 -0.3360
  242DPPC   C4612096   4.528   5.058   2.845  0.2551  0.0429 -0.3006
  242DPPC   C4712097   4.467   4.979   2.728  0.2666  0.0337 -0.3002
  242DPPC   C4812098   4.411   4.840   2.760  0.3136  0.2744  0.8783
  242DPPC   C4912099   4.320   4.803   2.642  0.8969  0.8974  0.2309
  242DPPC   C5012100   4.209   4.907   2.626  0.0992 -0.0473 -0.4137
  243DPPC    C112101   8.242   6.219   1.583 -0.0437 -0.5143  0.1243
  243DPPC    C212102   8.397   6.140   1.755  0.1949 -0.1118 -0.5664
  243DPPC    C312103   8.172   6.045   1.711  0.1028 -0.6342  0.1403
  243DPPC    N412104   8.295   6.103   1.655 -0.0116 -0.6720 -0.1548
  243DPPC    C512105   8.344   5.991   1.573 -0.0145 -0.7841 -0.0055
  243DPPC    C612106   8.457   6.022   1.474 -0.1555 -0.2008  0.0127
  243DPPC    O712107   8.513   5.907   1.410  0.3147 -0.0284  0.1115
  243DPPC    P812108   8.651   5.953   1.342  0.2537 -0.2938 -0.1947
  243DPPC    O912109   8.658   6.089   1.284 -0.7622 -0.2291 -0.1755
  243DPPC   O1012110   8.700   5.833   1.270 -0.3347 -0.1835 -0.7884
  243DPPC   O1112111   8.735   5.979   1.477 -0.1624 -0.2228  0.0522
  243DPPC   C1212112   8.795   5.856   1.519  0.0646 -0.0856  0.1280
  243DPPC   C1312113   8.800   5.825   1.669 -0.0717  0.1922  0.1894
  243DPPC   O1412114   8.701   5.732   1.713  0.1867  0.2331  0.8659
  243DPPC   C1512115   8.711   5.597   1.694 -0.2618  0.3161 -0.0030
  243DPPC   O1612116   8.779   5.554   1.601  0.1133  0.0615  0.3845
  243DPPC   C1712117   8.599   5.525   1.769  0.0742  0.2057  0.4013
  243DPPC   C1812118   8.648   5.508   1.912  0.4769 -0.4919  0.1880
  243DPPC   C1912119   8.545   5.457   2.013 -0.1944  0.1632 -0.1565
  243DPPC   C2012120   8.426   5.553   2.028 -0.0046  0.4870 -0.7004
  243DPPC   C2112121   8.357   5.484   2.146  0.3391  0.6019 -0.4304
  243DPPC   C2212122   8.451   5.463   2.265 -0.4648  0.2332  0.1504
  243DPPC   C2312123   8.432   5.328   2.333  0.4967 -0.1743 -0.3682
  243DPPC   C2412124   8.505   5.304   2.466 -0.1032  0.0509  0.0061
  243DPPC   C2512125   8.498   5.152   2.476 -0.0180  0.0485  0.0340
  243DPPC   C2612126   8.576   5.105   2.599  0.1155  0.1527 -0.0105
  243DPPC   C2712127   8.510   5.168   2.722  0.1500  0.1703 -0.0009
  243DPPC   C2812128   8.577   5.133   2.856  0.4920  0.7736 -0.0109
  243DPPC   C2912129   8.521   5.198   2.982 -0.3963  0.1610 -0.0772
  243DPPC   C3012130   8.607   5.150   3.099 -0.5334  0.5407  0.1821
  243DPPC   C3112131   8.562   5.216   3.230 -0.0549  0.3453  0.4478
  243DPPC   C3212132   8.795   5.963   1.736 -0.0266  0.4650 -0.3647
  243DPPC   O3312133   8.787   5.965   1.878 -0.9332  0.0153 -0.4021
  243DPPC   C3412134   8.749   6.086   1.930  0.0456  0.0104  0.3455
  243DPPC   O3512135   8.721   6.180   1.857  0.4447 -0.0830  0.0639
  243DPPC   C3612136   8.718   6.078   2.080 -1.0932 -0.4456  0.0958
  243DPPC   C3712137   8.804   5.974   2.152 -0.2731  0.0406 -0.1640
  243DPPC   C3812138   8.762   5.955   2.298 -0.4060  0.4468 -0.1470
  243DPPC   C3912139   8.789   6.085   2.373  0.0732  0.1324  0.2258
  243DPPC   C4012140   8.769   6.055   2.522 -0.8437  0.4755  0.1757
  243DPPC   C4112141   8.804   6.176   2.608  0.3472 -0.1167  0.5449
  243DPPC   C4212142   8.723   6.296   2.557  0.3450 -0.2712  0.1822
  243DPPC   C4312143   8.746   6.401   2.666  0.1752  0.1735 -0.2088
  243DPPC   C4412144   8.894   6.439   2.654  0.1841  0.0257 -0.6134
  243DPPC   C4512145   8.929   6.551   2.753  0.1073  0.0260 -0.5861
  243DPPC   C4612146   9.078   6.571   2.780  0.1090  0.0791 -0.6330
  243DPPC   C4712147   9.117   6.426   2.812 -0.3651  0.1209  0.1376
  243DPPC   C4812148   9.242   6.418   2.901 -0.6520 -0.0470  0.5274
  243DPPC   C4912149   9.311   6.283   2.922  0.1235  0.1572 -0.6190
  243DPPC   C5012150   9.245   6.197   3.030 -0.0124 -0.1275 -0.9277
  244DPPC    C112151   6.684   3.066   1.611 -0.5070 -0.4033 -0.0238
  244DPPC    C212152   6.808   2.882   1.527 -0.5612  0.6847 -0.1341
  244DPPC    C312153   6.861   3.101   1.448 -0.1912  0.1705  0.2610
  244DPPC    N412154   6.817   3.023   1.565 -0.0257  0.4770  0.5278
  244DPPC    C512155   6.912   3.053   1.673  0.2289  0.6703  0.2534
  244DPPC    C612156   7.051   2.990   1.683 -0.0285  0.0198 -0.1996
  244DPPC    O712157   7.048   2.867   1.756  0.0999 -0.0048 -0.2356
  244DPPC    P812158   7.186   2.787   1.739  0.1383  0.0311 -0.0926
  244DPPC    O912159   7.290   2.871   1.675 -0.2623  0.4701 -0.1705
  244DPPC   O1012160   7.134   2.669   1.666  0.1728  0.2513 -0.4810
  244DPPC   O1112161   7.209   2.749   1.894  0.2246  0.2345 -0.0560
  244DPPC   C1212162   7.111   2.654   1.936  0.1176  0.6575  0.6694
  244DPPC   C1312163   7.122   2.624   2.085  0.0123 -0.6575  0.4188
  244DPPC   O1412164   7.064   2.732   2.159 -0.0013 -0.0162 -0.5127
  244DPPC   C1512165   6.945   2.703   2.218 -0.1871  0.1694 -0.7934
  244DPPC   O1612166   6.873   2.616   2.170 -0.2883 -0.3990  0.3444
  244DPPC   C1712167   6.886   2.808   2.313 -0.6950 -0.7086 -0.1149
  244DPPC   C1812168   6.860   2.763   2.456  0.4036 -0.0940  0.2918
  244DPPC   C1912169   6.994   2.743   2.526  0.4562  0.6980  0.4290
  244DPPC   C2012170   6.979   2.702   2.672  0.1192 -0.5082  0.0689
  244DPPC   C2112171   7.112   2.694   2.748  0.2468  0.4681 -0.0396
  244DPPC   C2212172   7.084   2.655   2.893  0.4211  0.4632 -0.0067
  244DPPC   C2312173   7.216   2.623   2.964  0.1022  0.0799  0.4230
  244DPPC   C2412174   7.203   2.636   3.115  0.1685 -0.3768  0.4715
  244DPPC   C2512175   7.130   2.766   3.150 -0.4272 -0.6165  0.1416
  244DPPC   C2612176   7.109   2.787   3.301  0.5829 -1.2002  0.3746
  244DPPC   C2712177   7.239   2.789   3.382  0.5364 -0.1255  0.4347
  244DPPC   C2812178   7.215   2.798   3.533 -0.0751 -0.3411  0.3538
  244DPPC   C2912179   7.344   2.790   3.615  0.1317  0.6571  0.1346
  244DPPC   C3012180   7.316   2.779   3.765  0.0570 -0.1246  0.0664
  244DPPC   C3112181   7.240   2.899   3.822  0.6778  0.3786 -0.1584
  244DPPC   C3212182   7.269   2.598   2.118  0.1206 -0.2231  0.2766
  244DPPC   O3312183   7.305   2.546   2.246 -1.0172 -0.2702  0.5869
  244DPPC   C3412184   7.354   2.642   2.328 -0.3229 -0.1777  0.0751
  244DPPC   O3512185   7.363   2.761   2.295  0.1098 -0.2004  0.1076
  244DPPC   C3612186   7.397   2.588   2.465  0.2481  0.5182  0.1753
  244DPPC   C3712187   7.542   2.542   2.449 -0.0917 -0.3333 -0.5405
  244DPPC   C3812188   7.596   2.459   2.566 -0.0360  0.1870 -0.1921
  244DPPC   C3912189   7.607   2.523   2.705  0.2064 -0.1891 -0.0370
  244DPPC   C4012190   7.714   2.450   2.786  0.4868 -0.1063 -0.3318
  244DPPC   C4112191   7.760   2.529   2.908 -0.5808 -0.2915  0.2029
  244DPPC   C4212192   7.710   2.469   3.039 -0.0315 -0.3671  0.3823
  244DPPC   C4312193   7.774   2.548   3.154  0.3209 -0.1042  0.0076
  244DPPC   C4412194   7.712   2.501   3.286 -0.6565  0.1181 -0.3674
  244DPPC   C4512195   7.560   2.521   3.282 -0.7200 -0.3211 -0.1327
  244DPPC   C4612196   7.479   2.475   3.404 -0.6058 -0.2809 -0.0419
  244DPPC   C4712197   7.509   2.334   3.454  0.1843 -0.2789 -0.4882
  244DPPC   C4812198   7.443   2.305   3.589 -0.1030  0.5183 -0.4518
  244DPPC   C4912199   7.509   2.395   3.694 -0.5054 -0.2771  0.4947
  244DPPC   C5012200   7.419   2.369   3.816 -0.3392 -1.0872  0.4495
  245DPPC    C112201   5.390   3.608   1.575  0.1025  0.0816  0.3833
  245DPPC    C212202   5.455   3.500   1.775  0.1033  0.1709  0.3878
  245DPPC    C312203   5.594   3.669   1.694  0.4167 -0.1156 -0.2136
  245DPPC    N412204   5.452   3.630   1.707  0.3979  0.1013  0.2405
  245DPPC    C512205   5.389   3.734   1.790 -0.8754 -0.3444 -0.1417
  245DPPC    C612206   5.341   3.863   1.724  0.0247  0.0349 -0.0818
  245DPPC    O712207   5.439   3.966   1.715  0.1026 -0.0555 -0.2675
  245DPPC    P812208   5.351   4.097   1.678  0.2914  0.1420 -0.0198
  245DPPC    O912209   5.269   4.058   1.561 -0.0293 -0.2252  0.3246
  245DPPC   O1012210   5.431   4.220   1.663  0.4450  0.0214 -0.1999
  245DPPC   O1112211   5.258   4.105   1.810 -0.0790  0.0009 -0.2718
  245DPPC   C1212212   5.330   4.151   1.925 -0.0942 -0.1343 -0.2079
  245DPPC   C1312213   5.239   4.191   2.041  0.3327 -0.0420  0.0936
  245DPPC   O1412214   5.302   4.260   2.150 -0.1748  0.5740  0.0073
  245DPPC   C1512215   5.312   4.396   2.151  0.0154  0.5607  0.1487
  245DPPC   O1612216   5.301   4.461   2.047 -0.0518 -0.3169 -0.4114
  245DPPC   C1712217   5.387   4.441   2.276 -0.0993  0.4109  0.2724
  245DPPC   C1812218   5.296   4.429   2.399 -0.3593  0.2465  0.0641
  245DPPC   C1912219   5.360   4.507   2.513  0.0636  0.2275 -0.1575
  245DPPC   C2012220   5.282   4.503   2.645  0.4116 -0.4763  0.0342
  245DPPC   C2112221   5.346   4.588   2.755  0.3449 -0.2175 -0.1269
  245DPPC   C2212222   5.242   4.587   2.866  0.4900  0.6710  0.0245
  245DPPC   C2312223   5.314   4.648   2.987  0.3036  0.5643  0.1905
  245DPPC   C2412224   5.212   4.639   3.101 -0.3253 -0.4985 -0.4369
  245DPPC   C2512225   5.275   4.684   3.233 -0.2124 -0.0611 -0.6373
  245DPPC   C2612226   5.193   4.628   3.349  0.3527 -0.0682 -0.2406
  245DPPC   C2712227   5.278   4.617   3.476  0.1133  0.2914 -0.0485
  245DPPC   C2812228   5.198   4.579   3.601  0.6453 -0.2670  0.1265
  245DPPC   C2912229   5.279   4.580   3.731  0.1162  0.0075  0.4583
  245DPPC   C3012230   5.203   4.527   3.853 -0.3756 -0.6540 -0.1239
  245DPPC   C3112231   5.301   4.522   3.971  0.1635  0.2587 -0.5186
  245DPPC   C3212232   5.158   4.066   2.072 -0.2289  0.3044  0.0298
  245DPPC   O3312233   5.244   3.965   2.126  0.1452  0.4081 -0.3733
  245DPPC   C3412234   5.181   3.844   2.129 -0.2668  0.6254 -0.1497
  245DPPC   O3512235   5.068   3.837   2.083 -0.1224  0.2317 -0.4478
  245DPPC   C3612236   5.270   3.726   2.169 -0.1703  0.7012 -0.1411
  245DPPC   C3712237   5.264   3.676   2.313 -0.1725  0.0374 -0.3691
  245DPPC   C3812238   5.384   3.587   2.346 -0.1197  0.1651 -0.2151
  245DPPC   C3912239   5.392   3.551   2.494  0.1803 -0.1518 -0.3076
  245DPPC   C4012240   5.513   3.464   2.531  0.4036  0.3186  0.0764
  245DPPC   C4112241   5.501   3.406   2.672  0.3388 -0.0660 -0.0870
  245DPPC   C4212242   5.638   3.365   2.726  0.0537 -0.3325  0.4481
  245DPPC   C4312243   5.618   3.352   2.877  0.5692  0.3605  0.5779
  245DPPC   C4412244   5.573   3.491   2.924  0.6542  0.6380 -0.1406
  245DPPC   C4512245   5.581   3.494   3.077 -0.0193 -0.5473 -0.0672
  245DPPC   C4612246   5.505   3.381   3.146  0.0493 -0.6444 -0.1497
  245DPPC   C4712247   5.513   3.390   3.299  0.0948  0.1987 -0.1980
  245DPPC   C4812248   5.428   3.287   3.373  0.2013  0.1072 -0.2043
  245DPPC   C4912249   5.447   3.312   3.523  0.3095 -1.0303 -0.0141
  245DPPC   C5012250   5.594   3.316   3.564  0.3671  0.5604 -0.2951
  246DPPC    C112251   9.244   7.972   1.420  0.3692  0.3811  0.0627
  246DPPC    C212252   9.414   8.099   1.507 -0.0582  0.3429  0.0622
  246DPPC    C312253   9.245   8.011   1.652 -0.2292  0.7892 -0.2328
  246DPPC    N412254   9.332   7.981   1.537  0.1797  0.2170  0.2182
  246DPPC    C512255   9.422   7.865   1.534  0.1856  0.2282  0.0128
  246DPPC    C612256   9.495   7.810   1.656 -0.1990 -0.2882  0.0159
  246DPPC    O712257   9.593   7.909   1.689 -0.4729 -0.0569  0.1306
  246DPPC    P812258   9.686   7.845   1.803  0.0755  0.2673 -0.1306
  246DPPC    O912259   9.803   7.935   1.818  0.3055 -0.0195 -0.2051
  246DPPC   O1012260   9.695   7.698   1.797 -0.1026  0.2265  0.5272
  246DPPC   O1112261   9.573   7.883   1.911  0.5211 -0.0125  0.4393
  246DPPC   C1212262   9.583   8.020   1.950  0.0397  0.2190 -0.2369
  246DPPC   C1312263   9.452   8.098   1.961  0.0278  0.1153  0.3737
  246DPPC   O1412264   9.482   8.235   1.993  0.0463  0.1448  0.2310
  246DPPC   C1512265   9.526   8.327   1.904 -0.9488  0.1820 -0.2303
  246DPPC   O1612266   9.513   8.294   1.786 -0.2627 -0.0816 -0.2354
  246DPPC   C1712267   9.602   8.451   1.953 -0.1640 -0.4031  0.0513
  246DPPC   C1812268   9.550   8.528   2.074  0.2852 -0.4554  0.2782
  246DPPC   C1912269   9.636   8.650   2.110  0.0479 -0.2033  0.0008
  246DPPC   C2012270   9.785   8.623   2.129  0.1621  0.5099  0.1184
  246DPPC   C2112271   9.840   8.581   2.266  0.0550  0.1223  0.0417
  246DPPC   C2212272   9.993   8.578   2.267  0.0596  0.2961 -0.0573
  246DPPC   C2312273  10.054   8.567   2.407  0.0460 -0.5891 -0.1164
  246DPPC   C2412274   9.985   8.448   2.474 -0.1009 -0.1394  0.5396
  246DPPC   C2512275   9.994   8.451   2.627  0.5900  0.4712  0.4910
  246DPPC   C2612276   9.908   8.342   2.691  0.5794  0.0508 -0.2255
  246DPPC   C2712277   9.927   8.337   2.843  0.0547  0.9884 -0.1208
  246DPPC   C2812278  10.062   8.285   2.891 -0.2370  0.1142 -0.2450
  246DPPC   C2912279  10.069   8.146   2.827 -0.4795 -0.1419  0.2717
  246DPPC   C3012280  10.191   8.075   2.886 -0.3013  0.1456  0.2516
  246DPPC   C3112281  10.191   7.940   2.814 -0.0423  0.2060  0.1402
  246DPPC   C3212282   9.342   8.049   2.055 -0.4444  0.2227 -0.1221
  246DPPC   O3312283   9.264   7.943   2.000 -0.1094 -0.0713 -0.0324
  246DPPC   C3412284   9.180   7.891   2.094 -0.3861  0.3474 -0.0455
  246DPPC   O3512285   9.196   7.918   2.213  0.4107 -0.6899  0.1009
  246DPPC   C3612286   9.097   7.778   2.033 -0.1825  0.6469 -0.8890
  246DPPC   C3712287   8.949   7.778   2.073  0.0182 -0.1593 -0.1282
  246DPPC   C3812288   8.928   7.705   2.206 -0.6700 -0.0798 -0.1902
  246DPPC   C3912289   8.783   7.707   2.256 -0.6145  0.8204 -0.0440
  246DPPC   C4012290   8.772   7.642   2.394  0.2259  0.3127 -0.2033
  246DPPC   C4112291   8.822   7.743   2.498 -0.3025  0.3860 -0.0170
  246DPPC   C4212292   8.790   7.694   2.640 -0.7050  0.3359 -0.1234
  246DPPC   C4312293   8.874   7.769   2.743  0.0419  0.2224 -0.6465
  246DPPC   C4412294   8.832   7.726   2.884  0.3919 -0.2860 -0.6936
  246DPPC   C4512295   8.953   7.698   2.973 -0.0221 -0.2499 -0.1194
  246DPPC   C4612296   9.027   7.829   3.000 -0.2755 -0.2151  0.4123
  246DPPC   C4712297   9.145   7.821   3.098  0.2498  0.1726 -0.1815
  246DPPC   C4812298   9.225   7.950   3.110  0.0737  0.2116  0.5972
  246DPPC   C4912299   9.275   8.001   2.975  0.1393 -0.3210  0.4183
  246DPPC   C5012300   9.369   8.122   2.975 -0.0506 -0.1623 -0.4718
  247DPPC    C112301   7.027   1.286   1.040  0.7256  0.1430 -0.1143
  247DPPC    C212302   7.269   1.304   1.057  0.0258  0.4266 -0.3701
  247DPPC    C312303   7.154   1.168   1.213 -0.2342 -0.6780 -0.3158
  247DPPC    N412304   7.153   1.216   1.074  0.5382 -0.2249 -0.1721
  247DPPC    C512305   7.142   1.101   0.983 -0.1957  0.1382 -0.5568
  247DPPC    C612306   7.258   1.002   0.974 -0.4238 -0.1403 -0.4539
  247DPPC    O712307   7.291   0.937   1.097 -0.0377 -0.2381 -0.6071
  247DPPC    P812308   7.451   0.948   1.107 -0.0903  0.3728 -0.4366
  247DPPC    O912309   7.469   1.053   1.210 -0.2209  0.0894 -0.1228
  247DPPC   O1012310   7.518   0.959   0.976  0.1710  0.8992 -0.2630
  247DPPC   O1112311   7.477   0.804   1.174  0.4913  0.4714 -0.4414
  247DPPC   C1212312   7.466   0.828   1.315  0.4282 -0.4556 -0.2823
  247DPPC   C1312313   7.474   0.705   1.405 -0.2366 -0.3024 -0.0088
  247DPPC   O1412314   7.437   0.736   1.541  0.0862  0.3630 -0.0713
  247DPPC   C1512315   7.306   0.727   1.575  0.0742  0.1100 -0.1772
  247DPPC   O1612316   7.209   0.721   1.500 -0.1464  0.1224  0.1034
  247DPPC   C1712317   7.284   0.757   1.724 -0.6805  0.3501 -0.3359
  247DPPC   C1812318   7.366   0.880   1.761 -0.1718 -0.2480  0.5344
  247DPPC   C1912319   7.351   0.908   1.911  0.2621 -0.3697  0.6032
  247DPPC   C2012320   7.436   1.020   1.972  0.2422  0.1040 -0.2191
  247DPPC   C2112321   7.389   1.064   2.111 -0.0201 -0.1012 -0.2439
  247DPPC   C2212322   7.384   0.946   2.208  0.2381  0.0004 -0.1075
  247DPPC   C2312323   7.304   0.978   2.335 -0.2311  0.4651 -0.5140
  247DPPC   C2412324   7.362   1.108   2.391  0.0479  0.2153 -0.2180
  247DPPC   C2512325   7.362   1.105   2.544  0.0155 -0.2764 -0.2266
  247DPPC   C2612326   7.429   1.216   2.625 -0.5220 -0.1512  0.0537
  247DPPC   C2712327   7.422   1.185   2.775  0.2712 -0.2129  0.0843
  247DPPC   C2812328   7.503   1.286   2.857  0.7743 -0.6355  0.1136
  247DPPC   C2912329   7.468   1.287   3.006 -0.3903  0.2698 -0.1518
  247DPPC   C3012330   7.537   1.179   3.089 -0.6501 -0.0380 -0.3341
  247DPPC   C3112331   7.512   1.194   3.239 -0.0978 -0.3416 -0.2100
  247DPPC   C3212332   7.621   0.674   1.377 -0.0677  0.2902  0.2144
  247DPPC   O3312333   7.711   0.636   1.481 -0.0686 -0.0027  0.1090
  247DPPC   C3412334   7.684   0.513   1.532 -0.0729  0.0323  0.1928
  247DPPC   O3512335   7.626   0.427   1.466  0.4211 -0.1787  0.0204
  247DPPC   C3612336   7.746   0.482   1.668 -0.0275  0.5380  0.2884
  247DPPC   C3712337   7.706   0.593   1.766  0.2840  0.8773  0.0330
  247DPPC   C3812338   7.805   0.617   1.880  0.7313  0.0628 -0.1695
  247DPPC   C3912339   7.748   0.727   1.970  0.0219  0.0440 -0.5874
  247DPPC   C4012340   7.824   0.743   2.102 -0.4601 -0.0971 -0.2890
  247DPPC   C4112341   7.778   0.848   2.203  0.0833  0.2482 -0.3940
  247DPPC   C4212342   7.859   0.863   2.332  0.2410  0.3058 -0.4996
  247DPPC   C4312343   7.823   0.997   2.396  0.3126 -0.1342  0.4689
  247DPPC   C4412344   7.885   1.011   2.535  0.3852  0.1861  0.4062
  247DPPC   C4512345   7.869   1.155   2.584  0.3051  0.2971  0.0525
  247DPPC   C4612346   7.923   1.157   2.727 -0.0501 -0.2573  0.1969
  247DPPC   C4712347   7.903   1.286   2.806 -0.0602 -0.1233 -0.0236
  247DPPC   C4812348   7.935   1.267   2.955 -0.1648 -0.1596 -0.0055
  247DPPC   C4912349   7.889   1.380   3.047 -0.3344 -0.5054  0.3367
  247DPPC   C5012350   7.929   1.354   3.192  0.2494  0.3126  0.3307
  248DPPC    C112351   6.300   1.288   1.735 -0.0295 -0.1677  0.0892
  248DPPC    C212352   6.438   1.459   1.846 -0.0123  0.3881  0.0961
  248DPPC    C312353   6.211   1.470   1.851  0.0200  0.0106  0.3461
  248DPPC    N412354   6.320   1.371   1.855  0.1541  0.1388 -0.1539
  248DPPC    C512355   6.328   1.299   1.983  0.0700  0.3305 -0.0407
  248DPPC    C612356   6.222   1.192   2.007  0.1316  0.4178  0.6407
  248DPPC    O712357   6.090   1.236   2.037 -0.0219  0.2002  0.2940
  248DPPC    P812358   5.978   1.127   1.997  0.1744  0.0788  0.0746
  248DPPC    O912359   5.998   1.085   1.857 -0.3705  0.0098  0.0180
  248DPPC   O1012360   5.851   1.192   2.035  0.3261  0.5065 -0.1471
  248DPPC   O1112361   6.012   1.009   2.102  0.4728 -0.0342 -0.1479
  248DPPC   C1212362   5.988   1.056   2.235  0.1379  0.0442 -0.2354
  248DPPC   C1312363   6.039   0.957   2.339 -0.3988 -0.0634 -0.0682
  248DPPC   O1412364   5.961   0.951   2.459  0.3937 -0.5886  0.4351
  248DPPC   C1512365   5.836   0.898   2.458  0.3015 -0.3738  0.0140
  248DPPC   O1612366   5.782   0.859   2.355  0.1882 -0.2949  0.0434
  248DPPC   C1712367   5.767   0.882   2.594 -0.0232 -0.3539 -0.1473
  248DPPC   C1812368   5.688   1.012   2.617  0.8985  0.2163 -0.1448
  248DPPC   C1912369   5.606   1.008   2.746  0.5955 -0.2684 -0.3484
  248DPPC   C2012370   5.689   0.985   2.871  0.1055  0.2296  0.0772
  248DPPC   C2112371   5.616   0.998   3.005 -0.2559  0.1988 -0.1183
  248DPPC   C2212372   5.705   1.043   3.121  0.0170 -0.2180 -0.1647
  248DPPC   C2312373   5.649   0.989   3.252 -0.0951  0.0986 -0.0814
  248DPPC   C2412374   5.732   1.013   3.378  0.3858 -0.3631 -0.3069
  248DPPC   C2512375   5.654   0.957   3.497  0.0070  0.2965 -0.2341
  248DPPC   C2612376   5.740   0.982   3.621  0.2564 -0.7771 -0.1779
  248DPPC   C2712377   5.655   0.967   3.748 -0.3366 -0.3008 -0.5160
  248DPPC   C2812378   5.540   1.067   3.734  0.0026  0.2094  0.2509
  248DPPC   C2912379   5.451   1.082   3.857 -0.4526  0.0310 -0.0531
  248DPPC   C3012380   5.393   1.220   3.892  0.2455  0.2503  0.2471
  248DPPC   C3112381   5.304   1.277   3.782  0.0325  0.4350  0.5150
  248DPPC   C3212382   6.190   0.961   2.364 -0.2942 -0.5099 -0.5999
  248DPPC   O3312383   6.230   1.097   2.385 -0.1328 -0.6959  0.3385
  248DPPC   C3412384   6.357   1.129   2.423 -0.1118 -0.0292 -0.2691
  248DPPC   O3512385   6.460   1.065   2.406 -0.0277  0.0952 -0.2344
  248DPPC   C3612386   6.354   1.277   2.462  0.1701  0.0639 -0.5960
  248DPPC   C3712387   6.475   1.315   2.548 -0.4683 -0.6609  0.6495
  248DPPC   C3812388   6.487   1.238   2.680  0.9042 -0.5945  0.5817
  248DPPC   C3912389   6.524   1.331   2.795  0.7677  0.2664 -0.0647
  248DPPC   C4012390   6.523   1.229   2.908  0.2491  0.4102  0.0630
  248DPPC   C4112391   6.586   1.305   3.026  0.4456  0.2178  0.0835
  248DPPC   C4212392   6.553   1.223   3.150  0.1347  0.2854  0.0467
  248DPPC   C4312393   6.613   1.275   3.281  0.1672  0.2954  0.0276
  248DPPC   C4412394   6.656   1.167   3.380 -0.0038  0.4934  0.3166
  248DPPC   C4512395   6.759   1.224   3.478  0.5860 -0.1349  0.0706
  248DPPC   C4612396   6.801   1.142   3.600 -0.0915 -0.1362  0.3070
  248DPPC   C4712397   6.922   1.208   3.666 -0.1090 -0.0162  0.2206
  248DPPC   C4812398   7.005   1.129   3.768  0.3945  0.2778  0.0424
  248DPPC   C4912399   7.083   1.007   3.718  0.0384  0.0482  0.0467
  248DPPC   C5012400   7.146   0.921   3.828  0.5285 -0.1078 -0.3546
  249DPPC    C112401   1.825   5.613   1.631 -0.4844 -0.3064 -0.0395
  249DPPC    C212402   1.997   5.728   1.508 -0.9111  0.7347  0.0889
  249DPPC    C312403   1.987   5.493   1.509 -0.0371  0.8798 -0.5464
  249DPPC    N412404   1.904   5.614   1.507 -0.6161  0.4925 -0.1181
  249DPPC    C512405   1.828   5.626   1.381 -0.4227  0.3140 -0.2515
  249DPPC    C612406   1.769   5.760   1.340  0.1813  0.5275 -0.4381
  249DPPC    O712407   1.656   5.807   1.415  0.0157 -0.1617 -0.2485
  249DPPC    P812408   1.641   5.965   1.386  0.2141 -0.0836  0.0597
  249DPPC    O912409   1.500   6.003   1.410  0.1461 -0.5861  0.4687
  249DPPC   O1012410   1.738   6.012   1.285  0.6340 -0.5867  0.2242
  249DPPC   O1112411   1.713   5.988   1.528 -0.2102  0.1248  0.2438
  249DPPC   C1212412   1.630   5.945   1.636 -0.1449 -0.2840  0.1315
  249DPPC   C1312413   1.705   5.924   1.768 -0.1189  0.1158  0.1808
  249DPPC   O1412414   1.616   5.915   1.881 -0.6167  0.7008 -0.1577
  249DPPC   C1512415   1.551   5.797   1.897  0.4897  0.0752 -0.1711
  249DPPC   O1612416   1.572   5.706   1.817 -0.5313 -0.4149  0.0965
  249DPPC   C1712417   1.463   5.771   2.020  0.2699  0.6303 -0.2075
  249DPPC   C1812418   1.542   5.766   2.151 -0.7176 -0.5556  0.3640
  249DPPC   C1912419   1.614   5.631   2.163  0.1071 -0.2337 -0.7602
  249DPPC   C2012420   1.696   5.642   2.291 -0.3017  0.4104 -0.5473
  249DPPC   C2112421   1.599   5.667   2.408 -0.1266  0.4774 -0.4154
  249DPPC   C2212422   1.663   5.675   2.547 -0.7556 -0.2337 -0.0824
  249DPPC   C2312423   1.725   5.544   2.597  0.5916  0.3857 -0.0940
  249DPPC   C2412424   1.796   5.579   2.728  0.1124  0.8940  0.0365
  249DPPC   C2512425   1.891   5.469   2.775 -0.5673  0.1976 -0.2006
  249DPPC   C2612426   1.933   5.503   2.918  0.7100 -0.6337 -0.3618
  249DPPC   C2712427   1.959   5.379   3.004  0.3750 -0.4870 -0.0490
  249DPPC   C2812428   1.966   5.424   3.151 -0.7125 -0.1662 -0.0855
  249DPPC   C2912429   1.954   5.297   3.235 -0.5477  0.1049  0.3504
  249DPPC   C3012430   1.817   5.230   3.245 -0.6495  0.3264  0.4376
  249DPPC   C3112431   1.820   5.084   3.292  0.0279  0.1899 -0.0140
  249DPPC   C3212432   1.800   6.044   1.776 -0.3102  0.2473  0.5388
  249DPPC   O3312433   1.901   6.051   1.877 -0.0525  0.1202  0.2907
  249DPPC   C3412434   1.993   5.951   1.882 -0.1524  0.0197  0.1367
  249DPPC   O3512435   2.004   5.863   1.796 -0.3485  0.1038  0.0266
  249DPPC   C3612436   2.096   5.960   1.995 -0.3019  0.3820  0.2454
  249DPPC   C3712437   2.057   5.860   2.104  0.3093 -0.0769  0.0501
  249DPPC   C3812438   2.162   5.825   2.208  0.1707 -0.1335  0.1716
  249DPPC   C3912439   2.106   5.752   2.331  0.0827  0.1244  0.2838
  249DPPC   C4012440   2.211   5.763   2.442  0.8834 -0.2029 -0.4295
  249DPPC   C4112441   2.149   5.691   2.562  0.0800  0.4133 -0.4631
  249DPPC   C4212442   2.256   5.677   2.671 -0.8137  0.7506  0.4757
  249DPPC   C4312443   2.308   5.814   2.713  0.4895  0.2785  0.4641
  249DPPC   C4412444   2.213   5.887   2.809 -0.3386  0.0615 -0.1765
  249DPPC   C4512445   2.250   5.851   2.953  0.4739 -0.0044 -0.4003
  249DPPC   C4612446   2.393   5.867   3.006  0.3096  1.1034 -0.2740
  249DPPC   C4712447   2.396   5.884   3.158 -0.6194 -0.0737 -0.1164
  249DPPC   C4812448   2.542   5.893   3.201 -0.6223 -0.7908  0.0533
  249DPPC   C4912449   2.569   5.925   3.348  0.0692 -0.0182 -0.2346
  249DPPC   C5012450   2.470   5.840   3.427  0.2326  0.0022 -0.0057
  250DPPC    C112451   8.687   8.137   1.127 -0.4002  0.6682 -0.0309
  250DPPC    C212452   8.875   8.191   1.258 -0.4878 -0.1812 -0.2631
  250DPPC    C312453   8.917   8.162   1.030  0.4037 -0.1452  0.0971
  250DPPC    N412454   8.815   8.210   1.125 -0.0306  0.0186 -0.4425
  250DPPC    C512455   8.806   8.351   1.085  0.0554  0.0976 -0.1857
  250DPPC    C612456   8.791   8.467   1.183 -0.3226 -0.4105  0.3685
  250DPPC    O712457   8.910   8.488   1.260  0.0403 -0.1478 -0.2562
  250DPPC    P812458   8.879   8.579   1.389  0.3141  0.2839 -0.4910
  250DPPC    O912459   8.815   8.700   1.333 -0.4776  0.3038  0.4371
  250DPPC   O1012460   9.016   8.585   1.446  0.0028  0.7056  0.2292
  250DPPC   O1112461   8.777   8.463   1.434  0.0410  0.5397 -0.4482
  250DPPC   C1212462   8.713   8.497   1.557  0.3818  0.1199 -0.1498
  250DPPC   C1312463   8.654   8.383   1.640 -0.2297  0.4312 -0.1446
  250DPPC   O1412464   8.568   8.426   1.746  0.1006  0.8042 -0.0260
  250DPPC   C1512465   8.438   8.385   1.745  0.5242 -0.6012  0.2922
  250DPPC   O1612466   8.392   8.315   1.655 -0.4833  0.3579  0.0393
  250DPPC   C1712467   8.346   8.439   1.854  0.2882 -0.0856 -0.1562
  250DPPC   C1812468   8.342   8.351   1.979  0.8371  0.2376  0.0884
  250DPPC   C1912469   8.291   8.440   2.093 -0.4144 -0.1703 -0.1502
  250DPPC   C2012470   8.281   8.360   2.223  0.3912 -0.1435 -0.0732
  250DPPC   C2112471   8.169   8.258   2.211  0.5135 -0.3081  0.1623
  250DPPC   C2212472   8.142   8.210   2.354  0.4101 -0.0469  0.2299
  250DPPC   C2312473   8.035   8.102   2.338  0.0371  0.3844 -0.1928
  250DPPC   C2412474   8.011   8.019   2.463  0.3878  0.6048  0.0223
  250DPPC   C2512475   7.884   7.933   2.456  0.7941  0.0099 -0.0925
  250DPPC   C2612476   7.849   7.872   2.591 -0.5023  0.4824 -0.2062
  250DPPC   C2712477   7.714   7.799   2.586 -0.3169  0.0967  0.3003
  250DPPC   C2812478   7.711   7.728   2.722 -0.1639 -0.0441  0.2294
  250DPPC   C2912479   7.749   7.820   2.838 -0.1529 -0.0626  0.2409
  250DPPC   C3012480   7.762   7.728   2.960  0.3731 -0.2272  0.0632
  250DPPC   C3112481   7.803   7.826   3.070  0.2815 -0.2984  0.1608
  250DPPC   C3212482   8.771   8.288   1.670 -0.0994  0.5205 -0.3658
  250DPPC   O3312483   8.873   8.360   1.739 -0.0764 -0.0727  0.2295
  250DPPC   C3412484   8.978   8.282   1.778 -0.1768 -0.1016  0.4400
  250DPPC   O3512485   8.983   8.163   1.747  0.4227  0.1488 -0.4506
  250DPPC   C3612486   9.087   8.339   1.869  0.2318 -0.5408  0.2290
  250DPPC   C3712487   9.029   8.357   2.010 -0.1459  0.3163 -0.0278
  250DPPC   C3812488   9.121   8.446   2.093 -0.1501 -0.2150  0.5540
  250DPPC   C3912489   9.061   8.463   2.233 -0.6708 -0.2292  0.3335
  250DPPC   C4012490   9.164   8.531   2.322 -0.0262 -0.7176 -0.0299
  250DPPC   C4112491   9.120   8.533   2.469  0.2293  0.1199  0.0452
  250DPPC   C4212492   9.223   8.601   2.559  0.2271 -0.3692  0.4267
  250DPPC   C4312493   9.353   8.521   2.561  0.2210 -0.3891  0.1302
  250DPPC   C4412494   9.351   8.380   2.622 -0.3211 -0.5491 -0.2563
  250DPPC   C4512495   9.494   8.325   2.621  0.0222  0.3232 -0.0559
  250DPPC   C4612496   9.517   8.259   2.486  0.2192 -0.1212  0.1931
  250DPPC   C4712497   9.656   8.196   2.484  0.0033 -0.5997  0.1398
  250DPPC   C4812498   9.687   8.134   2.347  0.0076 -0.2949  0.0026
  250DPPC   C4912499   9.833   8.088   2.338  0.1222  0.0363  0.1456
  250DPPC   C5012500   9.870   7.991   2.450  0.1863  0.0152  0.1058
  251DPPC    C112501   6.512   5.708   1.502 -0.5176 -0.2852  0.2049
  251DPPC    C212502   6.731   5.695   1.415  0.2425  0.6214 -0.1209
  251DPPC    C312503   6.578   5.850   1.324 -0.0021 -0.4977  0.3399
  251DPPC    N412504   6.623   5.789   1.449 -0.3434 -0.2885  0.5666
  251DPPC    C512505   6.666   5.890   1.547 -0.6117  0.2337  0.1514
  251DPPC    C612506   6.582   6.013   1.582  0.4284  0.8283  0.6201
  251DPPC    O712507   6.466   5.986   1.662  0.3585 -0.7737  0.0186
  251DPPC    P812508   6.387   6.103   1.740  0.3744 -0.4613 -0.4320
  251DPPC    O912509   6.282   6.021   1.804 -0.0408  0.5440  0.2011
  251DPPC   O1012510   6.351   6.212   1.647  0.0420 -0.3959 -0.2243
  251DPPC   O1112511   6.491   6.162   1.848 -0.5600  0.3493  0.0383
  251DPPC   C1212512   6.538   6.043   1.911 -0.1091  0.2721 -0.4374
  251DPPC   C1312513   6.630   6.073   2.030 -0.2623 -0.0885 -0.2236
  251DPPC   O1412514   6.690   5.952   2.077 -0.1198 -0.1688 -0.6080
  251DPPC   C1512515   6.825   5.941   2.072 -0.0251  0.5353  0.3401
  251DPPC   O1612516   6.894   5.990   1.982  0.0862 -0.3477 -0.0595
  251DPPC   C1712517   6.880   5.837   2.170  1.0529  0.5374 -0.2501
  251DPPC   C1812518   6.926   5.908   2.297  0.3692  0.3924  0.0799
  251DPPC   C1912519   6.981   5.808   2.399  0.2807  0.4228  0.1587
  251DPPC   C2012520   7.103   5.734   2.343 -0.4889 -0.0518 -0.9164
  251DPPC   C2112521   7.216   5.832   2.315 -0.3001 -0.0708 -0.2239
  251DPPC   C2212522   7.336   5.756   2.257 -0.5006  0.2035 -1.0078
  251DPPC   C2312523   7.467   5.830   2.230 -0.4955  0.4602 -0.3184
  251DPPC   C2412524   7.568   5.730   2.173 -0.4232  0.5965 -0.4316
  251DPPC   C2512525   7.705   5.798   2.174 -0.0619 -0.1193  0.4244
  251DPPC   C2612526   7.784   5.729   2.285  0.5360 -0.3665 -0.1499
  251DPPC   C2712527   7.910   5.816   2.295 -0.4483  1.0376  0.2264
  251DPPC   C2812528   8.000   5.822   2.172 -0.7100  0.5459  0.0114
  251DPPC   C2912529   8.130   5.893   2.209 -0.5293  0.1463  0.1478
  251DPPC   C3012530   8.230   5.902   2.094  0.1229 -0.1592  0.6827
  251DPPC   C3112531   8.367   5.939   2.151  0.2425 -0.0209  0.3090
  251DPPC   C3212532   6.552   6.164   2.125  0.1156  0.5119 -0.4761
  251DPPC   O3312533   6.638   6.254   2.195  0.0588  0.3111 -0.1447
  251DPPC   C3412534   6.564   6.339   2.272  0.1776  0.0197  0.2974
  251DPPC   O3512535   6.442   6.342   2.259  0.2339  0.3431 -0.2175
  251DPPC   C3612536   6.629   6.435   2.371  0.7890 -0.3710  0.2800
  251DPPC   C3712537   6.533   6.442   2.490  0.7296  0.9299  0.1685
  251DPPC   C3812538   6.607   6.516   2.603  1.1390  0.5524  0.1486
  251DPPC   C3912539   6.553   6.481   2.742  0.3011  0.1119 -0.2791
  251DPPC   C4012540   6.594   6.577   2.854 -1.0450  0.6405 -0.2167
  251DPPC   C4112541   6.555   6.510   2.986 -0.0668  0.4356 -0.0253
  251DPPC   C4212542   6.597   6.603   3.101  0.8292 -0.6165  0.5161
  251DPPC   C4312543   6.583   6.544   3.241 -0.0294 -0.1003  0.6533
  251DPPC   C4412544   6.444   6.485   3.264 -0.1570  0.1743  0.5931
  251DPPC   C4512545   6.423   6.435   3.408 -0.1895 -0.1604  0.4739
  251DPPC   C4612546   6.440   6.565   3.487  0.8910  0.0473 -0.0805
  251DPPC   C4712547   6.442   6.538   3.638  0.3455  0.3857 -0.0096
  251DPPC   C4812548   6.303   6.524   3.699  0.3315  0.0042 -0.1264
  251DPPC   C4912549   6.230   6.659   3.696  0.3424  0.0100 -0.1325
  251DPPC   C5012550   6.086   6.655   3.747  0.1398  0.6629 -0.6447
  252DPPC    C112551   4.421   2.611   1.742  0.0447  0.3665  0.3434
  252DPPC    C212552   4.618   2.636   1.889 -0.1066  0.4257  0.2347
  252DPPC    C312553   4.426   2.750   1.926 -0.2774 -0.3440  0.4365
  252DPPC    N412554   4.472   2.619   1.879 -0.0403 -0.2519  0.4112
  252DPPC    C512555   4.422   2.495   1.941  0.3776 -0.5260  0.2084
  252DPPC    C612556   4.276   2.456   1.965  0.4318 -0.3301  0.8703
  252DPPC    O712557   4.204   2.557   2.035 -0.3418 -0.1834 -0.1113
  252DPPC    P812558   4.070   2.490   2.095 -0.3210 -0.1315 -0.0055
  252DPPC    O912559   4.112   2.374   2.177  0.6088  0.1360 -0.0929
  252DPPC   O1012560   3.980   2.472   1.979 -0.1588  0.4478 -0.2222
  252DPPC   O1112561   4.032   2.616   2.186  0.0449 -0.2449  0.3075
  252DPPC   C1212562   4.132   2.634   2.287  0.0439  0.2886  0.2172
  252DPPC   C1312563   4.193   2.774   2.289  0.7712 -0.0007 -0.7406
  252DPPC   O1412564   4.303   2.793   2.380  0.1500  0.0618  0.0114
  252DPPC   C1512565   4.414   2.868   2.359 -0.1791  0.7022  0.5077
  252DPPC   O1612566   4.432   2.936   2.258 -0.4034 -0.2158 -0.1673
  252DPPC   C1712567   4.505   2.872   2.482  0.5401  0.7136 -0.0180
  252DPPC   C1812568   4.594   2.748   2.489 -0.5555 -0.0890 -0.0712
  252DPPC   C1912569   4.649   2.737   2.631 -0.4566 -0.2529 -0.1216
  252DPPC   C2012570   4.755   2.628   2.651  0.2429  0.3967 -0.2154
  252DPPC   C2112571   4.778   2.591   2.798 -0.0795  0.1174 -0.2345
  252DPPC   C2212572   4.820   2.446   2.821 -0.4900 -0.0040 -0.2325
  252DPPC   C2312573   4.820   2.418   2.972 -0.4860 -0.0037 -0.2325
  252DPPC   C2412574   4.865   2.274   2.993 -0.6178  0.0325  0.2949
  252DPPC   C2512575   4.912   2.237   3.134 -0.2858 -0.0971  0.1506
  252DPPC   C2612576   4.966   2.095   3.147 -0.2875 -0.1046  0.0765
  252DPPC   C2712577   4.851   2.003   3.108 -0.0631 -0.3201 -0.0855
  252DPPC   C2812578   4.896   1.865   3.058  0.2189 -0.4359  0.4824
  252DPPC   C2912579   5.011   1.876   2.958 -0.4747 -0.0062 -0.2841
  252DPPC   C3012580   5.099   1.751   2.944  0.0697  0.2038  1.0452
  252DPPC   C3112581   5.229   1.783   2.870 -0.3176 -0.2233  0.1672
  252DPPC   C3212582   4.079   2.874   2.312  0.8069 -0.2181  0.4736
  252DPPC   O3312583   3.997   2.854   2.427  0.1763  0.3210  0.1251
  252DPPC   C3412584   3.889   2.936   2.423  0.0597  0.1500 -0.3259
  252DPPC   O3512585   3.866   2.999   2.320 -0.4181  0.1671 -0.2132
  252DPPC   C3612586   3.805   2.946   2.551  0.1574 -0.2450 -0.2280
  252DPPC   C3712587   3.692   2.844   2.534 -0.1991  0.0893  0.1056
  252DPPC   C3812588   3.591   2.839   2.649 -0.1963  0.2180  0.1139
  252DPPC   C3912589   3.670   2.797   2.773  0.4198  0.0589 -0.3299
  252DPPC   C4012590   3.585   2.791   2.900  0.4805 -0.1550 -0.2997
  252DPPC   C4112591   3.662   2.725   3.014 -0.1476 -0.1773  0.1118
  252DPPC   C4212592   3.709   2.581   2.990 -0.0871 -0.0521 -0.5281
  252DPPC   C4312593   3.793   2.530   3.108 -0.2223 -0.0745 -0.4415
  252DPPC   C4412594   3.843   2.390   3.071 -0.0941 -0.1209 -0.0938
  252DPPC   C4512595   3.988   2.377   3.118 -0.0636 -0.4396 -0.2757
  252DPPC   C4612596   4.053   2.240   3.100  0.4563 -0.2940  0.4494
  252DPPC   C4712597   4.058   2.205   2.951  0.6424 -0.2147  0.4370
  252DPPC   C4812598   4.140   2.076   2.948  0.6970 -0.1823  0.5287
  252DPPC   C4912599   4.064   1.979   3.040  0.0766 -0.1271  0.0838
  252DPPC   C5012600   4.116   1.835   3.034  0.5122  0.0340 -0.0853
  253DPPC    C112601   3.768   7.549   1.788  0.8038  0.0067  0.1354
  253DPPC    C212602   3.739   7.781   1.736 -0.1901  0.1097  0.6898
  253DPPC    C312603   3.561   7.619   1.689  0.1039 -0.7654 -0.0498
  253DPPC    N412604   3.670   7.658   1.779  0.2559 -0.5188 -0.3386
  253DPPC    C512605   3.611   7.672   1.913  0.3398  0.1184 -0.3630
  253DPPC    C612606   3.691   7.687   2.043 -0.0866 -0.0229 -0.0802
  253DPPC    O712607   3.748   7.813   2.081 -0.1862 -0.0560  0.1776
  253DPPC    P812608   3.905   7.801   2.114 -0.1384 -0.3772 -0.1655
  253DPPC    O912609   3.976   7.930   2.104  0.6311 -0.7941 -0.1464
  253DPPC   O1012610   3.957   7.697   2.022  0.5633  0.0297 -0.2351
  253DPPC   O1112611   3.898   7.754   2.268  0.2228 -0.0402 -0.0448
  253DPPC   C1212612   3.824   7.849   2.345  0.2477 -0.1733  0.1436
  253DPPC   C1312613   3.747   7.780   2.458 -0.1717 -0.0467 -0.0655
  253DPPC   O1412614   3.651   7.857   2.532 -0.1333 -0.1198  0.0601
  253DPPC   C1512615   3.520   7.858   2.493 -0.0556  0.4487 -0.1901
  253DPPC   O1612616   3.484   7.798   2.392  0.0445 -0.1364  0.1203
  253DPPC   C1712617   3.422   7.933   2.583 -0.0777 -0.1738  0.3087
  253DPPC   C1812618   3.278   7.893   2.552 -0.0493  0.0197 -0.0841
  253DPPC   C1912619   3.191   7.977   2.647 -0.5321 -0.2753 -0.2599
  253DPPC   C2012620   3.047   7.929   2.665 -0.6708 -0.0128 -0.6524
  253DPPC   C2112621   3.004   7.991   2.797  0.0043 -0.1685 -0.3536
  253DPPC   C2212622   2.865   7.936   2.832 -0.0087  0.0069 -0.1201
  253DPPC   C2312623   2.816   8.018   2.951  0.1096 -0.8407  0.5244
  253DPPC   C2412624   2.665   8.020   2.974  0.0050 -0.4169 -0.1569
  253DPPC   C2512625   2.622   8.075   3.110  0.0777 -0.0355 -0.2875
  253DPPC   C2612626   2.477   8.040   3.147  0.1505 -0.0676 -0.0337
  253DPPC   C2712627   2.380   8.110   3.051 -0.1801 -0.0082  0.3427
  253DPPC   C2812628   2.327   8.249   3.087 -0.8588 -0.1654 -0.0461
  253DPPC   C2912629   2.256   8.311   2.966 -0.3709  0.4153 -0.0387
  253DPPC   C3012630   2.211   8.447   3.020 -0.0596  0.5325 -0.0762
  253DPPC   C3112631   2.130   8.541   2.932 -0.3828 -0.2436 -0.6184
  253DPPC   C3212632   3.854   7.718   2.547 -0.9197  0.0256  0.9084
  253DPPC   O3312633   3.957   7.793   2.612 -0.1798 -0.1610 -0.0199
  253DPPC   C3412634   4.056   7.727   2.677 -0.0583  0.0318 -0.0094
  253DPPC   O3512635   4.052   7.604   2.686 -0.2847  0.0205 -0.2439
  253DPPC   C3612636   4.176   7.807   2.729  0.0682 -0.2919  0.2027
  253DPPC   C3712637   4.165   7.869   2.869  0.1079 -0.6480  0.3645
  253DPPC   C3812638   4.294   7.947   2.889 -0.3131  0.2027 -0.1762
  253DPPC   C3912639   4.306   8.084   2.821  0.2450  0.3940  0.2930
  253DPPC   C4012640   4.434   8.156   2.866  0.3478 -0.0778  0.7700
  253DPPC   C4112641   4.560   8.070   2.854  0.2721 -0.0449 -0.4144
  253DPPC   C4212642   4.667   8.126   2.948  0.0320 -0.2120 -0.0381
  253DPPC   C4312643   4.770   8.014   2.959  0.3965  0.0562 -0.6655
  253DPPC   C4412644   4.883   8.065   3.050 -0.1302  0.4532 -0.2248
  253DPPC   C4512645   5.010   7.985   3.021 -0.3779 -0.1642  0.3730
  253DPPC   C4612646   5.124   8.031   3.111 -0.3834 -0.5052  0.5583
  253DPPC   C4712647   5.243   7.940   3.080 -0.3468 -0.3506  0.2426
  253DPPC   C4812648   5.352   7.968   3.183 -0.3029 -0.1268  0.1364
  253DPPC   C4912649   5.469   7.870   3.203 -0.2204 -0.0779 -0.1042
  253DPPC   C5012650   5.558   7.897   3.324 -0.3424  0.0617 -0.0439
  254DPPC    C112651   3.071   1.469   2.433  0.5917  0.0330 -0.0576
  254DPPC    C212652   2.978   1.689   2.414  0.0046 -0.5638 -0.2138
  254DPPC    C312653   3.093   1.586   2.237  0.4764  0.0949  0.6810
  254DPPC    N412654   2.996   1.561   2.344 -0.2190 -0.6572 -0.1005
  254DPPC    C512655   2.873   1.499   2.292 -0.2690 -0.1021 -0.6422
  254DPPC    C612656   2.796   1.555   2.172 -0.5434  0.4777 -0.2019
  254DPPC    O712657   2.661   1.589   2.203 -0.6262 -0.3401  0.3864
  254DPPC    P812658   2.611   1.659   2.067  0.0646 -0.0523  0.2796
  254DPPC    O912659   2.668   1.580   1.956 -0.3699 -0.0851  0.0759
  254DPPC   O1012660   2.637   1.802   2.097  0.2315 -0.0755  0.2444
  254DPPC   O1112661   2.463   1.625   2.119  0.1006 -0.3541  0.1874
  254DPPC   C1212662   2.418   1.719   2.218 -0.4471 -0.0665 -0.3298
  254DPPC   C1312663   2.272   1.717   2.263 -0.3809  0.4424 -0.0833
  254DPPC   O1412664   2.228   1.801   2.370  0.4356  0.4066  0.2828
  254DPPC   C1512665   2.248   1.935   2.361 -0.0655  0.4451 -0.2967
  254DPPC   O1612666   2.297   2.000   2.269  0.8896  0.2749  0.0849
  254DPPC   C1712667   2.188   2.012   2.479 -0.3866  0.3661 -0.4070
  254DPPC   C1812668   2.294   2.076   2.569 -0.1270 -0.2299 -0.2896
  254DPPC   C1912669   2.230   2.119   2.701 -0.3212 -0.3149 -0.3568
  254DPPC   C2012670   2.345   2.152   2.795 -0.6681 -0.4242  0.1099
  254DPPC   C2112671   2.290   2.232   2.913 -0.2457  0.3888 -0.2371
  254DPPC   C2212672   2.369   2.198   3.039  0.2125  0.0242 -0.6216
  254DPPC   C2312673   2.378   2.054   3.089  0.0771  0.2676  0.1221
  254DPPC   C2412674   2.268   2.014   3.188  0.1282  0.2588  0.1748
  254DPPC   C2512675   2.293   1.872   3.240  0.3059  0.0733 -0.4112
  254DPPC   C2612676   2.185   1.844   3.344  0.3127  0.4149 -0.3108
  254DPPC   C2712677   2.192   1.713   3.422  0.0798  0.5794 -0.0094
  254DPPC   C2812678   2.329   1.723   3.491  0.1916 -0.3889 -0.0822
  254DPPC   C2912679   2.362   1.599   3.575  0.4464 -0.0566  0.3090
  254DPPC   C3012680   2.248   1.562   3.671  0.0062 -0.5027 -0.3750
  254DPPC   C3112681   2.304   1.453   3.762  0.0706 -0.1545  0.0050
  254DPPC   C3212682   2.256   1.566   2.287 -0.3197  0.5237  0.4644
  254DPPC   O3312683   2.326   1.515   2.401 -0.4083 -0.0827  0.2501
  254DPPC   C3412684   2.352   1.382   2.393  0.3672  0.0728  0.0682
  254DPPC   O3512685   2.314   1.315   2.297 -0.2231  0.2135  0.1960
  254DPPC   C3612686   2.437   1.327   2.508  0.5733 -0.3375 -0.2801
  254DPPC   C3712687   2.356   1.230   2.594 -0.0716  0.1913 -0.2874
  254DPPC   C3812688   2.450   1.171   2.699 -0.3154  0.7683  0.2641
  254DPPC   C3912689   2.383   1.069   2.790  0.2370  0.3297  0.1889
  254DPPC   C4012690   2.486   1.018   2.891 -0.0186  0.0775  0.3274
  254DPPC   C4112691   2.433   0.904   2.978 -0.3472  0.0498  0.0913
  254DPPC   C4212692   2.558   0.834   3.030 -0.4453 -0.5211 -0.4338
  254DPPC   C4312693   2.642   0.900   3.139 -0.6932 -0.1112 -0.4896
  254DPPC   C4412694   2.745   0.796   3.183 -0.4916  0.3032  0.0264
  254DPPC   C4512695   2.819   0.829   3.313 -0.0245 -0.0537 -0.1445
  254DPPC   C4612696   2.732   0.838   3.439 -0.1970  0.3867 -0.2919
  254DPPC   C4712697   2.825   0.828   3.561 -0.2171  0.0354 -0.3034
  254DPPC   C4812698   2.754   0.815   3.696  0.3941 -0.1498  0.0040
  254DPPC   C4912699   2.856   0.804   3.809  0.0379 -1.1406  0.2457
  254DPPC   C5012700   2.808   0.865   3.941  0.2816 -0.3456 -0.0247
  255DPPC    C112701   1.499   7.703   1.752 -0.2094  0.2061  0.0849
  255DPPC    C212702   1.507   7.474   1.677 -0.1752 -0.0811  0.2762
  255DPPC    C312703   1.343   7.611   1.596 -0.4648 -0.0207  0.4544
  255DPPC    N412704   1.484   7.613   1.637 -0.4350 -0.1019  0.3544
  255DPPC    C512705   1.566   7.663   1.526 -0.0412 -0.6335  0.4016
  255DPPC    C612706   1.718   7.677   1.529 -0.0948 -0.1173  0.7760
  255DPPC    O712707   1.808   7.566   1.526  0.2480  0.1705 -0.2349
  255DPPC    P812708   1.963   7.604   1.506  0.2174  0.3432 -0.1469
  255DPPC    O912709   1.967   7.725   1.422  0.7973  0.2334 -0.2827
  255DPPC   O1012710   2.032   7.477   1.473  0.1301  0.3276 -0.2685
  255DPPC   O1112711   1.972   7.631   1.665  0.1482 -0.3153 -0.0280
  255DPPC   C1212712   1.956   7.504   1.730 -0.2004 -0.1248  0.2577
  255DPPC   C1312713   1.975   7.506   1.881 -0.1385  0.0362  0.2476
  255DPPC   O1412714   1.983   7.376   1.940 -0.2532 -0.1864 -0.2326
  255DPPC   C1512715   2.108   7.323   1.954  0.0291  0.4063 -0.4802
  255DPPC   O1612716   2.208   7.367   1.899  0.1659  0.0711 -0.5033
  255DPPC   C1712717   2.117   7.190   2.030  0.3729  0.7933  0.1609
  255DPPC   C1812718   2.002   7.149   2.121  0.3965  0.2841 -0.0355
  255DPPC   C1912719   2.042   7.035   2.215 -0.0918 -0.0848 -0.2745
  255DPPC   C2012720   1.919   6.971   2.280 -0.4002  0.1432 -0.6294
  255DPPC   C2112721   1.848   6.877   2.182  0.0937 -0.7212 -0.1691
  255DPPC   C2212722   1.719   6.820   2.240 -0.0367 -0.2139  0.0461
  255DPPC   C2312723   1.740   6.718   2.353  0.1230 -0.0625  0.1538
  255DPPC   C2412724   1.610   6.694   2.431  0.0185  0.2401  0.0765
  255DPPC   C2512725   1.641   6.570   2.515  0.2482 -0.0387 -0.4155
  255DPPC   C2612726   1.532   6.542   2.618  0.0966  0.0157 -0.5609
  255DPPC   C2712727   1.541   6.394   2.657  0.2854  0.1947  0.0797
  255DPPC   C2812728   1.423   6.354   2.746  0.2646  0.3178  0.1087
  255DPPC   C2912729   1.429   6.437   2.874 -0.0892  0.4262  0.0544
  255DPPC   C3012730   1.354   6.345   2.970 -0.1024 -0.1239 -0.4748
  255DPPC   C3112731   1.419   6.211   3.004  0.2213  0.2097  0.2441
  255DPPC   C3212732   1.869   7.606   1.929 -0.0002  0.4207 -0.2385
  255DPPC   O3312733   1.877   7.672   2.056 -0.0202  0.1332 -0.0863
  255DPPC   C3412734   1.755   7.721   2.091 -0.2508 -0.4886 -0.0005
  255DPPC   O3512735   1.660   7.704   2.015  0.0141  0.1943 -0.5016
  255DPPC   C3612736   1.722   7.772   2.231 -0.2859 -0.1902 -0.1153
  255DPPC   C3712737   1.794   7.904   2.256 -0.5168 -0.0895  0.0252
  255DPPC   C3812738   1.750   7.962   2.390 -0.2608 -0.0274  0.0826
  255DPPC   C3912739   1.820   8.095   2.419 -0.1907  0.0093 -0.2569
  255DPPC   C4012740   1.784   8.129   2.564  0.3031  0.4911 -0.2423
  255DPPC   C4112741   1.841   8.269   2.587 -0.2235  0.6741 -0.0424
  255DPPC   C4212742   1.818   8.321   2.729  0.2494  0.0841  0.2564
  255DPPC   C4312743   1.909   8.239   2.821  0.3554 -0.1355 -0.0447
  255DPPC   C4412744   1.834   8.173   2.937  0.0419 -0.0646 -0.2061
  255DPPC   C4512745   1.943   8.092   3.008 -0.0544  0.6770  0.7974
  255DPPC   C4612746   1.893   8.030   3.138  0.1302  0.3533  0.7145
  255DPPC   C4712747   1.994   7.937   3.205 -0.0179 -0.3335 -0.0069
  255DPPC   C4812748   1.960   7.790   3.180 -0.0182 -0.3514  0.1013
  255DPPC   C4912749   2.069   7.705   3.245  0.0088 -0.5489 -0.2006
  255DPPC   C5012750   2.064   7.734   3.395 -0.1400 -0.1208 -0.2878
  256DPPC    C112751   2.695   6.745   1.784  0.2785  0.2846 -0.3546
  256DPPC    C212752   2.657   6.519   1.834  0.8208 -0.2141  0.3575
  256DPPC    C312753   2.546   6.633   1.646  0.2540 -0.8794  0.2544
  256DPPC    N412754   2.670   6.614   1.723  0.2886 -0.0774  0.4099
  256DPPC    C512755   2.781   6.587   1.631  0.0582  0.6104 -0.0815
  256DPPC    C612756   2.822   6.440   1.621 -0.4866  0.4354  0.2433
  256DPPC    O712757   2.722   6.368   1.548 -0.4584  0.1572  0.4764
  256DPPC    P812758   2.768   6.215   1.533 -0.3523  0.2252  0.1049
  256DPPC    O912759   2.915   6.222   1.518 -0.3717 -0.0346 -0.2317
  256DPPC   O1012760   2.670   6.172   1.431 -0.0061 -0.0260 -0.1225
  256DPPC   O1112761   2.715   6.179   1.681  0.2865 -0.0959  0.2570
  256DPPC   C1212762   2.575   6.172   1.655  0.3424 -0.1577 -0.0313
  256DPPC   C1312763   2.497   6.119   1.776  0.2532 -0.2703 -0.1374
  256DPPC   O1412764   2.451   6.222   1.865 -0.1258 -0.2610 -0.3420
  256DPPC   C1512765   2.326   6.273   1.853 -0.1410 -0.1067  0.4309
  256DPPC   O1612766   2.259   6.266   1.750  0.3086 -0.0493  0.1338
  256DPPC   C1712767   2.293   6.377   1.960 -0.4175  0.4240 -0.1646
  256DPPC   C1812768   2.218   6.304   2.072 -0.1659  0.4212  0.0014
  256DPPC   C1912769   2.172   6.419   2.162  0.4999  0.2546  0.5671
  256DPPC   C2012770   2.088   6.353   2.272 -0.3552 -0.1401 -0.3086
  256DPPC   C2112771   2.065   6.458   2.380  0.0179  0.4581 -0.8007
  256DPPC   C2212772   2.183   6.518   2.457 -0.4121  0.2253  0.0563
  256DPPC   C2312773   2.132   6.602   2.574  0.0248 -0.0246  0.4303
  256DPPC   C2412774   2.093   6.739   2.517  0.4848 -0.0393  0.0703
  256DPPC   C2512775   2.047   6.817   2.641  1.0053 -0.7194  0.7058
  256DPPC   C2612776   1.939   6.749   2.725  0.0588  0.1640  0.2370
  256DPPC   C2712777   1.909   6.807   2.863 -0.5168  0.5374 -0.0434
  256DPPC   C2812778   1.781   6.749   2.922 -0.1027 -0.0596  0.2766
  256DPPC   C2912779   1.808   6.604   2.964 -0.0047 -0.1283 -0.0215
  256DPPC   C3012780   1.709   6.563   3.073  0.0827 -0.1766  0.0398
  256DPPC   C3112781   1.764   6.434   3.135  0.6305  0.0141 -0.0392
  256DPPC   C3212782   2.581   6.003   1.829  0.2848 -0.2968 -0.2463
  256DPPC   O3312783   2.524   5.919   1.929 -0.1368 -0.2246 -0.4214
  256DPPC   C3412784   2.598   5.814   1.975 -0.1066  0.0403  0.1403
  256DPPC   O3512785   2.717   5.802   1.948 -0.1120  0.4761 -0.0815
  256DPPC   C3612786   2.509   5.710   2.044  0.0549  0.0115  0.3062
  256DPPC   C3712787   2.580   5.647   2.165  0.0019  0.0180  0.3406
  256DPPC   C3812788   2.486   5.584   2.267  0.1509 -0.1021  0.4032
  256DPPC   C3912789   2.439   5.448   2.214 -0.0768  0.0478  0.2180
  256DPPC   C4012790   2.332   5.394   2.309 -0.0964  0.5425  0.4801
  256DPPC   C4112791   2.400   5.376   2.445  0.6949 -0.1923 -0.0015
  256DPPC   C4212792   2.286   5.345   2.543  0.3267 -0.0335 -0.3732
  256DPPC   C4312793   2.217   5.216   2.499  0.5357 -0.3007  0.0725
  256DPPC   C4412794   2.113   5.161   2.596  0.4666  0.0566  0.2027
  256DPPC   C4512795   2.063   5.023   2.550 -0.4192  0.2491  0.5523
  256DPPC   C4612796   1.949   4.983   2.643 -0.5939 -0.2066  0.1433
  256DPPC   C4712797   1.997   4.973   2.788  0.3752 -0.5115 -0.1895
  256DPPC   C4812798   1.875   4.969   2.881  0.8198  0.0887  0.4294
  256DPPC   C4912799   1.864   4.823   2.926  0.1714  0.0906  0.2761
  256DPPC   C5012800   1.740   4.815   3.015  0.3714  0.4642  0.5879
   9.48825   8.49895   7.06544
